                         Program Version 4.2.1 -  RELEASE  -
|  1> ! wB97X-D3 SP def2-SVP
|  2> %pal
|  3> nprocs 16
|  4> end
|  5>
|  6> * xyz 0 1
|  7> S 	 -13.1756 	 32.5348 	 33.8297
|  8> C 	 -12.2639 	 32.7478 	 32.3475
|  9> C 	 -12.9212 	 33.6046 	 31.4699
| 10> C 	 -14.1942 	 34.0382 	 31.999
| 11> C 	 -14.4632 	 33.6389 	 33.3032
| 12> H 	 -14.9831 	 34.6988 	 31.5232
| 13> C 	 -12.4003 	 34.0624 	 30.1178
| 14> H 	 -12.916 	 33.5144 	 29.2641
| 15> H 	 -11.4416 	 33.5859 	 30.2766
| 16> C 	 -12.2401 	 35.5433 	 29.8475
| 17> H 	 -13.1027 	 35.8198 	 29.2402
| 18> H 	 -12.1757 	 36.0214 	 30.8068
| 19> C 	 -11.0398 	 35.8226 	 28.9561
| 20> H 	 -11.1875 	 36.6293 	 28.2312
| 21> H 	 -10.1565 	 36.0517 	 29.5092
| 22> H 	 -10.8448 	 34.9945 	 28.2936
| 23> S 	 -15.1901 	 34.6191 	 35.6892
| 24> C 	 -16.7922 	 35.086 	 36.0085
| 25> C 	 -17.6725 	 34.7584 	 34.975
| 26> C 	 -16.9552 	 34.191 	 33.9159
| 27> C 	 -15.6084 	 34.0976 	 34.116
| 28> H 	 -18.7161 	 34.9895 	 35.1169
| 29> C 	 -17.6252 	 33.8016 	 32.6364
| 30> H 	 -18.548 	 33.2788 	 32.8235
| 31> H 	 -16.9828 	 33.0602 	 32.1255
| 32> C 	 -17.8797 	 35.0065 	 31.7687
| 33> H 	 -16.9679 	 35.6089 	 31.6578
| 34> H 	 -18.5656 	 35.6114 	 32.3355
| 35> C 	 -18.5335 	 34.8199 	 30.4292
| 36> H 	 -19.5895 	 34.5004 	 30.625
| 37> H 	 -18.0954 	 33.9498 	 29.9136
| 38> H 	 -18.3333 	 35.5672 	 29.7034
| 39> H 	 -11.2595 	 32.2898 	 32.186
| 40> H 	 -17.1691 	 35.7088 	 36.8099
| 41> *
| 42>
| 43>                          ****END OF INPUT****

CARTESIAN COORDINATES (ANGSTROEM)
---------------------------------
  S    -13.175600   32.534800   33.829700
  C    -12.263900   32.747800   32.347500
  C    -12.921200   33.604600   31.469900
  C    -14.194200   34.038200   31.999000
  C    -14.463200   33.638900   33.303200
  H    -14.983100   34.698800   31.523200
  C    -12.400300   34.062400   30.117800
  H    -12.916000   33.514400   29.264100
  H    -11.441600   33.585900   30.276600
  C    -12.240100   35.543300   29.847500
  H    -13.102700   35.819800   29.240200
  H    -12.175700   36.021400   30.806800
  C    -11.039800   35.822600   28.956100
  H    -11.187500   36.629300   28.231200
  H    -10.156500   36.051700   29.509200
  H    -10.844800   34.994500   28.293600
  S    -15.190100   34.619100   35.689200
  C    -16.792200   35.086000   36.008500
  C    -17.672500   34.758400   34.975000
  C    -16.955200   34.191000   33.915900
  C    -15.608400   34.097600   34.116000
  H    -18.716100   34.989500   35.116900
  C    -17.625200   33.801600   32.636400
  H    -18.548000   33.278800   32.823500
  H    -16.982800   33.060200   32.125500
  C    -17.879700   35.006500   31.768700
  H    -16.967900   35.608900   31.657800
  H    -18.565600   35.611400   32.335500
  C    -18.533500   34.819900   30.429200
  H    -19.589500   34.500400   30.625000
  H    -18.095400   33.949800   29.913600
  H    -18.333300   35.567200   29.703400
  H    -11.259500   32.289800   32.186000
  H    -17.169100   35.708800   36.809900

 Total Charge           Charge          ....    0
 Multiplicity           Mult            ....    1
 Number of Electrons    NEL             ....  134
 Basis Dimension        Dim             ....  322

ORBITAL ENERGIES
----------------

  NO   OCC          E(Eh)            E(eV)
   0   2.0000     -88.967711     -2420.9345
   1   2.0000     -88.966150     -2420.8920
   2   2.0000     -10.333388      -281.1858
   3   2.0000     -10.322352      -280.8855
   4   2.0000     -10.321057      -280.8502
   5   2.0000     -10.312629      -280.6209
   6   2.0000     -10.305295      -280.4213
   7   2.0000     -10.297868      -280.2192
   8   2.0000     -10.297235      -280.2020
   9   2.0000     -10.291737      -280.0524
  10   2.0000     -10.291381      -280.0427
  11   2.0000     -10.285107      -279.8720
  12   2.0000     -10.283881      -279.8386
  13   2.0000     -10.280565      -279.7484
  14   2.0000     -10.277182      -279.6563
  15   2.0000     -10.273394      -279.5533
  16   2.0000      -8.082557      -219.9376
  17   2.0000      -8.081734      -219.9152
  18   2.0000      -6.040775      -164.3778
  19   2.0000      -6.040350      -164.3663
  20   2.0000      -6.036729      -164.2678
  21   2.0000      -6.036323      -164.2567
  22   2.0000      -6.033617      -164.1831
  23   2.0000      -6.032434      -164.1509
  24   2.0000      -1.015598       -27.6358
  25   2.0000      -0.985323       -26.8120
  26   2.0000      -0.918978       -25.0067
  27   2.0000      -0.914920       -24.8962
  28   2.0000      -0.871640       -23.7185
  29   2.0000      -0.858472       -23.3602
  30   2.0000      -0.845755       -23.0142
  31   2.0000      -0.816688       -22.2232
  32   2.0000      -0.783155       -21.3107
  33   2.0000      -0.771754       -21.0005
  34   2.0000      -0.709772       -19.3139
  35   2.0000      -0.697733       -18.9863
  36   2.0000      -0.691234       -18.8094
  37   2.0000      -0.667238       -18.1565
  38   2.0000      -0.637713       -17.3531
  39   2.0000      -0.615479       -16.7480
  40   2.0000      -0.597217       -16.2511
  41   2.0000      -0.584546       -15.9063
  42   2.0000      -0.571728       -15.5575
  43   2.0000      -0.557402       -15.1677
  44   2.0000      -0.530041       -14.4232
  45   2.0000      -0.528005       -14.3678
  46   2.0000      -0.514944       -14.0123
  47   2.0000      -0.511825       -13.9275
  48   2.0000      -0.504242       -13.7211
  49   2.0000      -0.502798       -13.6818
  50   2.0000      -0.496993       -13.5239
  51   2.0000      -0.480574       -13.0771
  52   2.0000      -0.475372       -12.9355
  53   2.0000      -0.470789       -12.8108
  54   2.0000      -0.462357       -12.5814
  55   2.0000      -0.446536       -12.1509
  56   2.0000      -0.435859       -11.8603
  57   2.0000      -0.434693       -11.8286
  58   2.0000      -0.432797       -11.7770
  59   2.0000      -0.425154       -11.5690
  60   2.0000      -0.420142       -11.4326
  61   2.0000      -0.411689       -11.2026
  62   2.0000      -0.409308       -11.1378
  63   2.0000      -0.349870        -9.5204
  64   2.0000      -0.335348        -9.1253
  65   2.0000      -0.328897        -8.9498
  66   2.0000      -0.291988        -7.9454
  67   0.0000       0.034663         0.9432
  68   0.0000       0.068905         1.8750
  69   0.0000       0.118035         3.2119
  70   0.0000       0.121852         3.3158
  71   0.0000       0.132070         3.5938

MULLIKEN ATOMIC CHARGES
-----------------------
   0 S :    0.109448
   1 C :   -0.144909
   2 C :   -0.116726
   3 C :    0.009765
   4 C :   -0.133290
   5 H :    0.023107
   6 C :    0.046797
   7 H :    0.054815
   8 H :    0.002700
   9 C :   -0.026478
  10 H :    0.029904
  11 H :    0.038513
  12 C :   -0.048753
  13 H :    0.025298
  14 H :    0.034027
  15 H :    0.022188
  16 S :    0.128744
  17 C :   -0.089074
  18 C :   -0.057796
  19 C :   -0.026118
  20 C :   -0.170995
  21 H :    0.019693
  22 C :    0.083034
  23 H :    0.012837
  24 H :    0.025519
  25 C :   -0.092341
  26 H :    0.026804
  27 H :    0.014069
  28 C :   -0.005726
  29 H :    0.035646
  30 H :    0.011563
  31 H :    0.033857
  32 H :    0.071546
  33 H :    0.052332
Sum of atomic charges:   -0.0000000

LOEWDIN ATOMIC CHARGES
----------------------
   0 S :    0.390562
   1 C :   -0.206813
   2 C :   -0.068148
   3 C :   -0.074069
   4 C :   -0.190075
   5 H :    0.039190
   6 C :   -0.041205
   7 H :    0.040463
   8 H :    0.026773
   9 C :   -0.039591
  10 H :    0.029428
  11 H :    0.028047
  12 C :   -0.063196
  13 H :    0.026816
  14 H :    0.023329
  15 H :    0.024340
  16 S :    0.452235
  17 C :   -0.200320
  18 C :   -0.070756
  19 C :   -0.057237
  20 C :   -0.210882
  21 H :    0.034088
  22 C :   -0.029701
  23 H :    0.027186
  24 H :    0.029484
  25 C :   -0.045983
  26 H :    0.021124
  27 H :    0.021120
  28 C :   -0.068786
  29 H :    0.032802
  30 H :    0.024388
  31 H :    0.025618
  32 H :    0.039643
  33 H :    0.030125

  Mayer bond orders larger than 0.100000
B(  0-S ,  1-C ) :   1.1329 B(  0-S ,  4-C ) :   1.1400 B(  1-C ,  2-C ) :   1.6221
B(  1-C , 32-H ) :   0.9549 B(  2-C ,  3-C ) :   1.2197 B(  2-C ,  6-C ) :   1.0162
B(  3-C ,  4-C ) :   1.5891 B(  3-C ,  5-H ) :   0.9823 B(  4-C , 20-C ) :   1.0237
B(  6-C ,  7-H ) :   0.9284 B(  6-C ,  8-H ) :   0.9432 B(  6-C ,  9-C ) :   1.0634
B(  9-C , 10-H ) :   0.9489 B(  9-C , 11-H ) :   0.9625 B(  9-C , 12-C ) :   1.0886
B( 12-C , 13-H ) :   0.9749 B( 12-C , 14-H ) :   0.9758 B( 12-C , 15-H ) :   0.9742
B( 16-S , 17-C ) :   1.1888 B( 16-S , 20-C ) :   1.1555 B( 17-C , 18-C ) :   1.5833
B( 17-C , 20-C ) :   0.1009 B( 17-C , 33-H ) :   0.9644 B( 18-C , 19-C ) :   1.2493
B( 18-C , 21-H ) :   0.9992 B( 19-C , 20-C ) :   1.5938 B( 19-C , 22-C ) :   1.0551
B( 22-C , 23-H ) :   0.9268 B( 22-C , 24-H ) :   0.9265 B( 22-C , 25-C ) :   1.0650
B( 25-C , 26-H ) :   0.9480 B( 25-C , 27-H ) :   0.9525 B( 25-C , 28-C ) :   1.0873
B( 28-C , 29-H ) :   0.9703 B( 28-C , 30-H ) :   0.9694 B( 28-C , 31-H ) :   0.9720

Dispersion correction           -0.014022352
FINAL SINGLE POINT ENERGY     -1339.871290396636

DIPOLE MOMENT
-------------
                                X             Y             Z
Electronic contribution:      3.77600      -9.39925      28.21642
Nuclear contribution   :     -3.99377       9.71704     -28.73347
                        -----------------------------------------
Total Dipole Moment    :     -0.21777       0.31779      -0.51705
                        -----------------------------------------
Magnitude (a.u.)       :      0.64479
Magnitude (Debye)      :      1.63893

Rotational constants in cm-1:     0.017142     0.008884     0.006728
Rotational constants in MHz :   513.908259   266.346023   201.700482

                             ****ORCA TERMINATED NORMALLY****
TOTAL RUN TIME: 0 days 0 hours 0 minutes 34 seconds 506 msec
