                         Program Version 4.2.1 -  RELEASE  -
|  1> ! wB97X-D3 SP def2-SVP
|  2> %pal
|  3> nprocs 16
|  4> end
|  5>
|  6> * xyz 0 1
|  7> S 	 -109.251 	 43.0399 	 124.789
|  8> C 	 -108.599 	 43.8719 	 126.084
|  9> C 	 -107.675 	 44.8287 	 125.663
| 10> C 	 -107.469 	 44.8639 	 124.271
| 11> C 	 -108.195 	 43.8627 	 123.675
| 12> H 	 -106.73 	 45.4661 	 123.733
| 13> C 	 -106.749 	 45.5796 	 126.529
| 14> H 	 -107.302 	 45.828 	 127.405
| 15> H 	 -106.755 	 46.5124 	 125.955
| 16> C 	 -105.324 	 45.0176 	 126.644
| 17> H 	 -105.35 	 43.8868 	 126.722
| 18> H 	 -104.836 	 45.3666 	 125.76
| 19> C 	 -104.609 	 45.5848 	 127.882
| 20> H 	 -105.184 	 46.1519 	 128.578
| 21> H 	 -104.199 	 44.8047 	 128.493
| 22> H 	 -103.767 	 46.2366 	 127.501
| 23> S 	 -107.236 	 41.934 	 122.062
| 24> C 	 -107.487 	 42.05 	 120.316
| 25> C 	 -108.121 	 43.1766 	 119.971
| 26> C 	 -108.397 	 44.0354 	 121.093
| 27> C 	 -108.067 	 43.4631 	 122.332
| 28> H 	 -108.426 	 43.3244 	 118.903
| 29> C 	 -109.166 	 45.3551 	 120.987
| 30> H 	 -109.382 	 45.7046 	 122.027
| 31> H 	 -110.093 	 45.3253 	 120.444
| 32> C 	 -108.237 	 46.3511 	 120.139
| 33> H 	 -107.889 	 45.8703 	 119.234
| 34> H 	 -107.33 	 46.6523 	 120.707
| 35> C 	 -108.831 	 47.6532 	 119.619
| 36> H 	 -109.27 	 48.3318 	 120.36
| 37> H 	 -109.684 	 47.4129 	 118.937
| 38> H 	 -108.047 	 48.2269 	 119.153
| 39> H 	 -108.744 	 43.6501 	 127.117
| 40> H 	 -107.046 	 41.4064 	 119.608
| 41> *
| 42>
| 43>                          ****END OF INPUT****

CARTESIAN COORDINATES (ANGSTROEM)
---------------------------------
  S    -109.251000   43.039900  124.789000
  C    -108.599000   43.871900  126.084000
  C    -107.675000   44.828700  125.663000
  C    -107.469000   44.863900  124.271000
  C    -108.195000   43.862700  123.675000
  H    -106.730000   45.466100  123.733000
  C    -106.749000   45.579600  126.529000
  H    -107.302000   45.828000  127.405000
  H    -106.755000   46.512400  125.955000
  C    -105.324000   45.017600  126.644000
  H    -105.350000   43.886800  126.722000
  H    -104.836000   45.366600  125.760000
  C    -104.609000   45.584800  127.882000
  H    -105.184000   46.151900  128.578000
  H    -104.199000   44.804700  128.493000
  H    -103.767000   46.236600  127.501000
  S    -107.236000   41.934000  122.062000
  C    -107.487000   42.050000  120.316000
  C    -108.121000   43.176600  119.971000
  C    -108.397000   44.035400  121.093000
  C    -108.067000   43.463100  122.332000
  H    -108.426000   43.324400  118.903000
  C    -109.166000   45.355100  120.987000
  H    -109.382000   45.704600  122.027000
  H    -110.093000   45.325300  120.444000
  C    -108.237000   46.351100  120.139000
  H    -107.889000   45.870300  119.234000
  H    -107.330000   46.652300  120.707000
  C    -108.831000   47.653200  119.619000
  H    -109.270000   48.331800  120.360000
  H    -109.684000   47.412900  118.937000
  H    -108.047000   48.226900  119.153000
  H    -108.744000   43.650100  127.117000
  H    -107.046000   41.406400  119.608000

 Total Charge           Charge          ....    0
 Multiplicity           Mult            ....    1
 Number of Electrons    NEL             ....  134
 Basis Dimension        Dim             ....  322

ORBITAL ENERGIES
----------------

  NO   OCC          E(Eh)            E(eV)
   0   2.0000     -88.966499     -2420.9015
   1   2.0000     -88.958889     -2420.6944
   2   2.0000     -10.321525      -280.8630
   3   2.0000     -10.320230      -280.8277
   4   2.0000     -10.310212      -280.5551
   5   2.0000     -10.306140      -280.4443
   6   2.0000     -10.303511      -280.3728
   7   2.0000     -10.295824      -280.1636
   8   2.0000     -10.293769      -280.1077
   9   2.0000     -10.290657      -280.0230
  10   2.0000     -10.290421      -280.0166
  11   2.0000     -10.289722      -279.9976
  12   2.0000     -10.287671      -279.9418
  13   2.0000     -10.280144      -279.7369
  14   2.0000     -10.276868      -279.6478
  15   2.0000     -10.276144      -279.6281
  16   2.0000      -8.082738      -219.9425
  17   2.0000      -8.073700      -219.6965
  18   2.0000      -6.041038      -164.3850
  19   2.0000      -6.036955      -164.2739
  20   2.0000      -6.033710      -164.1856
  21   2.0000      -6.032265      -164.1463
  22   2.0000      -6.028209      -164.0359
  23   2.0000      -6.024370      -163.9315
  24   2.0000      -1.014570       -27.6078
  25   2.0000      -0.986235       -26.8368
  26   2.0000      -0.915942       -24.9241
  27   2.0000      -0.898064       -24.4376
  28   2.0000      -0.878410       -23.9027
  29   2.0000      -0.856841       -23.3158
  30   2.0000      -0.844628       -22.9835
  31   2.0000      -0.818167       -22.2634
  32   2.0000      -0.779084       -21.1999
  33   2.0000      -0.764519       -20.8036
  34   2.0000      -0.710673       -19.3384
  35   2.0000      -0.701041       -19.0763
  36   2.0000      -0.692143       -18.8342
  37   2.0000      -0.656467       -17.8634
  38   2.0000      -0.644278       -17.5317
  39   2.0000      -0.619794       -16.8654
  40   2.0000      -0.592745       -16.1294
  41   2.0000      -0.570432       -15.5222
  42   2.0000      -0.562085       -15.2951
  43   2.0000      -0.556556       -15.1447
  44   2.0000      -0.529455       -14.4072
  45   2.0000      -0.524683       -14.2774
  46   2.0000      -0.515542       -14.0286
  47   2.0000      -0.511674       -13.9234
  48   2.0000      -0.508989       -13.8503
  49   2.0000      -0.502485       -13.6733
  50   2.0000      -0.497237       -13.5305
  51   2.0000      -0.477102       -12.9826
  52   2.0000      -0.475620       -12.9423
  53   2.0000      -0.467268       -12.7150
  54   2.0000      -0.453101       -12.3295
  55   2.0000      -0.446427       -12.1479
  56   2.0000      -0.440655       -11.9908
  57   2.0000      -0.439550       -11.9608
  58   2.0000      -0.427799       -11.6410
  59   2.0000      -0.424363       -11.5475
  60   2.0000      -0.416838       -11.3427
  61   2.0000      -0.415025       -11.2934
  62   2.0000      -0.408953       -11.1282
  63   2.0000      -0.345290        -9.3958
  64   2.0000      -0.327819        -8.9204
  65   2.0000      -0.322009        -8.7623
  66   2.0000      -0.295872        -8.0511
  67   0.0000       0.038590         1.0501
  68   0.0000       0.064516         1.7556
  69   0.0000       0.118422         3.2224
  70   0.0000       0.125586         3.4174
  71   0.0000       0.130971         3.5639

MULLIKEN ATOMIC CHARGES
-----------------------
   0 S :    0.146200
   1 C :   -0.100656
   2 C :   -0.128002
   3 C :    0.040123
   4 C :   -0.200323
   5 H :    0.025453
   6 C :    0.067746
   7 H :    0.007025
   8 H :    0.019414
   9 C :   -0.046451
  10 H :    0.053236
  11 H :    0.029161
  12 C :   -0.044393
  13 H :    0.025428
  14 H :    0.027978
  15 H :    0.039626
  16 S :    0.094991
  17 C :   -0.070944
  18 C :   -0.046850
  19 C :   -0.010148
  20 C :   -0.177496
  21 H :    0.040826
  22 C :    0.086877
  23 H :    0.041528
  24 H :    0.024563
  25 C :   -0.125098
  26 H :    0.029400
  27 H :    0.030222
  28 C :   -0.045545
  29 H :    0.026304
  30 H :    0.030459
  31 H :    0.034572
  32 H :    0.033545
  33 H :    0.041227
Sum of atomic charges:    0.0000000

LOEWDIN ATOMIC CHARGES
----------------------
   0 S :    0.450741
   1 C :   -0.225775
   2 C :   -0.069404
   3 C :   -0.053045
   4 C :   -0.209695
   5 H :    0.038560
   6 C :   -0.039644
   7 H :    0.021451
   8 H :    0.034562
   9 C :   -0.034584
  10 H :    0.034621
  11 H :    0.024001
  12 C :   -0.067698
  13 H :    0.019404
  14 H :    0.024564
  15 H :    0.034927
  16 S :    0.387182
  17 C :   -0.170211
  18 C :   -0.078868
  19 C :   -0.050309
  20 C :   -0.199581
  21 H :    0.042737
  22 C :   -0.025909
  23 H :    0.035642
  24 H :    0.026153
  25 C :   -0.044693
  26 H :    0.022260
  27 H :    0.024718
  28 C :   -0.072670
  29 H :    0.021908
  30 H :    0.025608
  31 H :    0.026606
  32 H :    0.024150
  33 H :    0.022292

  Mayer bond orders larger than 0.100000
B(  0-S ,  1-C ) :   1.1539 B(  0-S ,  4-C ) :   1.1748 B(  1-C ,  2-C ) :   1.5805
B(  1-C , 32-H ) :   0.9716 B(  2-C ,  3-C ) :   1.2553 B(  2-C ,  6-C ) :   1.0300
B(  3-C ,  4-C ) :   1.5480 B(  3-C ,  5-H ) :   0.9963 B(  4-C , 20-C ) :   1.0484
B(  6-C ,  7-H ) :   0.9372 B(  6-C ,  8-H ) :   0.9329 B(  6-C ,  9-C ) :   1.0414
B(  9-C , 10-H ) :   0.9680 B(  9-C , 11-H ) :   0.9574 B(  9-C , 12-C ) :   1.0643
B( 12-C , 13-H ) :   0.9811 B( 12-C , 14-H ) :   0.9789 B( 12-C , 15-H ) :   0.9802
B( 16-S , 17-C ) :   1.1371 B( 16-S , 20-C ) :   1.1354 B( 17-C , 18-C ) :   1.6563
B( 17-C , 33-H ) :   0.9675 B( 18-C , 19-C ) :   1.2074 B( 18-C , 21-H ) :   0.9778
B( 19-C , 20-C ) :   1.6085 B( 19-C , 22-C ) :   1.0509 B( 22-C , 23-H ) :   0.9364
B( 22-C , 24-H ) :   0.9442 B( 22-C , 25-C ) :   1.0334 B( 25-C , 26-H ) :   0.9631
B( 25-C , 27-H ) :   0.9570 B( 25-C , 28-C ) :   1.0880 B( 28-C , 29-H ) :   0.9733
B( 28-C , 30-H ) :   0.9731 B( 28-C , 31-H ) :   0.9727

Dispersion correction           -0.013853697
FINAL SINGLE POINT ENERGY     -1339.864586105182

DIPOLE MOMENT
-------------
                                X             Y             Z
Electronic contribution:     -8.86237     -22.86502      -1.38893
Nuclear contribution   :      9.12415      23.29264       1.33182
                        -----------------------------------------
Total Dipole Moment    :      0.26178       0.42762      -0.05711
                        -----------------------------------------
Magnitude (a.u.)       :      0.50463
Magnitude (Debye)      :      1.28266

Rotational constants in cm-1:     0.018010     0.007959     0.006810
Rotational constants in MHz :   539.921824   238.598017   204.164454

                             ****ORCA TERMINATED NORMALLY****
TOTAL RUN TIME: 0 days 0 hours 0 minutes 32 seconds 580 msec
