                         Program Version 4.2.1 -  RELEASE  -
|  1> ! wB97X-D3 SP def2-SVP
|  2> %pal
|  3> nprocs 16
|  4> end
|  5>
|  6> * xyz 0 1
|  7> S 	 -14.1145 	 40.6474 	 30.6102
|  8> C 	 -15.0409 	 39.9695 	 31.9381
|  9> C 	 -15.6469 	 38.8194 	 31.5183
| 10> C 	 -15.3072 	 38.4008 	 30.203
| 11> C 	 -14.4734 	 39.2895 	 29.5927
| 12> H 	 -15.5077 	 37.5002 	 29.7492
| 13> C 	 -16.4791 	 37.8963 	 32.3885
| 14> H 	 -16.6719 	 38.5136 	 33.2618
| 15> H 	 -15.784 	 37.0494 	 32.6643
| 16> C 	 -17.906 	 37.5519 	 31.9587
| 17> H 	 -17.8387 	 36.8376 	 31.05
| 18> H 	 -18.3366 	 36.9928 	 32.8444
| 19> C 	 -18.8453 	 38.7815 	 31.7397
| 20> H 	 -18.3808 	 39.4211 	 30.9336
| 21> H 	 -19.8486 	 38.6354 	 31.3311
| 22> H 	 -18.9909 	 39.4682 	 32.5894
| 23> S 	 -12.9823 	 37.6622 	 28.0781
| 24> C 	 -12.2497 	 38.1982 	 26.6275
| 25> C 	 -12.8952 	 39.3343 	 26.253
| 26> C 	 -13.8305 	 39.9212 	 27.1726
| 27> C 	 -13.8517 	 39.1105 	 28.317
| 28> H 	 -12.5713 	 39.7435 	 25.3158
| 29> C 	 -14.5485 	 41.1662 	 26.9763
| 30> H 	 -14.1197 	 41.75 	 26.1853
| 31> H 	 -14.4741 	 41.7803 	 27.857
| 32> C 	 -16.058 	 40.8693 	 26.6239
| 33> H 	 -16.684 	 41.7535 	 26.4829
| 34> H 	 -16.5626 	 40.3061 	 27.322
| 35> C 	 -16.0795 	 40.2145 	 25.22
| 36> H 	 -15.6072 	 39.1906 	 25.1122
| 37> H 	 -15.482 	 40.9322 	 24.6428
| 38> H 	 -17.0149 	 40.2763 	 24.7035
| 39> H 	 -15.2109 	 40.5393 	 32.8385
| 40> H 	 -11.4366 	 37.7137 	 26.0981
| 41> *
| 42>
| 43>                          ****END OF INPUT****

CARTESIAN COORDINATES (ANGSTROEM)
---------------------------------
  S    -14.114500   40.647400   30.610200
  C    -15.040900   39.969500   31.938100
  C    -15.646900   38.819400   31.518300
  C    -15.307200   38.400800   30.203000
  C    -14.473400   39.289500   29.592700
  H    -15.507700   37.500200   29.749200
  C    -16.479100   37.896300   32.388500
  H    -16.671900   38.513600   33.261800
  H    -15.784000   37.049400   32.664300
  C    -17.906000   37.551900   31.958700
  H    -17.838700   36.837600   31.050000
  H    -18.336600   36.992800   32.844400
  C    -18.845300   38.781500   31.739700
  H    -18.380800   39.421100   30.933600
  H    -19.848600   38.635400   31.331100
  H    -18.990900   39.468200   32.589400
  S    -12.982300   37.662200   28.078100
  C    -12.249700   38.198200   26.627500
  C    -12.895200   39.334300   26.253000
  C    -13.830500   39.921200   27.172600
  C    -13.851700   39.110500   28.317000
  H    -12.571300   39.743500   25.315800
  C    -14.548500   41.166200   26.976300
  H    -14.119700   41.750000   26.185300
  H    -14.474100   41.780300   27.857000
  C    -16.058000   40.869300   26.623900
  H    -16.684000   41.753500   26.482900
  H    -16.562600   40.306100   27.322000
  C    -16.079500   40.214500   25.220000
  H    -15.607200   39.190600   25.112200
  H    -15.482000   40.932200   24.642800
  H    -17.014900   40.276300   24.703500
  H    -15.210900   40.539300   32.838500
  H    -11.436600   37.713700   26.098100

 Total Charge           Charge          ....    0
 Multiplicity           Mult            ....    1
 Number of Electrons    NEL             ....  134
 Basis Dimension        Dim             ....  322

ORBITAL ENERGIES
----------------

  NO   OCC          E(Eh)            E(eV)
   0   2.0000     -88.963600     -2420.8226
   1   2.0000     -88.961378     -2420.7622
   2   2.0000     -10.323200      -280.9086
   3   2.0000     -10.318950      -280.7929
   4   2.0000     -10.311856      -280.5999
   5   2.0000     -10.310997      -280.5765
   6   2.0000     -10.303803      -280.3807
   7   2.0000     -10.301022      -280.3050
   8   2.0000     -10.297425      -280.2072
   9   2.0000     -10.292885      -280.0836
  10   2.0000     -10.288680      -279.9692
  11   2.0000     -10.287226      -279.9296
  12   2.0000     -10.285395      -279.8798
  13   2.0000     -10.282585      -279.8034
  14   2.0000     -10.281349      -279.7697
  15   2.0000     -10.274340      -279.5790
  16   2.0000      -8.078604      -219.8300
  17   2.0000      -8.077771      -219.8073
  18   2.0000      -6.037129      -164.2786
  19   2.0000      -6.036176      -164.2527
  20   2.0000      -6.033082      -164.1685
  21   2.0000      -6.031933      -164.1372
  22   2.0000      -6.029337      -164.0666
  23   2.0000      -6.028647      -164.0478
  24   2.0000      -1.016994       -27.6738
  25   2.0000      -0.991660       -26.9844
  26   2.0000      -0.914874       -24.8950
  27   2.0000      -0.909036       -24.7361
  28   2.0000      -0.874514       -23.7967
  29   2.0000      -0.849156       -23.1067
  30   2.0000      -0.842690       -22.9308
  31   2.0000      -0.816210       -22.2102
  32   2.0000      -0.782411       -21.2905
  33   2.0000      -0.771622       -20.9969
  34   2.0000      -0.713400       -19.4126
  35   2.0000      -0.699734       -19.0407
  36   2.0000      -0.691680       -18.8216
  37   2.0000      -0.664537       -18.0830
  38   2.0000      -0.644587       -17.5401
  39   2.0000      -0.619611       -16.8605
  40   2.0000      -0.596972       -16.2444
  41   2.0000      -0.565619       -15.3913
  42   2.0000      -0.557721       -15.1764
  43   2.0000      -0.552581       -15.0365
  44   2.0000      -0.551374       -15.0037
  45   2.0000      -0.537207       -14.6181
  46   2.0000      -0.518160       -14.0999
  47   2.0000      -0.514882       -14.0106
  48   2.0000      -0.502489       -13.6734
  49   2.0000      -0.493339       -13.4244
  50   2.0000      -0.490062       -13.3353
  51   2.0000      -0.476984       -12.9794
  52   2.0000      -0.474370       -12.9083
  53   2.0000      -0.463577       -12.6146
  54   2.0000      -0.457151       -12.4397
  55   2.0000      -0.448619       -12.2075
  56   2.0000      -0.440696       -11.9919
  57   2.0000      -0.436720       -11.8838
  58   2.0000      -0.430322       -11.7096
  59   2.0000      -0.424942       -11.5633
  60   2.0000      -0.420892       -11.4531
  61   2.0000      -0.412691       -11.2299
  62   2.0000      -0.404674       -11.0117
  63   2.0000      -0.346534        -9.4297
  64   2.0000      -0.331316        -9.0156
  65   2.0000      -0.325753        -8.8642
  66   2.0000      -0.294176        -8.0049
  67   0.0000       0.035567         0.9678
  68   0.0000       0.068611         1.8670
  69   0.0000       0.112410         3.0588
  70   0.0000       0.123268         3.3543
  71   0.0000       0.133579         3.6349

MULLIKEN ATOMIC CHARGES
-----------------------
   0 S :    0.104799
   1 C :   -0.135259
   2 C :   -0.084577
   3 C :    0.045421
   4 C :   -0.132880
   5 H :   -0.020877
   6 C :    0.056414
   7 H :    0.002098
   8 H :    0.064623
   9 C :   -0.087871
  10 H :    0.047899
  11 H :    0.047100
  12 C :   -0.089839
  13 H :    0.041564
  14 H :    0.040404
  15 H :    0.036160
  16 S :    0.115876
  17 C :   -0.095040
  18 C :   -0.042579
  19 C :   -0.011171
  20 C :   -0.180923
  21 H :    0.004013
  22 C :    0.097323
  23 H :    0.015603
  24 H :    0.021848
  25 C :   -0.032189
  26 H :    0.024723
  27 H :    0.021568
  28 C :   -0.083991
  29 H :    0.063280
  30 H :    0.008608
  31 H :    0.027314
  32 H :    0.051270
  33 H :    0.059287
Sum of atomic charges:   -0.0000000

LOEWDIN ATOMIC CHARGES
----------------------
   0 S :    0.408788
   1 C :   -0.198147
   2 C :   -0.064520
   3 C :   -0.062148
   4 C :   -0.188175
   5 H :    0.016467
   6 C :   -0.041099
   7 H :    0.025885
   8 H :    0.045529
   9 C :   -0.048233
  10 H :    0.030080
  11 H :    0.033144
  12 C :   -0.081306
  13 H :    0.032763
  14 H :    0.028982
  15 H :    0.027268
  16 S :    0.440822
  17 C :   -0.202179
  18 C :   -0.070545
  19 C :   -0.054443
  20 C :   -0.211149
  21 H :    0.024426
  22 C :   -0.028406
  23 H :    0.028656
  24 H :    0.026884
  25 C :   -0.022704
  26 H :    0.026380
  27 H :    0.011077
  28 C :   -0.073425
  29 H :    0.033370
  30 H :    0.022150
  31 H :    0.020134
  32 H :    0.028323
  33 H :    0.035352

  Mayer bond orders larger than 0.100000
B(  0-S ,  1-C ) :   1.1224 B(  0-S ,  4-C ) :   1.1614 B(  1-C ,  2-C ) :   1.6234
B(  1-C , 32-H ) :   0.9705 B(  2-C ,  3-C ) :   1.2059 B(  2-C ,  6-C ) :   1.0192
B(  3-C ,  4-C ) :   1.5750 B(  3-C ,  5-H ) :   1.0148 B(  4-C , 20-C ) :   1.0391
B(  6-C ,  7-H ) :   0.9354 B(  6-C ,  8-H ) :   0.9430 B(  6-C ,  9-C ) :   1.0613
B(  9-C , 10-H ) :   0.9556 B(  9-C , 11-H ) :   0.9583 B(  9-C , 12-C ) :   1.0578
B( 12-C , 13-H ) :   0.9734 B( 12-C , 14-H ) :   0.9773 B( 12-C , 15-H ) :   0.9750
B( 16-S , 17-C ) :   1.1540 B( 16-S , 20-C ) :   1.1759 B( 17-C , 18-C ) :   1.5949
B( 17-C , 33-H ) :   0.9730 B( 18-C , 19-C ) :   1.2350 B( 18-C , 21-H ) :   0.9925
B( 19-C , 20-C ) :   1.5258 B( 19-C , 22-C ) :   1.0683 B( 22-C , 23-H ) :   0.9347
B( 22-C , 24-H ) :   0.9196 B( 22-C , 25-C ) :   1.0629 B( 25-C , 26-H ) :   0.9567
B( 25-C , 27-H ) :   0.9644 B( 25-C , 28-C ) :   1.0600 B( 28-C , 29-H ) :   0.9735
B( 28-C , 30-H ) :   0.9743 B( 28-C , 31-H ) :   0.9752

Dispersion correction           -0.015193015
FINAL SINGLE POINT ENERGY     -1339.868863787213

DIPOLE MOMENT
-------------
                                X             Y             Z
Electronic contribution:     21.32607      -1.98673       2.71801
Nuclear contribution   :    -21.61008       2.05423      -2.81636
                        -----------------------------------------
Total Dipole Moment    :     -0.28401       0.06750      -0.09835
                        -----------------------------------------
Magnitude (a.u.)       :      0.30805
Magnitude (Debye)      :      0.78299

Rotational constants in cm-1:     0.020471     0.008631     0.007813
Rotational constants in MHz :   613.716804   258.754443   234.214194

                             ****ORCA TERMINATED NORMALLY****
TOTAL RUN TIME: 0 days 0 hours 0 minutes 35 seconds 394 msec
