                         Program Version 4.2.1 -  RELEASE  -
|  1> ! wB97X-D3 SP def2-SVP
|  2> %pal
|  3> nprocs 16
|  4> end
|  5>
|  6> * xyz 0 1
|  7> S 	 13.8848 	 -1.31815 	 64.5267
|  8> C 	 13.6717 	 -2.08562 	 62.8852
|  9> C 	 14.8967 	 -2.36899 	 62.3433
| 10> C 	 15.9789 	 -1.88233 	 63.1152
| 11> C 	 15.6158 	 -1.29075 	 64.3514
| 12> H 	 17.0369 	 -1.82093 	 62.8456
| 13> C 	 15.1332 	 -2.84797 	 60.9237
| 14> H 	 16.1639 	 -3.16206 	 60.8279
| 15> H 	 14.8967 	 -2.16865 	 60.0711
| 16> C 	 14.403 	 -4.17705 	 60.6283
| 17> H 	 14.7493 	 -4.96111 	 61.3261
| 18> H 	 13.3546 	 -4.0142 	 60.8426
| 19> C 	 14.6353 	 -4.76071 	 59.1995
| 20> H 	 14.7995 	 -3.82864 	 58.5228
| 21> H 	 15.5135 	 -5.44539 	 59.2059
| 22> H 	 13.7972 	 -5.36209 	 58.932
| 23> S 	 16.5525 	 -1.88216 	 66.8199
| 24> C 	 17.5597 	 -0.751372 	 67.6701
| 25> C 	 17.7873 	 0.336157 	 66.8869
| 26> C 	 17.0854 	 0.357871 	 65.6601
| 27> C 	 16.4364 	 -0.808689 	 65.4422
| 28> H 	 18.4249 	 1.07022 	 67.3093
| 29> C 	 17.1923 	 1.45297 	 64.6253
| 30> H 	 17.1866 	 1.00209 	 63.6239
| 31> H 	 18.1044 	 2.01345 	 64.8334
| 32> C 	 16.065 	 2.50339 	 64.7174
| 33> H 	 16.1964 	 3.39061 	 64.1417
| 34> H 	 16.0612 	 2.81912 	 65.763
| 35> C 	 14.6962 	 1.89982 	 64.4706
| 36> H 	 13.83 	 2.5927 	 64.4985
| 37> H 	 14.4286 	 1.17036 	 65.2715
| 38> H 	 14.6326 	 1.30993 	 63.5112
| 39> H 	 12.745 	 -2.4549 	 62.5006
| 40> H 	 17.8077 	 -0.909321 	 68.6866
| 41> *
| 42>
| 43>                          ****END OF INPUT****

CARTESIAN COORDINATES (ANGSTROEM)
---------------------------------
  S     13.884800   -1.318150   64.526700
  C     13.671700   -2.085620   62.885200
  C     14.896700   -2.368990   62.343300
  C     15.978900   -1.882330   63.115200
  C     15.615800   -1.290750   64.351400
  H     17.036900   -1.820930   62.845600
  C     15.133200   -2.847970   60.923700
  H     16.163900   -3.162060   60.827900
  H     14.896700   -2.168650   60.071100
  C     14.403000   -4.177050   60.628300
  H     14.749300   -4.961110   61.326100
  H     13.354600   -4.014200   60.842600
  C     14.635300   -4.760710   59.199500
  H     14.799500   -3.828640   58.522800
  H     15.513500   -5.445390   59.205900
  H     13.797200   -5.362090   58.932000
  S     16.552500   -1.882160   66.819900
  C     17.559700   -0.751372   67.670100
  C     17.787300    0.336157   66.886900
  C     17.085400    0.357871   65.660100
  C     16.436400   -0.808689   65.442200
  H     18.424900    1.070220   67.309300
  C     17.192300    1.452970   64.625300
  H     17.186600    1.002090   63.623900
  H     18.104400    2.013450   64.833400
  C     16.065000    2.503390   64.717400
  H     16.196400    3.390610   64.141700
  H     16.061200    2.819120   65.763000
  C     14.696200    1.899820   64.470600
  H     13.830000    2.592700   64.498500
  H     14.428600    1.170360   65.271500
  H     14.632600    1.309930   63.511200
  H     12.745000   -2.454900   62.500600
  H     17.807700   -0.909321   68.686600

 Total Charge           Charge          ....    0
 Multiplicity           Mult            ....    1
 Number of Electrons    NEL             ....  134
 Basis Dimension        Dim             ....  322

ORBITAL ENERGIES
----------------

  NO   OCC          E(Eh)            E(eV)
   0   2.0000     -88.967040     -2420.9162
   1   2.0000     -88.960700     -2420.7437
   2   2.0000     -10.331064      -281.1225
   3   2.0000     -10.321321      -280.8574
   4   2.0000     -10.319004      -280.7944
   5   2.0000     -10.313141      -280.6348
   6   2.0000     -10.302459      -280.3442
   7   2.0000     -10.300319      -280.2859
   8   2.0000     -10.298213      -280.2286
   9   2.0000     -10.294112      -280.1170
  10   2.0000     -10.291720      -280.0519
  11   2.0000     -10.289580      -279.9937
  12   2.0000     -10.288016      -279.9512
  13   2.0000     -10.285269      -279.8764
  14   2.0000     -10.279637      -279.7231
  15   2.0000     -10.271556      -279.5032
  16   2.0000      -8.080349      -219.8775
  17   2.0000      -8.076286      -219.7669
  18   2.0000      -6.038907      -164.3270
  19   2.0000      -6.034922      -164.2186
  20   2.0000      -6.034656      -164.2113
  21   2.0000      -6.031231      -164.1181
  22   2.0000      -6.030617      -164.1014
  23   2.0000      -6.027187      -164.0081
  24   2.0000      -1.011531       -27.5252
  25   2.0000      -0.983730       -26.7686
  26   2.0000      -0.912094       -24.8194
  27   2.0000      -0.909396       -24.7459
  28   2.0000      -0.870634       -23.6912
  29   2.0000      -0.847827       -23.0706
  30   2.0000      -0.842149       -22.9160
  31   2.0000      -0.812079       -22.0978
  32   2.0000      -0.782879       -21.3032
  33   2.0000      -0.771492       -20.9934
  34   2.0000      -0.709911       -19.3177
  35   2.0000      -0.695127       -18.9154
  36   2.0000      -0.691116       -18.8062
  37   2.0000      -0.664166       -18.0729
  38   2.0000      -0.643354       -17.5065
  39   2.0000      -0.613899       -16.7050
  40   2.0000      -0.599060       -16.3012
  41   2.0000      -0.574368       -15.6293
  42   2.0000      -0.564852       -15.3704
  43   2.0000      -0.551743       -15.0137
  44   2.0000      -0.547484       -14.8978
  45   2.0000      -0.521737       -14.1972
  46   2.0000      -0.515686       -14.0325
  47   2.0000      -0.509895       -13.8749
  48   2.0000      -0.507645       -13.8137
  49   2.0000      -0.501476       -13.6459
  50   2.0000      -0.489732       -13.3263
  51   2.0000      -0.481304       -13.0969
  52   2.0000      -0.471983       -12.8433
  53   2.0000      -0.462256       -12.5786
  54   2.0000      -0.455801       -12.4030
  55   2.0000      -0.445598       -12.1254
  56   2.0000      -0.440578       -11.9887
  57   2.0000      -0.430787       -11.7223
  58   2.0000      -0.424567       -11.5531
  59   2.0000      -0.422052       -11.4846
  60   2.0000      -0.415021       -11.2933
  61   2.0000      -0.413268       -11.2456
  62   2.0000      -0.411234       -11.1902
  63   2.0000      -0.337124        -9.1736
  64   2.0000      -0.328006        -8.9255
  65   2.0000      -0.326615        -8.8876
  66   2.0000      -0.310139        -8.4393
  67   0.0000       0.035971         0.9788
  68   0.0000       0.054044         1.4706
  69   0.0000       0.107202         2.9171
  70   0.0000       0.122040         3.3209
  71   0.0000       0.123480         3.3601

MULLIKEN ATOMIC CHARGES
-----------------------
   0 S :    0.105169
   1 C :   -0.124223
   2 C :   -0.044340
   3 C :    0.053551
   4 C :   -0.198039
   5 H :    0.018266
   6 C :    0.058745
   7 H :    0.017044
   8 H :    0.053549
   9 C :   -0.139551
  10 H :    0.034930
  11 H :    0.022036
  12 C :   -0.052746
  13 H :    0.041836
  14 H :    0.044260
  15 H :    0.036964
  16 S :    0.108521
  17 C :   -0.083694
  18 C :   -0.031598
  19 C :   -0.003827
  20 C :   -0.195392
  21 H :    0.004112
  22 C :    0.096311
  23 H :    0.033809
  24 H :    0.019490
  25 C :   -0.030547
  26 H :    0.028941
  27 H :    0.016589
  28 C :   -0.096311
  29 H :    0.032402
  30 H :    0.035421
  31 H :    0.042301
  32 H :    0.047226
  33 H :    0.048793
Sum of atomic charges:    0.0000000

LOEWDIN ATOMIC CHARGES
----------------------
   0 S :    0.410953
   1 C :   -0.168244
   2 C :   -0.067725
   3 C :   -0.059969
   4 C :   -0.198218
   5 H :    0.034507
   6 C :   -0.032802
   7 H :    0.027574
   8 H :    0.035939
   9 C :   -0.047210
  10 H :    0.026536
  11 H :    0.012611
  12 C :   -0.070266
  13 H :    0.034299
  14 H :    0.029902
  15 H :    0.023844
  16 S :    0.410661
  17 C :   -0.174419
  18 C :   -0.070527
  19 C :   -0.055688
  20 C :   -0.205204
  21 H :    0.027039
  22 C :   -0.022722
  23 H :    0.031470
  24 H :    0.032039
  25 C :   -0.039432
  26 H :    0.019670
  27 H :    0.025284
  28 C :   -0.082875
  29 H :    0.025760
  30 H :    0.015926
  31 H :    0.024138
  32 H :    0.023696
  33 H :    0.023454

  Mayer bond orders larger than 0.100000
B(  0-S ,  1-C ) :   1.1312 B(  0-S ,  4-C ) :   1.1681 B(  1-C ,  2-C ) :   1.6008
B(  1-C ,  4-C ) :   0.1075 B(  1-C , 32-H ) :   0.9722 B(  2-C ,  3-C ) :   1.2440
B(  2-C ,  6-C ) :   1.0182 B(  3-C ,  4-C ) :   1.5765 B(  3-C ,  5-H ) :   0.9906
B(  4-C , 20-C ) :   1.0094 B(  6-C ,  7-H ) :   0.9447 B(  6-C ,  8-H ) :   0.9415
B(  6-C ,  9-C ) :   1.0536 B(  9-C , 10-H ) :   0.9604 B(  9-C , 11-H ) :   0.9636
B(  9-C , 12-C ) :   1.0684 B( 12-C , 13-H ) :   0.9743 B( 12-C , 14-H ) :   0.9783
B( 12-C , 15-H ) :   0.9745 B( 16-S , 17-C ) :   1.1573 B( 16-S , 20-C ) :   1.1552
B( 17-C , 18-C ) :   1.6112 B( 17-C , 33-H ) :   0.9737 B( 18-C , 19-C ) :   1.2272
B( 18-C , 21-H ) :   0.9980 B( 19-C , 20-C ) :   1.6121 B( 19-C , 22-C ) :   1.0299
B( 22-C , 23-H ) :   0.9392 B( 22-C , 24-H ) :   0.9293 B( 22-C , 25-C ) :   1.0734
B( 25-C , 26-H ) :   0.9593 B( 25-C , 27-H ) :   0.9490 B( 25-C , 28-C ) :   1.0795
B( 28-C , 29-H ) :   0.9706 B( 28-C , 30-H ) :   0.9660 B( 28-C , 31-H ) :   0.9730

Dispersion correction           -0.015121200
FINAL SINGLE POINT ENERGY     -1339.877581234004

DIPOLE MOMENT
-------------
                                X             Y             Z
Electronic contribution:      1.71660      -2.16295      21.34216
Nuclear contribution   :     -1.49221       2.30209     -21.60805
                        -----------------------------------------
Total Dipole Moment    :      0.22439       0.13913      -0.26590
                        -----------------------------------------
Magnitude (a.u.)       :      0.37471
Magnitude (Debye)      :      0.95245

Rotational constants in cm-1:     0.024320     0.007554     0.006836
Rotational constants in MHz :   729.087058   226.471774   204.938852

                             ****ORCA TERMINATED NORMALLY****
TOTAL RUN TIME: 0 days 0 hours 0 minutes 36 seconds 236 msec
