                         Program Version 4.2.1 -  RELEASE  -
|  1> ! wB97X-D3 SP def2-SVP
|  2> %pal
|  3> nprocs 16
|  4> end
|  5>
|  6> * xyz 0 1
|  7> S 	 -3.65192 	 -17.1001 	 91.8071
|  8> C 	 -5.39978 	 -17.2992 	 91.6002
|  9> C 	 -6.00114 	 -16.1083 	 91.1542
| 10> C 	 -5.00603 	 -15.1259 	 90.8558
| 11> C 	 -3.70632 	 -15.4586 	 91.1624
| 12> H 	 -5.17593 	 -14.1855 	 90.4489
| 13> C 	 -7.42251 	 -15.7976 	 90.8481
| 14> H 	 -7.83651 	 -16.7076 	 90.3834
| 15> H 	 -7.65331 	 -15.0995 	 90.0497
| 16> C 	 -8.22752 	 -15.4502 	 92.088
| 17> H 	 -8.00475 	 -14.486 	 92.4672
| 18> H 	 -9.24449 	 -15.2567 	 91.7658
| 19> C 	 -8.32171 	 -16.5626 	 93.1617
| 20> H 	 -8.88557 	 -16.2569 	 93.9995
| 21> H 	 -8.80341 	 -17.4011 	 92.6398
| 22> H 	 -7.28943 	 -16.91 	 93.3587
| 23> S 	 -1.65934 	 -14.1941 	 92.4567
| 24> C 	 -0.511128 	 -13.1433 	 91.5356
| 25> C 	 -0.832911 	 -13.2338 	 90.1897
| 26> C 	 -1.95483 	 -14.0339 	 89.8434
| 27> C 	 -2.53591 	 -14.6113 	 90.9615
| 28> H 	 -0.163174 	 -12.7484 	 89.4716
| 29> C 	 -2.53098 	 -14.0011 	 88.447
| 30> H 	 -2.56235 	 -15.0261 	 88.1407
| 31> H 	 -1.75567 	 -13.6488 	 87.7438
| 32> C 	 -3.73661 	 -13.173 	 88.0751
| 33> H 	 -4.66992 	 -13.4719 	 88.4863
| 34> H 	 -3.86391 	 -13.2662 	 87.0077
| 35> C 	 -3.47574 	 -11.6822 	 88.5026
| 36> H 	 -2.54831 	 -11.3771 	 88.0144
| 37> H 	 -3.48387 	 -11.422 	 89.5743
| 38> H 	 -4.29274 	 -11.0386 	 88.0866
| 39> H 	 -6.04611 	 -18.0899 	 92.0069
| 40> H 	 0.347546 	 -12.5873 	 92.0523
| 41> *
| 42>
| 43>                          ****END OF INPUT****

CARTESIAN COORDINATES (ANGSTROEM)
---------------------------------
  S     -3.651920  -17.100100   91.807100
  C     -5.399780  -17.299200   91.600200
  C     -6.001140  -16.108300   91.154200
  C     -5.006030  -15.125900   90.855800
  C     -3.706320  -15.458600   91.162400
  H     -5.175930  -14.185500   90.448900
  C     -7.422510  -15.797600   90.848100
  H     -7.836510  -16.707600   90.383400
  H     -7.653310  -15.099500   90.049700
  C     -8.227520  -15.450200   92.088000
  H     -8.004750  -14.486000   92.467200
  H     -9.244490  -15.256700   91.765800
  C     -8.321710  -16.562600   93.161700
  H     -8.885570  -16.256900   93.999500
  H     -8.803410  -17.401100   92.639800
  H     -7.289430  -16.910000   93.358700
  S     -1.659340  -14.194100   92.456700
  C     -0.511128  -13.143300   91.535600
  C     -0.832911  -13.233800   90.189700
  C     -1.954830  -14.033900   89.843400
  C     -2.535910  -14.611300   90.961500
  H     -0.163174  -12.748400   89.471600
  C     -2.530980  -14.001100   88.447000
  H     -2.562350  -15.026100   88.140700
  H     -1.755670  -13.648800   87.743800
  C     -3.736610  -13.173000   88.075100
  H     -4.669920  -13.471900   88.486300
  H     -3.863910  -13.266200   87.007700
  C     -3.475740  -11.682200   88.502600
  H     -2.548310  -11.377100   88.014400
  H     -3.483870  -11.422000   89.574300
  H     -4.292740  -11.038600   88.086600
  H     -6.046110  -18.089900   92.006900
  H      0.347546  -12.587300   92.052300

 Total Charge           Charge          ....    0
 Multiplicity           Mult            ....    1
 Number of Electrons    NEL             ....  134
 Basis Dimension        Dim             ....  322

ORBITAL ENERGIES
----------------

  NO   OCC          E(Eh)            E(eV)
   0   2.0000     -88.969980     -2420.9962
   1   2.0000     -88.963329     -2420.8152
   2   2.0000     -10.330549      -281.1085
   3   2.0000     -10.328920      -281.0642
   4   2.0000     -10.328459      -281.0517
   5   2.0000     -10.320387      -280.8320
   6   2.0000     -10.305034      -280.4142
   7   2.0000     -10.302837      -280.3544
   8   2.0000     -10.297094      -280.1982
   9   2.0000     -10.292210      -280.0653
  10   2.0000     -10.289143      -279.9818
  11   2.0000     -10.287779      -279.9447
  12   2.0000     -10.286112      -279.8993
  13   2.0000     -10.282372      -279.7976
  14   2.0000     -10.280447      -279.7452
  15   2.0000     -10.276633      -279.6414
  16   2.0000      -8.083683      -219.9682
  17   2.0000      -8.076911      -219.7839
  18   2.0000      -6.042346      -164.4206
  19   2.0000      -6.038285      -164.3101
  20   2.0000      -6.035533      -164.2352
  21   2.0000      -6.034376      -164.2037
  22   2.0000      -6.031494      -164.1253
  23   2.0000      -6.027700      -164.0221
  24   2.0000      -1.001060       -27.2402
  25   2.0000      -0.978118       -26.6160
  26   2.0000      -0.916448       -24.9378
  27   2.0000      -0.909619       -24.7520
  28   2.0000      -0.865247       -23.5446
  29   2.0000      -0.848252       -23.0821
  30   2.0000      -0.843129       -22.9427
  31   2.0000      -0.810302       -22.0494
  32   2.0000      -0.785194       -21.3662
  33   2.0000      -0.775819       -21.1111
  34   2.0000      -0.712158       -19.3788
  35   2.0000      -0.702864       -19.1259
  36   2.0000      -0.692023       -18.8309
  37   2.0000      -0.660925       -17.9847
  38   2.0000      -0.643201       -17.5024
  39   2.0000      -0.617840       -16.8123
  40   2.0000      -0.592199       -16.1146
  41   2.0000      -0.575382       -15.6569
  42   2.0000      -0.560546       -15.2532
  43   2.0000      -0.550013       -14.9666
  44   2.0000      -0.546903       -14.8820
  45   2.0000      -0.539709       -14.6862
  46   2.0000      -0.519612       -14.1394
  47   2.0000      -0.508087       -13.8258
  48   2.0000      -0.498592       -13.5674
  49   2.0000      -0.491432       -13.3725
  50   2.0000      -0.485840       -13.2204
  51   2.0000      -0.479030       -13.0351
  52   2.0000      -0.471597       -12.8328
  53   2.0000      -0.465220       -12.6593
  54   2.0000      -0.455707       -12.4004
  55   2.0000      -0.446925       -12.1614
  56   2.0000      -0.440307       -11.9814
  57   2.0000      -0.436897       -11.8886
  58   2.0000      -0.435890       -11.8612
  59   2.0000      -0.424217       -11.5435
  60   2.0000      -0.419577       -11.4173
  61   2.0000      -0.413161       -11.2427
  62   2.0000      -0.408090       -11.1047
  63   2.0000      -0.341151        -9.2832
  64   2.0000      -0.330136        -8.9835
  65   2.0000      -0.328901        -8.9498
  66   2.0000      -0.298468        -8.1217
  67   0.0000       0.030068         0.8182
  68   0.0000       0.058304         1.5865
  69   0.0000       0.109921         2.9911
  70   0.0000       0.115928         3.1546
  71   0.0000       0.129069         3.5122

MULLIKEN ATOMIC CHARGES
-----------------------
   0 S :    0.122858
   1 C :   -0.122533
   2 C :   -0.080883
   3 C :    0.057291
   4 C :   -0.142829
   5 H :   -0.023679
   6 C :    0.050117
   7 H :    0.021515
   8 H :    0.027543
   9 C :   -0.051457
  10 H :    0.014009
  11 H :    0.011337
  12 C :   -0.039465
  13 H :    0.039383
  14 H :    0.021240
  15 H :    0.039753
  16 S :    0.083851
  17 C :   -0.131752
  18 C :   -0.041904
  19 C :   -0.007279
  20 C :   -0.188128
  21 H :    0.027301
  22 C :    0.068955
  23 H :    0.025750
  24 H :    0.010118
  25 C :   -0.007770
  26 H :    0.012377
  27 H :    0.026918
  28 C :   -0.091302
  29 H :    0.026320
  30 H :    0.058067
  31 H :    0.032406
  32 H :    0.058675
  33 H :    0.093198
Sum of atomic charges:   -0.0000000

LOEWDIN ATOMIC CHARGES
----------------------
   0 S :    0.400938
   1 C :   -0.202083
   2 C :   -0.057545
   3 C :   -0.049015
   4 C :   -0.196259
   5 H :    0.016738
   6 C :   -0.037494
   7 H :    0.033935
   8 H :    0.034831
   9 C :   -0.037865
  10 H :    0.016117
  11 H :    0.021457
  12 C :   -0.059620
  13 H :    0.022898
  14 H :    0.025035
  15 H :    0.026359
  16 S :    0.368872
  17 C :   -0.182603
  18 C :   -0.073541
  19 C :   -0.058124
  20 C :   -0.180851
  21 H :    0.033856
  22 C :   -0.038078
  23 H :    0.032308
  24 H :    0.034089
  25 C :   -0.029590
  26 H :    0.012470
  27 H :    0.029021
  28 C :   -0.070362
  29 H :    0.021777
  30 H :    0.031984
  31 H :    0.028229
  32 H :    0.032866
  33 H :    0.049246

  Mayer bond orders larger than 0.100000
B(  0-S ,  1-C ) :   1.1377 B(  0-S ,  4-C ) :   1.1381 B(  1-C ,  2-C ) :   1.5984
B(  1-C , 32-H ) :   0.9564 B(  2-C ,  3-C ) :   1.2431 B(  2-C ,  6-C ) :   1.0177
B(  3-C ,  4-C ) :   1.5835 B(  3-C ,  5-H ) :   1.0028 B(  4-C , 20-C ) :   1.0323
B(  6-C ,  7-H ) :   0.9380 B(  6-C ,  8-H ) :   0.9460 B(  6-C ,  9-C ) :   1.0759
B(  9-C , 10-H ) :   0.9539 B(  9-C , 11-H ) :   0.9496 B(  9-C , 12-C ) :   1.0714
B( 12-C , 13-H ) :   0.9729 B( 12-C , 14-H ) :   0.9747 B( 12-C , 15-H ) :   0.9723
B( 16-S , 17-C ) :   1.1349 B( 16-S , 20-C ) :   1.1445 B( 17-C , 18-C ) :   1.6125
B( 17-C , 20-C ) :   0.1057 B( 17-C , 33-H ) :   0.9591 B( 18-C , 19-C ) :   1.2318
B( 18-C , 21-H ) :   0.9821 B( 19-C , 20-C ) :   1.5993 B( 19-C , 22-C ) :   1.0466
B( 22-C , 23-H ) :   0.9173 B( 22-C , 24-H ) :   0.9310 B( 22-C , 25-C ) :   1.0763
B( 25-C , 26-H ) :   0.9543 B( 25-C , 27-H ) :   0.9478 B( 25-C , 28-C ) :   1.0671
B( 28-C , 29-H ) :   0.9769 B( 28-C , 30-H ) :   0.9750 B( 28-C , 31-H ) :   0.9748

Dispersion correction           -0.015238055
FINAL SINGLE POINT ENERGY     -1339.869684766529

DIPOLE MOMENT
-------------
                                X             Y             Z
Electronic contribution:     19.84875      -8.53635      10.65033
Nuclear contribution   :    -20.26351       8.93218     -11.15163
                        -----------------------------------------
Total Dipole Moment    :     -0.41476       0.39583      -0.50131
                        -----------------------------------------
Magnitude (a.u.)       :      0.76159
Magnitude (Debye)      :      1.93581

Rotational constants in cm-1:     0.020846     0.008612     0.007091
Rotational constants in MHz :   624.933230   258.189869   212.590820

                             ****ORCA TERMINATED NORMALLY****
TOTAL RUN TIME: 0 days 0 hours 0 minutes 33 seconds 152 msec
