                         Program Version 4.2.1 -  RELEASE  -
|  1> ! wB97X-D3 SP def2-SVP
|  2> %pal
|  3> nprocs 16
|  4> end
|  5>
|  6> * xyz 0 1
|  7> S 	 51.4953 	 19.8467 	 91.5082
|  8> C 	 50.5269 	 19.3186 	 92.9253
|  9> C 	 51.0743 	 18.174 	 93.5304
| 10> C 	 52.2882 	 17.8189 	 92.8145
| 11> C 	 52.7212 	 18.694 	 91.8474
| 12> H 	 52.8536 	 16.8765 	 92.8606
| 13> C 	 50.4417 	 17.3247 	 94.5916
| 14> H 	 50.1789 	 16.353 	 94.157
| 15> H 	 49.4696 	 17.812 	 94.8496
| 16> C 	 51.2083 	 17.0042 	 95.9007
| 17> H 	 50.663 	 16.5277 	 96.6775
| 18> H 	 52.0396 	 16.4261 	 95.549
| 19> C 	 51.7847 	 18.2764 	 96.5591
| 20> H 	 51.6452 	 18.1763 	 97.6154
| 21> H 	 52.8807 	 18.5728 	 96.5
| 22> H 	 51.2982 	 19.1671 	 96.1822
| 23> S 	 53.5929 	 19.0709 	 89.356
| 24> C 	 55.2048 	 18.7807 	 88.9328
| 25> C 	 55.9682 	 18.2993 	 90.0083
| 26> C 	 55.1747 	 18.171 	 91.2101
| 27> C 	 53.8472 	 18.5127 	 90.9281
| 28> H 	 57.0288 	 18.1669 	 89.9482
| 29> C 	 55.6799 	 17.9047 	 92.6251
| 30> H 	 56.526 	 17.3081 	 92.5046
| 31> H 	 55.0377 	 17.2662 	 93.2249
| 32> C 	 55.9098 	 19.1408 	 93.4898
| 33> H 	 55.9384 	 18.9416 	 94.5895
| 34> H 	 55.1115 	 19.8107 	 93.0887
| 35> C 	 57.2285 	 19.7201 	 92.9997
| 36> H 	 57.4802 	 20.6338 	 93.4305
| 37> H 	 57.1575 	 19.9684 	 92.0037
| 38> H 	 58.0478 	 19.0502 	 93.0451
| 39> H 	 49.6839 	 19.8325 	 93.2954
| 40> H 	 55.6241 	 19.0569 	 87.9871
| 41> *
| 42>
| 43>                          ****END OF INPUT****

CARTESIAN COORDINATES (ANGSTROEM)
---------------------------------
  S     51.495300   19.846700   91.508200
  C     50.526900   19.318600   92.925300
  C     51.074300   18.174000   93.530400
  C     52.288200   17.818900   92.814500
  C     52.721200   18.694000   91.847400
  H     52.853600   16.876500   92.860600
  C     50.441700   17.324700   94.591600
  H     50.178900   16.353000   94.157000
  H     49.469600   17.812000   94.849600
  C     51.208300   17.004200   95.900700
  H     50.663000   16.527700   96.677500
  H     52.039600   16.426100   95.549000
  C     51.784700   18.276400   96.559100
  H     51.645200   18.176300   97.615400
  H     52.880700   18.572800   96.500000
  H     51.298200   19.167100   96.182200
  S     53.592900   19.070900   89.356000
  C     55.204800   18.780700   88.932800
  C     55.968200   18.299300   90.008300
  C     55.174700   18.171000   91.210100
  C     53.847200   18.512700   90.928100
  H     57.028800   18.166900   89.948200
  C     55.679900   17.904700   92.625100
  H     56.526000   17.308100   92.504600
  H     55.037700   17.266200   93.224900
  C     55.909800   19.140800   93.489800
  H     55.938400   18.941600   94.589500
  H     55.111500   19.810700   93.088700
  C     57.228500   19.720100   92.999700
  H     57.480200   20.633800   93.430500
  H     57.157500   19.968400   92.003700
  H     58.047800   19.050200   93.045100
  H     49.683900   19.832500   93.295400
  H     55.624100   19.056900   87.987100

 Total Charge           Charge          ....    0
 Multiplicity           Mult            ....    1
 Number of Electrons    NEL             ....  134
 Basis Dimension        Dim             ....  322

ORBITAL ENERGIES
----------------

  NO   OCC          E(Eh)            E(eV)
   0   2.0000     -88.969876     -2420.9934
   1   2.0000     -88.966639     -2420.9053
   2   2.0000     -10.326776      -281.0059
   3   2.0000     -10.322782      -280.8972
   4   2.0000     -10.318917      -280.7920
   5   2.0000     -10.315276      -280.6929
   6   2.0000     -10.310603      -280.5658
   7   2.0000     -10.307119      -280.4710
   8   2.0000     -10.299930      -280.2753
   9   2.0000     -10.298442      -280.2348
  10   2.0000     -10.293413      -280.0980
  11   2.0000     -10.286202      -279.9018
  12   2.0000     -10.286062      -279.8980
  13   2.0000     -10.283277      -279.8222
  14   2.0000     -10.273180      -279.5474
  15   2.0000     -10.254473      -279.0384
  16   2.0000      -8.086848      -220.0543
  17   2.0000      -8.081405      -219.9062
  18   2.0000      -6.045071      -164.4948
  19   2.0000      -6.040937      -164.3823
  20   2.0000      -6.040017      -164.3572
  21   2.0000      -6.037890      -164.2993
  22   2.0000      -6.036011      -164.2482
  23   2.0000      -6.031945      -164.1376
  24   2.0000      -1.017760       -27.6947
  25   2.0000      -0.985993       -26.8302
  26   2.0000      -0.917846       -24.9758
  27   2.0000      -0.912988       -24.8437
  28   2.0000      -0.869568       -23.6622
  29   2.0000      -0.854378       -23.2488
  30   2.0000      -0.840903       -22.8821
  31   2.0000      -0.813944       -22.1485
  32   2.0000      -0.787314       -21.4239
  33   2.0000      -0.776306       -21.1243
  34   2.0000      -0.709515       -19.3069
  35   2.0000      -0.702236       -19.1088
  36   2.0000      -0.690231       -18.7821
  37   2.0000      -0.668242       -18.1838
  38   2.0000      -0.639587       -17.4040
  39   2.0000      -0.618044       -16.8178
  40   2.0000      -0.602942       -16.4069
  41   2.0000      -0.566754       -15.4222
  42   2.0000      -0.555880       -15.1263
  43   2.0000      -0.554477       -15.0881
  44   2.0000      -0.552007       -15.0209
  45   2.0000      -0.543864       -14.7993
  46   2.0000      -0.520327       -14.1588
  47   2.0000      -0.514294       -13.9946
  48   2.0000      -0.500638       -13.6230
  49   2.0000      -0.493967       -13.4415
  50   2.0000      -0.488724       -13.2988
  51   2.0000      -0.480633       -13.0787
  52   2.0000      -0.472504       -12.8575
  53   2.0000      -0.466452       -12.6928
  54   2.0000      -0.455464       -12.3938
  55   2.0000      -0.449621       -12.2348
  56   2.0000      -0.445621       -12.1260
  57   2.0000      -0.436322       -11.8729
  58   2.0000      -0.435266       -11.8442
  59   2.0000      -0.427086       -11.6216
  60   2.0000      -0.421430       -11.4677
  61   2.0000      -0.412395       -11.2218
  62   2.0000      -0.408587       -11.1182
  63   2.0000      -0.354228        -9.6390
  64   2.0000      -0.336564        -9.1584
  65   2.0000      -0.327684        -8.9167
  66   2.0000      -0.286614        -7.7992
  67   0.0000       0.024040         0.6542
  68   0.0000       0.073809         2.0085
  69   0.0000       0.102572         2.7911
  70   0.0000       0.111092         3.0230
  71   0.0000       0.129133         3.5139

MULLIKEN ATOMIC CHARGES
-----------------------
   0 S :    0.087108
   1 C :   -0.104618
   2 C :   -0.063342
   3 C :   -0.020504
   4 C :   -0.115254
   5 H :    0.030442
   6 C :    0.036912
   7 H :    0.044499
   8 H :    0.021582
   9 C :   -0.031468
  10 H :    0.035883
  11 H :    0.027739
  12 C :   -0.083130
  13 H :    0.022431
  14 H :    0.039179
  15 H :    0.026644
  16 S :    0.126349
  17 C :   -0.090518
  18 C :   -0.020612
  19 C :   -0.087602
  20 C :   -0.149111
  21 H :    0.014373
  22 C :    0.101157
  23 H :   -0.004918
  24 H :    0.009257
  25 C :   -0.069681
  26 H :    0.049477
  27 H :    0.053906
  28 C :    0.017164
  29 H :    0.007814
  30 H :   -0.003082
  31 H :    0.006536
  32 H :    0.034628
  33 H :    0.050760
Sum of atomic charges:   -0.0000000

LOEWDIN ATOMIC CHARGES
----------------------
   0 S :    0.391268
   1 C :   -0.175297
   2 C :   -0.055084
   3 C :   -0.072825
   4 C :   -0.202072
   5 H :    0.032923
   6 C :   -0.034907
   7 H :    0.037769
   8 H :    0.030940
   9 C :   -0.034924
  10 H :    0.026066
  11 H :    0.023353
  12 C :   -0.077789
  13 H :    0.020656
  14 H :    0.033944
  15 H :    0.022054
  16 S :    0.462225
  17 C :   -0.206143
  18 C :   -0.063800
  19 C :   -0.055241
  20 C :   -0.217143
  21 H :    0.028000
  22 C :   -0.030405
  23 H :    0.017058
  24 H :    0.027324
  25 C :   -0.032885
  26 H :    0.031032
  27 H :    0.039219
  28 C :   -0.057397
  29 H :    0.015522
  30 H :    0.016723
  31 H :    0.016872
  32 H :    0.018188
  33 H :    0.024778

  Mayer bond orders larger than 0.100000
B(  0-S ,  1-C ) :   1.1278 B(  0-S ,  4-C ) :   1.1368 B(  1-C ,  2-C ) :   1.6084
B(  1-C , 32-H ) :   0.9716 B(  2-C ,  3-C ) :   1.2090 B(  2-C ,  6-C ) :   1.0366
B(  3-C ,  4-C ) :   1.5975 B(  3-C ,  5-H ) :   0.9819 B(  4-C , 20-C ) :   1.0506
B(  6-C ,  7-H ) :   0.9414 B(  6-C ,  8-H ) :   0.9391 B(  6-C ,  9-C ) :   1.0719
B(  9-C , 10-H ) :   0.9661 B(  9-C , 11-H ) :   0.9564 B(  9-C , 12-C ) :   1.0574
B( 12-C , 13-H ) :   0.9813 B( 12-C , 14-H ) :   0.9753 B( 12-C , 15-H ) :   0.9806
B( 16-S , 17-C ) :   1.1824 B( 16-S , 20-C ) :   1.1759 B( 17-C , 18-C ) :   1.5627
B( 17-C , 33-H ) :   0.9731 B( 18-C , 19-C ) :   1.2802 B( 18-C , 21-H ) :   0.9925
B( 19-C , 20-C ) :   1.5491 B( 19-C , 22-C ) :   1.0543 B( 22-C , 23-H ) :   0.9230
B( 22-C , 24-H ) :   0.9297 B( 22-C , 25-C ) :   1.0466 B( 25-C , 26-H ) :   0.9574
B( 25-C , 27-H ) :   0.9539 B( 25-C , 28-C ) :   1.0815 B( 28-C , 29-H ) :   0.9653
B( 28-C , 30-H ) :   0.9674 B( 28-C , 31-H ) :   0.9738

Dispersion correction           -0.015217490
FINAL SINGLE POINT ENERGY     -1339.857621688890

DIPOLE MOMENT
-------------
                                X             Y             Z
Electronic contribution:     -8.87026       5.09510     -25.54182
Nuclear contribution   :      9.05809      -5.34345      25.90874
                        -----------------------------------------
Total Dipole Moment    :      0.18783      -0.24834       0.36692
                        -----------------------------------------
Magnitude (a.u.)       :      0.48123
Magnitude (Debye)      :      1.22320

Rotational constants in cm-1:     0.019932     0.009606     0.007287
Rotational constants in MHz :   597.538236   287.987889   218.457519

                             ****ORCA TERMINATED NORMALLY****
TOTAL RUN TIME: 0 days 0 hours 0 minutes 32 seconds 509 msec
