                         Program Version 4.2.1 -  RELEASE  -
|  1> ! wB97X-D3 SP def2-SVP
|  2> %pal
|  3> nprocs 16
|  4> end
|  5>
|  6> * xyz 0 1
|  7> S 	 -119.394 	 48.5925 	 133.472
|  8> C 	 -120.248 	 49.7941 	 134.433
|  9> C 	 -119.592 	 50.0733 	 135.64
| 10> C 	 -118.362 	 49.2607 	 135.75
| 11> C 	 -118.19 	 48.3932 	 134.666
| 12> H 	 -117.666 	 49.3113 	 136.581
| 13> C 	 -119.887 	 51.2209 	 136.559
| 14> H 	 -120.577 	 51.0394 	 137.435
| 15> H 	 -120.445 	 51.9885 	 135.967
| 16> C 	 -118.709 	 52.0153 	 137.219
| 17> H 	 -119.11 	 52.8879 	 137.703
| 18> H 	 -118.304 	 51.3194 	 137.96
| 19> C 	 -117.57 	 52.5011 	 136.292
| 20> H 	 -117.082 	 51.6568 	 135.754
| 21> H 	 -117.873 	 53.2323 	 135.518
| 22> H 	 -116.892 	 52.9455 	 137.024
| 23> S 	 -117.415 	 45.8446 	 133.96
| 24> C 	 -115.701 	 45.5576 	 133.935
| 25> C 	 -114.881 	 46.5843 	 134.253
| 26> C 	 -115.664 	 47.7244 	 134.631
| 27> C 	 -117.035 	 47.518 	 134.458
| 28> H 	 -113.763 	 46.3594 	 134.382
| 29> C 	 -114.981 	 48.9389 	 135.211
| 30> H 	 -114.138 	 48.4399 	 135.765
| 31> H 	 -115.695 	 49.4842 	 135.829
| 32> C 	 -114.394 	 49.9177 	 134.185
| 33> H 	 -113.687 	 49.3616 	 133.593
| 34> H 	 -113.921 	 50.7333 	 134.687
| 35> C 	 -115.547 	 50.4892 	 133.29
| 36> H 	 -115.937 	 49.7777 	 132.582
| 37> H 	 -115.144 	 51.2289 	 132.638
| 38> H 	 -116.345 	 50.7918 	 133.97
| 39> H 	 -121.14 	 50.4005 	 134.119
| 40> H 	 -115.41 	 44.5442 	 133.775
| 41> *
| 42>
| 43>                          ****END OF INPUT****

CARTESIAN COORDINATES (ANGSTROEM)
---------------------------------
  S    -119.394000   48.592500  133.472000
  C    -120.248000   49.794100  134.433000
  C    -119.592000   50.073300  135.640000
  C    -118.362000   49.260700  135.750000
  C    -118.190000   48.393200  134.666000
  H    -117.666000   49.311300  136.581000
  C    -119.887000   51.220900  136.559000
  H    -120.577000   51.039400  137.435000
  H    -120.445000   51.988500  135.967000
  C    -118.709000   52.015300  137.219000
  H    -119.110000   52.887900  137.703000
  H    -118.304000   51.319400  137.960000
  C    -117.570000   52.501100  136.292000
  H    -117.082000   51.656800  135.754000
  H    -117.873000   53.232300  135.518000
  H    -116.892000   52.945500  137.024000
  S    -117.415000   45.844600  133.960000
  C    -115.701000   45.557600  133.935000
  C    -114.881000   46.584300  134.253000
  C    -115.664000   47.724400  134.631000
  C    -117.035000   47.518000  134.458000
  H    -113.763000   46.359400  134.382000
  C    -114.981000   48.938900  135.211000
  H    -114.138000   48.439900  135.765000
  H    -115.695000   49.484200  135.829000
  C    -114.394000   49.917700  134.185000
  H    -113.687000   49.361600  133.593000
  H    -113.921000   50.733300  134.687000
  C    -115.547000   50.489200  133.290000
  H    -115.937000   49.777700  132.582000
  H    -115.144000   51.228900  132.638000
  H    -116.345000   50.791800  133.970000
  H    -121.140000   50.400500  134.119000
  H    -115.410000   44.544200  133.775000

 Total Charge           Charge          ....    0
 Multiplicity           Mult            ....    1
 Number of Electrons    NEL             ....  134
 Basis Dimension        Dim             ....  322

ORBITAL ENERGIES
----------------

  NO   OCC          E(Eh)            E(eV)
   0   2.0000     -88.970505     -2421.0105
   1   2.0000     -88.965222     -2420.8668
   2   2.0000     -10.329156      -281.0706
   3   2.0000     -10.328172      -281.0438
   4   2.0000     -10.319686      -280.8129
   5   2.0000     -10.312843      -280.6267
   6   2.0000     -10.308524      -280.5092
   7   2.0000     -10.306935      -280.4660
   8   2.0000     -10.299526      -280.2644
   9   2.0000     -10.298469      -280.2356
  10   2.0000     -10.298023      -280.2234
  11   2.0000     -10.293191      -280.0920
  12   2.0000     -10.291316      -280.0410
  13   2.0000     -10.282520      -279.8016
  14   2.0000     -10.282014      -279.7878
  15   2.0000     -10.267644      -279.3968
  16   2.0000      -8.085389      -220.0146
  17   2.0000      -8.080116      -219.8711
  18   2.0000      -6.043910      -164.4632
  19   2.0000      -6.039797      -164.3512
  20   2.0000      -6.038444      -164.3144
  21   2.0000      -6.036204      -164.2535
  22   2.0000      -6.034862      -164.2170
  23   2.0000      -6.030805      -164.1065
  24   2.0000      -1.005920       -27.3725
  25   2.0000      -0.982726       -26.7413
  26   2.0000      -0.910310       -24.7708
  27   2.0000      -0.907965       -24.7070
  28   2.0000      -0.867446       -23.6044
  29   2.0000      -0.847995       -23.0751
  30   2.0000      -0.842273       -22.9194
  31   2.0000      -0.810989       -22.0681
  32   2.0000      -0.783714       -21.3259
  33   2.0000      -0.772258       -21.0142
  34   2.0000      -0.707802       -19.2603
  35   2.0000      -0.695517       -18.9260
  36   2.0000      -0.687857       -18.7175
  37   2.0000      -0.657277       -17.8854
  38   2.0000      -0.632621       -17.2145
  39   2.0000      -0.622450       -16.9377
  40   2.0000      -0.597629       -16.2623
  41   2.0000      -0.561641       -15.2830
  42   2.0000      -0.552680       -15.0392
  43   2.0000      -0.548481       -14.9249
  44   2.0000      -0.543873       -14.7995
  45   2.0000      -0.539786       -14.6883
  46   2.0000      -0.518961       -14.1216
  47   2.0000      -0.503906       -13.7120
  48   2.0000      -0.499458       -13.5909
  49   2.0000      -0.496465       -13.5095
  50   2.0000      -0.490059       -13.3352
  51   2.0000      -0.479141       -13.0381
  52   2.0000      -0.470681       -12.8079
  53   2.0000      -0.463625       -12.6159
  54   2.0000      -0.453256       -12.3337
  55   2.0000      -0.450692       -12.2640
  56   2.0000      -0.445131       -12.1126
  57   2.0000      -0.435266       -11.8442
  58   2.0000      -0.429819       -11.6960
  59   2.0000      -0.428824       -11.6689
  60   2.0000      -0.421609       -11.4726
  61   2.0000      -0.415936       -11.3182
  62   2.0000      -0.408953       -11.1282
  63   2.0000      -0.347984        -9.4691
  64   2.0000      -0.333697        -9.0804
  65   2.0000      -0.328293        -8.9333
  66   2.0000      -0.288520        -7.8510
  67   0.0000       0.033240         0.9045
  68   0.0000       0.068088         1.8528
  69   0.0000       0.103708         2.8220
  70   0.0000       0.105401         2.8681
  71   0.0000       0.131480         3.5777

MULLIKEN ATOMIC CHARGES
-----------------------
   0 S :    0.126274
   1 C :   -0.139895
   2 C :   -0.060465
   3 C :   -0.009096
   4 C :   -0.125625
   5 H :    0.022307
   6 C :    0.019834
   7 H :    0.051263
   8 H :    0.020305
   9 C :   -0.106281
  10 H :    0.033692
  11 H :    0.033561
  12 C :   -0.054446
  13 H :    0.030205
  14 H :    0.043064
  15 H :    0.037545
  16 S :    0.098017
  17 C :   -0.083066
  18 C :   -0.051877
  19 C :   -0.047241
  20 C :   -0.167459
  21 H :    0.055784
  22 C :    0.055225
  23 H :    0.035966
  24 H :    0.006770
  25 C :   -0.036773
  26 H :    0.018183
  27 H :    0.031317
  28 C :   -0.042220
  29 H :    0.032490
  30 H :    0.025497
  31 H :    0.037130
  32 H :    0.065929
  33 H :    0.044084
Sum of atomic charges:    0.0000000

LOEWDIN ATOMIC CHARGES
----------------------
   0 S :    0.426274
   1 C :   -0.209306
   2 C :   -0.060782
   3 C :   -0.070477
   4 C :   -0.209001
   5 H :    0.026992
   6 C :   -0.048388
   7 H :    0.040139
   8 H :    0.030559
   9 C :   -0.040195
  10 H :    0.026204
  11 H :    0.022164
  12 C :   -0.070262
  13 H :    0.022689
  14 H :    0.029300
  15 H :    0.030416
  16 S :    0.387934
  17 C :   -0.170913
  18 C :   -0.085758
  19 C :   -0.048185
  20 C :   -0.192508
  21 H :    0.052847
  22 C :   -0.032844
  23 H :    0.039261
  24 H :    0.022844
  25 C :   -0.027813
  26 H :    0.018473
  27 H :    0.020965
  28 C :   -0.060319
  29 H :    0.025466
  30 H :    0.021701
  31 H :    0.024501
  32 H :    0.040520
  33 H :    0.017501

  Mayer bond orders larger than 0.100000
B(  0-S ,  1-C ) :   1.1329 B(  0-S ,  4-C ) :   1.1684 B(  1-C ,  2-C ) :   1.6226
B(  1-C , 32-H ) :   0.9583 B(  2-C ,  3-C ) :   1.2310 B(  2-C ,  6-C ) :   1.0233
B(  3-C ,  4-C ) :   1.5680 B(  3-C ,  5-H ) :   0.9875 B(  4-C , 20-C ) :   1.0285
B(  6-C ,  7-H ) :   0.9352 B(  6-C ,  8-H ) :   0.9450 B(  6-C ,  9-C ) :   1.0770
B(  9-C , 10-H ) :   0.9552 B(  9-C , 11-H ) :   0.9510 B(  9-C , 12-C ) :   1.0805
B( 12-C , 13-H ) :   0.9681 B( 12-C , 14-H ) :   0.9745 B( 12-C , 15-H ) :   0.9676
B( 16-S , 17-C ) :   1.1574 B( 16-S , 20-C ) :   1.1271 B( 17-C , 18-C ) :   1.6490
B( 17-C , 33-H ) :   0.9660 B( 18-C , 19-C ) :   1.2058 B( 18-C , 21-H ) :   0.9739
B( 19-C , 20-C ) :   1.6251 B( 19-C , 22-C ) :   1.0275 B( 22-C , 23-H ) :   0.9311
B( 22-C , 24-H ) :   0.9364 B( 22-C , 25-C ) :   1.0836 B( 25-C , 26-H ) :   0.9535
B( 25-C , 27-H ) :   0.9577 B( 25-C , 28-C ) :   1.0733 B( 28-C , 29-H ) :   0.9680
B( 28-C , 30-H ) :   0.9715 B( 28-C , 31-H ) :   0.9745

Dispersion correction           -0.016993688
FINAL SINGLE POINT ENERGY     -1339.880428164139

DIPOLE MOMENT
-------------
                                X             Y             Z
Electronic contribution:    -10.46694     -24.58213      -9.44597
Nuclear contribution   :     10.86123      25.01751       9.78359
                        -----------------------------------------
Total Dipole Moment    :      0.39429       0.43538       0.33762
                        -----------------------------------------
Magnitude (a.u.)       :      0.67750
Magnitude (Debye)      :      1.72207

Rotational constants in cm-1:     0.019782     0.010558     0.008051
Rotational constants in MHz :   593.051572   316.507013   241.353858

                             ****ORCA TERMINATED NORMALLY****
TOTAL RUN TIME: 0 days 0 hours 0 minutes 38 seconds 63 msec
