                         Program Version 4.2.1 -  RELEASE  -
|  1> ! wB97X-D3 SP def2-SVP
|  2> %pal
|  3> nprocs 16
|  4> end
|  5>
|  6> * xyz 0 1
|  7> S 	 -44.8628 	 22.3822 	 89.4309
|  8> C 	 -44.9549 	 20.6322 	 89.7722
|  9> C 	 -43.7674 	 20.0521 	 90.1525
| 10> C 	 -42.7928 	 21.0868 	 90.317
| 11> C 	 -43.186 	 22.3775 	 90.0618
| 12> H 	 -41.7891 	 20.9473 	 90.6605
| 13> C 	 -43.5348 	 18.5525 	 90.3269
| 14> H 	 -42.9302 	 18.3915 	 89.4644
| 15> H 	 -44.4574 	 18.0568 	 90.1309
| 16> C 	 -42.7327 	 18.1594 	 91.5636
| 17> H 	 -42.362 	 17.2041 	 91.4277
| 18> H 	 -41.812 	 18.8024 	 91.8202
| 19> C 	 -43.4986 	 18.078 	 92.8445
| 20> H 	 -42.8363 	 18.287 	 93.7673
| 21> H 	 -44.244 	 18.874 	 92.7378
| 22> H 	 -43.9918 	 17.1014 	 92.9975
| 23> S 	 -42.1567 	 24.7322 	 88.9084
| 24> C 	 -41.1051 	 25.7478 	 89.8079
| 25> C 	 -40.8442 	 25.2302 	 91.0353
| 26> C 	 -41.5123 	 23.9748 	 91.2481
| 27> C 	 -42.2936 	 23.5501 	 90.1748
| 28> H 	 -40.1917 	 25.8227 	 91.6454
| 29> C 	 -41.4851 	 23.3186 	 92.6441
| 30> H 	 -41.97 	 22.3484 	 92.58
| 31> H 	 -42.2154 	 23.9604 	 93.1855
| 32> C 	 -40.1447 	 23.2747 	 93.368
| 33> H 	 -40.2296 	 22.7753 	 94.3101
| 34> H 	 -39.8237 	 24.2968 	 93.5197
| 35> C 	 -39.1602 	 22.4634 	 92.5504
| 36> H 	 -38.184 	 22.4895 	 93.0422
| 37> H 	 -39.0688 	 22.8588 	 91.489
| 38> H 	 -39.5075 	 21.4969 	 92.4093
| 39> H 	 -45.741 	 19.8432 	 89.5197
| 40> H 	 -40.6443 	 26.6535 	 89.4763
| 41> *
| 42>
| 43>                          ****END OF INPUT****

CARTESIAN COORDINATES (ANGSTROEM)
---------------------------------
  S    -44.862800   22.382200   89.430900
  C    -44.954900   20.632200   89.772200
  C    -43.767400   20.052100   90.152500
  C    -42.792800   21.086800   90.317000
  C    -43.186000   22.377500   90.061800
  H    -41.789100   20.947300   90.660500
  C    -43.534800   18.552500   90.326900
  H    -42.930200   18.391500   89.464400
  H    -44.457400   18.056800   90.130900
  C    -42.732700   18.159400   91.563600
  H    -42.362000   17.204100   91.427700
  H    -41.812000   18.802400   91.820200
  C    -43.498600   18.078000   92.844500
  H    -42.836300   18.287000   93.767300
  H    -44.244000   18.874000   92.737800
  H    -43.991800   17.101400   92.997500
  S    -42.156700   24.732200   88.908400
  C    -41.105100   25.747800   89.807900
  C    -40.844200   25.230200   91.035300
  C    -41.512300   23.974800   91.248100
  C    -42.293600   23.550100   90.174800
  H    -40.191700   25.822700   91.645400
  C    -41.485100   23.318600   92.644100
  H    -41.970000   22.348400   92.580000
  H    -42.215400   23.960400   93.185500
  C    -40.144700   23.274700   93.368000
  H    -40.229600   22.775300   94.310100
  H    -39.823700   24.296800   93.519700
  C    -39.160200   22.463400   92.550400
  H    -38.184000   22.489500   93.042200
  H    -39.068800   22.858800   91.489000
  H    -39.507500   21.496900   92.409300
  H    -45.741000   19.843200   89.519700
  H    -40.644300   26.653500   89.476300

 Total Charge           Charge          ....    0
 Multiplicity           Mult            ....    1
 Number of Electrons    NEL             ....  134
 Basis Dimension        Dim             ....  322

ORBITAL ENERGIES
----------------

  NO   OCC          E(Eh)            E(eV)
   0   2.0000     -88.971206     -2421.0296
   1   2.0000     -88.963109     -2420.8093
   2   2.0000     -10.334569      -281.2179
   3   2.0000     -10.328251      -281.0460
   4   2.0000     -10.318581      -280.7829
   5   2.0000     -10.312527      -280.6181
   6   2.0000     -10.306992      -280.4675
   7   2.0000     -10.301723      -280.3241
   8   2.0000     -10.296372      -280.1785
   9   2.0000     -10.291871      -280.0561
  10   2.0000     -10.290614      -280.0218
  11   2.0000     -10.288769      -279.9716
  12   2.0000     -10.287246      -279.9302
  13   2.0000     -10.282307      -279.7958
  14   2.0000     -10.281383      -279.7707
  15   2.0000     -10.272507      -279.5291
  16   2.0000      -8.084268      -219.9841
  17   2.0000      -8.078781      -219.8348
  18   2.0000      -6.043051      -164.4398
  19   2.0000      -6.039237      -164.3360
  20   2.0000      -6.037286      -164.2829
  21   2.0000      -6.034591      -164.2096
  22   2.0000      -6.032997      -164.1662
  23   2.0000      -6.029661      -164.0754
  24   2.0000      -1.006935       -27.4001
  25   2.0000      -0.984614       -26.7927
  26   2.0000      -0.919154       -25.0115
  27   2.0000      -0.912486       -24.8300
  28   2.0000      -0.873276       -23.7630
  29   2.0000      -0.850521       -23.1438
  30   2.0000      -0.844950       -22.9923
  31   2.0000      -0.819547       -22.3010
  32   2.0000      -0.785922       -21.3860
  33   2.0000      -0.773299       -21.0425
  34   2.0000      -0.711697       -19.3663
  35   2.0000      -0.698749       -19.0139
  36   2.0000      -0.690551       -18.7908
  37   2.0000      -0.653351       -17.7786
  38   2.0000      -0.635911       -17.3040
  39   2.0000      -0.621772       -16.9193
  40   2.0000      -0.597258       -16.2522
  41   2.0000      -0.573991       -15.6191
  42   2.0000      -0.563256       -15.3270
  43   2.0000      -0.553411       -15.0591
  44   2.0000      -0.544194       -14.8083
  45   2.0000      -0.541485       -14.7346
  46   2.0000      -0.525287       -14.2938
  47   2.0000      -0.517938       -14.0938
  48   2.0000      -0.500003       -13.6058
  49   2.0000      -0.493286       -13.4230
  50   2.0000      -0.490931       -13.3589
  51   2.0000      -0.475957       -12.9515
  52   2.0000      -0.471408       -12.8277
  53   2.0000      -0.461860       -12.5678
  54   2.0000      -0.458288       -12.4706
  55   2.0000      -0.444655       -12.0997
  56   2.0000      -0.443341       -12.0639
  57   2.0000      -0.442548       -12.0423
  58   2.0000      -0.430694       -11.7198
  59   2.0000      -0.426756       -11.6126
  60   2.0000      -0.424986       -11.5645
  61   2.0000      -0.414939       -11.2911
  62   2.0000      -0.412208       -11.2167
  63   2.0000      -0.350706        -9.5432
  64   2.0000      -0.331857        -9.0303
  65   2.0000      -0.328312        -8.9338
  66   2.0000      -0.293401        -7.9839
  67   0.0000       0.031922         0.8686
  68   0.0000       0.073750         2.0068
  69   0.0000       0.110874         3.0170
  70   0.0000       0.118978         3.2376
  71   0.0000       0.127829         3.4784

MULLIKEN ATOMIC CHARGES
-----------------------
   0 S :    0.116121
   1 C :   -0.133257
   2 C :   -0.132229
   3 C :    0.029937
   4 C :   -0.144442
   5 H :   -0.005201
   6 C :    0.140089
   7 H :    0.035458
   8 H :    0.009515
   9 C :   -0.067357
  10 H :    0.009173
  11 H :    0.045024
  12 C :   -0.078556
  13 H :    0.044320
  14 H :    0.034921
  15 H :    0.037239
  16 S :    0.105150
  17 C :   -0.079789
  18 C :   -0.037782
  19 C :   -0.067773
  20 C :   -0.151043
  21 H :    0.014093
  22 C :    0.049539
  23 H :    0.013674
  24 H :    0.046218
  25 C :   -0.032637
  26 H :    0.027509
  27 H :    0.025874
  28 C :   -0.052951
  29 H :    0.038063
  30 H :    0.045273
  31 H :    0.010558
  32 H :    0.058058
  33 H :    0.047206
Sum of atomic charges:   -0.0000000

LOEWDIN ATOMIC CHARGES
----------------------
   0 S :    0.374642
   1 C :   -0.206560
   2 C :   -0.064787
   3 C :   -0.059069
   4 C :   -0.176873
   5 H :    0.022945
   6 C :   -0.020665
   7 H :    0.039922
   8 H :    0.028319
   9 C :   -0.048186
  10 H :    0.014583
  11 H :    0.038126
  12 C :   -0.072566
  13 H :    0.035398
  14 H :    0.025549
  15 H :    0.024684
  16 S :    0.417920
  17 C :   -0.184599
  18 C :   -0.077507
  19 C :   -0.052540
  20 C :   -0.210576
  21 H :    0.031005
  22 C :   -0.033859
  23 H :    0.024242
  24 H :    0.039722
  25 C :   -0.037143
  26 H :    0.025681
  27 H :    0.020470
  28 C :   -0.063031
  29 H :    0.026863
  30 H :    0.033879
  31 H :    0.011856
  32 H :    0.043295
  33 H :    0.028863

  Mayer bond orders larger than 0.100000
B(  0-S ,  1-C ) :   1.1151 B(  0-S ,  4-C ) :   1.1138 B(  1-C ,  2-C ) :   1.6593
B(  1-C , 32-H ) :   0.9448 B(  2-C ,  3-C ) :   1.2136 B(  2-C ,  6-C ) :   1.0056
B(  3-C ,  4-C ) :   1.6114 B(  3-C ,  5-H ) :   0.9919 B(  4-C , 20-C ) :   1.0485
B(  6-C ,  7-H ) :   0.9249 B(  6-C ,  8-H ) :   0.9376 B(  6-C ,  9-C ) :   1.0701
B(  9-C , 10-H ) :   0.9509 B(  9-C , 11-H ) :   0.9584 B(  9-C , 12-C ) :   1.0671
B( 12-C , 13-H ) :   0.9759 B( 12-C , 14-H ) :   0.9796 B( 12-C , 15-H ) :   0.9767
B( 16-S , 17-C ) :   1.1671 B( 16-S , 20-C ) :   1.1334 B( 17-C , 18-C ) :   1.6245
B( 17-C , 33-H ) :   0.9658 B( 18-C , 19-C ) :   1.2217 B( 18-C , 21-H ) :   0.9978
B( 19-C , 20-C ) :   1.5945 B( 19-C , 22-C ) :   1.0263 B( 22-C , 23-H ) :   0.9355
B( 22-C , 24-H ) :   0.9352 B( 22-C , 25-C ) :   1.0773 B( 25-C , 26-H ) :   0.9511
B( 25-C , 27-H ) :   0.9501 B( 25-C , 28-C ) :   1.0824 B( 28-C , 29-H ) :   0.9733
B( 28-C , 30-H ) :   0.9709 B( 28-C , 31-H ) :   0.9725

Dispersion correction           -0.014895631
FINAL SINGLE POINT ENERGY     -1339.867681108137

DIPOLE MOMENT
-------------
                                X             Y             Z
Electronic contribution:    -12.04662      18.90987     -20.15742
Nuclear contribution   :     12.50756     -19.33222      20.57281
                        -----------------------------------------
Total Dipole Moment    :      0.46094      -0.42235       0.41539
                        -----------------------------------------
Magnitude (a.u.)       :      0.75060
Magnitude (Debye)      :      1.90787

Rotational constants in cm-1:     0.017888     0.009814     0.006879
Rotational constants in MHz :   536.254343   294.220254   206.233905

                             ****ORCA TERMINATED NORMALLY****
TOTAL RUN TIME: 0 days 0 hours 0 minutes 31 seconds 122 msec
