                         Program Version 4.2.1 -  RELEASE  -
|  1> ! wB97X-D3 SP def2-SVP
|  2> %pal
|  3> nprocs 16
|  4> end
|  5>
|  6> * xyz 0 1
|  7> S 	 -21.2681 	 1.92708 	 76.4196
|  8> C 	 -19.626 	 2.1221 	 75.9078
|  9> C 	 -18.8065 	 1.12301 	 76.5292
| 10> C 	 -19.46 	 0.529462 	 77.6036
| 11> C 	 -20.7735 	 0.885583 	 77.7544
| 12> H 	 -19.0755 	 -0.290859 	 78.1927
| 13> C 	 -17.3151 	 0.984243 	 76.3872
| 14> H 	 -17.0627 	 0.937965 	 75.3242
| 15> H 	 -17.0494 	 -0.0156312 	 76.7084
| 16> C 	 -16.3759 	 1.93656 	 77.1196
| 17> H 	 -16.6857 	 2.89938 	 76.7117
| 18> H 	 -16.5234 	 1.9428 	 78.1758
| 19> C 	 -14.965 	 1.84156 	 76.7002
| 20> H 	 -14.5617 	 0.845555 	 76.9532
| 21> H 	 -14.8878 	 1.91466 	 75.5685
| 22> H 	 -14.4191 	 2.55047 	 77.2394
| 23> S 	 -21.9863 	 1.15606 	 80.2793
| 24> C 	 -23.1817 	 -0.0210966 	 80.6016
| 25> C 	 -23.5037 	 -0.919726 	 79.5997
| 26> C 	 -22.5538 	 -0.801489 	 78.5201
| 27> C 	 -21.7265 	 0.298443 	 78.6895
| 28> H 	 -24.1499 	 -1.7794 	 79.7366
| 29> C 	 -22.6738 	 -1.69519 	 77.3349
| 30> H 	 -22.3839 	 -1.18036 	 76.4883
| 31> H 	 -23.775 	 -1.97162 	 77.1739
| 32> C 	 -21.9067 	 -2.96563 	 77.3365
| 33> H 	 -22.3072 	 -3.53209 	 78.1307
| 34> H 	 -20.8809 	 -2.81943 	 77.5312
| 35> C 	 -22.1876 	 -3.88307 	 76.1271
| 36> H 	 -23.227 	 -4.09453 	 76.0104
| 37> H 	 -21.8601 	 -4.84553 	 76.3138
| 38> H 	 -21.791 	 -3.49926 	 75.209
| 39> H 	 -19.4706 	 2.78539 	 74.9946
| 40> H 	 -23.7377 	 -0.194827 	 81.5041
| 41> *
| 42>
| 43>                          ****END OF INPUT****

CARTESIAN COORDINATES (ANGSTROEM)
---------------------------------
  S    -21.268100    1.927080   76.419600
  C    -19.626000    2.122100   75.907800
  C    -18.806500    1.123010   76.529200
  C    -19.460000    0.529462   77.603600
  C    -20.773500    0.885583   77.754400
  H    -19.075500   -0.290859   78.192700
  C    -17.315100    0.984243   76.387200
  H    -17.062700    0.937965   75.324200
  H    -17.049400   -0.015631   76.708400
  C    -16.375900    1.936560   77.119600
  H    -16.685700    2.899380   76.711700
  H    -16.523400    1.942800   78.175800
  C    -14.965000    1.841560   76.700200
  H    -14.561700    0.845555   76.953200
  H    -14.887800    1.914660   75.568500
  H    -14.419100    2.550470   77.239400
  S    -21.986300    1.156060   80.279300
  C    -23.181700   -0.021097   80.601600
  C    -23.503700   -0.919726   79.599700
  C    -22.553800   -0.801489   78.520100
  C    -21.726500    0.298443   78.689500
  H    -24.149900   -1.779400   79.736600
  C    -22.673800   -1.695190   77.334900
  H    -22.383900   -1.180360   76.488300
  H    -23.775000   -1.971620   77.173900
  C    -21.906700   -2.965630   77.336500
  H    -22.307200   -3.532090   78.130700
  H    -20.880900   -2.819430   77.531200
  C    -22.187600   -3.883070   76.127100
  H    -23.227000   -4.094530   76.010400
  H    -21.860100   -4.845530   76.313800
  H    -21.791000   -3.499260   75.209000
  H    -19.470600    2.785390   74.994600
  H    -23.737700   -0.194827   81.504100

 Total Charge           Charge          ....    0
 Multiplicity           Mult            ....    1
 Number of Electrons    NEL             ....  134
 Basis Dimension        Dim             ....  322

ORBITAL ENERGIES
----------------

  NO   OCC          E(Eh)            E(eV)
   0   2.0000     -88.969233     -2420.9759
   1   2.0000     -88.965981     -2420.8874
   2   2.0000     -10.325731      -280.9774
   3   2.0000     -10.324068      -280.9322
   4   2.0000     -10.322385      -280.8864
   5   2.0000     -10.313490      -280.6443
   6   2.0000     -10.302438      -280.3436
   7   2.0000     -10.302177      -280.3365
   8   2.0000     -10.289788      -279.9994
   9   2.0000     -10.287890      -279.9477
  10   2.0000     -10.285840      -279.8919
  11   2.0000     -10.282259      -279.7945
  12   2.0000     -10.277102      -279.6542
  13   2.0000     -10.276238      -279.6307
  14   2.0000     -10.273764      -279.5633
  15   2.0000     -10.267369      -279.3893
  16   2.0000      -8.083525      -219.9639
  17   2.0000      -8.080664      -219.8860
  18   2.0000      -6.041944      -164.4096
  19   2.0000      -6.038864      -164.3258
  20   2.0000      -6.038329      -164.3113
  21   2.0000      -6.035158      -164.2250
  22   2.0000      -6.034178      -164.1983
  23   2.0000      -6.031775      -164.1329
  24   2.0000      -1.003670       -27.3112
  25   2.0000      -0.982799       -26.7433
  26   2.0000      -0.918264       -24.9872
  27   2.0000      -0.917222       -24.9589
  28   2.0000      -0.866454       -23.5774
  29   2.0000      -0.856893       -23.3172
  30   2.0000      -0.855227       -23.2719
  31   2.0000      -0.811652       -22.0862
  32   2.0000      -0.788713       -21.4620
  33   2.0000      -0.766694       -20.8628
  34   2.0000      -0.707733       -19.2584
  35   2.0000      -0.697250       -18.9731
  36   2.0000      -0.688956       -18.7475
  37   2.0000      -0.659101       -17.9350
  38   2.0000      -0.646587       -17.5945
  39   2.0000      -0.620035       -16.8720
  40   2.0000      -0.599602       -16.3160
  41   2.0000      -0.574749       -15.6397
  42   2.0000      -0.570422       -15.5220
  43   2.0000      -0.559632       -15.2284
  44   2.0000      -0.530639       -14.4394
  45   2.0000      -0.522789       -14.2258
  46   2.0000      -0.518089       -14.0979
  47   2.0000      -0.510600       -13.8941
  48   2.0000      -0.506746       -13.7893
  49   2.0000      -0.501980       -13.6596
  50   2.0000      -0.483940       -13.1687
  51   2.0000      -0.474468       -12.9109
  52   2.0000      -0.467870       -12.7314
  53   2.0000      -0.463707       -12.6181
  54   2.0000      -0.459425       -12.5016
  55   2.0000      -0.453091       -12.3292
  56   2.0000      -0.445718       -12.1286
  57   2.0000      -0.440587       -11.9890
  58   2.0000      -0.437020       -11.8919
  59   2.0000      -0.430667       -11.7190
  60   2.0000      -0.425045       -11.5661
  61   2.0000      -0.413222       -11.2443
  62   2.0000      -0.402939       -10.9645
  63   2.0000      -0.338698        -9.2164
  64   2.0000      -0.332129        -9.0377
  65   2.0000      -0.312774        -8.5110
  66   2.0000      -0.308796        -8.4028
  67   0.0000       0.039947         1.0870
  68   0.0000       0.049810         1.3554
  69   0.0000       0.104976         2.8565
  70   0.0000       0.106649         2.9021
  71   0.0000       0.128214         3.4889

MULLIKEN ATOMIC CHARGES
-----------------------
   0 S :    0.121697
   1 C :   -0.160467
   2 C :   -0.057968
   3 C :    0.038065
   4 C :   -0.172075
   5 H :    0.016321
   6 C :    0.041032
   7 H :    0.013179
   8 H :    0.001083
   9 C :   -0.031550
  10 H :    0.012858
  11 H :    0.025995
  12 C :   -0.026415
  13 H :    0.018869
  14 H :    0.036510
  15 H :    0.029021
  16 S :    0.126893
  17 C :   -0.060526
  18 C :   -0.048180
  19 C :   -0.009316
  20 C :   -0.205863
  21 H :    0.024909
  22 C :    0.083161
  23 H :   -0.006197
  24 H :    0.026702
  25 C :   -0.042338
  26 H :   -0.000057
  27 H :    0.019938
  28 C :    0.007956
  29 H :    0.008074
  30 H :    0.009874
  31 H :    0.030894
  32 H :    0.084168
  33 H :    0.043753
Sum of atomic charges:   -0.0000000

LOEWDIN ATOMIC CHARGES
----------------------
   0 S :    0.418142
   1 C :   -0.209518
   2 C :   -0.068188
   3 C :   -0.058035
   4 C :   -0.202825
   5 H :    0.034733
   6 C :   -0.037226
   7 H :    0.027985
   8 H :    0.023096
   9 C :   -0.038789
  10 H :    0.024580
  11 H :    0.021981
  12 C :   -0.058299
  13 H :    0.021304
  14 H :    0.033464
  15 H :    0.021139
  16 S :    0.397659
  17 C :   -0.187706
  18 C :   -0.076398
  19 C :   -0.039682
  20 C :   -0.189344
  21 H :    0.031529
  22 C :   -0.031348
  23 H :    0.015190
  24 H :    0.039913
  25 C :   -0.029726
  26 H :    0.017561
  27 H :    0.018497
  28 C :   -0.051774
  29 H :    0.023290
  30 H :    0.019102
  31 H :    0.021970
  32 H :    0.040716
  33 H :    0.027005

  Mayer bond orders larger than 0.100000
B(  0-S ,  1-C ) :   1.1849 B(  0-S ,  4-C ) :   1.1570 B(  1-C ,  2-C ) :   1.5176
B(  1-C ,  4-C ) :   0.1106 B(  1-C , 32-H ) :   0.9645 B(  2-C ,  3-C ) :   1.2808
B(  2-C ,  6-C ) :   1.0510 B(  3-C ,  4-C ) :   1.5623 B(  3-C ,  5-H ) :   0.9936
B(  4-C , 20-C ) :   1.0263 B(  6-C ,  7-H ) :   0.9352 B(  6-C ,  8-H ) :   0.9321
B(  6-C ,  9-C ) :   1.0649 B(  9-C , 10-H ) :   0.9486 B(  9-C , 11-H ) :   0.9525
B(  9-C , 12-C ) :   1.0914 B( 12-C , 13-H ) :   0.9727 B( 12-C , 14-H ) :   0.9711
B( 12-C , 15-H ) :   0.9697 B( 16-S , 17-C ) :   1.1607 B( 16-S , 20-C ) :   1.1073
B( 17-C , 18-C ) :   1.6461 B( 17-C , 33-H ) :   0.9576 B( 18-C , 19-C ) :   1.2237
B( 18-C , 21-H ) :   0.9775 B( 19-C , 20-C ) :   1.6380 B( 19-C , 22-C ) :   1.0473
B( 22-C , 23-H ) :   0.9156 B( 22-C , 24-H ) :   0.9367 B( 22-C , 25-C ) :   1.0767
B( 25-C , 26-H ) :   0.9488 B( 25-C , 27-H ) :   0.9513 B( 25-C , 28-C ) :   1.0935
B( 28-C , 29-H ) :   0.9665 B( 28-C , 30-H ) :   0.9701 B( 28-C , 31-H ) :   0.9763

Dispersion correction           -0.013926673
FINAL SINGLE POINT ENERGY     -1339.854538855753

DIPOLE MOMENT
-------------
                                X             Y             Z
Electronic contribution:    -16.32726      14.77228      10.65393
Nuclear contribution   :     16.54150     -15.28254     -10.80964
                        -----------------------------------------
Total Dipole Moment    :      0.21424      -0.51025      -0.15571
                        -----------------------------------------
Magnitude (a.u.)       :      0.57489
Magnitude (Debye)      :      1.46126

Rotational constants in cm-1:     0.018133     0.007843     0.006654
Rotational constants in MHz :   543.617040   235.123741   199.485025

                             ****ORCA TERMINATED NORMALLY****
TOTAL RUN TIME: 0 days 0 hours 0 minutes 31 seconds 123 msec
