                         Program Version 4.2.1 -  RELEASE  -
|  1> ! wB97X-D3 SP def2-SVP
|  2> %pal
|  3> nprocs 16
|  4> end
|  5>
|  6> * xyz 0 1
|  7> S 	 59.4181 	 -5.3708 	 88.1718
|  8> C 	 58.7302 	 -3.86139 	 88.687
|  9> C 	 58.0234 	 -3.22397 	 87.7189
| 10> C 	 57.9272 	 -4.03396 	 86.5788
| 11> C 	 58.5963 	 -5.23338 	 86.6513
| 12> H 	 57.3949 	 -3.7427 	 85.7248
| 13> C 	 57.5477 	 -1.78328 	 87.7214
| 14> H 	 57.1784 	 -1.54587 	 88.7479
| 15> H 	 56.7034 	 -1.7696 	 87.0704
| 16> C 	 58.5557 	 -0.823537 	 87.1554
| 17> H 	 58.1479 	 0.1253 	 87.0553
| 18> H 	 59.3088 	 -0.658054 	 87.9506
| 19> C 	 59.0753 	 -1.14176 	 85.7831
| 20> H 	 59.9258 	 -1.83707 	 85.7638
| 21> H 	 58.3223 	 -1.51589 	 85.0179
| 22> H 	 59.5972 	 -0.230844 	 85.3836
| 23> S 	 57.9269 	 -7.89988 	 86.1721
| 24> C 	 57.7053 	 -8.3833 	 84.5434
| 25> C 	 58.2037 	 -7.43069 	 83.6461
| 26> C 	 58.6709 	 -6.22718 	 84.2648
| 27> C 	 58.5369 	 -6.29149 	 85.6706
| 28> H 	 58.1623 	 -7.62751 	 82.5595
| 29> C 	 59.4347 	 -5.16518 	 83.5372
| 30> H 	 60.2129 	 -5.56442 	 82.9293
| 31> H 	 59.9602 	 -4.56609 	 84.221
| 32> C 	 58.5662 	 -4.2575 	 82.6533
| 33> H 	 57.675 	 -3.83926 	 83.1904
| 34> H 	 58.2068 	 -4.95661 	 81.901
| 35> C 	 59.2974 	 -3.09103 	 82.0348
| 36> H 	 60.2791 	 -3.21577 	 81.573
| 37> H 	 59.3496 	 -2.23692 	 82.6599
| 38> H 	 58.6919 	 -2.66325 	 81.2806
| 39> H 	 58.9023 	 -3.45502 	 89.6165
| 40> H 	 57.2897 	 -9.35846 	 84.313
| 41> *
| 42>
| 43>                          ****END OF INPUT****

CARTESIAN COORDINATES (ANGSTROEM)
---------------------------------
  S     59.418100   -5.370800   88.171800
  C     58.730200   -3.861390   88.687000
  C     58.023400   -3.223970   87.718900
  C     57.927200   -4.033960   86.578800
  C     58.596300   -5.233380   86.651300
  H     57.394900   -3.742700   85.724800
  C     57.547700   -1.783280   87.721400
  H     57.178400   -1.545870   88.747900
  H     56.703400   -1.769600   87.070400
  C     58.555700   -0.823537   87.155400
  H     58.147900    0.125300   87.055300
  H     59.308800   -0.658054   87.950600
  C     59.075300   -1.141760   85.783100
  H     59.925800   -1.837070   85.763800
  H     58.322300   -1.515890   85.017900
  H     59.597200   -0.230844   85.383600
  S     57.926900   -7.899880   86.172100
  C     57.705300   -8.383300   84.543400
  C     58.203700   -7.430690   83.646100
  C     58.670900   -6.227180   84.264800
  C     58.536900   -6.291490   85.670600
  H     58.162300   -7.627510   82.559500
  C     59.434700   -5.165180   83.537200
  H     60.212900   -5.564420   82.929300
  H     59.960200   -4.566090   84.221000
  C     58.566200   -4.257500   82.653300
  H     57.675000   -3.839260   83.190400
  H     58.206800   -4.956610   81.901000
  C     59.297400   -3.091030   82.034800
  H     60.279100   -3.215770   81.573000
  H     59.349600   -2.236920   82.659900
  H     58.691900   -2.663250   81.280600
  H     58.902300   -3.455020   89.616500
  H     57.289700   -9.358460   84.313000

 Total Charge           Charge          ....    0
 Multiplicity           Mult            ....    1
 Number of Electrons    NEL             ....  134
 Basis Dimension        Dim             ....  322

ORBITAL ENERGIES
----------------

  NO   OCC          E(Eh)            E(eV)
   0   2.0000     -88.964511     -2420.8474
   1   2.0000     -88.963774     -2420.8274
   2   2.0000     -10.327222      -281.0180
   3   2.0000     -10.322743      -280.8961
   4   2.0000     -10.317676      -280.7582
   5   2.0000     -10.304646      -280.4037
   6   2.0000     -10.302547      -280.3465
   7   2.0000     -10.297160      -280.2000
   8   2.0000     -10.290965      -280.0314
   9   2.0000     -10.290546      -280.0200
  10   2.0000     -10.288400      -279.9616
  11   2.0000     -10.286453      -279.9086
  12   2.0000     -10.282857      -279.8108
  13   2.0000     -10.282076      -279.7895
  14   2.0000     -10.281298      -279.7684
  15   2.0000     -10.270243      -279.4675
  16   2.0000      -8.079893      -219.8651
  17   2.0000      -8.078710      -219.8329
  18   2.0000      -6.038257      -164.3093
  19   2.0000      -6.037077      -164.2772
  20   2.0000      -6.034406      -164.2045
  21   2.0000      -6.033126      -164.1697
  22   2.0000      -6.030694      -164.1035
  23   2.0000      -6.029671      -164.0757
  24   2.0000      -1.008472       -27.4419
  25   2.0000      -0.984173       -26.7807
  26   2.0000      -0.920417       -25.0458
  27   2.0000      -0.913260       -24.8511
  28   2.0000      -0.869634       -23.6639
  29   2.0000      -0.855403       -23.2767
  30   2.0000      -0.847356       -23.0577
  31   2.0000      -0.811654       -22.0862
  32   2.0000      -0.789749       -21.4902
  33   2.0000      -0.776908       -21.1407
  34   2.0000      -0.707392       -19.2491
  35   2.0000      -0.704910       -19.1816
  36   2.0000      -0.697241       -18.9729
  37   2.0000      -0.659295       -17.9403
  38   2.0000      -0.642790       -17.4912
  39   2.0000      -0.618037       -16.8177
  40   2.0000      -0.599967       -16.3259
  41   2.0000      -0.574718       -15.6389
  42   2.0000      -0.568634       -15.4733
  43   2.0000      -0.554580       -15.0909
  44   2.0000      -0.546901       -14.8819
  45   2.0000      -0.522918       -14.2293
  46   2.0000      -0.514244       -13.9933
  47   2.0000      -0.512865       -13.9558
  48   2.0000      -0.511031       -13.9059
  49   2.0000      -0.498778       -13.5724
  50   2.0000      -0.490310       -13.3420
  51   2.0000      -0.479578       -13.0500
  52   2.0000      -0.474561       -12.9135
  53   2.0000      -0.465663       -12.6713
  54   2.0000      -0.459479       -12.5031
  55   2.0000      -0.448330       -12.1997
  56   2.0000      -0.442426       -12.0390
  57   2.0000      -0.439094       -11.9484
  58   2.0000      -0.435135       -11.8406
  59   2.0000      -0.433474       -11.7954
  60   2.0000      -0.426531       -11.6065
  61   2.0000      -0.411885       -11.2080
  62   2.0000      -0.409091       -11.1319
  63   2.0000      -0.342807        -9.3283
  64   2.0000      -0.332266        -9.0414
  65   2.0000      -0.329226        -8.9587
  66   2.0000      -0.287691        -7.8285
  67   0.0000       0.030688         0.8351
  68   0.0000       0.069130         1.8811
  69   0.0000       0.113619         3.0917
  70   0.0000       0.119994         3.2652
  71   0.0000       0.134130         3.6499

MULLIKEN ATOMIC CHARGES
-----------------------
   0 S :    0.113226
   1 C :   -0.098501
   2 C :   -0.084650
   3 C :    0.048425
   4 C :   -0.153818
   5 H :   -0.029256
   6 C :    0.081945
   7 H :    0.030259
   8 H :    0.008945
   9 C :   -0.000549
  10 H :    0.011582
  11 H :    0.025024
  12 C :   -0.102925
  13 H :    0.044046
  14 H :    0.045683
  15 H :    0.035364
  16 S :    0.110366
  17 C :   -0.104662
  18 C :   -0.040268
  19 C :   -0.019836
  20 C :   -0.155810
  21 H :    0.029469
  22 C :    0.110180
  23 H :    0.020958
  24 H :    0.002118
  25 C :   -0.104567
  26 H :    0.034841
  27 H :    0.023543
  28 C :   -0.001105
  29 H :    0.030210
  30 H :    0.010927
  31 H :    0.010859
  32 H :    0.005249
  33 H :    0.062729
Sum of atomic charges:    0.0000000

LOEWDIN ATOMIC CHARGES
----------------------
   0 S :    0.414513
   1 C :   -0.182585
   2 C :   -0.064417
   3 C :   -0.050396
   4 C :   -0.203108
   5 H :    0.017755
   6 C :   -0.025970
   7 H :    0.035520
   8 H :    0.023250
   9 C :   -0.041291
  10 H :    0.017855
  11 H :    0.030288
  12 C :   -0.076121
  13 H :    0.027488
  14 H :    0.031084
  15 H :    0.033668
  16 S :    0.407720
  17 C :   -0.194769
  18 C :   -0.077467
  19 C :   -0.048942
  20 C :   -0.189410
  21 H :    0.034479
  22 C :   -0.026342
  23 H :    0.031297
  24 H :    0.021483
  25 C :   -0.037306
  26 H :    0.028204
  27 H :    0.021146
  28 C :   -0.069534
  29 H :    0.027085
  30 H :    0.021812
  31 H :    0.025550
  32 H :    0.008263
  33 H :    0.029197

  Mayer bond orders larger than 0.100000
B(  0-S ,  1-C ) :   1.1440 B(  0-S ,  4-C ) :   1.1499 B(  1-C ,  2-C ) :   1.6088
B(  1-C , 32-H ) :   0.9757 B(  2-C ,  3-C ) :   1.2623 B(  2-C ,  6-C ) :   1.0197
B(  3-C ,  4-C ) :   1.5601 B(  3-C ,  5-H ) :   1.0021 B(  4-C , 20-C ) :   1.0448
B(  6-C ,  7-H ) :   0.9390 B(  6-C ,  8-H ) :   0.9321 B(  6-C ,  9-C ) :   1.0861
B(  9-C , 10-H ) :   0.9516 B(  9-C , 11-H ) :   0.9465 B(  9-C , 12-C ) :   1.0787
B( 12-C , 13-H ) :   0.9681 B( 12-C , 14-H ) :   0.9673 B( 12-C , 15-H ) :   0.9697
B( 16-S , 17-C ) :   1.1783 B( 16-S , 20-C ) :   1.1406 B( 17-C , 18-C ) :   1.5733
B( 17-C , 20-C ) :   0.1039 B( 17-C , 33-H ) :   0.9699 B( 18-C , 19-C ) :   1.2487
B( 18-C , 21-H ) :   0.9876 B( 19-C , 20-C ) :   1.5661 B( 19-C , 22-C ) :   1.0513
B( 22-C , 23-H ) :   0.9360 B( 22-C , 24-H ) :   0.9323 B( 22-C , 25-C ) :   1.0487
B( 25-C , 26-H ) :   0.9529 B( 25-C , 27-H ) :   0.9601 B( 25-C , 28-C ) :   1.0911
B( 28-C , 29-H ) :   0.9706 B( 28-C , 30-H ) :   0.9682 B( 28-C , 31-H ) :   0.9637

Dispersion correction           -0.016043051
FINAL SINGLE POINT ENERGY     -1339.879753522147

DIPOLE MOMENT
-------------
                                X             Y             Z
Electronic contribution:     -1.39862     -26.49388      17.05380
Nuclear contribution   :      1.36029      27.11572     -17.49718
                        -----------------------------------------
Total Dipole Moment    :     -0.03833       0.62184      -0.44338
                        -----------------------------------------
Magnitude (a.u.)       :      0.76468
Magnitude (Debye)      :      1.94367

Rotational constants in cm-1:     0.016996     0.011138     0.007313
Rotational constants in MHz :   509.528965   333.922144   219.248143

                             ****ORCA TERMINATED NORMALLY****
TOTAL RUN TIME: 0 days 0 hours 0 minutes 32 seconds 903 msec
