                         Program Version 4.2.1 -  RELEASE  -
|  1> ! wB97X-D3 SP def2-SVP
|  2> %pal
|  3> nprocs 16
|  4> end
|  5>
|  6> * xyz 0 1
|  7> S 	 -58.561 	 42.1091 	 115.543
|  8> C 	 -58.6663 	 42.5192 	 113.936
|  9> C 	 -57.547 	 42.1369 	 113.205
| 10> C 	 -56.7234 	 41.3171 	 114.063
| 11> C 	 -57.0957 	 41.2382 	 115.402
| 12> H 	 -55.8205 	 40.816 	 113.683
| 13> C 	 -57.374 	 42.3152 	 111.672
| 14> H 	 -56.6785 	 41.5459 	 111.34
| 15> H 	 -57.046 	 43.371 	 111.517
| 16> C 	 -58.6321 	 41.9498 	 110.938
| 17> H 	 -59.0296 	 40.9824 	 111.305
| 18> H 	 -59.3406 	 42.6976 	 111.219
| 19> C 	 -58.4692 	 41.9408 	 109.363
| 20> H 	 -59.4466 	 41.9908 	 108.905
| 21> H 	 -57.9433 	 42.831 	 109.141
| 22> H 	 -57.9535 	 41.1675 	 108.94
| 23> S 	 -55.7408 	 42.2459 	 117.601
| 24> C 	 -54.7071 	 41.1694 	 118.401
| 25> C 	 -54.8159 	 39.9007 	 118.083
| 26> C 	 -55.74 	 39.7025 	 117.018
| 27> C 	 -56.3142 	 40.9058 	 116.615
| 28> H 	 -54.1985 	 39.1591 	 118.605
| 29> C 	 -56.1929 	 38.3547 	 116.468
| 30> H 	 -55.3009 	 37.8916 	 116.074
| 31> H 	 -56.9165 	 38.574 	 115.655
| 32> C 	 -57.1189 	 37.4743 	 117.381
| 33> H 	 -56.5986 	 37.1907 	 118.356
| 34> H 	 -57.2714 	 36.5531 	 116.901
| 35> C 	 -58.4747 	 38.0801 	 117.782
| 36> H 	 -59.1724 	 38.3162 	 116.943
| 37> H 	 -58.431 	 38.9881 	 118.296
| 38> H 	 -58.9737 	 37.3987 	 118.492
| 39> H 	 -59.3805 	 43.198 	 113.512
| 40> H 	 -54.0725 	 41.4973 	 119.156
| 41> *
| 42>
| 43>                          ****END OF INPUT****

CARTESIAN COORDINATES (ANGSTROEM)
---------------------------------
  S    -58.561000   42.109100  115.543000
  C    -58.666300   42.519200  113.936000
  C    -57.547000   42.136900  113.205000
  C    -56.723400   41.317100  114.063000
  C    -57.095700   41.238200  115.402000
  H    -55.820500   40.816000  113.683000
  C    -57.374000   42.315200  111.672000
  H    -56.678500   41.545900  111.340000
  H    -57.046000   43.371000  111.517000
  C    -58.632100   41.949800  110.938000
  H    -59.029600   40.982400  111.305000
  H    -59.340600   42.697600  111.219000
  C    -58.469200   41.940800  109.363000
  H    -59.446600   41.990800  108.905000
  H    -57.943300   42.831000  109.141000
  H    -57.953500   41.167500  108.940000
  S    -55.740800   42.245900  117.601000
  C    -54.707100   41.169400  118.401000
  C    -54.815900   39.900700  118.083000
  C    -55.740000   39.702500  117.018000
  C    -56.314200   40.905800  116.615000
  H    -54.198500   39.159100  118.605000
  C    -56.192900   38.354700  116.468000
  H    -55.300900   37.891600  116.074000
  H    -56.916500   38.574000  115.655000
  C    -57.118900   37.474300  117.381000
  H    -56.598600   37.190700  118.356000
  H    -57.271400   36.553100  116.901000
  C    -58.474700   38.080100  117.782000
  H    -59.172400   38.316200  116.943000
  H    -58.431000   38.988100  118.296000
  H    -58.973700   37.398700  118.492000
  H    -59.380500   43.198000  113.512000
  H    -54.072500   41.497300  119.156000

 Total Charge           Charge          ....    0
 Multiplicity           Mult            ....    1
 Number of Electrons    NEL             ....  134
 Basis Dimension        Dim             ....  322

ORBITAL ENERGIES
----------------

  NO   OCC          E(Eh)            E(eV)
   0   2.0000     -88.962382     -2420.7895
   1   2.0000     -88.961796     -2420.7735
   2   2.0000     -10.325083      -280.9598
   3   2.0000     -10.324373      -280.9405
   4   2.0000     -10.304919      -280.4111
   5   2.0000     -10.301466      -280.3171
   6   2.0000     -10.300678      -280.2957
   7   2.0000     -10.299800      -280.2718
   8   2.0000     -10.296065      -280.1702
   9   2.0000     -10.294992      -280.1410
  10   2.0000     -10.291742      -280.0525
  11   2.0000     -10.289615      -279.9947
  12   2.0000     -10.286137      -279.9000
  13   2.0000     -10.285157      -279.8734
  14   2.0000     -10.272112      -279.5184
  15   2.0000     -10.270222      -279.4669
  16   2.0000      -8.079385      -219.8512
  17   2.0000      -8.077978      -219.8130
  18   2.0000      -6.037531      -164.2896
  19   2.0000      -6.036220      -164.2539
  20   2.0000      -6.033352      -164.1759
  21   2.0000      -6.032483      -164.1522
  22   2.0000      -6.030612      -164.1013
  23   2.0000      -6.028722      -164.0499
  24   2.0000      -1.014699       -27.6114
  25   2.0000      -0.996082       -27.1048
  26   2.0000      -0.913835       -24.8667
  27   2.0000      -0.901818       -24.5397
  28   2.0000      -0.869813       -23.6688
  29   2.0000      -0.849332       -23.1115
  30   2.0000      -0.844841       -22.9893
  31   2.0000      -0.816753       -22.2250
  32   2.0000      -0.786306       -21.3965
  33   2.0000      -0.773868       -21.0580
  34   2.0000      -0.704914       -19.1817
  35   2.0000      -0.702625       -19.1194
  36   2.0000      -0.693341       -18.8668
  37   2.0000      -0.654897       -17.8207
  38   2.0000      -0.639693       -17.4069
  39   2.0000      -0.614203       -16.7133
  40   2.0000      -0.595549       -16.2057
  41   2.0000      -0.577074       -15.7030
  42   2.0000      -0.569516       -15.4973
  43   2.0000      -0.553042       -15.0490
  44   2.0000      -0.539336       -14.6761
  45   2.0000      -0.523144       -14.2355
  46   2.0000      -0.514755       -14.0072
  47   2.0000      -0.507093       -13.7987
  48   2.0000      -0.501731       -13.6528
  49   2.0000      -0.499512       -13.5924
  50   2.0000      -0.488788       -13.3006
  51   2.0000      -0.477854       -13.0031
  52   2.0000      -0.470515       -12.8034
  53   2.0000      -0.466075       -12.6825
  54   2.0000      -0.461382       -12.5549
  55   2.0000      -0.450593       -12.2613
  56   2.0000      -0.448320       -12.1994
  57   2.0000      -0.440602       -11.9894
  58   2.0000      -0.435729       -11.8568
  59   2.0000      -0.420667       -11.4469
  60   2.0000      -0.416847       -11.3430
  61   2.0000      -0.414631       -11.2827
  62   2.0000      -0.408169       -11.1068
  63   2.0000      -0.345080        -9.3901
  64   2.0000      -0.330329        -8.9887
  65   2.0000      -0.325881        -8.8677
  66   2.0000      -0.298565        -8.1244
  67   0.0000       0.043475         1.1830
  68   0.0000       0.067042         1.8243
  69   0.0000       0.126886         3.4527
  70   0.0000       0.130379         3.5478
  71   0.0000       0.136681         3.7193

MULLIKEN ATOMIC CHARGES
-----------------------
   0 S :    0.122783
   1 C :   -0.109912
   2 C :   -0.135148
   3 C :    0.031321
   4 C :   -0.173985
   5 H :    0.012323
   6 C :    0.076763
   7 H :    0.023765
   8 H :    0.052990
   9 C :   -0.119717
  10 H :    0.041948
  11 H :    0.018382
  12 C :    0.009909
  13 H :    0.030887
  14 H :    0.012587
  15 H :    0.019289
  16 S :    0.120608
  17 C :   -0.055617
  18 C :   -0.029312
  19 C :   -0.049245
  20 C :   -0.159281
  21 H :    0.021007
  22 C :    0.072156
  23 H :    0.032479
  24 H :    0.031153
  25 C :   -0.057549
  26 H :    0.027694
  27 H :    0.023849
  28 C :   -0.058752
  29 H :    0.035314
  30 H :    0.026610
  31 H :    0.033751
  32 H :    0.045949
  33 H :    0.025000
Sum of atomic charges:   -0.0000000

LOEWDIN ATOMIC CHARGES
----------------------
   0 S :    0.463004
   1 C :   -0.226263
   2 C :   -0.068705
   3 C :   -0.062766
   4 C :   -0.225524
   5 H :    0.029910
   6 C :   -0.031674
   7 H :    0.030689
   8 H :    0.038893
   9 C :   -0.038523
  10 H :    0.028224
  11 H :    0.015349
  12 C :   -0.051908
  13 H :    0.029225
  14 H :    0.021339
  15 H :    0.012268
  16 S :    0.419298
  17 C :   -0.181608
  18 C :   -0.078347
  19 C :   -0.050437
  20 C :   -0.204011
  21 H :    0.038347
  22 C :   -0.032603
  23 H :    0.029418
  24 H :    0.036303
  25 C :   -0.035951
  26 H :    0.025905
  27 H :    0.018551
  28 C :   -0.068200
  29 H :    0.029219
  30 H :    0.017871
  31 H :    0.031696
  32 H :    0.025230
  33 H :    0.015778

  Mayer bond orders larger than 0.100000
B(  0-S ,  1-C ) :   1.1923 B(  0-S ,  4-C ) :   1.1762 B(  1-C ,  2-C ) :   1.5544
B(  1-C , 32-H ) :   0.9671 B(  2-C ,  3-C ) :   1.3114 B(  2-C ,  6-C ) :   1.0084
B(  3-C ,  4-C ) :   1.5360 B(  3-C ,  5-H ) :   0.9924 B(  4-C , 20-C ) :   1.0009
B(  6-C ,  7-H ) :   0.9517 B(  6-C ,  8-H ) :   0.9294 B(  6-C ,  9-C ) :   1.0779
B(  9-C , 10-H ) :   0.9610 B(  9-C , 11-H ) :   0.9504 B(  9-C , 12-C ) :   1.0752
B( 12-C , 13-H ) :   0.9747 B( 12-C , 14-H ) :   0.9721 B( 12-C , 15-H ) :   0.9792
B( 16-S , 17-C ) :   1.1599 B( 16-S , 20-C ) :   1.1398 B( 17-C , 18-C ) :   1.6449
B( 17-C , 33-H ) :   0.9660 B( 18-C , 19-C ) :   1.2113 B( 18-C , 21-H ) :   0.9943
B( 19-C , 20-C ) :   1.6213 B( 19-C , 22-C ) :   1.0432 B( 22-C , 23-H ) :   0.9342
B( 22-C , 24-H ) :   0.9349 B( 22-C , 25-C ) :   1.0611 B( 25-C , 26-H ) :   0.9569
B( 25-C , 27-H ) :   0.9565 B( 25-C , 28-C ) :   1.0727 B( 28-C , 29-H ) :   0.9730
B( 28-C , 30-H ) :   0.9760 B( 28-C , 31-H ) :   0.9724

Dispersion correction           -0.014259578
FINAL SINGLE POINT ENERGY     -1339.867980815205

DIPOLE MOMENT
-------------
                                X             Y             Z
Electronic contribution:      6.21378      12.91989      17.21448
Nuclear contribution   :     -6.03800     -13.14901     -17.53937
                        -----------------------------------------
Total Dipole Moment    :      0.17578      -0.22911      -0.32489
                        -----------------------------------------
Magnitude (a.u.)       :      0.43467
Magnitude (Debye)      :      1.10486

Rotational constants in cm-1:     0.022933     0.007200     0.006499
Rotational constants in MHz :   687.524132   215.861159   194.837919

                             ****ORCA TERMINATED NORMALLY****
TOTAL RUN TIME: 0 days 0 hours 0 minutes 29 seconds 501 msec
