                         Program Version 4.2.1 -  RELEASE  -
|  1> ! wB97X-D3 SP def2-SVP
|  2> %pal
|  3> nprocs 16
|  4> end
|  5>
|  6> * xyz 0 1
|  7> S 	 -112.768 	 51.5999 	 133.053
|  8> C 	 -111.934 	 52.9538 	 133.883
|  9> C 	 -111.477 	 52.6821 	 135.165
| 10> C 	 -111.899 	 51.3373 	 135.474
| 11> C 	 -112.672 	 50.7163 	 134.566
| 12> H 	 -111.749 	 50.737 	 136.382
| 13> C 	 -110.536 	 53.581 	 136
| 14> H 	 -110.388 	 54.4942 	 135.421
| 15> H 	 -109.587 	 53.0284 	 136.058
| 16> C 	 -111.108 	 54.032 	 137.366
| 17> H 	 -112.061 	 54.6752 	 137.344
| 18> H 	 -111.442 	 53.1024 	 137.842
| 19> C 	 -110.061 	 54.7532 	 138.253
| 20> H 	 -110.448 	 54.9931 	 139.295
| 21> H 	 -109.274 	 54.0914 	 138.43
| 22> H 	 -109.806 	 55.7654 	 137.742
| 23> S 	 -112.521 	 48.257 	 133.579
| 24> C 	 -113.088 	 46.927 	 134.477
| 25> C 	 -113.896 	 47.3322 	 135.478
| 26> C 	 -113.904 	 48.7089 	 135.761
| 27> C 	 -113.189 	 49.3532 	 134.73
| 28> H 	 -114.261 	 46.4773 	 136.145
| 29> C 	 -114.535 	 49.3419 	 136.994
| 30> H 	 -113.894 	 49.2067 	 137.887
| 31> H 	 -115.419 	 48.745 	 137.169
| 32> C 	 -115.076 	 50.7668 	 136.864
| 33> H 	 -115.802 	 50.7357 	 136.015
| 34> H 	 -114.222 	 51.4111 	 136.568
| 35> C 	 -115.813 	 51.3212 	 138.023
| 36> H 	 -115.174 	 51.6383 	 138.93
| 37> H 	 -116.691 	 50.6949 	 138.447
| 38> H 	 -116.306 	 52.2115 	 137.806
| 39> H 	 -111.761 	 53.9589 	 133.561
| 40> H 	 -112.968 	 45.8977 	 134.204
| 41> *
| 42>
| 43>                          ****END OF INPUT****

CARTESIAN COORDINATES (ANGSTROEM)
---------------------------------
  S    -112.768000   51.599900  133.053000
  C    -111.934000   52.953800  133.883000
  C    -111.477000   52.682100  135.165000
  C    -111.899000   51.337300  135.474000
  C    -112.672000   50.716300  134.566000
  H    -111.749000   50.737000  136.382000
  C    -110.536000   53.581000  136.000000
  H    -110.388000   54.494200  135.421000
  H    -109.587000   53.028400  136.058000
  C    -111.108000   54.032000  137.366000
  H    -112.061000   54.675200  137.344000
  H    -111.442000   53.102400  137.842000
  C    -110.061000   54.753200  138.253000
  H    -110.448000   54.993100  139.295000
  H    -109.274000   54.091400  138.430000
  H    -109.806000   55.765400  137.742000
  S    -112.521000   48.257000  133.579000
  C    -113.088000   46.927000  134.477000
  C    -113.896000   47.332200  135.478000
  C    -113.904000   48.708900  135.761000
  C    -113.189000   49.353200  134.730000
  H    -114.261000   46.477300  136.145000
  C    -114.535000   49.341900  136.994000
  H    -113.894000   49.206700  137.887000
  H    -115.419000   48.745000  137.169000
  C    -115.076000   50.766800  136.864000
  H    -115.802000   50.735700  136.015000
  H    -114.222000   51.411100  136.568000
  C    -115.813000   51.321200  138.023000
  H    -115.174000   51.638300  138.930000
  H    -116.691000   50.694900  138.447000
  H    -116.306000   52.211500  137.806000
  H    -111.761000   53.958900  133.561000
  H    -112.968000   45.897700  134.204000

 Total Charge           Charge          ....    0
 Multiplicity           Mult            ....    1
 Number of Electrons    NEL             ....  134
 Basis Dimension        Dim             ....  322

ORBITAL ENERGIES
----------------

  NO   OCC          E(Eh)            E(eV)
   0   2.0000     -88.969173     -2420.9743
   1   2.0000     -88.963623     -2420.8232
   2   2.0000     -10.324240      -280.9369
   3   2.0000     -10.323403      -280.9141
   4   2.0000     -10.314423      -280.6697
   5   2.0000     -10.307408      -280.4788
   6   2.0000     -10.307102      -280.4705
   7   2.0000     -10.305873      -280.4371
   8   2.0000     -10.303499      -280.3725
   9   2.0000     -10.297296      -280.2037
  10   2.0000     -10.293404      -280.0978
  11   2.0000     -10.291802      -280.0542
  12   2.0000     -10.289781      -279.9992
  13   2.0000     -10.289467      -279.9906
  14   2.0000     -10.283505      -279.8284
  15   2.0000     -10.280879      -279.7569
  16   2.0000      -8.083025      -219.9503
  17   2.0000      -8.080003      -219.8681
  18   2.0000      -6.041655      -164.4018
  19   2.0000      -6.038299      -164.3105
  20   2.0000      -6.037966      -164.3014
  21   2.0000      -6.034255      -164.2004
  22   2.0000      -6.033395      -164.1770
  23   2.0000      -6.030908      -164.1093
  24   2.0000      -1.014036       -27.5933
  25   2.0000      -0.985932       -26.8286
  26   2.0000      -0.911062       -24.7913
  27   2.0000      -0.908662       -24.7259
  28   2.0000      -0.870093       -23.6764
  29   2.0000      -0.855514       -23.2797
  30   2.0000      -0.844879       -22.9903
  31   2.0000      -0.815764       -22.1981
  32   2.0000      -0.784844       -21.3567
  33   2.0000      -0.773821       -21.0567
  34   2.0000      -0.707835       -19.2612
  35   2.0000      -0.695194       -18.9172
  36   2.0000      -0.685008       -18.6400
  37   2.0000      -0.656121       -17.8540
  38   2.0000      -0.639506       -17.4019
  39   2.0000      -0.614371       -16.7179
  40   2.0000      -0.595278       -16.1983
  41   2.0000      -0.568584       -15.4720
  42   2.0000      -0.565787       -15.3959
  43   2.0000      -0.559584       -15.2271
  44   2.0000      -0.526192       -14.3184
  45   2.0000      -0.521219       -14.1831
  46   2.0000      -0.514921       -14.0117
  47   2.0000      -0.512495       -13.9457
  48   2.0000      -0.499931       -13.6038
  49   2.0000      -0.496630       -13.5140
  50   2.0000      -0.489112       -13.3094
  51   2.0000      -0.485731       -13.2174
  52   2.0000      -0.468572       -12.7505
  53   2.0000      -0.462997       -12.5988
  54   2.0000      -0.460363       -12.5271
  55   2.0000      -0.451799       -12.2941
  56   2.0000      -0.443837       -12.0774
  57   2.0000      -0.436533       -11.8787
  58   2.0000      -0.431246       -11.7348
  59   2.0000      -0.427274       -11.6267
  60   2.0000      -0.415643       -11.3102
  61   2.0000      -0.415049       -11.2940
  62   2.0000      -0.409429       -11.1411
  63   2.0000      -0.346336        -9.4243
  64   2.0000      -0.333079        -9.0635
  65   2.0000      -0.330225        -8.9859
  66   2.0000      -0.293282        -7.9806
  67   0.0000       0.038217         1.0399
  68   0.0000       0.066560         1.8112
  69   0.0000       0.105231         2.8635
  70   0.0000       0.128615         3.4998
  71   0.0000       0.128844         3.5060

MULLIKEN ATOMIC CHARGES
-----------------------
   0 S :    0.113095
   1 C :   -0.094343
   2 C :   -0.098370
   3 C :    0.020390
   4 C :   -0.168884
   5 H :    0.018051
   6 C :    0.088455
   7 H :    0.013920
   8 H :    0.052752
   9 C :   -0.122104
  10 H :    0.047790
  11 H :    0.025784
  12 C :   -0.054969
  13 H :    0.042345
  14 H :    0.025257
  15 H :    0.050779
  16 S :    0.116905
  17 C :   -0.088812
  18 C :   -0.066646
  19 C :   -0.020130
  20 C :   -0.176233
  21 H :    0.038837
  22 C :    0.072826
  23 H :    0.042687
  24 H :    0.014787
  25 C :   -0.091760
  26 H :    0.035075
  27 H :    0.054812
  28 C :   -0.049084
  29 H :    0.032309
  30 H :    0.032425
  31 H :    0.017266
  32 H :    0.026713
  33 H :    0.048076
Sum of atomic charges:   -0.0000000

LOEWDIN ATOMIC CHARGES
----------------------
   0 S :    0.379288
   1 C :   -0.180155
   2 C :   -0.058834
   3 C :   -0.070740
   4 C :   -0.197599
   5 H :    0.033377
   6 C :   -0.025749
   7 H :    0.028599
   8 H :    0.040861
   9 C :   -0.052499
  10 H :    0.034698
  11 H :    0.019159
  12 C :   -0.070595
  13 H :    0.033575
  14 H :    0.014545
  15 H :    0.037051
  16 S :    0.438271
  17 C :   -0.200529
  18 C :   -0.085241
  19 C :   -0.056697
  20 C :   -0.203386
  21 H :    0.043395
  22 C :   -0.033303
  23 H :    0.034428
  24 H :    0.031616
  25 C :   -0.052577
  26 H :    0.033551
  27 H :    0.031954
  28 C :   -0.076512
  29 H :    0.030627
  30 H :    0.032259
  31 H :    0.018375
  32 H :    0.021643
  33 H :    0.027143

  Mayer bond orders larger than 0.100000
B(  0-S ,  1-C ) :   1.1155 B(  0-S ,  4-C ) :   1.1157 B(  1-C ,  2-C ) :   1.6772
B(  1-C , 32-H ) :   0.9591 B(  2-C ,  3-C ) :   1.1780 B(  2-C ,  6-C ) :   1.0204
B(  3-C ,  4-C ) :   1.6507 B(  3-C ,  5-H ) :   0.9838 B(  4-C , 20-C ) :   1.0084
B(  6-C ,  7-H ) :   0.9343 B(  6-C ,  8-H ) :   0.9441 B(  6-C ,  9-C ) :   1.0455
B(  9-C , 10-H ) :   0.9573 B(  9-C , 11-H ) :   0.9602 B(  9-C , 12-C ) :   1.0800
B( 12-C , 13-H ) :   0.9740 B( 12-C , 14-H ) :   0.9754 B( 12-C , 15-H ) :   0.9734
B( 16-S , 17-C ) :   1.1636 B( 16-S , 20-C ) :   1.1781 B( 17-C , 18-C ) :   1.6249
B( 17-C , 33-H ) :   0.9662 B( 18-C , 19-C ) :   1.2569 B( 18-C , 21-H ) :   0.9735
B( 19-C , 20-C ) :   1.5690 B( 19-C , 22-C ) :   1.0297 B( 22-C , 23-H ) :   0.9281
B( 22-C , 24-H ) :   0.9307 B( 22-C , 25-C ) :   1.0707 B( 25-C , 26-H ) :   0.9521
B( 25-C , 27-H ) :   0.9410 B( 25-C , 28-C ) :   1.1031 B( 28-C , 29-H ) :   0.9681
B( 28-C , 30-H ) :   0.9679 B( 28-C , 31-H ) :   0.9682

Dispersion correction           -0.014425543
FINAL SINGLE POINT ENERGY     -1339.861626278321

DIPOLE MOMENT
-------------
                                X             Y             Z
Electronic contribution:      1.55204     -16.79372     -26.84453
Nuclear contribution   :     -1.43125      16.90327      27.51246
                        -----------------------------------------
Total Dipole Moment    :      0.12080       0.10956       0.66793
                        -----------------------------------------
Magnitude (a.u.)       :      0.68755
Magnitude (Debye)      :      1.74762

Rotational constants in cm-1:     0.017752     0.008976     0.007097
Rotational constants in MHz :   532.200204   269.088909   212.751445

                             ****ORCA TERMINATED NORMALLY****
TOTAL RUN TIME: 0 days 0 hours 0 minutes 34 seconds 870 msec
