                         Program Version 4.2.1 -  RELEASE  -
|  1> ! wB97X-D3 SP def2-SVP
|  2> %pal
|  3> nprocs 16
|  4> end
|  5>
|  6> * xyz 0 1
|  7> S 	 -45.9168 	 28.3549 	 89.5724
|  8> C 	 -46.3463 	 27.5465 	 91.0586
|  9> C 	 -47.5537 	 27.9566 	 91.6307
| 10> C 	 -48.1223 	 28.9988 	 90.8163
| 11> C 	 -47.37 	 29.3343 	 89.6934
| 12> H 	 -49.0576 	 29.4991 	 90.9194
| 13> C 	 -48.2241 	 27.3662 	 92.8525
| 14> H 	 -47.4342 	 26.9881 	 93.486
| 15> H 	 -48.7756 	 26.4622 	 92.5994
| 16> C 	 -49.0129 	 28.3121 	 93.7923
| 17> H 	 -48.4464 	 29.0462 	 94.2315
| 18> H 	 -49.8295 	 28.8603 	 93.2827
| 19> C 	 -49.5771 	 27.4858 	 95.0125
| 20> H 	 -50.1371 	 26.6358 	 94.7108
| 21> H 	 -48.7536 	 27.0333 	 95.6647
| 22> H 	 -50.1409 	 28.2066 	 95.5234
| 23> S 	 -47.8438 	 29.7031 	 87.0516
| 24> C 	 -48.7509 	 31.0449 	 86.4271
| 25> C 	 -48.9004 	 32.0061 	 87.4307
| 26> C 	 -48.4474 	 31.5335 	 88.7254
| 27> C 	 -47.7951 	 30.3038 	 88.7081
| 28> H 	 -49.3573 	 32.9723 	 87.2874
| 29> C 	 -48.5466 	 32.2931 	 89.9778
| 30> H 	 -49.1384 	 31.6762 	 90.6685
| 31> H 	 -49.0599 	 33.1667 	 89.6198
| 32> C 	 -47.2513 	 32.8448 	 90.591
| 33> H 	 -46.7491 	 33.4296 	 89.7901
| 34> H 	 -46.5564 	 32.0292 	 90.9084
| 35> C 	 -47.5391 	 33.7442 	 91.8642
| 36> H 	 -48.1466 	 34.6229 	 91.5686
| 37> H 	 -46.6073 	 34.1744 	 92.2322
| 38> H 	 -48.2307 	 33.3512 	 92.5544
| 39> H 	 -45.7418 	 26.8076 	 91.474
| 40> H 	 -48.8399 	 31.2749 	 85.4122
| 41> *
| 42>
| 43>                          ****END OF INPUT****

CARTESIAN COORDINATES (ANGSTROEM)
---------------------------------
  S    -45.916800   28.354900   89.572400
  C    -46.346300   27.546500   91.058600
  C    -47.553700   27.956600   91.630700
  C    -48.122300   28.998800   90.816300
  C    -47.370000   29.334300   89.693400
  H    -49.057600   29.499100   90.919400
  C    -48.224100   27.366200   92.852500
  H    -47.434200   26.988100   93.486000
  H    -48.775600   26.462200   92.599400
  C    -49.012900   28.312100   93.792300
  H    -48.446400   29.046200   94.231500
  H    -49.829500   28.860300   93.282700
  C    -49.577100   27.485800   95.012500
  H    -50.137100   26.635800   94.710800
  H    -48.753600   27.033300   95.664700
  H    -50.140900   28.206600   95.523400
  S    -47.843800   29.703100   87.051600
  C    -48.750900   31.044900   86.427100
  C    -48.900400   32.006100   87.430700
  C    -48.447400   31.533500   88.725400
  C    -47.795100   30.303800   88.708100
  H    -49.357300   32.972300   87.287400
  C    -48.546600   32.293100   89.977800
  H    -49.138400   31.676200   90.668500
  H    -49.059900   33.166700   89.619800
  C    -47.251300   32.844800   90.591000
  H    -46.749100   33.429600   89.790100
  H    -46.556400   32.029200   90.908400
  C    -47.539100   33.744200   91.864200
  H    -48.146600   34.622900   91.568600
  H    -46.607300   34.174400   92.232200
  H    -48.230700   33.351200   92.554400
  H    -45.741800   26.807600   91.474000
  H    -48.839900   31.274900   85.412200

 Total Charge           Charge          ....    0
 Multiplicity           Mult            ....    1
 Number of Electrons    NEL             ....  134
 Basis Dimension        Dim             ....  322

ORBITAL ENERGIES
----------------

  NO   OCC          E(Eh)            E(eV)
   0   2.0000     -88.971335     -2421.0331
   1   2.0000     -88.959492     -2420.7109
   2   2.0000     -10.330233      -281.0999
   3   2.0000     -10.323966      -280.9294
   4   2.0000     -10.314883      -280.6822
   5   2.0000     -10.312299      -280.6119
   6   2.0000     -10.306590      -280.4566
   7   2.0000     -10.299826      -280.2725
   8   2.0000     -10.298564      -280.2382
   9   2.0000     -10.295093      -280.1437
  10   2.0000     -10.294087      -280.1164
  11   2.0000     -10.291621      -280.0493
  12   2.0000     -10.289050      -279.9793
  13   2.0000     -10.284519      -279.8560
  14   2.0000     -10.281316      -279.7688
  15   2.0000     -10.277209      -279.6571
  16   2.0000      -8.085767      -220.0249
  17   2.0000      -8.074584      -219.7206
  18   2.0000      -6.044213      -164.4714
  19   2.0000      -6.040364      -164.3667
  20   2.0000      -6.036582      -164.2638
  21   2.0000      -6.033129      -164.1698
  22   2.0000      -6.028802      -164.0521
  23   2.0000      -6.025511      -163.9625
  24   2.0000      -1.005531       -27.3619
  25   2.0000      -0.981705       -26.7135
  26   2.0000      -0.911041       -24.7907
  27   2.0000      -0.908435       -24.7198
  28   2.0000      -0.871447       -23.7133
  29   2.0000      -0.851801       -23.1787
  30   2.0000      -0.843690       -22.9580
  31   2.0000      -0.814764       -22.1709
  32   2.0000      -0.781055       -21.2536
  33   2.0000      -0.770201       -20.9582
  34   2.0000      -0.715104       -19.4590
  35   2.0000      -0.703601       -19.1460
  36   2.0000      -0.692461       -18.8428
  37   2.0000      -0.669226       -18.2106
  38   2.0000      -0.648635       -17.6503
  39   2.0000      -0.620046       -16.8723
  40   2.0000      -0.590227       -16.0609
  41   2.0000      -0.570650       -15.5282
  42   2.0000      -0.566245       -15.4083
  43   2.0000      -0.559513       -15.2251
  44   2.0000      -0.535195       -14.5634
  45   2.0000      -0.530853       -14.4452
  46   2.0000      -0.512562       -13.9475
  47   2.0000      -0.505604       -13.7582
  48   2.0000      -0.503330       -13.6963
  49   2.0000      -0.502409       -13.6712
  50   2.0000      -0.492237       -13.3944
  51   2.0000      -0.485287       -13.2053
  52   2.0000      -0.475199       -12.9308
  53   2.0000      -0.462208       -12.5773
  54   2.0000      -0.457160       -12.4400
  55   2.0000      -0.449638       -12.2353
  56   2.0000      -0.446783       -12.1576
  57   2.0000      -0.438866       -11.9422
  58   2.0000      -0.438642       -11.9361
  59   2.0000      -0.428361       -11.6563
  60   2.0000      -0.419049       -11.4029
  61   2.0000      -0.416920       -11.3450
  62   2.0000      -0.404255       -11.0003
  63   2.0000      -0.348669        -9.4878
  64   2.0000      -0.333270        -9.0687
  65   2.0000      -0.324897        -8.8409
  66   2.0000      -0.288565        -7.8523
  67   0.0000       0.025963         0.7065
  68   0.0000       0.068653         1.8681
  69   0.0000       0.114589         3.1181
  70   0.0000       0.119605         3.2546
  71   0.0000       0.131610         3.5813

MULLIKEN ATOMIC CHARGES
-----------------------
   0 S :    0.126524
   1 C :   -0.101635
   2 C :   -0.051515
   3 C :    0.014873
   4 C :   -0.145005
   5 H :    0.003567
   6 C :    0.070536
   7 H :    0.011015
   8 H :    0.045059
   9 C :   -0.078225
  10 H :    0.018310
  11 H :    0.035371
  12 C :   -0.048375
  13 H :    0.026077
  14 H :    0.039285
  15 H :    0.030741
  16 S :    0.084382
  17 C :   -0.057518
  18 C :   -0.033285
  19 C :   -0.102791
  20 C :   -0.122835
  21 H :    0.019126
  22 C :    0.072424
  23 H :    0.030565
  24 H :   -0.000252
  25 C :   -0.084598
  26 H :    0.034811
  27 H :    0.050328
  28 C :   -0.030749
  29 H :    0.011093
  30 H :    0.043562
  31 H :    0.021422
  32 H :    0.020663
  33 H :    0.047050
Sum of atomic charges:    0.0000000

LOEWDIN ATOMIC CHARGES
----------------------
   0 S :    0.410494
   1 C :   -0.186673
   2 C :   -0.056535
   3 C :   -0.055464
   4 C :   -0.198614
   5 H :    0.024885
   6 C :   -0.034816
   7 H :    0.031732
   8 H :    0.036342
   9 C :   -0.029505
  10 H :    0.014629
  11 H :    0.023894
  12 C :   -0.056508
  13 H :    0.017588
  14 H :    0.033300
  15 H :    0.020446
  16 S :    0.407087
  17 C :   -0.183802
  18 C :   -0.069372
  19 C :   -0.063854
  20 C :   -0.192284
  21 H :    0.029619
  22 C :   -0.040263
  23 H :    0.030619
  24 H :    0.027554
  25 C :   -0.035030
  26 H :    0.028977
  27 H :    0.027835
  28 C :   -0.069404
  29 H :    0.025584
  30 H :    0.029449
  31 H :    0.019262
  32 H :    0.012388
  33 H :    0.020439

  Mayer bond orders larger than 0.100000
B(  0-S ,  1-C ) :   1.1425 B(  0-S ,  4-C ) :   1.1439 B(  1-C ,  2-C ) :   1.6086
B(  1-C , 32-H ) :   0.9756 B(  2-C ,  3-C ) :   1.2333 B(  2-C ,  6-C ) :   1.0164
B(  3-C ,  4-C ) :   1.5753 B(  3-C ,  5-H ) :   0.9929 B(  4-C , 20-C ) :   1.0450
B(  6-C ,  7-H ) :   0.9363 B(  6-C ,  8-H ) :   0.9387 B(  6-C ,  9-C ) :   1.0647
B(  9-C , 10-H ) :   0.9590 B(  9-C , 11-H ) :   0.9548 B(  9-C , 12-C ) :   1.0783
B( 12-C , 13-H ) :   0.9790 B( 12-C , 14-H ) :   0.9753 B( 12-C , 15-H ) :   0.9758
B( 16-S , 17-C ) :   1.1790 B( 16-S , 20-C ) :   1.1341 B( 17-C , 18-C ) :   1.5702
B( 17-C , 20-C ) :   0.1033 B( 17-C , 33-H ) :   0.9682 B( 18-C , 19-C ) :   1.2717
B( 18-C , 21-H ) :   0.9857 B( 19-C , 20-C ) :   1.5648 B( 19-C , 22-C ) :   1.0579
B( 22-C , 23-H ) :   0.9238 B( 22-C , 24-H ) :   0.9245 B( 22-C , 25-C ) :   1.0694
B( 25-C , 26-H ) :   0.9540 B( 25-C , 27-H ) :   0.9565 B( 25-C , 28-C ) :   1.0738
B( 28-C , 29-H ) :   0.9712 B( 28-C , 30-H ) :   0.9752 B( 28-C , 31-H ) :   0.9753

Dispersion correction           -0.014022813
FINAL SINGLE POINT ENERGY     -1339.867163829623

DIPOLE MOMENT
-------------
                                X             Y             Z
Electronic contribution:      9.51592      -8.84049     -27.67281
Nuclear contribution   :     -9.82474       9.04686      28.24139
                        -----------------------------------------
Total Dipole Moment    :     -0.30882       0.20637       0.56858
                        -----------------------------------------
Magnitude (a.u.)       :      0.67915
Magnitude (Debye)      :      1.72626

Rotational constants in cm-1:     0.017121     0.008781     0.006942
Rotational constants in MHz :   513.274734   263.242005   208.126458

                             ****ORCA TERMINATED NORMALLY****
TOTAL RUN TIME: 0 days 0 hours 0 minutes 30 seconds 121 msec
