                         Program Version 4.2.1 -  RELEASE  -
|  1> ! wB97X-D3 SP def2-SVP
|  2> %pal
|  3> nprocs 16
|  4> end
|  5>
|  6> * xyz 0 1
|  7> S 	 -85.33 	 50.8727 	 133.83
|  8> C 	 -85.3753 	 49.1263 	 134.1
|  9> C 	 -85.9128 	 48.4395 	 132.988
| 10> C 	 -86.5693 	 49.4427 	 132.122
| 11> C 	 -86.4944 	 50.795 	 132.528
| 12> H 	 -87.169 	 49.3911 	 131.266
| 13> C 	 -86.1271 	 46.9679 	 132.905
| 14> H 	 -86.7441 	 46.7936 	 132.013
| 15> H 	 -86.7594 	 46.6367 	 133.704
| 16> C 	 -84.9492 	 46.0254 	 133.086
| 17> H 	 -84.2791 	 46.4587 	 133.888
| 18> H 	 -85.2954 	 45.0052 	 133.371
| 19> C 	 -84.1363 	 46.0037 	 131.792
| 20> H 	 -84.6615 	 45.7407 	 130.857
| 21> H 	 -83.6295 	 46.9453 	 131.686
| 22> H 	 -83.2739 	 45.2961 	 131.873
| 23> S 	 -86.3335 	 53.1478 	 130.947
| 24> C 	 -87.8206 	 53.7084 	 130.253
| 25> C 	 -88.9254 	 53.0666 	 130.692
| 26> C 	 -88.6194 	 51.9422 	 131.58
| 27> C 	 -87.2158 	 51.8742 	 131.83
| 28> H 	 -89.8589 	 53.4074 	 130.343
| 29> C 	 -89.6874 	 50.9802 	 132.181
| 30> H 	 -89.2065 	 50.1628 	 132.782
| 31> H 	 -90.0588 	 50.4595 	 131.322
| 32> C 	 -90.7796 	 51.729 	 132.913
| 33> H 	 -91.316 	 52.4168 	 132.282
| 34> H 	 -90.3933 	 52.2533 	 133.79
| 35> C 	 -91.8937 	 50.8304 	 133.347
| 36> H 	 -91.6343 	 49.9658 	 133.923
| 37> H 	 -92.4322 	 50.34 	 132.518
| 38> H 	 -92.5049 	 51.4331 	 134.016
| 39> H 	 -84.9232 	 48.6099 	 134.946
| 40> H 	 -87.8534 	 54.5841 	 129.646
| 41> *
| 42>
| 43>                          ****END OF INPUT****

CARTESIAN COORDINATES (ANGSTROEM)
---------------------------------
  S    -85.330000   50.872700  133.830000
  C    -85.375300   49.126300  134.100000
  C    -85.912800   48.439500  132.988000
  C    -86.569300   49.442700  132.122000
  C    -86.494400   50.795000  132.528000
  H    -87.169000   49.391100  131.266000
  C    -86.127100   46.967900  132.905000
  H    -86.744100   46.793600  132.013000
  H    -86.759400   46.636700  133.704000
  C    -84.949200   46.025400  133.086000
  H    -84.279100   46.458700  133.888000
  H    -85.295400   45.005200  133.371000
  C    -84.136300   46.003700  131.792000
  H    -84.661500   45.740700  130.857000
  H    -83.629500   46.945300  131.686000
  H    -83.273900   45.296100  131.873000
  S    -86.333500   53.147800  130.947000
  C    -87.820600   53.708400  130.253000
  C    -88.925400   53.066600  130.692000
  C    -88.619400   51.942200  131.580000
  C    -87.215800   51.874200  131.830000
  H    -89.858900   53.407400  130.343000
  C    -89.687400   50.980200  132.181000
  H    -89.206500   50.162800  132.782000
  H    -90.058800   50.459500  131.322000
  C    -90.779600   51.729000  132.913000
  H    -91.316000   52.416800  132.282000
  H    -90.393300   52.253300  133.790000
  C    -91.893700   50.830400  133.347000
  H    -91.634300   49.965800  133.923000
  H    -92.432200   50.340000  132.518000
  H    -92.504900   51.433100  134.016000
  H    -84.923200   48.609900  134.946000
  H    -87.853400   54.584100  129.646000

 Total Charge           Charge          ....    0
 Multiplicity           Mult            ....    1
 Number of Electrons    NEL             ....  134
 Basis Dimension        Dim             ....  322

ORBITAL ENERGIES
----------------

  NO   OCC          E(Eh)            E(eV)
   0   2.0000     -88.965676     -2420.8791
   1   2.0000     -88.964475     -2420.8464
   2   2.0000     -10.333255      -281.1822
   3   2.0000     -10.330103      -281.0964
   4   2.0000     -10.320267      -280.8288
   5   2.0000     -10.314935      -280.6837
   6   2.0000     -10.313149      -280.6350
   7   2.0000     -10.312464      -280.6164
   8   2.0000     -10.295815      -280.1634
   9   2.0000     -10.295777      -280.1623
  10   2.0000     -10.294734      -280.1340
  11   2.0000     -10.293072      -280.0887
  12   2.0000     -10.289284      -279.9857
  13   2.0000     -10.282514      -279.8014
  14   2.0000     -10.275317      -279.6056
  15   2.0000     -10.272404      -279.5263
  16   2.0000      -8.079870      -219.8645
  17   2.0000      -8.079243      -219.8474
  18   2.0000      -6.038467      -164.3150
  19   2.0000      -6.037747      -164.2954
  20   2.0000      -6.034449      -164.2057
  21   2.0000      -6.033828      -164.1888
  22   2.0000      -6.030572      -164.1002
  23   2.0000      -6.029939      -164.0830
  24   2.0000      -0.997270       -27.1371
  25   2.0000      -0.977578       -26.6012
  26   2.0000      -0.916466       -24.9383
  27   2.0000      -0.913751       -24.8644
  28   2.0000      -0.867464       -23.6049
  29   2.0000      -0.850542       -23.1444
  30   2.0000      -0.842340       -22.9212
  31   2.0000      -0.812666       -22.1138
  32   2.0000      -0.783235       -21.3129
  33   2.0000      -0.771561       -20.9952
  34   2.0000      -0.704118       -19.1600
  35   2.0000      -0.702040       -19.1035
  36   2.0000      -0.692850       -18.8534
  37   2.0000      -0.654686       -17.8149
  38   2.0000      -0.642007       -17.4699
  39   2.0000      -0.606231       -16.4964
  40   2.0000      -0.594621       -16.1805
  41   2.0000      -0.581481       -15.8229
  42   2.0000      -0.570469       -15.5233
  43   2.0000      -0.547668       -14.9028
  44   2.0000      -0.541766       -14.7422
  45   2.0000      -0.536057       -14.5868
  46   2.0000      -0.516909       -14.0658
  47   2.0000      -0.510891       -13.9021
  48   2.0000      -0.501334       -13.6420
  49   2.0000      -0.501117       -13.6361
  50   2.0000      -0.485213       -13.2033
  51   2.0000      -0.472626       -12.8608
  52   2.0000      -0.468570       -12.7504
  53   2.0000      -0.464427       -12.6377
  54   2.0000      -0.457992       -12.4626
  55   2.0000      -0.449925       -12.2431
  56   2.0000      -0.443372       -12.0648
  57   2.0000      -0.436134       -11.8678
  58   2.0000      -0.431931       -11.7534
  59   2.0000      -0.426398       -11.6029
  60   2.0000      -0.421479       -11.4690
  61   2.0000      -0.416655       -11.3378
  62   2.0000      -0.408793       -11.1238
  63   2.0000      -0.342067        -9.3081
  64   2.0000      -0.327832        -8.9208
  65   2.0000      -0.322974        -8.7886
  66   2.0000      -0.294035        -8.0011
  67   0.0000       0.031468         0.8563
  68   0.0000       0.059641         1.6229
  69   0.0000       0.111719         3.0400
  70   0.0000       0.118388         3.2215
  71   0.0000       0.126701         3.4477

MULLIKEN ATOMIC CHARGES
-----------------------
   0 S :    0.114828
   1 C :   -0.141085
   2 C :   -0.048555
   3 C :    0.037827
   4 C :   -0.177881
   5 H :   -0.007929
   6 C :    0.060094
   7 H :    0.022941
   8 H :    0.033965
   9 C :   -0.086177
  10 H :    0.037500
  11 H :    0.039011
  12 C :   -0.063680
  13 H :    0.037644
  14 H :    0.033915
  15 H :    0.027288
  16 S :    0.102040
  17 C :   -0.081431
  18 C :   -0.010402
  19 C :   -0.053504
  20 C :   -0.164156
  21 H :    0.001342
  22 C :    0.080768
  23 H :    0.043746
  24 H :    0.019677
  25 C :   -0.064632
  26 H :    0.027857
  27 H :    0.040817
  28 C :   -0.039140
  29 H :    0.011613
  30 H :    0.026127
  31 H :    0.031983
  32 H :    0.058449
  33 H :    0.049140
Sum of atomic charges:    0.0000000

LOEWDIN ATOMIC CHARGES
----------------------
   0 S :    0.396401
   1 C :   -0.190692
   2 C :   -0.058738
   3 C :   -0.054302
   4 C :   -0.202938
   5 H :    0.019418
   6 C :   -0.043126
   7 H :    0.032934
   8 H :    0.036370
   9 C :   -0.040707
  10 H :    0.032634
  11 H :    0.027296
  12 C :   -0.073422
  13 H :    0.025922
  14 H :    0.025503
  15 H :    0.025680
  16 S :    0.390987
  17 C :   -0.176683
  18 C :   -0.069217
  19 C :   -0.039670
  20 C :   -0.198332
  21 H :    0.025122
  22 C :   -0.031798
  23 H :    0.038529
  24 H :    0.028123
  25 C :   -0.040225
  26 H :    0.025420
  27 H :    0.031217
  28 C :   -0.066448
  29 H :    0.016934
  30 H :    0.026119
  31 H :    0.028579
  32 H :    0.028593
  33 H :    0.024518

  Mayer bond orders larger than 0.100000
B(  0-S ,  1-C ) :   1.1530 B(  0-S ,  4-C ) :   1.1302 B(  1-C ,  2-C ) :   1.5834
B(  1-C , 32-H ) :   0.9687 B(  2-C ,  3-C ) :   1.1945 B(  2-C ,  6-C ) :   1.0318
B(  3-C ,  4-C ) :   1.5853 B(  3-C ,  5-H ) :   1.0007 B(  4-C , 20-C ) :   1.0528
B(  6-C ,  7-H ) :   0.9441 B(  6-C ,  8-H ) :   0.9350 B(  6-C ,  9-C ) :   1.0623
B(  9-C , 10-H ) :   0.9533 B(  9-C , 11-H ) :   0.9572 B(  9-C , 12-C ) :   1.0758
B( 12-C , 13-H ) :   0.9772 B( 12-C , 14-H ) :   0.9754 B( 12-C , 15-H ) :   0.9737
B( 16-S , 17-C ) :   1.1499 B( 16-S , 20-C ) :   1.1274 B( 17-C , 18-C ) :   1.6490
B( 17-C , 33-H ) :   0.9648 B( 18-C , 19-C ) :   1.2023 B( 18-C , 21-H ) :   0.9974
B( 19-C , 20-C ) :   1.6089 B( 19-C , 22-C ) :   1.0260 B( 22-C , 23-H ) :   0.9343
B( 22-C , 24-H ) :   0.9289 B( 22-C , 25-C ) :   1.0751 B( 25-C , 26-H ) :   0.9504
B( 25-C , 27-H ) :   0.9552 B( 25-C , 28-C ) :   1.0906 B( 28-C , 29-H ) :   0.9710
B( 28-C , 30-H ) :   0.9716 B( 28-C , 31-H ) :   0.9735

Dispersion correction           -0.013782501
FINAL SINGLE POINT ENERGY     -1339.861575861432

DIPOLE MOMENT
-------------
                                X             Y             Z
Electronic contribution:     13.18660      21.34016      -2.04293
Nuclear contribution   :    -13.77116     -21.80383       1.97892
                        -----------------------------------------
Total Dipole Moment    :     -0.58456      -0.46367      -0.06401
                        -----------------------------------------
Magnitude (a.u.)       :      0.74887
Magnitude (Debye)      :      1.90347

Rotational constants in cm-1:     0.018167     0.007797     0.006398
Rotational constants in MHz :   544.647790   233.737975   191.819910

                             ****ORCA TERMINATED NORMALLY****
TOTAL RUN TIME: 0 days 0 hours 0 minutes 33 seconds 815 msec
