                         Program Version 4.2.1 -  RELEASE  -
|  1> ! wB97X-D3 SP def2-SVP
|  2> %pal
|  3> nprocs 16
|  4> end
|  5>
|  6> * xyz 0 1
|  7> S 	 -9.62756 	 33.8412 	 52.9549
|  8> C 	 -7.93758 	 33.6708 	 53.3219
|  9> C 	 -7.12607 	 34.3942 	 52.4012
| 10> C 	 -7.89609 	 35.1972 	 51.5021
| 11> C 	 -9.26437 	 35.0734 	 51.7287
| 12> H 	 -7.64168 	 35.8913 	 50.7649
| 13> C 	 -5.59187 	 34.4708 	 52.3938
| 14> H 	 -5.24645 	 34.0506 	 51.4652
| 15> H 	 -5.22592 	 33.835 	 53.1449
| 16> C 	 -5.04185 	 35.8858 	 52.5456
| 17> H 	 -4.02623 	 35.817 	 52.4934
| 18> H 	 -5.20124 	 36.5179 	 51.7028
| 19> C 	 -5.30779 	 36.702 	 53.8944
| 20> H 	 -6.30674 	 37.05 	 53.8397
| 21> H 	 -5.39607 	 36.0721 	 54.7973
| 22> H 	 -4.65816 	 37.6249 	 54.1298
| 23> S 	 -11.3859 	 36.7886 	 52.0773
| 24> C 	 -12.0944 	 37.6034 	 50.7079
| 25> C 	 -11.7681 	 36.9503 	 49.547
| 26> C 	 -10.8411 	 35.895 	 49.7739
| 27> C 	 -10.4021 	 35.7745 	 51.1107
| 28> H 	 -12.2591 	 37.1781 	 48.603
| 29> C 	 -10.2927 	 35.1146 	 48.648
| 30> H 	 -10.9212 	 35.3729 	 47.8492
| 31> H 	 -10.3791 	 34.0572 	 48.7838
| 32> C 	 -8.83807 	 35.5714 	 48.2281
| 33> H 	 -8.05196 	 35.2176 	 48.992
| 34> H 	 -8.81749 	 36.653 	 48.4068
| 35> C 	 -8.48003 	 35.2568 	 46.7221
| 36> H 	 -8.60742 	 34.2037 	 46.5805
| 37> H 	 -7.55935 	 35.7216 	 46.4116
| 38> H 	 -9.2787 	 35.6538 	 46.1193
| 39> H 	 -7.47817 	 33.0863 	 54.1663
| 40> H 	 -12.8937 	 38.3848 	 50.5662
| 41> *
| 42>
| 43>                          ****END OF INPUT****

CARTESIAN COORDINATES (ANGSTROEM)
---------------------------------
  S     -9.627560   33.841200   52.954900
  C     -7.937580   33.670800   53.321900
  C     -7.126070   34.394200   52.401200
  C     -7.896090   35.197200   51.502100
  C     -9.264370   35.073400   51.728700
  H     -7.641680   35.891300   50.764900
  C     -5.591870   34.470800   52.393800
  H     -5.246450   34.050600   51.465200
  H     -5.225920   33.835000   53.144900
  C     -5.041850   35.885800   52.545600
  H     -4.026230   35.817000   52.493400
  H     -5.201240   36.517900   51.702800
  C     -5.307790   36.702000   53.894400
  H     -6.306740   37.050000   53.839700
  H     -5.396070   36.072100   54.797300
  H     -4.658160   37.624900   54.129800
  S    -11.385900   36.788600   52.077300
  C    -12.094400   37.603400   50.707900
  C    -11.768100   36.950300   49.547000
  C    -10.841100   35.895000   49.773900
  C    -10.402100   35.774500   51.110700
  H    -12.259100   37.178100   48.603000
  C    -10.292700   35.114600   48.648000
  H    -10.921200   35.372900   47.849200
  H    -10.379100   34.057200   48.783800
  C     -8.838070   35.571400   48.228100
  H     -8.051960   35.217600   48.992000
  H     -8.817490   36.653000   48.406800
  C     -8.480030   35.256800   46.722100
  H     -8.607420   34.203700   46.580500
  H     -7.559350   35.721600   46.411600
  H     -9.278700   35.653800   46.119300
  H     -7.478170   33.086300   54.166300
  H    -12.893700   38.384800   50.566200

 Total Charge           Charge          ....    0
 Multiplicity           Mult            ....    1
 Number of Electrons    NEL             ....  134
 Basis Dimension        Dim             ....  322

ORBITAL ENERGIES
----------------

  NO   OCC          E(Eh)            E(eV)
   0   2.0000     -88.968076     -2420.9444
   1   2.0000     -88.966543     -2420.9027
   2   2.0000     -10.333741      -281.1954
   3   2.0000     -10.324345      -280.9397
   4   2.0000     -10.321700      -280.8677
   5   2.0000     -10.319455      -280.8066
   6   2.0000     -10.307404      -280.4787
   7   2.0000     -10.299895      -280.2744
   8   2.0000     -10.294721      -280.1336
   9   2.0000     -10.293997      -280.1139
  10   2.0000     -10.292049      -280.0609
  11   2.0000     -10.291671      -280.0506
  12   2.0000     -10.281421      -279.7717
  13   2.0000     -10.281387      -279.7708
  14   2.0000     -10.281034      -279.7612
  15   2.0000     -10.277688      -279.6701
  16   2.0000      -8.082427      -219.9340
  17   2.0000      -8.081751      -219.9156
  18   2.0000      -6.040828      -164.3793
  19   2.0000      -6.040317      -164.3654
  20   2.0000      -6.037015      -164.2755
  21   2.0000      -6.035980      -164.2474
  22   2.0000      -6.033289      -164.1741
  23   2.0000      -6.032596      -164.1553
  24   2.0000      -1.007927       -27.4271
  25   2.0000      -0.983242       -26.7554
  26   2.0000      -0.908466       -24.7206
  27   2.0000      -0.905247       -24.6330
  28   2.0000      -0.867683       -23.6108
  29   2.0000      -0.846524       -23.0351
  30   2.0000      -0.844045       -22.9676
  31   2.0000      -0.817053       -22.2331
  32   2.0000      -0.783434       -21.3183
  33   2.0000      -0.767432       -20.8829
  34   2.0000      -0.714045       -19.4301
  35   2.0000      -0.704562       -19.1721
  36   2.0000      -0.689440       -18.7606
  37   2.0000      -0.659610       -17.9489
  38   2.0000      -0.646488       -17.5918
  39   2.0000      -0.621790       -16.9198
  40   2.0000      -0.591249       -16.0887
  41   2.0000      -0.566820       -15.4239
  42   2.0000      -0.554084       -15.0774
  43   2.0000      -0.549262       -14.9462
  44   2.0000      -0.535773       -14.5791
  45   2.0000      -0.530087       -14.4244
  46   2.0000      -0.511913       -13.9299
  47   2.0000      -0.509798       -13.8723
  48   2.0000      -0.506143       -13.7728
  49   2.0000      -0.496704       -13.5160
  50   2.0000      -0.489280       -13.3140
  51   2.0000      -0.473405       -12.8820
  52   2.0000      -0.470804       -12.8112
  53   2.0000      -0.461334       -12.5535
  54   2.0000      -0.460191       -12.5224
  55   2.0000      -0.450550       -12.2601
  56   2.0000      -0.444783       -12.1032
  57   2.0000      -0.439352       -11.9554
  58   2.0000      -0.437549       -11.9063
  59   2.0000      -0.430227       -11.7071
  60   2.0000      -0.418713       -11.3938
  61   2.0000      -0.414226       -11.2717
  62   2.0000      -0.410039       -11.1577
  63   2.0000      -0.344273        -9.3681
  64   2.0000      -0.330800        -9.0015
  65   2.0000      -0.321632        -8.7520
  66   2.0000      -0.296082        -8.0568
  67   0.0000       0.031490         0.8569
  68   0.0000       0.060175         1.6374
  69   0.0000       0.111930         3.0458
  70   0.0000       0.116454         3.1689
  71   0.0000       0.133601         3.6355

MULLIKEN ATOMIC CHARGES
-----------------------
   0 S :    0.118130
   1 C :   -0.129866
   2 C :   -0.119113
   3 C :    0.077632
   4 C :   -0.183036
   5 H :   -0.002527
   6 C :    0.131563
   7 H :    0.030883
   8 H :   -0.000105
   9 C :   -0.040360
  10 H :    0.002893
  11 H :    0.017593
  12 C :   -0.080551
  13 H :    0.027546
  14 H :    0.027035
  15 H :    0.054146
  16 S :    0.127283
  17 C :   -0.090554
  18 C :   -0.060361
  19 C :   -0.072797
  20 C :   -0.163242
  21 H :    0.025490
  22 C :    0.136841
  23 H :   -0.016000
  24 H :    0.034131
  25 C :   -0.151740
  26 H :    0.049191
  27 H :    0.029018
  28 C :   -0.005871
  29 H :    0.030307
  30 H :    0.043317
  31 H :    0.016466
  32 H :    0.067122
  33 H :    0.069537
Sum of atomic charges:   -0.0000000

LOEWDIN ATOMIC CHARGES
----------------------
   0 S :    0.404083
   1 C :   -0.218067
   2 C :   -0.059822
   3 C :   -0.051563
   4 C :   -0.180620
   5 H :    0.023461
   6 C :   -0.018283
   7 H :    0.036013
   8 H :    0.022414
   9 C :   -0.035861
  10 H :    0.013812
  11 H :    0.021624
  12 C :   -0.076416
  13 H :    0.020246
  14 H :    0.026296
  15 H :    0.039055
  16 S :    0.436148
  17 C :   -0.202034
  18 C :   -0.080202
  19 C :   -0.054671
  20 C :   -0.227526
  21 H :    0.033763
  22 C :   -0.028554
  23 H :    0.020778
  24 H :    0.029795
  25 C :   -0.044959
  26 H :    0.029197
  27 H :    0.019414
  28 C :   -0.060699
  29 H :    0.024813
  30 H :    0.027246
  31 H :    0.022519
  32 H :    0.040345
  33 H :    0.048256

  Mayer bond orders larger than 0.100000
B(  0-S ,  1-C ) :   1.1432 B(  0-S ,  4-C ) :   1.1588 B(  1-C ,  2-C ) :   1.6022
B(  1-C ,  4-C ) :   0.1046 B(  1-C , 32-H ) :   0.9590 B(  2-C ,  3-C ) :   1.2128
B(  2-C ,  6-C ) :   1.0319 B(  3-C ,  4-C ) :   1.5949 B(  3-C ,  5-H ) :   0.9898
B(  4-C , 20-C ) :   1.0183 B(  6-C ,  7-H ) :   0.9312 B(  6-C ,  8-H ) :   0.9346
B(  6-C ,  9-C ) :   1.0853 B(  9-C , 10-H ) :   0.9507 B(  9-C , 11-H ) :   0.9519
B(  9-C , 12-C ) :   1.0495 B( 12-C , 13-H ) :   0.9760 B( 12-C , 14-H ) :   0.9768
B( 12-C , 15-H ) :   0.9780 B( 16-S , 17-C ) :   1.1706 B( 16-S , 20-C ) :   1.1510
B( 17-C , 18-C ) :   1.5920 B( 17-C , 33-H ) :   0.9547 B( 18-C , 19-C ) :   1.2849
B( 18-C , 21-H ) :   0.9835 B( 19-C , 20-C ) :   1.5365 B( 19-C , 22-C ) :   1.0686
B( 22-C , 23-H ) :   0.9225 B( 22-C , 24-H ) :   0.9243 B( 22-C , 25-C ) :   1.0455
B( 25-C , 26-H ) :   0.9426 B( 25-C , 27-H ) :   0.9588 B( 25-C , 28-C ) :   1.0703
B( 28-C , 29-H ) :   0.9757 B( 28-C , 30-H ) :   0.9758 B( 28-C , 31-H ) :   0.9737

Dispersion correction           -0.014940846
FINAL SINGLE POINT ENERGY     -1339.850440794418

DIPOLE MOMENT
-------------
                                X             Y             Z
Electronic contribution:    -21.29893      -3.19662      12.91920
Nuclear contribution   :     21.64308       3.30501     -13.42408
                        -----------------------------------------
Total Dipole Moment    :      0.34415       0.10839      -0.50488
                        -----------------------------------------
Magnitude (a.u.)       :      0.62055
Magnitude (Debye)      :      1.57732

Rotational constants in cm-1:     0.017003     0.009313     0.007597
Rotational constants in MHz :   509.725462   279.187907   227.756157

                             ****ORCA TERMINATED NORMALLY****
TOTAL RUN TIME: 0 days 0 hours 0 minutes 36 seconds 296 msec
