                         Program Version 4.2.1 -  RELEASE  -
|  1> ! wB97X-D3 SP def2-SVP
|  2> %pal
|  3> nprocs 16
|  4> end
|  5>
|  6> * xyz 0 1
|  7> S 	 -19.1638 	 -10.6095 	 87.7443
|  8> C 	 -18.4447 	 -10.2646 	 86.2249
|  9> C 	 -17.2077 	 -9.61577 	 86.3412
| 10> C 	 -16.9192 	 -9.31028 	 87.6903
| 11> C 	 -17.9942 	 -9.53008 	 88.5334
| 12> H 	 -15.9897 	 -8.88771 	 88.0335
| 13> C 	 -16.3045 	 -9.20766 	 85.2201
| 14> H 	 -15.9297 	 -8.15986 	 85.2796
| 15> H 	 -16.975 	 -9.24574 	 84.3835
| 16> C 	 -15.1497 	 -10.1456 	 84.8282
| 17> H 	 -14.3732 	 -10.3846 	 85.6433
| 18> H 	 -15.5205 	 -11.1634 	 84.6929
| 19> C 	 -14.246 	 -9.72299 	 83.6482
| 20> H 	 -13.5047 	 -10.4312 	 83.3622
| 21> H 	 -14.9125 	 -9.63505 	 82.8544
| 22> H 	 -13.6247 	 -8.80569 	 83.8494
| 23> S 	 -18.5096 	 -10.5801 	 91.0834
| 24> C 	 -18.2062 	 -9.57924 	 92.4716
| 25> C 	 -17.699 	 -8.36203 	 92.0927
| 26> C 	 -17.5592 	 -8.14919 	 90.6584
| 27> C 	 -18.0042 	 -9.24427 	 89.9455
| 28> H 	 -17.4745 	 -7.57142 	 92.8309
| 29> C 	 -17.0987 	 -6.88753 	 90.0284
| 30> H 	 -18.0569 	 -6.59095 	 89.6476
| 31> H 	 -16.6146 	 -7.14863 	 89.1322
| 32> C 	 -16.3579 	 -5.9435 	 90.9962
| 33> H 	 -15.5619 	 -6.46595 	 91.5292
| 34> H 	 -16.8629 	 -5.4735 	 91.8527
| 35> C 	 -15.6537 	 -4.79451 	 90.1991
| 36> H 	 -15.0651 	 -4.08579 	 90.9124
| 37> H 	 -16.4529 	 -4.17637 	 89.8641
| 38> H 	 -14.9838 	 -5.15028 	 89.3856
| 39> H 	 -18.866 	 -10.5022 	 85.3525
| 40> H 	 -18.674 	 -9.85024 	 93.4303
| 41> *
| 42>
| 43>                          ****END OF INPUT****

CARTESIAN COORDINATES (ANGSTROEM)
---------------------------------
  S    -19.163800  -10.609500   87.744300
  C    -18.444700  -10.264600   86.224900
  C    -17.207700   -9.615770   86.341200
  C    -16.919200   -9.310280   87.690300
  C    -17.994200   -9.530080   88.533400
  H    -15.989700   -8.887710   88.033500
  C    -16.304500   -9.207660   85.220100
  H    -15.929700   -8.159860   85.279600
  H    -16.975000   -9.245740   84.383500
  C    -15.149700  -10.145600   84.828200
  H    -14.373200  -10.384600   85.643300
  H    -15.520500  -11.163400   84.692900
  C    -14.246000   -9.722990   83.648200
  H    -13.504700  -10.431200   83.362200
  H    -14.912500   -9.635050   82.854400
  H    -13.624700   -8.805690   83.849400
  S    -18.509600  -10.580100   91.083400
  C    -18.206200   -9.579240   92.471600
  C    -17.699000   -8.362030   92.092700
  C    -17.559200   -8.149190   90.658400
  C    -18.004200   -9.244270   89.945500
  H    -17.474500   -7.571420   92.830900
  C    -17.098700   -6.887530   90.028400
  H    -18.056900   -6.590950   89.647600
  H    -16.614600   -7.148630   89.132200
  C    -16.357900   -5.943500   90.996200
  H    -15.561900   -6.465950   91.529200
  H    -16.862900   -5.473500   91.852700
  C    -15.653700   -4.794510   90.199100
  H    -15.065100   -4.085790   90.912400
  H    -16.452900   -4.176370   89.864100
  H    -14.983800   -5.150280   89.385600
  H    -18.866000  -10.502200   85.352500
  H    -18.674000   -9.850240   93.430300

 Total Charge           Charge          ....    0
 Multiplicity           Mult            ....    1
 Number of Electrons    NEL             ....  134
 Basis Dimension        Dim             ....  322

ORBITAL ENERGIES
----------------

  NO   OCC          E(Eh)            E(eV)
   0   2.0000     -88.970038     -2420.9978
   1   2.0000     -88.957536     -2420.6576
   2   2.0000     -10.329752      -281.0868
   3   2.0000     -10.323705      -280.9223
   4   2.0000     -10.316318      -280.7213
   5   2.0000     -10.308540      -280.5096
   6   2.0000     -10.303272      -280.3663
   7   2.0000     -10.302635      -280.3489
   8   2.0000     -10.296313      -280.1769
   9   2.0000     -10.295834      -280.1639
  10   2.0000     -10.295706      -280.1604
  11   2.0000     -10.293494      -280.1002
  12   2.0000     -10.292848      -280.0826
  13   2.0000     -10.289324      -279.9867
  14   2.0000     -10.287641      -279.9409
  15   2.0000     -10.276919      -279.6492
  16   2.0000      -8.084856      -220.0001
  17   2.0000      -8.071861      -219.6465
  18   2.0000      -6.043286      -164.4462
  19   2.0000      -6.039547      -164.3444
  20   2.0000      -6.035512      -164.2346
  21   2.0000      -6.030562      -164.0999
  22   2.0000      -6.026490      -163.9891
  23   2.0000      -6.022402      -163.8779
  24   2.0000      -1.006597       -27.3909
  25   2.0000      -0.981436       -26.7062
  26   2.0000      -0.912820       -24.8391
  27   2.0000      -0.910750       -24.7828
  28   2.0000      -0.872502       -23.7420
  29   2.0000      -0.856719       -23.3125
  30   2.0000      -0.845686       -23.0123
  31   2.0000      -0.814369       -22.1601
  32   2.0000      -0.784727       -21.3535
  33   2.0000      -0.771375       -20.9902
  34   2.0000      -0.713938       -19.4272
  35   2.0000      -0.704345       -19.1662
  36   2.0000      -0.699623       -19.0377
  37   2.0000      -0.655119       -17.8267
  38   2.0000      -0.643596       -17.5131
  39   2.0000      -0.623710       -16.9720
  40   2.0000      -0.597157       -16.2495
  41   2.0000      -0.571036       -15.5387
  42   2.0000      -0.566050       -15.4030
  43   2.0000      -0.558199       -15.1894
  44   2.0000      -0.538884       -14.6638
  45   2.0000      -0.527450       -14.3526
  46   2.0000      -0.519214       -14.1285
  47   2.0000      -0.508362       -13.8332
  48   2.0000      -0.506890       -13.7932
  49   2.0000      -0.503551       -13.7023
  50   2.0000      -0.496069       -13.4987
  51   2.0000      -0.478523       -13.0213
  52   2.0000      -0.475862       -12.9489
  53   2.0000      -0.462583       -12.5875
  54   2.0000      -0.456176       -12.4132
  55   2.0000      -0.454776       -12.3751
  56   2.0000      -0.445978       -12.1357
  57   2.0000      -0.438381       -11.9290
  58   2.0000      -0.436279       -11.8718
  59   2.0000      -0.430237       -11.7073
  60   2.0000      -0.424019       -11.5381
  61   2.0000      -0.410268       -11.1640
  62   2.0000      -0.402421       -10.9504
  63   2.0000      -0.352052        -9.5798
  64   2.0000      -0.331231        -9.0133
  65   2.0000      -0.323957        -8.8153
  66   2.0000      -0.282997        -7.7007
  67   0.0000       0.019026         0.5177
  68   0.0000       0.069559         1.8928
  69   0.0000       0.101377         2.7586
  70   0.0000       0.120364         3.2753
  71   0.0000       0.136834         3.7234

MULLIKEN ATOMIC CHARGES
-----------------------
   0 S :    0.121010
   1 C :   -0.053247
   2 C :   -0.083493
   3 C :    0.017993
   4 C :   -0.167168
   5 H :    0.026101
   6 C :    0.092461
   7 H :    0.036663
   8 H :    0.006164
   9 C :   -0.111132
  10 H :    0.026617
  11 H :    0.022774
  12 C :   -0.026567
  13 H :    0.028351
  14 H :    0.016759
  15 H :    0.040267
  16 S :    0.069895
  17 C :   -0.089408
  18 C :   -0.047588
  19 C :   -0.100129
  20 C :   -0.134119
  21 H :    0.026259
  22 C :    0.172480
  23 H :    0.036107
  24 H :   -0.015091
  25 C :   -0.098433
  26 H :    0.032654
  27 H :    0.039907
  28 C :   -0.071616
  29 H :    0.039114
  30 H :    0.030194
  31 H :    0.050200
  32 H :   -0.009377
  33 H :    0.075397
Sum of atomic charges:    0.0000000

LOEWDIN ATOMIC CHARGES
----------------------
   0 S :    0.414742
   1 C :   -0.180176
   2 C :   -0.058614
   3 C :   -0.050697
   4 C :   -0.186986
   5 H :    0.031343
   6 C :   -0.034510
   7 H :    0.035232
   8 H :    0.029887
   9 C :   -0.050479
  10 H :    0.025778
  11 H :    0.023013
  12 C :   -0.063246
  13 H :    0.025697
  14 H :    0.013999
  15 H :    0.032566
  16 S :    0.361177
  17 C :   -0.190312
  18 C :   -0.079607
  19 C :   -0.048985
  20 C :   -0.182368
  21 H :    0.033492
  22 C :   -0.029864
  23 H :    0.046179
  24 H :    0.025612
  25 C :   -0.044360
  26 H :    0.025327
  27 H :    0.029702
  28 C :   -0.070012
  29 H :    0.033637
  30 H :    0.019290
  31 H :    0.027911
  32 H :   -0.001017
  33 H :    0.036650

  Mayer bond orders larger than 0.100000
B(  0-S ,  1-C ) :   1.1524 B(  0-S ,  4-C ) :   1.1420 B(  1-C ,  2-C ) :   1.5798
B(  1-C ,  4-C ) :   0.1018 B(  1-C , 32-H ) :   0.9825 B(  2-C ,  3-C ) :   1.2595
B(  2-C ,  6-C ) :   1.0322 B(  3-C ,  4-C ) :   1.5466 B(  3-C ,  5-H ) :   0.9855
B(  4-C , 20-C ) :   1.0804 B(  6-C ,  7-H ) :   0.9447 B(  6-C ,  8-H ) :   0.9269
B(  6-C ,  9-C ) :   1.0515 B(  9-C , 10-H ) :   0.9591 B(  9-C , 11-H ) :   0.9526
B(  9-C , 12-C ) :   1.0799 B( 12-C , 13-H ) :   0.9722 B( 12-C , 14-H ) :   0.9774
B( 12-C , 15-H ) :   0.9740 B( 16-S , 17-C ) :   1.1479 B( 16-S , 20-C ) :   1.1059
B( 17-C , 18-C ) :   1.6120 B( 17-C , 33-H ) :   0.9599 B( 18-C , 19-C ) :   1.2275
B( 18-C , 21-H ) :   0.9817 B( 19-C , 20-C ) :   1.6236 B( 19-C , 22-C ) :   1.0248
B( 22-C , 23-H ) :   0.9087 B( 22-C , 24-H ) :   0.9190 B( 22-C , 25-C ) :   1.0505
B( 25-C , 26-H ) :   0.9617 B( 25-C , 27-H ) :   0.9495 B( 25-C , 28-C ) :   1.0821
B( 28-C , 29-H ) :   0.9748 B( 28-C , 30-H ) :   0.9759 B( 28-C , 31-H ) :   0.9768

Dispersion correction           -0.013338551
FINAL SINGLE POINT ENERGY     -1339.849687382755

DIPOLE MOMENT
-------------
                                X             Y             Z
Electronic contribution:    -21.12003     -18.10022      13.15922
Nuclear contribution   :     21.50072      18.63674     -13.43570
                        -----------------------------------------
Total Dipole Moment    :      0.38069       0.53651      -0.27648
                        -----------------------------------------
Magnitude (a.u.)       :      0.71359
Magnitude (Debye)      :      1.81381

Rotational constants in cm-1:     0.016717     0.008324     0.006054
Rotational constants in MHz :   501.148167   249.555767   181.489584

                             ****ORCA TERMINATED NORMALLY****
TOTAL RUN TIME: 0 days 0 hours 0 minutes 30 seconds 856 msec
