                         Program Version 4.2.1 -  RELEASE  -
|  1> ! wB97X-D3 SP def2-SVP
|  2> %pal
|  3> nprocs 16
|  4> end
|  5>
|  6> * xyz 0 1
|  7> S 	 -22.7796 	 -7.28044 	 96.3557
|  8> C 	 -23.9834 	 -7.27736 	 97.6242
|  9> C 	 -24.1724 	 -6.02585 	 98.1883
| 10> C 	 -23.2814 	 -5.06796 	 97.6726
| 11> C 	 -22.5277 	 -5.58601 	 96.6288
| 12> H 	 -23.1487 	 -4.04881 	 98.0518
| 13> C 	 -25.1869 	 -5.6793 	 99.2232
| 14> H 	 -24.8772 	 -4.72768 	 99.7669
| 15> H 	 -25.1364 	 -6.5651 	 99.8867
| 16> C 	 -26.571 	 -5.68221 	 98.6668
| 17> H 	 -26.6908 	 -6.65002 	 98.1752
| 18> H 	 -27.3193 	 -5.69848 	 99.4571
| 19> C 	 -26.9376 	 -4.44594 	 97.8697
| 20> H 	 -27.1119 	 -3.58601 	 98.4938
| 21> H 	 -26.0153 	 -4.03621 	 97.3637
| 22> H 	 -27.7801 	 -4.48375 	 97.223
| 23> S 	 -19.981 	 -5.56421 	 95.4574
| 24> C 	 -19.4495 	 -4.16492 	 94.6494
| 25> C 	 -20.4596 	 -3.26323 	 94.5095
| 26> C 	 -21.6477 	 -3.61591 	 95.2704
| 27> C 	 -21.6407 	 -4.90813 	 95.7499
| 28> H 	 -20.2762 	 -2.38315 	 93.9303
| 29> C 	 -22.8367 	 -2.72141 	 95.1759
| 30> H 	 -23.7404 	 -3.34397 	 95.0965
| 31> H 	 -22.6986 	 -2.13697 	 94.2558
| 32> C 	 -22.9837 	 -1.7421 	 96.2964
| 33> H 	 -22.07 	 -1.80203 	 96.8284
| 34> H 	 -23.7044 	 -2.1054 	 96.9995
| 35> C 	 -23.2704 	 -0.226583 	 95.9267
| 36> H 	 -23.6619 	 0.259896 	 96.7767
| 37> H 	 -24.0022 	 -0.0964859 	 95.0884
| 38> H 	 -22.3598 	 0.407733 	 95.7136
| 39> H 	 -24.5922 	 -8.15238 	 97.9747
| 40> H 	 -18.5196 	 -4.01117 	 94.0809
| 41> *
| 42>
| 43>                          ****END OF INPUT****

CARTESIAN COORDINATES (ANGSTROEM)
---------------------------------
  S    -22.779600   -7.280440   96.355700
  C    -23.983400   -7.277360   97.624200
  C    -24.172400   -6.025850   98.188300
  C    -23.281400   -5.067960   97.672600
  C    -22.527700   -5.586010   96.628800
  H    -23.148700   -4.048810   98.051800
  C    -25.186900   -5.679300   99.223200
  H    -24.877200   -4.727680   99.766900
  H    -25.136400   -6.565100   99.886700
  C    -26.571000   -5.682210   98.666800
  H    -26.690800   -6.650020   98.175200
  H    -27.319300   -5.698480   99.457100
  C    -26.937600   -4.445940   97.869700
  H    -27.111900   -3.586010   98.493800
  H    -26.015300   -4.036210   97.363700
  H    -27.780100   -4.483750   97.223000
  S    -19.981000   -5.564210   95.457400
  C    -19.449500   -4.164920   94.649400
  C    -20.459600   -3.263230   94.509500
  C    -21.647700   -3.615910   95.270400
  C    -21.640700   -4.908130   95.749900
  H    -20.276200   -2.383150   93.930300
  C    -22.836700   -2.721410   95.175900
  H    -23.740400   -3.343970   95.096500
  H    -22.698600   -2.136970   94.255800
  C    -22.983700   -1.742100   96.296400
  H    -22.070000   -1.802030   96.828400
  H    -23.704400   -2.105400   96.999500
  C    -23.270400   -0.226583   95.926700
  H    -23.661900    0.259896   96.776700
  H    -24.002200   -0.096486   95.088400
  H    -22.359800    0.407733   95.713600
  H    -24.592200   -8.152380   97.974700
  H    -18.519600   -4.011170   94.080900

 Total Charge           Charge          ....    0
 Multiplicity           Mult            ....    1
 Number of Electrons    NEL             ....  134
 Basis Dimension        Dim             ....  322

ORBITAL ENERGIES
----------------

  NO   OCC          E(Eh)            E(eV)
   0   2.0000     -88.970964     -2421.0230
   1   2.0000     -88.960215     -2420.7305
   2   2.0000     -10.327397      -281.0227
   3   2.0000     -10.324634      -280.9476
   4   2.0000     -10.316163      -280.7171
   5   2.0000     -10.313977      -280.6576
   6   2.0000     -10.301059      -280.3061
   7   2.0000     -10.297245      -280.2023
   8   2.0000     -10.295957      -280.1672
   9   2.0000     -10.295507      -280.1550
  10   2.0000     -10.289051      -279.9793
  11   2.0000     -10.285516      -279.8831
  12   2.0000     -10.285093      -279.8716
  13   2.0000     -10.283971      -279.8411
  14   2.0000     -10.280634      -279.7503
  15   2.0000     -10.275265      -279.6042
  16   2.0000      -8.085837      -220.0268
  17   2.0000      -8.075384      -219.7424
  18   2.0000      -6.044220      -164.4716
  19   2.0000      -6.040380      -164.3671
  20   2.0000      -6.036674      -164.2662
  21   2.0000      -6.034011      -164.1938
  22   2.0000      -6.029795      -164.0791
  23   2.0000      -6.026007      -163.9760
  24   2.0000      -1.011445       -27.5228
  25   2.0000      -0.987582       -26.8735
  26   2.0000      -0.924443       -25.1554
  27   2.0000      -0.913271       -24.8514
  28   2.0000      -0.872937       -23.7538
  29   2.0000      -0.854516       -23.2526
  30   2.0000      -0.842777       -22.9331
  31   2.0000      -0.815548       -22.1922
  32   2.0000      -0.787088       -21.4177
  33   2.0000      -0.773591       -21.0505
  34   2.0000      -0.711567       -19.3627
  35   2.0000      -0.707485       -19.2516
  36   2.0000      -0.694535       -18.8993
  37   2.0000      -0.661692       -18.0056
  38   2.0000      -0.634147       -17.2560
  39   2.0000      -0.617229       -16.7957
  40   2.0000      -0.595122       -16.1941
  41   2.0000      -0.576349       -15.6833
  42   2.0000      -0.562025       -15.2935
  43   2.0000      -0.560995       -15.2655
  44   2.0000      -0.543487       -14.7890
  45   2.0000      -0.525854       -14.3092
  46   2.0000      -0.515246       -14.0206
  47   2.0000      -0.512677       -13.9507
  48   2.0000      -0.506693       -13.7878
  49   2.0000      -0.498790       -13.5728
  50   2.0000      -0.489674       -13.3247
  51   2.0000      -0.482616       -13.1327
  52   2.0000      -0.469932       -12.7875
  53   2.0000      -0.465903       -12.6779
  54   2.0000      -0.458346       -12.4722
  55   2.0000      -0.450103       -12.2479
  56   2.0000      -0.448023       -12.1913
  57   2.0000      -0.443673       -12.0730
  58   2.0000      -0.436027       -11.8649
  59   2.0000      -0.434087       -11.8121
  60   2.0000      -0.415367       -11.3027
  61   2.0000      -0.409283       -11.1371
  62   2.0000      -0.404628       -11.0105
  63   2.0000      -0.351487        -9.5645
  64   2.0000      -0.337022        -9.1708
  65   2.0000      -0.326461        -8.8835
  66   2.0000      -0.287539        -7.8243
  67   0.0000       0.024431         0.6648
  68   0.0000       0.072070         1.9611
  69   0.0000       0.107240         2.9181
  70   0.0000       0.121728         3.3124
  71   0.0000       0.126845         3.4516

MULLIKEN ATOMIC CHARGES
-----------------------
   0 S :    0.128049
   1 C :   -0.130638
   2 C :   -0.099534
   3 C :    0.009479
   4 C :   -0.146649
   5 H :    0.018375
   6 C :    0.034322
   7 H :    0.039778
   8 H :    0.031628
   9 C :   -0.032112
  10 H :    0.021663
  11 H :    0.023645
  12 C :   -0.035435
  13 H :    0.011338
  14 H :    0.021521
  15 H :    0.037168
  16 S :    0.086550
  17 C :   -0.076221
  18 C :   -0.042858
  19 C :   -0.083526
  20 C :   -0.106162
  21 H :    0.012961
  22 C :    0.064721
  23 H :    0.042235
  24 H :    0.021682
  25 C :   -0.065644
  26 H :    0.024635
  27 H :    0.024846
  28 C :   -0.064564
  29 H :    0.021076
  30 H :    0.043490
  31 H :    0.041416
  32 H :    0.057492
  33 H :    0.065273
Sum of atomic charges:   -0.0000000

LOEWDIN ATOMIC CHARGES
----------------------
   0 S :    0.424824
   1 C :   -0.211719
   2 C :   -0.064553
   3 C :   -0.063745
   4 C :   -0.192628
   5 H :    0.035529
   6 C :   -0.035765
   7 H :    0.036346
   8 H :    0.039733
   9 C :   -0.041930
  10 H :    0.025281
  11 H :    0.023310
  12 C :   -0.069611
  13 H :    0.023531
  14 H :    0.028770
  15 H :    0.023538
  16 S :    0.389925
  17 C :   -0.197777
  18 C :   -0.077085
  19 C :   -0.052990
  20 C :   -0.189945
  21 H :    0.027842
  22 C :   -0.034011
  23 H :    0.035436
  24 H :    0.033580
  25 C :   -0.042312
  26 H :    0.021563
  27 H :    0.017849
  28 C :   -0.070455
  29 H :    0.019801
  30 H :    0.029056
  31 H :    0.032519
  32 H :    0.035622
  33 H :    0.040472

  Mayer bond orders larger than 0.100000
B(  0-S ,  1-C ) :   1.1351 B(  0-S ,  4-C ) :   1.1670 B(  1-C ,  2-C ) :   1.6126
B(  1-C , 32-H ) :   0.9556 B(  2-C ,  3-C ) :   1.2547 B(  2-C ,  6-C ) :   1.0158
B(  3-C ,  4-C ) :   1.5439 B(  3-C ,  5-H ) :   0.9909 B(  4-C , 20-C ) :   1.0536
B(  6-C ,  7-H ) :   0.9485 B(  6-C ,  8-H ) :   0.9267 B(  6-C ,  9-C ) :   1.0832
B(  9-C , 10-H ) :   0.9516 B(  9-C , 11-H ) :   0.9531 B(  9-C , 12-C ) :   1.0655
B( 12-C , 13-H ) :   0.9679 B( 12-C , 14-H ) :   0.9759 B( 12-C , 15-H ) :   0.9737
B( 16-S , 17-C ) :   1.1627 B( 16-S , 20-C ) :   1.0966 B( 17-C , 18-C ) :   1.6337
B( 17-C , 33-H ) :   0.9565 B( 18-C , 19-C ) :   1.2101 B( 18-C , 21-H ) :   0.9910
B( 19-C , 20-C ) :   1.6147 B( 19-C , 22-C ) :   1.0599 B( 22-C , 23-H ) :   0.9374
B( 22-C , 24-H ) :   0.9446 B( 22-C , 25-C ) :   1.0438 B( 25-C , 26-H ) :   0.9606
B( 25-C , 27-H ) :   0.9467 B( 25-C , 28-C ) :   1.0739 B( 28-C , 29-H ) :   0.9744
B( 28-C , 30-H ) :   0.9779 B( 28-C , 31-H ) :   0.9766

Dispersion correction           -0.015041901
FINAL SINGLE POINT ENERGY     -1339.869956575483

DIPOLE MOMENT
-------------
                                X             Y             Z
Electronic contribution:     21.42199     -21.29131      -7.53273
Nuclear contribution   :    -21.84506      21.83035       7.71791
                        -----------------------------------------
Total Dipole Moment    :     -0.42307       0.53903       0.18517
                        -----------------------------------------
Magnitude (a.u.)       :      0.70981
Magnitude (Debye)      :      1.80420

Rotational constants in cm-1:     0.017485     0.010365     0.006896
Rotational constants in MHz :   524.173851   310.733613   206.738044

                             ****ORCA TERMINATED NORMALLY****
TOTAL RUN TIME: 0 days 0 hours 0 minutes 32 seconds 366 msec
