                         Program Version 4.2.1 -  RELEASE  -
|  1> ! wB97X-D3 SP def2-SVP
|  2> %pal
|  3> nprocs 16
|  4> end
|  5>
|  6> * xyz 0 1
|  7> S 	 -38.4393 	 22.6155 	 77.484
|  8> C 	 -37.1308 	 22.8226 	 78.6493
|  9> C 	 -37.0418 	 24.1022 	 79.0706
| 10> C 	 -37.9783 	 24.9299 	 78.4136
| 11> C 	 -38.9282 	 24.2893 	 77.5793
| 12> H 	 -38.0304 	 26.0518 	 78.5142
| 13> C 	 -36.0728 	 24.6988 	 80.0652
| 14> H 	 -35.1394 	 24.2813 	 79.7767
| 15> H 	 -36.3395 	 24.1878 	 81.0101
| 16> C 	 -36.2083 	 26.2043 	 80.391
| 17> H 	 -36.1675 	 26.8079 	 79.4295
| 18> H 	 -37.2375 	 26.3692 	 80.8293
| 19> C 	 -35.0925 	 26.7349 	 81.3156
| 20> H 	 -34.103 	 26.2571 	 81.0092
| 21> H 	 -35.0207 	 27.7955 	 81.4639
| 22> H 	 -35.311 	 26.3694 	 82.2869
| 23> S 	 -40.9714 	 26.1621 	 77.1026
| 24> C 	 -41.4407 	 26.5172 	 75.4575
| 25> C 	 -40.6697 	 25.8463 	 74.5523
| 26> C 	 -39.7832 	 24.9299 	 75.1516
| 27> C 	 -39.8071 	 24.9687 	 76.594
| 28> H 	 -40.778 	 26.1701 	 73.5746
| 29> C 	 -38.7559 	 24.2294 	 74.2697
| 30> H 	 -39.3195 	 23.7635 	 73.4227
| 31> H 	 -38.1825 	 23.4633 	 74.8213
| 32> C 	 -37.6459 	 25.2509 	 73.7277
| 33> H 	 -38.0929 	 26.0357 	 73.1259
| 34> H 	 -37.0447 	 24.6819 	 73.0051
| 35> C 	 -36.8009 	 25.9526 	 74.8094
| 36> H 	 -37.4318 	 26.4375 	 75.5339
| 37> H 	 -36.3313 	 26.7612 	 74.2868
| 38> H 	 -36.0584 	 25.3588 	 75.2919
| 39> H 	 -36.4292 	 22.0106 	 79.051
| 40> H 	 -42.145 	 27.3292 	 75.3421
| 41> *
| 42>
| 43>                          ****END OF INPUT****

CARTESIAN COORDINATES (ANGSTROEM)
---------------------------------
  S    -38.439300   22.615500   77.484000
  C    -37.130800   22.822600   78.649300
  C    -37.041800   24.102200   79.070600
  C    -37.978300   24.929900   78.413600
  C    -38.928200   24.289300   77.579300
  H    -38.030400   26.051800   78.514200
  C    -36.072800   24.698800   80.065200
  H    -35.139400   24.281300   79.776700
  H    -36.339500   24.187800   81.010100
  C    -36.208300   26.204300   80.391000
  H    -36.167500   26.807900   79.429500
  H    -37.237500   26.369200   80.829300
  C    -35.092500   26.734900   81.315600
  H    -34.103000   26.257100   81.009200
  H    -35.020700   27.795500   81.463900
  H    -35.311000   26.369400   82.286900
  S    -40.971400   26.162100   77.102600
  C    -41.440700   26.517200   75.457500
  C    -40.669700   25.846300   74.552300
  C    -39.783200   24.929900   75.151600
  C    -39.807100   24.968700   76.594000
  H    -40.778000   26.170100   73.574600
  C    -38.755900   24.229400   74.269700
  H    -39.319500   23.763500   73.422700
  H    -38.182500   23.463300   74.821300
  C    -37.645900   25.250900   73.727700
  H    -38.092900   26.035700   73.125900
  H    -37.044700   24.681900   73.005100
  C    -36.800900   25.952600   74.809400
  H    -37.431800   26.437500   75.533900
  H    -36.331300   26.761200   74.286800
  H    -36.058400   25.358800   75.291900
  H    -36.429200   22.010600   79.051000
  H    -42.145000   27.329200   75.342100

 Total Charge           Charge          ....    0
 Multiplicity           Mult            ....    1
 Number of Electrons    NEL             ....  134
 Basis Dimension        Dim             ....  322

ORBITAL ENERGIES
----------------

  NO   OCC          E(Eh)            E(eV)
   0   2.0000     -88.968783     -2420.9637
   1   2.0000     -88.964358     -2420.8432
   2   2.0000     -10.333845      -281.1982
   3   2.0000     -10.333233      -281.1816
   4   2.0000     -10.317873      -280.7636
   5   2.0000     -10.315072      -280.6874
   6   2.0000     -10.306205      -280.4461
   7   2.0000     -10.302383      -280.3421
   8   2.0000     -10.297163      -280.2001
   9   2.0000     -10.295913      -280.1660
  10   2.0000     -10.295216      -280.1471
  11   2.0000     -10.293627      -280.1038
  12   2.0000     -10.287780      -279.9447
  13   2.0000     -10.286906      -279.9210
  14   2.0000     -10.283166      -279.8192
  15   2.0000     -10.265842      -279.3478
  16   2.0000      -8.082511      -219.9363
  17   2.0000      -8.079289      -219.8486
  18   2.0000      -6.041126      -164.3874
  19   2.0000      -6.037591      -164.2912
  20   2.0000      -6.036985      -164.2747
  21   2.0000      -6.033698      -164.1853
  22   2.0000      -6.033361      -164.1761
  23   2.0000      -6.030344      -164.0940
  24   2.0000      -1.003619       -27.3099
  25   2.0000      -0.986149       -26.8345
  26   2.0000      -0.912571       -24.8323
  27   2.0000      -0.896552       -24.3964
  28   2.0000      -0.870175       -23.6787
  29   2.0000      -0.849659       -23.1204
  30   2.0000      -0.840253       -22.8644
  31   2.0000      -0.811723       -22.0881
  32   2.0000      -0.783985       -21.3333
  33   2.0000      -0.770579       -20.9685
  34   2.0000      -0.713850       -19.4248
  35   2.0000      -0.696122       -18.9424
  36   2.0000      -0.684278       -18.6202
  37   2.0000      -0.659052       -17.9337
  38   2.0000      -0.626974       -17.0608
  39   2.0000      -0.618822       -16.8390
  40   2.0000      -0.596067       -16.2198
  41   2.0000      -0.572264       -15.5721
  42   2.0000      -0.569636       -15.5006
  43   2.0000      -0.543955       -14.8018
  44   2.0000      -0.536243       -14.5919
  45   2.0000      -0.525716       -14.3054
  46   2.0000      -0.518097       -14.0981
  47   2.0000      -0.508171       -13.8280
  48   2.0000      -0.497425       -13.5356
  49   2.0000      -0.492965       -13.4143
  50   2.0000      -0.488437       -13.2910
  51   2.0000      -0.478054       -13.0085
  52   2.0000      -0.469399       -12.7730
  53   2.0000      -0.466371       -12.6906
  54   2.0000      -0.456801       -12.4302
  55   2.0000      -0.450726       -12.2649
  56   2.0000      -0.443279       -12.0622
  57   2.0000      -0.436542       -11.8789
  58   2.0000      -0.430867       -11.7245
  59   2.0000      -0.424440       -11.5496
  60   2.0000      -0.419602       -11.4179
  61   2.0000      -0.413715       -11.2578
  62   2.0000      -0.410610       -11.1733
  63   2.0000      -0.346229        -9.4214
  64   2.0000      -0.330603        -8.9962
  65   2.0000      -0.328628        -8.9424
  66   2.0000      -0.288215        -7.8427
  67   0.0000       0.027768         0.7556
  68   0.0000       0.071644         1.9495
  69   0.0000       0.114746         3.1224
  70   0.0000       0.127562         3.4711
  71   0.0000       0.133035         3.6201

MULLIKEN ATOMIC CHARGES
-----------------------
   0 S :    0.110231
   1 C :   -0.174259
   2 C :   -0.070275
   3 C :   -0.027029
   4 C :   -0.115472
   5 H :    0.032698
   6 C :    0.079217
   7 H :    0.023458
   8 H :    0.037751
   9 C :   -0.134701
  10 H :    0.047780
  11 H :    0.050089
  12 C :   -0.010902
  13 H :    0.040476
  14 H :    0.037858
  15 H :    0.015568
  16 S :    0.096487
  17 C :   -0.108381
  18 C :   -0.004836
  19 C :   -0.038569
  20 C :   -0.166513
  21 H :    0.000523
  22 C :    0.056380
  23 H :    0.039873
  24 H :    0.027568
  25 C :   -0.096305
  26 H :    0.020371
  27 H :    0.029336
  28 C :   -0.013614
  29 H :    0.033388
  30 H :    0.018683
  31 H :    0.034891
  32 H :    0.067600
  33 H :    0.060632
Sum of atomic charges:    0.0000000

LOEWDIN ATOMIC CHARGES
----------------------
   0 S :    0.420083
   1 C :   -0.209955
   2 C :   -0.074151
   3 C :   -0.070463
   4 C :   -0.203326
   5 H :    0.034645
   6 C :   -0.032566
   7 H :    0.026942
   8 H :    0.041410
   9 C :   -0.048034
  10 H :    0.026242
  11 H :    0.033527
  12 C :   -0.064803
  13 H :    0.035432
  14 H :    0.026126
  15 H :    0.019577
  16 S :    0.412592
  17 C :   -0.178871
  18 C :   -0.065488
  19 C :   -0.057159
  20 C :   -0.208749
  21 H :    0.025286
  22 C :   -0.037228
  23 H :    0.035741
  24 H :    0.020090
  25 C :   -0.035347
  26 H :    0.017712
  27 H :    0.023054
  28 C :   -0.058126
  29 H :    0.026062
  30 H :    0.025714
  31 H :    0.021877
  32 H :    0.046738
  33 H :    0.025416

  Mayer bond orders larger than 0.100000
B(  0-S ,  1-C ) :   1.1414 B(  0-S ,  4-C ) :   1.1602 B(  1-C ,  2-C ) :   1.6064
B(  1-C , 32-H ) :   0.9600 B(  2-C ,  3-C ) :   1.2978 B(  2-C ,  6-C ) :   0.9828
B(  3-C ,  4-C ) :   1.5321 B(  3-C ,  5-H ) :   0.9673 B(  4-C , 20-C ) :   1.0226
B(  6-C ,  7-H ) :   0.9376 B(  6-C ,  8-H ) :   0.9330 B(  6-C ,  9-C ) :   1.0793
B(  9-C , 10-H ) :   0.9508 B(  9-C , 11-H ) :   0.9488 B(  9-C , 12-C ) :   1.0710
B( 12-C , 13-H ) :   0.9750 B( 12-C , 14-H ) :   0.9740 B( 12-C , 15-H ) :   0.9723
B( 16-S , 17-C ) :   1.1724 B( 16-S , 20-C ) :   1.1626 B( 17-C , 18-C ) :   1.5722
B( 17-C , 20-C ) :   0.1012 B( 17-C , 33-H ) :   0.9697 B( 18-C , 19-C ) :   1.2534
B( 18-C , 21-H ) :   1.0099 B( 19-C , 20-C ) :   1.5340 B( 19-C , 22-C ) :   1.0494
B( 22-C , 23-H ) :   0.9359 B( 22-C , 24-H ) :   0.9362 B( 22-C , 25-C ) :   1.0572
B( 25-C , 26-H ) :   0.9616 B( 25-C , 27-H ) :   0.9586 B( 25-C , 28-C ) :   1.0717
B( 28-C , 29-H ) :   0.9726 B( 28-C , 30-H ) :   0.9709 B( 28-C , 31-H ) :   0.9780

Dispersion correction           -0.015473451
FINAL SINGLE POINT ENERGY     -1339.872906992994

DIPOLE MOMENT
-------------
                                X             Y             Z
Electronic contribution:    -20.88480      -9.87264      -2.09043
Nuclear contribution   :     21.45725      10.29599       2.09381
                        -----------------------------------------
Total Dipole Moment    :      0.57245       0.42335       0.00339
                        -----------------------------------------
Magnitude (a.u.)       :      0.71199
Magnitude (Debye)      :      1.80975

Rotational constants in cm-1:     0.019234     0.008332     0.007883
Rotational constants in MHz :   576.634191   249.794581   236.335882

                             ****ORCA TERMINATED NORMALLY****
TOTAL RUN TIME: 0 days 0 hours 0 minutes 31 seconds 26 msec
