                         Program Version 4.2.1 -  RELEASE  -
|  1> ! wB97X-D3 SP def2-SVP
|  2> %pal
|  3> nprocs 16
|  4> end
|  5>
|  6> * xyz 0 1
|  7> S 	 -58.6296 	 47.8903 	 133.659
|  8> C 	 -56.9644 	 47.436 	 133.928
|  9> C 	 -56.1253 	 48.4407 	 134.473
| 10> C 	 -56.9624 	 49.6258 	 134.638
| 11> C 	 -58.251 	 49.5279 	 134.186
| 12> H 	 -56.5748 	 50.5922 	 134.968
| 13> C 	 -54.7032 	 48.3114 	 134.978
| 14> H 	 -54.5682 	 47.2002 	 135.019
| 15> H 	 -54.56 	 48.7713 	 135.953
| 16> C 	 -53.493 	 48.7587 	 134.093
| 17> H 	 -53.4611 	 49.8808 	 134.025
| 18> H 	 -52.5293 	 48.4366 	 134.486
| 19> C 	 -53.49 	 48.0353 	 132.711
| 20> H 	 -54.369 	 48.3379 	 132.221
| 21> H 	 -52.7086 	 48.5048 	 132.055
| 22> H 	 -53.4299 	 47.0129 	 132.835
| 23> S 	 -60.9116 	 50.1555 	 134.513
| 24> C 	 -61.5692 	 51.7156 	 134.326
| 25> C 	 -60.5534 	 52.6181 	 133.965
| 26> C 	 -59.2442 	 51.9717 	 133.877
| 27> C 	 -59.2651 	 50.6309 	 134.142
| 28> H 	 -60.8864 	 53.6311 	 133.787
| 29> C 	 -58.0736 	 52.8117 	 133.412
| 30> H 	 -57.1663 	 52.6713 	 134.03
| 31> H 	 -58.2629 	 53.837 	 133.737
| 32> C 	 -57.6398 	 52.9041 	 131.888
| 33> H 	 -57.1701 	 53.8731 	 131.711
| 34> H 	 -58.5614 	 52.795 	 131.255
| 35> C 	 -56.6665 	 51.7983 	 131.52
| 36> H 	 -55.8505 	 51.7265 	 132.357
| 37> H 	 -56.2436 	 51.9808 	 130.547
| 38> H 	 -57.162 	 50.8559 	 131.515
| 39> H 	 -56.6709 	 46.4195 	 133.832
| 40> H 	 -62.5846 	 51.911 	 134.183
| 41> *
| 42>
| 43>                          ****END OF INPUT****

CARTESIAN COORDINATES (ANGSTROEM)
---------------------------------
  S    -58.629600   47.890300  133.659000
  C    -56.964400   47.436000  133.928000
  C    -56.125300   48.440700  134.473000
  C    -56.962400   49.625800  134.638000
  C    -58.251000   49.527900  134.186000
  H    -56.574800   50.592200  134.968000
  C    -54.703200   48.311400  134.978000
  H    -54.568200   47.200200  135.019000
  H    -54.560000   48.771300  135.953000
  C    -53.493000   48.758700  134.093000
  H    -53.461100   49.880800  134.025000
  H    -52.529300   48.436600  134.486000
  C    -53.490000   48.035300  132.711000
  H    -54.369000   48.337900  132.221000
  H    -52.708600   48.504800  132.055000
  H    -53.429900   47.012900  132.835000
  S    -60.911600   50.155500  134.513000
  C    -61.569200   51.715600  134.326000
  C    -60.553400   52.618100  133.965000
  C    -59.244200   51.971700  133.877000
  C    -59.265100   50.630900  134.142000
  H    -60.886400   53.631100  133.787000
  C    -58.073600   52.811700  133.412000
  H    -57.166300   52.671300  134.030000
  H    -58.262900   53.837000  133.737000
  C    -57.639800   52.904100  131.888000
  H    -57.170100   53.873100  131.711000
  H    -58.561400   52.795000  131.255000
  C    -56.666500   51.798300  131.520000
  H    -55.850500   51.726500  132.357000
  H    -56.243600   51.980800  130.547000
  H    -57.162000   50.855900  131.515000
  H    -56.670900   46.419500  133.832000
  H    -62.584600   51.911000  134.183000

 Total Charge           Charge          ....    0
 Multiplicity           Mult            ....    1
 Number of Electrons    NEL             ....  134
 Basis Dimension        Dim             ....  322

ORBITAL ENERGIES
----------------

  NO   OCC          E(Eh)            E(eV)
   0   2.0000     -88.972448     -2421.0634
   1   2.0000     -88.961930     -2420.7772
   2   2.0000     -10.334901      -281.2269
   3   2.0000     -10.331549      -281.1358
   4   2.0000     -10.320025      -280.8221
   5   2.0000     -10.312844      -280.6268
   6   2.0000     -10.312465      -280.6164
   7   2.0000     -10.309114      -280.5252
   8   2.0000     -10.302221      -280.3377
   9   2.0000     -10.298825      -280.2453
  10   2.0000     -10.297632      -280.2128
  11   2.0000     -10.293902      -280.1113
  12   2.0000     -10.292561      -280.0748
  13   2.0000     -10.290595      -280.0213
  14   2.0000     -10.274484      -279.5829
  15   2.0000     -10.270286      -279.4687
  16   2.0000      -8.086872      -220.0550
  17   2.0000      -8.077773      -219.8074
  18   2.0000      -6.045440      -164.5048
  19   2.0000      -6.041508      -164.3978
  20   2.0000      -6.037514      -164.2891
  21   2.0000      -6.036256      -164.2549
  22   2.0000      -6.031944      -164.1375
  23   2.0000      -6.028689      -164.0490
  24   2.0000      -1.006507       -27.3885
  25   2.0000      -0.984161       -26.7804
  26   2.0000      -0.908284       -24.7157
  27   2.0000      -0.902046       -24.5459
  28   2.0000      -0.865767       -23.5587
  29   2.0000      -0.852424       -23.1956
  30   2.0000      -0.845490       -23.0069
  31   2.0000      -0.815206       -22.1829
  32   2.0000      -0.781481       -21.2652
  33   2.0000      -0.774286       -21.0694
  34   2.0000      -0.704604       -19.1733
  35   2.0000      -0.695821       -18.9342
  36   2.0000      -0.689054       -18.7501
  37   2.0000      -0.663923       -18.0663
  38   2.0000      -0.641158       -17.4468
  39   2.0000      -0.621903       -16.9228
  40   2.0000      -0.595386       -16.2013
  41   2.0000      -0.567281       -15.4365
  42   2.0000      -0.559351       -15.2207
  43   2.0000      -0.551829       -15.0160
  44   2.0000      -0.544718       -14.8225
  45   2.0000      -0.529472       -14.4077
  46   2.0000      -0.519033       -14.1236
  47   2.0000      -0.512753       -13.9527
  48   2.0000      -0.499665       -13.5966
  49   2.0000      -0.495889       -13.4938
  50   2.0000      -0.492234       -13.3944
  51   2.0000      -0.479399       -13.0451
  52   2.0000      -0.470770       -12.8103
  53   2.0000      -0.466563       -12.6958
  54   2.0000      -0.457827       -12.4581
  55   2.0000      -0.447660       -12.1815
  56   2.0000      -0.438523       -11.9328
  57   2.0000      -0.432620       -11.7722
  58   2.0000      -0.429521       -11.6879
  59   2.0000      -0.423271       -11.5178
  60   2.0000      -0.418795       -11.3960
  61   2.0000      -0.416549       -11.3349
  62   2.0000      -0.409239       -11.1360
  63   2.0000      -0.353579        -9.6214
  64   2.0000      -0.332637        -9.0515
  65   2.0000      -0.327875        -8.9219
  66   2.0000      -0.293375        -7.9831
  67   0.0000       0.026302         0.7157
  68   0.0000       0.071454         1.9444
  69   0.0000       0.104376         2.8402
  70   0.0000       0.112036         3.0487
  71   0.0000       0.122772         3.3408

MULLIKEN ATOMIC CHARGES
-----------------------
   0 S :    0.119291
   1 C :   -0.105877
   2 C :   -0.086361
   3 C :    0.013920
   4 C :   -0.118938
   5 H :    0.007797
   6 C :    0.052455
   7 H :    0.022800
   8 H :    0.044965
   9 C :   -0.094361
  10 H :    0.036035
  11 H :    0.032262
  12 C :   -0.036994
  13 H :    0.026998
  14 H :    0.037794
  15 H :    0.023917
  16 S :    0.084904
  17 C :   -0.070423
  18 C :   -0.056180
  19 C :   -0.036873
  20 C :   -0.120547
  21 H :    0.024464
  22 C :    0.026419
  23 H :    0.013557
  24 H :    0.010410
  25 C :   -0.055705
  26 H :    0.030571
  27 H :    0.038478
  28 C :   -0.051746
  29 H :    0.029747
  30 H :    0.032981
  31 H :    0.038653
  32 H :    0.037149
  33 H :    0.048436
Sum of atomic charges:   -0.0000000

LOEWDIN ATOMIC CHARGES
----------------------
   0 S :    0.404296
   1 C :   -0.186291
   2 C :   -0.058888
   3 C :   -0.057797
   4 C :   -0.192758
   5 H :    0.028868
   6 C :   -0.035645
   7 H :    0.036621
   8 H :    0.035669
   9 C :   -0.039963
  10 H :    0.023374
  11 H :    0.023765
  12 C :   -0.058835
  13 H :    0.018546
  14 H :    0.035190
  15 H :    0.013193
  16 S :    0.416406
  17 C :   -0.194286
  18 C :   -0.067242
  19 C :   -0.064941
  20 C :   -0.189625
  21 H :    0.032267
  22 C :   -0.043233
  23 H :    0.026743
  24 H :    0.031221
  25 C :   -0.035965
  26 H :    0.023689
  27 H :    0.030528
  28 C :   -0.067178
  29 H :    0.029687
  30 H :    0.021766
  31 H :    0.022939
  32 H :    0.016882
  33 H :    0.020997

  Mayer bond orders larger than 0.100000
B(  0-S ,  1-C ) :   1.1509 B(  0-S ,  4-C ) :   1.1318 B(  1-C ,  2-C ) :   1.6053
B(  1-C , 32-H ) :   0.9653 B(  2-C ,  3-C ) :   1.2224 B(  2-C ,  6-C ) :   1.0234
B(  3-C ,  4-C ) :   1.6104 B(  3-C ,  5-H ) :   0.9899 B(  4-C , 20-C ) :   1.0194
B(  6-C ,  7-H ) :   0.9382 B(  6-C ,  8-H ) :   0.9459 B(  6-C ,  9-C ) :   1.0660
B(  9-C , 10-H ) :   0.9583 B(  9-C , 11-H ) :   0.9601 B(  9-C , 12-C ) :   1.0682
B( 12-C , 13-H ) :   0.9767 B( 12-C , 14-H ) :   0.9727 B( 12-C , 15-H ) :   0.9782
B( 16-S , 17-C ) :   1.1753 B( 16-S , 20-C ) :   1.1380 B( 17-C , 18-C ) :   1.6010
B( 17-C , 33-H ) :   0.9710 B( 18-C , 19-C ) :   1.2291 B( 18-C , 21-H ) :   0.9947
B( 19-C , 20-C ) :   1.6121 B( 19-C , 22-C ) :   1.0490 B( 22-C , 23-H ) :   0.9361
B( 22-C , 24-H ) :   0.9286 B( 22-C , 25-C ) :   1.0566 B( 25-C , 26-H ) :   0.9564
B( 25-C , 27-H ) :   0.9546 B( 25-C , 28-C ) :   1.0833 B( 28-C , 29-H ) :   0.9728
B( 28-C , 30-H ) :   0.9715 B( 28-C , 31-H ) :   0.9766

Dispersion correction           -0.015311869
FINAL SINGLE POINT ENERGY     -1339.869841244357

DIPOLE MOMENT
-------------
                                X             Y             Z
Electronic contribution:    -27.19754      -7.58154       8.85866
Nuclear contribution   :     27.66116       7.90973      -8.99430
                        -----------------------------------------
Total Dipole Moment    :      0.46361       0.32820      -0.13564
                        -----------------------------------------
Magnitude (a.u.)       :      0.58399
Magnitude (Debye)      :      1.48439

Rotational constants in cm-1:     0.021087     0.008999     0.007047
Rotational constants in MHz :   632.177682   269.787431   211.259085

                             ****ORCA TERMINATED NORMALLY****
TOTAL RUN TIME: 0 days 0 hours 0 minutes 36 seconds 162 msec
