                         Program Version 4.2.1 -  RELEASE  -
|  1> ! wB97X-D3 SP def2-SVP
|  2> %pal
|  3> nprocs 16
|  4> end
|  5>
|  6> * xyz 0 1
|  7> S 	 -18.62 	 -10.8296 	 88.3379
|  8> C 	 -17.0191 	 -11.4248 	 88.0113
|  9> C 	 -16.0779 	 -10.696 	 88.7281
| 10> C 	 -16.5895 	 -9.65008 	 89.4908
| 11> C 	 -17.9852 	 -9.5525 	 89.4022
| 12> H 	 -16.0112 	 -8.92777 	 90.1037
| 13> C 	 -14.6184 	 -11.07 	 88.7027
| 14> H 	 -14.548 	 -11.8536 	 88.0206
| 15> H 	 -14.3837 	 -11.433 	 89.665
| 16> C 	 -13.7225 	 -9.941 	 88.2526
| 17> H 	 -14.1504 	 -9.59923 	 87.2664
| 18> H 	 -13.6702 	 -9.11203 	 88.9745
| 19> C 	 -12.2685 	 -10.3723 	 88.1425
| 20> H 	 -11.6761 	 -9.55656 	 87.7358
| 21> H 	 -11.9698 	 -10.719 	 89.1592
| 22> H 	 -12.2106 	 -11.2383 	 87.5103
| 23> S 	 -19.6323 	 -9.86698 	 91.5897
| 24> C 	 -20.6174 	 -8.48452 	 92.1905
| 25> C 	 -20.2158 	 -7.34624 	 91.5359
| 26> C 	 -19.1761 	 -7.53372 	 90.5596
| 27> C 	 -18.8528 	 -8.89028 	 90.3783
| 28> H 	 -20.7361 	 -6.44408 	 91.7026
| 29> C 	 -18.6103 	 -6.36606 	 89.7668
| 30> H 	 -17.5781 	 -6.42383 	 89.5894
| 31> H 	 -18.5713 	 -5.4414 	 90.3939
| 32> C 	 -19.2283 	 -6.1312 	 88.3369
| 33> H 	 -20.2907 	 -6.1264 	 88.5299
| 34> H 	 -18.9881 	 -6.91259 	 87.6007
| 35> C 	 -18.8644 	 -4.73935 	 87.709
| 36> H 	 -19.2126 	 -4.57652 	 86.6525
| 37> H 	 -17.7167 	 -4.72585 	 87.7581
| 38> H 	 -19.333 	 -4.00324 	 88.3916
| 39> H 	 -16.8067 	 -12.2278 	 87.3315
| 40> H 	 -21.5404 	 -8.51673 	 92.7393
| 41> *
| 42>
| 43>                          ****END OF INPUT****

CARTESIAN COORDINATES (ANGSTROEM)
---------------------------------
  S    -18.620000  -10.829600   88.337900
  C    -17.019100  -11.424800   88.011300
  C    -16.077900  -10.696000   88.728100
  C    -16.589500   -9.650080   89.490800
  C    -17.985200   -9.552500   89.402200
  H    -16.011200   -8.927770   90.103700
  C    -14.618400  -11.070000   88.702700
  H    -14.548000  -11.853600   88.020600
  H    -14.383700  -11.433000   89.665000
  C    -13.722500   -9.941000   88.252600
  H    -14.150400   -9.599230   87.266400
  H    -13.670200   -9.112030   88.974500
  C    -12.268500  -10.372300   88.142500
  H    -11.676100   -9.556560   87.735800
  H    -11.969800  -10.719000   89.159200
  H    -12.210600  -11.238300   87.510300
  S    -19.632300   -9.866980   91.589700
  C    -20.617400   -8.484520   92.190500
  C    -20.215800   -7.346240   91.535900
  C    -19.176100   -7.533720   90.559600
  C    -18.852800   -8.890280   90.378300
  H    -20.736100   -6.444080   91.702600
  C    -18.610300   -6.366060   89.766800
  H    -17.578100   -6.423830   89.589400
  H    -18.571300   -5.441400   90.393900
  C    -19.228300   -6.131200   88.336900
  H    -20.290700   -6.126400   88.529900
  H    -18.988100   -6.912590   87.600700
  C    -18.864400   -4.739350   87.709000
  H    -19.212600   -4.576520   86.652500
  H    -17.716700   -4.725850   87.758100
  H    -19.333000   -4.003240   88.391600
  H    -16.806700  -12.227800   87.331500
  H    -21.540400   -8.516730   92.739300

 Total Charge           Charge          ....    0
 Multiplicity           Mult            ....    1
 Number of Electrons    NEL             ....  134
 Basis Dimension        Dim             ....  322

ORBITAL ENERGIES
----------------

  NO   OCC          E(Eh)            E(eV)
   0   2.0000     -88.968999     -2420.9695
   1   2.0000     -88.963785     -2420.8277
   2   2.0000     -10.332727      -281.1678
   3   2.0000     -10.328601      -281.0555
   4   2.0000     -10.316201      -280.7181
   5   2.0000     -10.315941      -280.7110
   6   2.0000     -10.305185      -280.4184
   7   2.0000     -10.299375      -280.2603
   8   2.0000     -10.297107      -280.1985
   9   2.0000     -10.291103      -280.0351
  10   2.0000     -10.290709      -280.0244
  11   2.0000     -10.289559      -279.9931
  12   2.0000     -10.288043      -279.9519
  13   2.0000     -10.285513      -279.8830
  14   2.0000     -10.280700      -279.7521
  15   2.0000     -10.278637      -279.6959
  16   2.0000      -8.083253      -219.9565
  17   2.0000      -8.077802      -219.8082
  18   2.0000      -6.041622      -164.4009
  19   2.0000      -6.037705      -164.2943
  20   2.0000      -6.036450      -164.2601
  21   2.0000      -6.034306      -164.2018
  22   2.0000      -6.032320      -164.1478
  23   2.0000      -6.028519      -164.0443
  24   2.0000      -1.004182       -27.3252
  25   2.0000      -0.981174       -26.6991
  26   2.0000      -0.919476       -25.0202
  27   2.0000      -0.897412       -24.4198
  28   2.0000      -0.870565       -23.6893
  29   2.0000      -0.852481       -23.1972
  30   2.0000      -0.840583       -22.8734
  31   2.0000      -0.818300       -22.2671
  32   2.0000      -0.779900       -21.2222
  33   2.0000      -0.764463       -20.8021
  34   2.0000      -0.709338       -19.3021
  35   2.0000      -0.691553       -18.8181
  36   2.0000      -0.688067       -18.7233
  37   2.0000      -0.659407       -17.9434
  38   2.0000      -0.644417       -17.5355
  39   2.0000      -0.622049       -16.9268
  40   2.0000      -0.596540       -16.2327
  41   2.0000      -0.580500       -15.7962
  42   2.0000      -0.566704       -15.4208
  43   2.0000      -0.557456       -15.1692
  44   2.0000      -0.533825       -14.5261
  45   2.0000      -0.517744       -14.0885
  46   2.0000      -0.516680       -14.0596
  47   2.0000      -0.512257       -13.9392
  48   2.0000      -0.503133       -13.6909
  49   2.0000      -0.502869       -13.6838
  50   2.0000      -0.487086       -13.2543
  51   2.0000      -0.481079       -13.0908
  52   2.0000      -0.474087       -12.9006
  53   2.0000      -0.462124       -12.5750
  54   2.0000      -0.459393       -12.5007
  55   2.0000      -0.445736       -12.1291
  56   2.0000      -0.438413       -11.9298
  57   2.0000      -0.435005       -11.8371
  58   2.0000      -0.428682       -11.6650
  59   2.0000      -0.424910       -11.5624
  60   2.0000      -0.418088       -11.3767
  61   2.0000      -0.415440       -11.3047
  62   2.0000      -0.411273       -11.1913
  63   2.0000      -0.345257        -9.3949
  64   2.0000      -0.328420        -8.9368
  65   2.0000      -0.323915        -8.8142
  66   2.0000      -0.298898        -8.1334
  67   0.0000       0.027913         0.7596
  68   0.0000       0.057278         1.5586
  69   0.0000       0.116940         3.1821
  70   0.0000       0.124483         3.3873
  71   0.0000       0.127822         3.4782

MULLIKEN ATOMIC CHARGES
-----------------------
   0 S :    0.116062
   1 C :   -0.119463
   2 C :   -0.111797
   3 C :    0.042261
   4 C :   -0.171090
   5 H :    0.034478
   6 C :    0.150982
   7 H :   -0.014856
   8 H :    0.021279
   9 C :   -0.129231
  10 H :    0.038271
  11 H :    0.032277
  12 C :   -0.018731
  13 H :    0.044976
  14 H :    0.028595
  15 H :    0.016950
  16 S :    0.106312
  17 C :   -0.093272
  18 C :   -0.021630
  19 C :   -0.019656
  20 C :   -0.164000
  21 H :    0.006451
  22 C :    0.061769
  23 H :   -0.000442
  24 H :    0.022332
  25 C :   -0.080473
  26 H :    0.023733
  27 H :    0.047454
  28 C :   -0.092118
  29 H :    0.054960
  30 H :    0.040752
  31 H :    0.039319
  32 H :    0.047619
  33 H :    0.059927
Sum of atomic charges:   -0.0000000

LOEWDIN ATOMIC CHARGES
----------------------
   0 S :    0.410645
   1 C :   -0.197223
   2 C :   -0.066470
   3 C :   -0.051352
   4 C :   -0.194558
   5 H :    0.041170
   6 C :   -0.021600
   7 H :    0.019423
   8 H :    0.026433
   9 C :   -0.044081
  10 H :    0.029457
  11 H :    0.022519
  12 C :   -0.061496
  13 H :    0.028392
  14 H :    0.029243
  15 H :    0.017562
  16 S :    0.393132
  17 C :   -0.178980
  18 C :   -0.061069
  19 C :   -0.058429
  20 C :   -0.200272
  21 H :    0.025089
  22 C :   -0.039218
  23 H :    0.019850
  24 H :    0.035683
  25 C :   -0.039564
  26 H :    0.016977
  27 H :    0.027120
  28 C :   -0.075754
  29 H :    0.032322
  30 H :    0.030278
  31 H :    0.025965
  32 H :    0.026811
  33 H :    0.031997

  Mayer bond orders larger than 0.100000
B(  0-S ,  1-C ) :   1.1529 B(  0-S ,  4-C ) :   1.1649 B(  1-C ,  2-C ) :   1.5724
B(  1-C ,  4-C ) :   0.1054 B(  1-C , 32-H ) :   0.9699 B(  2-C ,  3-C ) :   1.2803
B(  2-C ,  6-C ) :   1.0267 B(  3-C ,  4-C ) :   1.5383 B(  3-C ,  5-H ) :   0.9873
B(  4-C , 20-C ) :   1.0256 B(  6-C ,  7-H ) :   0.9310 B(  6-C ,  8-H ) :   0.9255
B(  6-C ,  9-C ) :   1.0696 B(  9-C , 10-H ) :   0.9556 B(  9-C , 11-H ) :   0.9529
B(  9-C , 12-C ) :   1.0879 B( 12-C , 13-H ) :   0.9737 B( 12-C , 14-H ) :   0.9710
B( 12-C , 15-H ) :   0.9742 B( 16-S , 17-C ) :   1.1297 B( 16-S , 20-C ) :   1.1531
B( 17-C , 18-C ) :   1.6313 B( 17-C , 33-H ) :   0.9658 B( 18-C , 19-C ) :   1.2392
B( 18-C , 21-H ) :   0.9929 B( 19-C , 20-C ) :   1.5854 B( 19-C , 22-C ) :   1.0561
B( 22-C , 23-H ) :   0.9239 B( 22-C , 24-H ) :   0.9405 B( 22-C , 25-C ) :   1.0413
B( 25-C , 26-H ) :   0.9633 B( 25-C , 27-H ) :   0.9584 B( 25-C , 28-C ) :   1.0675
B( 28-C , 29-H ) :   0.9743 B( 28-C , 30-H ) :   0.9765 B( 28-C , 31-H ) :   0.9781

Dispersion correction           -0.013737092
FINAL SINGLE POINT ENERGY     -1339.871679726811

DIPOLE MOMENT
-------------
                                X             Y             Z
Electronic contribution:    -19.34945     -14.92907      10.76309
Nuclear contribution   :     19.75442      15.14630     -10.91471
                        -----------------------------------------
Total Dipole Moment    :      0.40497       0.21723      -0.15161
                        -----------------------------------------
Magnitude (a.u.)       :      0.48392
Magnitude (Debye)      :      1.23002

Rotational constants in cm-1:     0.017418     0.008139     0.006678
Rotational constants in MHz :   522.185482   243.987227   200.187743

                             ****ORCA TERMINATED NORMALLY****
TOTAL RUN TIME: 0 days 0 hours 0 minutes 32 seconds 756 msec
