                         Program Version 4.2.1 -  RELEASE  -
|  1> ! wB97X-D3 SP def2-SVP
|  2> %pal
|  3> nprocs 16
|  4> end
|  5>
|  6> * xyz 0 1
|  7> S 	 59.6268 	 18.1033 	 76.0593
|  8> C 	 60.8238 	 17.001 	 75.4255
|  9> C 	 60.3627 	 15.6785 	 75.4638
| 10> C 	 58.9852 	 15.582 	 75.747
| 11> C 	 58.4398 	 16.7919 	 76.2442
| 12> H 	 58.3522 	 14.6877 	 75.6866
| 13> C 	 61.2077 	 14.4708 	 75.0593
| 14> H 	 62.1797 	 14.7761 	 74.6727
| 15> H 	 60.7168 	 14.0896 	 74.1281
| 16> C 	 61.4081 	 13.3977 	 76.0865
| 17> H 	 60.3376 	 13.0068 	 76.2997
| 18> H 	 62.153 	 12.6142 	 75.819
| 19> C 	 61.9268 	 14.0038 	 77.454
| 20> H 	 62.5665 	 13.1572 	 77.9446
| 21> H 	 62.6311 	 14.8196 	 77.2908
| 22> H 	 61.2413 	 14.2968 	 78.1484
| 23> S 	 56.723 	 15.7207 	 78.025
| 24> C 	 55.1206 	 16.3884 	 78.1599
| 25> C 	 54.9188 	 17.4751 	 77.3469
| 26> C 	 56.1306 	 17.8838 	 76.6793
| 27> C 	 57.164 	 16.9789 	 76.8628
| 28> H 	 53.9635 	 17.9426 	 77.3797
| 29> C 	 56.2698 	 19.1912 	 75.8999
| 30> H 	 56.0647 	 18.9241 	 74.9109
| 31> H 	 57.2514 	 19.6233 	 75.8081
| 32> C 	 55.403 	 20.4323 	 76.4162
| 33> H 	 54.4037 	 20.2186 	 75.9816
| 34> H 	 55.7329 	 21.3433 	 75.9838
| 35> C 	 55.3218 	 20.5871 	 78.0033
| 36> H 	 56.2884 	 20.497 	 78.4259
| 37> H 	 54.6124 	 19.8817 	 78.4326
| 38> H 	 54.9494 	 21.615 	 78.2917
| 39> H 	 61.8688 	 17.146 	 75.1127
| 40> H 	 54.4463 	 16.0911 	 78.956
| 41> *
| 42>
| 43>                          ****END OF INPUT****

CARTESIAN COORDINATES (ANGSTROEM)
---------------------------------
  S     59.626800   18.103300   76.059300
  C     60.823800   17.001000   75.425500
  C     60.362700   15.678500   75.463800
  C     58.985200   15.582000   75.747000
  C     58.439800   16.791900   76.244200
  H     58.352200   14.687700   75.686600
  C     61.207700   14.470800   75.059300
  H     62.179700   14.776100   74.672700
  H     60.716800   14.089600   74.128100
  C     61.408100   13.397700   76.086500
  H     60.337600   13.006800   76.299700
  H     62.153000   12.614200   75.819000
  C     61.926800   14.003800   77.454000
  H     62.566500   13.157200   77.944600
  H     62.631100   14.819600   77.290800
  H     61.241300   14.296800   78.148400
  S     56.723000   15.720700   78.025000
  C     55.120600   16.388400   78.159900
  C     54.918800   17.475100   77.346900
  C     56.130600   17.883800   76.679300
  C     57.164000   16.978900   76.862800
  H     53.963500   17.942600   77.379700
  C     56.269800   19.191200   75.899900
  H     56.064700   18.924100   74.910900
  H     57.251400   19.623300   75.808100
  C     55.403000   20.432300   76.416200
  H     54.403700   20.218600   75.981600
  H     55.732900   21.343300   75.983800
  C     55.321800   20.587100   78.003300
  H     56.288400   20.497000   78.425900
  H     54.612400   19.881700   78.432600
  H     54.949400   21.615000   78.291700
  H     61.868800   17.146000   75.112700
  H     54.446300   16.091100   78.956000

 Total Charge           Charge          ....    0
 Multiplicity           Mult            ....    1
 Number of Electrons    NEL             ....  134
 Basis Dimension        Dim             ....  322

ORBITAL ENERGIES
----------------

  NO   OCC          E(Eh)            E(eV)
   0   2.0000     -88.970389     -2421.0074
   1   2.0000     -88.965444     -2420.8728
   2   2.0000     -10.333436      -281.1871
   3   2.0000     -10.325633      -280.9748
   4   2.0000     -10.317209      -280.7455
   5   2.0000     -10.314244      -280.6649
   6   2.0000     -10.311024      -280.5772
   7   2.0000     -10.300674      -280.2956
   8   2.0000     -10.296900      -280.1929
   9   2.0000     -10.296737      -280.1885
  10   2.0000     -10.296512      -280.1823
  11   2.0000     -10.294103      -280.1168
  12   2.0000     -10.291526      -280.0467
  13   2.0000     -10.289394      -279.9887
  14   2.0000     -10.281610      -279.7768
  15   2.0000     -10.274181      -279.5747
  16   2.0000      -8.083840      -219.9725
  17   2.0000      -8.080167      -219.8725
  18   2.0000      -6.042433      -164.4229
  19   2.0000      -6.038652      -164.3201
  20   2.0000      -6.038463      -164.3149
  21   2.0000      -6.034700      -164.2125
  22   2.0000      -6.034671      -164.2117
  23   2.0000      -6.030918      -164.1096
  24   2.0000      -1.005450       -27.3597
  25   2.0000      -0.981345       -26.7038
  26   2.0000      -0.908819       -24.7302
  27   2.0000      -0.899208       -24.4687
  28   2.0000      -0.870725       -23.6936
  29   2.0000      -0.845039       -22.9947
  30   2.0000      -0.838369       -22.8132
  31   2.0000      -0.811320       -22.0771
  32   2.0000      -0.785794       -21.3825
  33   2.0000      -0.772996       -21.0343
  34   2.0000      -0.711926       -19.3725
  35   2.0000      -0.698753       -19.0140
  36   2.0000      -0.685959       -18.6659
  37   2.0000      -0.663361       -18.0510
  38   2.0000      -0.629423       -17.1275
  39   2.0000      -0.619119       -16.8471
  40   2.0000      -0.599031       -16.3005
  41   2.0000      -0.565722       -15.3941
  42   2.0000      -0.554343       -15.0844
  43   2.0000      -0.548370       -14.9219
  44   2.0000      -0.543039       -14.7768
  45   2.0000      -0.536712       -14.6047
  46   2.0000      -0.520562       -14.1652
  47   2.0000      -0.502864       -13.6836
  48   2.0000      -0.501744       -13.6532
  49   2.0000      -0.490756       -13.3541
  50   2.0000      -0.484685       -13.1889
  51   2.0000      -0.482671       -13.1342
  52   2.0000      -0.471184       -12.8216
  53   2.0000      -0.464006       -12.6263
  54   2.0000      -0.461352       -12.5540
  55   2.0000      -0.444654       -12.0996
  56   2.0000      -0.441737       -12.0203
  57   2.0000      -0.440239       -11.9795
  58   2.0000      -0.428817       -11.6687
  59   2.0000      -0.425660       -11.5828
  60   2.0000      -0.424472       -11.5505
  61   2.0000      -0.407535       -11.0896
  62   2.0000      -0.402439       -10.9509
  63   2.0000      -0.347429        -9.4540
  64   2.0000      -0.333805        -9.0833
  65   2.0000      -0.329827        -8.9750
  66   2.0000      -0.284091        -7.7305
  67   0.0000       0.024515         0.6671
  68   0.0000       0.069893         1.9019
  69   0.0000       0.108951         2.9647
  70   0.0000       0.115979         3.1559
  71   0.0000       0.124513         3.3882

MULLIKEN ATOMIC CHARGES
-----------------------
   0 S :    0.114515
   1 C :   -0.105924
   2 C :   -0.109557
   3 C :    0.004446
   4 C :   -0.154301
   5 H :    0.030950
   6 C :    0.058485
   7 H :    0.005206
   8 H :    0.040850
   9 C :   -0.095738
  10 H :    0.043983
  11 H :    0.051259
  12 C :   -0.056864
  13 H :    0.033528
  14 H :    0.025641
  15 H :    0.029033
  16 S :    0.106024
  17 C :   -0.097868
  18 C :   -0.036814
  19 C :   -0.018714
  20 C :   -0.155535
  21 H :    0.018492
  22 C :    0.077196
  23 H :    0.027694
  24 H :    0.025133
  25 C :   -0.094947
  26 H :    0.031490
  27 H :    0.030233
  28 C :   -0.051058
  29 H :    0.037812
  30 H :    0.033802
  31 H :    0.037202
  32 H :    0.051519
  33 H :    0.062826
Sum of atomic charges:    0.0000000

LOEWDIN ATOMIC CHARGES
----------------------
   0 S :    0.408224
   1 C :   -0.213457
   2 C :   -0.062437
   3 C :   -0.070607
   4 C :   -0.184637
   5 H :    0.033780
   6 C :   -0.042310
   7 H :    0.022406
   8 H :    0.037057
   9 C :   -0.047577
  10 H :    0.033608
  11 H :    0.033146
  12 C :   -0.065497
  13 H :    0.035050
  14 H :    0.022295
  15 H :    0.011340
  16 S :    0.406616
  17 C :   -0.183681
  18 C :   -0.066766
  19 C :   -0.043868
  20 C :   -0.197178
  21 H :    0.029251
  22 C :   -0.034131
  23 H :    0.029886
  24 H :    0.021678
  25 C :   -0.033788
  26 H :    0.022517
  27 H :    0.019913
  28 C :   -0.064424
  29 H :    0.021981
  30 H :    0.023350
  31 H :    0.032207
  32 H :    0.035786
  33 H :    0.030265

  Mayer bond orders larger than 0.100000
B(  0-S ,  1-C ) :   1.1360 B(  0-S ,  4-C ) :   1.1471 B(  1-C ,  2-C ) :   1.6054
B(  1-C ,  4-C ) :   0.1060 B(  1-C , 32-H ) :   0.9583 B(  2-C ,  3-C ) :   1.2516
B(  2-C ,  6-C ) :   1.0196 B(  3-C ,  4-C ) :   1.5423 B(  3-C ,  5-H ) :   0.9863
B(  4-C , 20-C ) :   1.0798 B(  6-C ,  7-H ) :   0.9385 B(  6-C ,  8-H ) :   0.9432
B(  6-C ,  9-C ) :   1.0734 B(  9-C , 10-H ) :   0.9551 B(  9-C , 11-H ) :   0.9628
B(  9-C , 12-C ) :   1.0571 B( 12-C , 13-H ) :   0.9798 B( 12-C , 14-H ) :   0.9783
B( 12-C , 15-H ) :   0.9771 B( 16-S , 17-C ) :   1.1579 B( 16-S , 20-C ) :   1.1329
B( 17-C , 18-C ) :   1.6151 B( 17-C , 33-H ) :   0.9642 B( 18-C , 19-C ) :   1.2258
B( 18-C , 21-H ) :   0.9924 B( 19-C , 20-C ) :   1.5846 B( 19-C , 22-C ) :   1.0222
B( 22-C , 23-H ) :   0.9283 B( 22-C , 24-H ) :   0.9456 B( 22-C , 25-C ) :   1.0571
B( 25-C , 26-H ) :   0.9589 B( 25-C , 27-H ) :   0.9652 B( 25-C , 28-C ) :   1.0691
B( 28-C , 29-H ) :   0.9785 B( 28-C , 30-H ) :   0.9721 B( 28-C , 31-H ) :   0.9758

Dispersion correction           -0.014937030
FINAL SINGLE POINT ENERGY     -1339.859728379209

DIPOLE MOMENT
-------------
                                X             Y             Z
Electronic contribution:     -3.20352      -0.94664       0.17790
Nuclear contribution   :      3.05281       1.00484      -0.26699
                        -----------------------------------------
Total Dipole Moment    :     -0.15071       0.05820      -0.08908
                        -----------------------------------------
Magnitude (a.u.)       :      0.18449
Magnitude (Debye)      :      0.46894

Rotational constants in cm-1:     0.026161     0.007829     0.006539
Rotational constants in MHz :   784.279938   234.697880   196.044712

                             ****ORCA TERMINATED NORMALLY****
TOTAL RUN TIME: 0 days 0 hours 0 minutes 28 seconds 471 msec
