                         Program Version 4.2.1 -  RELEASE  -
|  1> ! wB97X-D3 SP def2-SVP
|  2> %pal
|  3> nprocs 16
|  4> end
|  5>
|  6> * xyz 0 1
|  7> S 	 59.5831 	 1.78161 	 75.3767
|  8> C 	 59.5063 	 3.08159 	 76.5893
|  9> C 	 58.9235 	 4.26803 	 76.1602
| 10> C 	 58.4917 	 4.12907 	 74.8038
| 11> C 	 58.8719 	 2.88868 	 74.2295
| 12> H 	 57.9486 	 4.84443 	 74.2127
| 13> C 	 58.584 	 5.50295 	 76.9662
| 14> H 	 58.734 	 6.4361 	 76.4688
| 15> H 	 59.2436 	 5.60783 	 77.8558
| 16> C 	 57.1307 	 5.48359 	 77.5302
| 17> H 	 56.4915 	 5.35161 	 76.6519
| 18> H 	 57.0201 	 4.56468 	 78.0525
| 19> C 	 56.7266 	 6.67825 	 78.4625
| 20> H 	 57.2922 	 6.70522 	 79.3608
| 21> H 	 56.9358 	 7.70008 	 78.0879
| 22> H 	 55.6727 	 6.58545 	 78.7895
| 23> S 	 58.3664 	 0.769159 	 72.4902
| 24> C 	 58.1028 	 1.09199 	 70.7596
| 25> C 	 58.094 	 2.4491 	 70.5162
| 26> C 	 58.2878 	 3.27435 	 71.6813
| 27> C 	 58.6366 	 2.49173 	 72.8276
| 28> H 	 57.9417 	 2.85128 	 69.5401
| 29> C 	 58.2691 	 4.75224 	 71.5388
| 30> H 	 58.5836 	 4.93519 	 70.4945
| 31> H 	 59.0068 	 5.21802 	 72.2076
| 32> C 	 56.8865 	 5.44033 	 71.7389
| 33> H 	 56.3901 	 4.94931 	 72.5576
| 34> H 	 56.2834 	 5.08873 	 70.9145
| 35> C 	 56.9648 	 6.91359 	 72.0091
| 36> H 	 57.6014 	 7.26068 	 72.7804
| 37> H 	 56.0093 	 7.38629 	 72.2004
| 38> H 	 57.3898 	 7.38732 	 71.0925
| 39> H 	 59.6738 	 2.82571 	 77.6285
| 40> H 	 58.0915 	 0.316264 	 69.9925
| 41> *
| 42>
| 43>                          ****END OF INPUT****

CARTESIAN COORDINATES (ANGSTROEM)
---------------------------------
  S     59.583100    1.781610   75.376700
  C     59.506300    3.081590   76.589300
  C     58.923500    4.268030   76.160200
  C     58.491700    4.129070   74.803800
  C     58.871900    2.888680   74.229500
  H     57.948600    4.844430   74.212700
  C     58.584000    5.502950   76.966200
  H     58.734000    6.436100   76.468800
  H     59.243600    5.607830   77.855800
  C     57.130700    5.483590   77.530200
  H     56.491500    5.351610   76.651900
  H     57.020100    4.564680   78.052500
  C     56.726600    6.678250   78.462500
  H     57.292200    6.705220   79.360800
  H     56.935800    7.700080   78.087900
  H     55.672700    6.585450   78.789500
  S     58.366400    0.769159   72.490200
  C     58.102800    1.091990   70.759600
  C     58.094000    2.449100   70.516200
  C     58.287800    3.274350   71.681300
  C     58.636600    2.491730   72.827600
  H     57.941700    2.851280   69.540100
  C     58.269100    4.752240   71.538800
  H     58.583600    4.935190   70.494500
  H     59.006800    5.218020   72.207600
  C     56.886500    5.440330   71.738900
  H     56.390100    4.949310   72.557600
  H     56.283400    5.088730   70.914500
  C     56.964800    6.913590   72.009100
  H     57.601400    7.260680   72.780400
  H     56.009300    7.386290   72.200400
  H     57.389800    7.387320   71.092500
  H     59.673800    2.825710   77.628500
  H     58.091500    0.316264   69.992500

 Total Charge           Charge          ....    0
 Multiplicity           Mult            ....    1
 Number of Electrons    NEL             ....  134
 Basis Dimension        Dim             ....  322

ORBITAL ENERGIES
----------------

  NO   OCC          E(Eh)            E(eV)
   0   2.0000     -88.972586     -2421.0672
   1   2.0000     -88.965911     -2420.8855
   2   2.0000     -10.335336      -281.2388
   3   2.0000     -10.334887      -281.2266
   4   2.0000     -10.321588      -280.8647
   5   2.0000     -10.318228      -280.7733
   6   2.0000     -10.308511      -280.5088
   7   2.0000     -10.307013      -280.4681
   8   2.0000     -10.297688      -280.2143
   9   2.0000     -10.295686      -280.1599
  10   2.0000     -10.295217      -280.1471
  11   2.0000     -10.293532      -280.1013
  12   2.0000     -10.289596      -279.9941
  13   2.0000     -10.286564      -279.9116
  14   2.0000     -10.284983      -279.8686
  15   2.0000     -10.280118      -279.7362
  16   2.0000      -8.086722      -220.0509
  17   2.0000      -8.079839      -219.8636
  18   2.0000      -6.045192      -164.4980
  19   2.0000      -6.041476      -164.3969
  20   2.0000      -6.038500      -164.3159
  21   2.0000      -6.037420      -164.2866
  22   2.0000      -6.034529      -164.2079
  23   2.0000      -6.030431      -164.0964
  24   2.0000      -1.000312       -27.2199
  25   2.0000      -0.977572       -26.6011
  26   2.0000      -0.913776       -24.8651
  27   2.0000      -0.908422       -24.7194
  28   2.0000      -0.864359       -23.5204
  29   2.0000      -0.855074       -23.2677
  30   2.0000      -0.847022       -23.0486
  31   2.0000      -0.810550       -22.0562
  32   2.0000      -0.785128       -21.3644
  33   2.0000      -0.771975       -21.0065
  34   2.0000      -0.711601       -19.3637
  35   2.0000      -0.707204       -19.2440
  36   2.0000      -0.693524       -18.8717
  37   2.0000      -0.666651       -18.1405
  38   2.0000      -0.639840       -17.4109
  39   2.0000      -0.622352       -16.9351
  40   2.0000      -0.596675       -16.2364
  41   2.0000      -0.569113       -15.4864
  42   2.0000      -0.565381       -15.3848
  43   2.0000      -0.550208       -14.9719
  44   2.0000      -0.525517       -14.3001
  45   2.0000      -0.523809       -14.2536
  46   2.0000      -0.518840       -14.1184
  47   2.0000      -0.513590       -13.9755
  48   2.0000      -0.506028       -13.7697
  49   2.0000      -0.498598       -13.5676
  50   2.0000      -0.491286       -13.3686
  51   2.0000      -0.484553       -13.1854
  52   2.0000      -0.471082       -12.8188
  53   2.0000      -0.463426       -12.6105
  54   2.0000      -0.463188       -12.6040
  55   2.0000      -0.453814       -12.3489
  56   2.0000      -0.441848       -12.0233
  57   2.0000      -0.439917       -11.9707
  58   2.0000      -0.438118       -11.9218
  59   2.0000      -0.435693       -11.8558
  60   2.0000      -0.426813       -11.6142
  61   2.0000      -0.417309       -11.3555
  62   2.0000      -0.410660       -11.1746
  63   2.0000      -0.354458        -9.6453
  64   2.0000      -0.337094        -9.1728
  65   2.0000      -0.328373        -8.9355
  66   2.0000      -0.280180        -7.6241
  67   0.0000       0.014043         0.3821
  68   0.0000       0.077454         2.1076
  69   0.0000       0.093704         2.5498
  70   0.0000       0.117763         3.2045
  71   0.0000       0.127577         3.4716

MULLIKEN ATOMIC CHARGES
-----------------------
   0 S :    0.111280
   1 C :   -0.122597
   2 C :   -0.048810
   3 C :    0.006056
   4 C :   -0.127795
   5 H :   -0.012114
   6 C :    0.056609
   7 H :    0.021320
   8 H :    0.019815
   9 C :   -0.066013
  10 H :    0.025988
  11 H :    0.019597
  12 C :   -0.041678
  13 H :    0.019021
  14 H :    0.030930
  15 H :    0.046850
  16 S :    0.076898
  17 C :   -0.087529
  18 C :   -0.010761
  19 C :   -0.066845
  20 C :   -0.100133
  21 H :    0.009010
  22 C :    0.010141
  23 H :    0.025015
  24 H :    0.032768
  25 C :   -0.051597
  26 H :    0.023124
  27 H :    0.019482
  28 C :   -0.017531
  29 H :    0.024344
  30 H :    0.035941
  31 H :    0.025688
  32 H :    0.049120
  33 H :    0.064410
Sum of atomic charges:   -0.0000000

LOEWDIN ATOMIC CHARGES
----------------------
   0 S :    0.399028
   1 C :   -0.185569
   2 C :   -0.054896
   3 C :   -0.059646
   4 C :   -0.188446
   5 H :    0.027247
   6 C :   -0.032340
   7 H :    0.025177
   8 H :    0.031305
   9 C :   -0.034900
  10 H :    0.022816
  11 H :    0.020495
  12 C :   -0.070866
  13 H :    0.020457
  14 H :    0.027727
  15 H :    0.034533
  16 S :    0.375264
  17 C :   -0.176925
  18 C :   -0.065513
  19 C :   -0.056638
  20 C :   -0.184933
  21 H :    0.027310
  22 C :   -0.037004
  23 H :    0.032220
  24 H :    0.029844
  25 C :   -0.042967
  26 H :    0.018672
  27 H :    0.026416
  28 C :   -0.064798
  29 H :    0.020636
  30 H :    0.028925
  31 H :    0.031096
  32 H :    0.023582
  33 H :    0.032692

  Mayer bond orders larger than 0.100000
B(  0-S ,  1-C ) :   1.1319 B(  0-S ,  4-C ) :   1.1548 B(  1-C ,  2-C ) :   1.6109
B(  1-C , 32-H ) :   0.9643 B(  2-C ,  3-C ) :   1.2417 B(  2-C ,  6-C ) :   1.0396
B(  3-C ,  4-C ) :   1.5476 B(  3-C ,  5-H ) :   0.9891 B(  4-C , 20-C ) :   1.0760
B(  6-C ,  7-H ) :   0.9413 B(  6-C ,  8-H ) :   0.9400 B(  6-C ,  9-C ) :   1.0522
B(  9-C , 10-H ) :   0.9604 B(  9-C , 11-H ) :   0.9552 B(  9-C , 12-C ) :   1.0703
B( 12-C , 13-H ) :   0.9730 B( 12-C , 14-H ) :   0.9764 B( 12-C , 15-H ) :   0.9749
B( 16-S , 17-C ) :   1.1381 B( 16-S , 20-C ) :   1.1310 B( 17-C , 18-C ) :   1.6090
B( 17-C , 33-H ) :   0.9655 B( 18-C , 19-C ) :   1.2520 B( 18-C , 21-H ) :   0.9884
B( 19-C , 20-C ) :   1.5627 B( 19-C , 22-C ) :   1.0558 B( 22-C , 23-H ) :   0.9316
B( 22-C , 24-H ) :   0.9432 B( 22-C , 25-C ) :   1.0402 B( 25-C , 26-H ) :   0.9580
B( 25-C , 27-H ) :   0.9470 B( 25-C , 28-C ) :   1.0795 B( 28-C , 29-H ) :   0.9728
B( 28-C , 30-H ) :   0.9721 B( 28-C , 31-H ) :   0.9700

Dispersion correction           -0.014217472
FINAL SINGLE POINT ENERGY     -1339.883275638693

DIPOLE MOMENT
-------------
                                X             Y             Z
Electronic contribution:     11.81638     -30.16877      -6.44956
Nuclear contribution   :    -12.14219      30.82736       6.43740
                        -----------------------------------------
Total Dipole Moment    :     -0.32581       0.65859      -0.01216
                        -----------------------------------------
Magnitude (a.u.)       :      0.73487
Magnitude (Debye)      :      1.86789

Rotational constants in cm-1:     0.017713     0.009132     0.006424
Rotational constants in MHz :   531.022019   273.779618   192.597789

                             ****ORCA TERMINATED NORMALLY****
TOTAL RUN TIME: 0 days 0 hours 0 minutes 31 seconds 242 msec
