                         Program Version 4.2.1 -  RELEASE  -
|  1> ! wB97X-D3 SP def2-SVP
|  2> %pal
|  3> nprocs 16
|  4> end
|  5>
|  6> * xyz 0 1
|  7> S 	 -93.0021 	 49.2796 	 129.072
|  8> C 	 -93.1801 	 48.09 	 127.797
|  9> C 	 -91.9093 	 47.5785 	 127.418
| 10> C 	 -90.871 	 48.1672 	 128.192
| 11> C 	 -91.2385 	 49.2058 	 129.049
| 12> H 	 -89.8911 	 47.8116 	 127.898
| 13> C 	 -91.7025 	 46.5505 	 126.319
| 14> H 	 -91.5444 	 47.0307 	 125.369
| 15> H 	 -92.6984 	 45.9885 	 126.236
| 16> C 	 -90.6536 	 45.4026 	 126.458
| 17> H 	 -90.591 	 44.8954 	 125.528
| 18> H 	 -89.7296 	 45.869 	 126.615
| 19> C 	 -90.8782 	 44.4409 	 127.671
| 20> H 	 -91.803 	 43.9569 	 127.378
| 21> H 	 -90.0452 	 43.7779 	 127.808
| 22> H 	 -91.0512 	 44.9827 	 128.64
| 23> S 	 -91.072 	 50.1949 	 131.642
| 24> C 	 -89.6034 	 51.0308 	 132.109
| 25> C 	 -88.641 	 50.9714 	 131.074
| 26> C 	 -89.0926 	 50.2524 	 129.936
| 27> C 	 -90.3881 	 49.7629 	 130.067
| 28> H 	 -87.7163 	 51.5 	 131.215
| 29> C 	 -88.3085 	 50.3272 	 128.566
| 30> H 	 -88.2893 	 49.3339 	 128.171
| 31> H 	 -87.3903 	 50.7394 	 128.872
| 32> C 	 -89.0033 	 51.1981 	 127.441
| 33> H 	 -88.9674 	 52.1706 	 127.762
| 34> H 	 -90.0189 	 50.8456 	 127.286
| 35> C 	 -88.2382 	 51.0707 	 126.104
| 36> H 	 -88.0546 	 50.0163 	 125.908
| 37> H 	 -87.171 	 51.336 	 126.075
| 38> H 	 -88.7377 	 51.6569 	 125.217
| 39> H 	 -94.0589 	 47.7431 	 127.335
| 40> H 	 -89.391 	 51.568 	 133.005
| 41> *
| 42>
| 43>                          ****END OF INPUT****

CARTESIAN COORDINATES (ANGSTROEM)
---------------------------------
  S    -93.002100   49.279600  129.072000
  C    -93.180100   48.090000  127.797000
  C    -91.909300   47.578500  127.418000
  C    -90.871000   48.167200  128.192000
  C    -91.238500   49.205800  129.049000
  H    -89.891100   47.811600  127.898000
  C    -91.702500   46.550500  126.319000
  H    -91.544400   47.030700  125.369000
  H    -92.698400   45.988500  126.236000
  C    -90.653600   45.402600  126.458000
  H    -90.591000   44.895400  125.528000
  H    -89.729600   45.869000  126.615000
  C    -90.878200   44.440900  127.671000
  H    -91.803000   43.956900  127.378000
  H    -90.045200   43.777900  127.808000
  H    -91.051200   44.982700  128.640000
  S    -91.072000   50.194900  131.642000
  C    -89.603400   51.030800  132.109000
  C    -88.641000   50.971400  131.074000
  C    -89.092600   50.252400  129.936000
  C    -90.388100   49.762900  130.067000
  H    -87.716300   51.500000  131.215000
  C    -88.308500   50.327200  128.566000
  H    -88.289300   49.333900  128.171000
  H    -87.390300   50.739400  128.872000
  C    -89.003300   51.198100  127.441000
  H    -88.967400   52.170600  127.762000
  H    -90.018900   50.845600  127.286000
  C    -88.238200   51.070700  126.104000
  H    -88.054600   50.016300  125.908000
  H    -87.171000   51.336000  126.075000
  H    -88.737700   51.656900  125.217000
  H    -94.058900   47.743100  127.335000
  H    -89.391000   51.568000  133.005000

 Total Charge           Charge          ....    0
 Multiplicity           Mult            ....    1
 Number of Electrons    NEL             ....  134
 Basis Dimension        Dim             ....  322

ORBITAL ENERGIES
----------------

  NO   OCC          E(Eh)            E(eV)
   0   2.0000     -88.973459     -2421.0909
   1   2.0000     -88.970591     -2421.0129
   2   2.0000     -10.335670      -281.2479
   3   2.0000     -10.328435      -281.0510
   4   2.0000     -10.319475      -280.8072
   5   2.0000     -10.317436      -280.7517
   6   2.0000     -10.304576      -280.4018
   7   2.0000     -10.304211      -280.3918
   8   2.0000     -10.300073      -280.2792
   9   2.0000     -10.296510      -280.1823
  10   2.0000     -10.295698      -280.1602
  11   2.0000     -10.292084      -280.0618
  12   2.0000     -10.285752      -279.8895
  13   2.0000     -10.284487      -279.8551
  14   2.0000     -10.280509      -279.7469
  15   2.0000     -10.280199      -279.7384
  16   2.0000      -8.087270      -220.0658
  17   2.0000      -8.084507      -219.9906
  18   2.0000      -6.045873      -164.5166
  19   2.0000      -6.043023      -164.4390
  20   2.0000      -6.041776      -164.4051
  21   2.0000      -6.039079      -164.3317
  22   2.0000      -6.038118      -164.3056
  23   2.0000      -6.035366      -164.2307
  24   2.0000      -1.004823       -27.3426
  25   2.0000      -0.979825       -26.6624
  26   2.0000      -0.909004       -24.7353
  27   2.0000      -0.901031       -24.5183
  28   2.0000      -0.869547       -23.6616
  29   2.0000      -0.850496       -23.1432
  30   2.0000      -0.843710       -22.9585
  31   2.0000      -0.812047       -22.0969
  32   2.0000      -0.780929       -21.2502
  33   2.0000      -0.770069       -20.9546
  34   2.0000      -0.715170       -19.4608
  35   2.0000      -0.702196       -19.1077
  36   2.0000      -0.696492       -18.9525
  37   2.0000      -0.663294       -18.0491
  38   2.0000      -0.633274       -17.2322
  39   2.0000      -0.629628       -17.1331
  40   2.0000      -0.587767       -15.9940
  41   2.0000      -0.570529       -15.5249
  42   2.0000      -0.567875       -15.4527
  43   2.0000      -0.556672       -15.1478
  44   2.0000      -0.543014       -14.7762
  45   2.0000      -0.517874       -14.0921
  46   2.0000      -0.516044       -14.0423
  47   2.0000      -0.512173       -13.9369
  48   2.0000      -0.505669       -13.7599
  49   2.0000      -0.493999       -13.4424
  50   2.0000      -0.489037       -13.3074
  51   2.0000      -0.482047       -13.1172
  52   2.0000      -0.474920       -12.9232
  53   2.0000      -0.464978       -12.6527
  54   2.0000      -0.459632       -12.5072
  55   2.0000      -0.449489       -12.2312
  56   2.0000      -0.442753       -12.0479
  57   2.0000      -0.435336       -11.8461
  58   2.0000      -0.429384       -11.6841
  59   2.0000      -0.426691       -11.6109
  60   2.0000      -0.419701       -11.4206
  61   2.0000      -0.414798       -11.2872
  62   2.0000      -0.411435       -11.1957
  63   2.0000      -0.356357        -9.6970
  64   2.0000      -0.334691        -9.1074
  65   2.0000      -0.331885        -9.0310
  66   2.0000      -0.280612        -7.6358
  67   0.0000       0.014864         0.4045
  68   0.0000       0.072401         1.9701
  69   0.0000       0.105603         2.8736
  70   0.0000       0.118890         3.2352
  71   0.0000       0.133145         3.6231

MULLIKEN ATOMIC CHARGES
-----------------------
   0 S :    0.112660
   1 C :   -0.094982
   2 C :   -0.115183
   3 C :    0.018864
   4 C :   -0.121809
   5 H :    0.003795
   6 C :    0.026364
   7 H :    0.046845
   8 H :    0.023223
   9 C :   -0.052200
  10 H :    0.026953
  11 H :    0.008022
  12 C :   -0.062085
  13 H :    0.029699
  14 H :    0.041442
  15 H :    0.053390
  16 S :    0.112222
  17 C :   -0.092997
  18 C :   -0.047207
  19 C :   -0.053948
  20 C :   -0.126755
  21 H :    0.018230
  22 C :    0.087476
  23 H :    0.013382
  24 H :    0.009953
  25 C :   -0.021122
  26 H :    0.016548
  27 H :    0.053246
  28 C :   -0.084006
  29 H :    0.012321
  30 H :    0.020032
  31 H :    0.059244
  32 H :    0.028740
  33 H :    0.049644
Sum of atomic charges:   -0.0000000

LOEWDIN ATOMIC CHARGES
----------------------
   0 S :    0.411246
   1 C :   -0.191060
   2 C :   -0.063990
   3 C :   -0.063914
   4 C :   -0.192919
   5 H :    0.026987
   6 C :   -0.035660
   7 H :    0.032704
   8 H :    0.034611
   9 C :   -0.034456
  10 H :    0.023901
  11 H :    0.008943
  12 C :   -0.063238
  13 H :    0.023916
  14 H :    0.024272
  15 H :    0.035587
  16 S :    0.402238
  17 C :   -0.185782
  18 C :   -0.070694
  19 C :   -0.056987
  20 C :   -0.191699
  21 H :    0.030009
  22 C :   -0.011941
  23 H :    0.020998
  24 H :    0.020934
  25 C :   -0.024837
  26 H :    0.011920
  27 H :    0.030389
  28 C :   -0.083195
  29 H :    0.020491
  30 H :    0.023542
  31 H :    0.040808
  32 H :    0.020159
  33 H :    0.026716

  Mayer bond orders larger than 0.100000
B(  0-S ,  1-C ) :   1.1535 B(  0-S ,  4-C ) :   1.1419 B(  1-C ,  2-C ) :   1.5634
B(  1-C ,  4-C ) :   0.1027 B(  1-C , 32-H ) :   0.9710 B(  2-C ,  3-C ) :   1.3217
B(  2-C ,  6-C ) :   1.0113 B(  3-C ,  4-C ) :   1.4904 B(  3-C ,  5-H ) :   0.9840
B(  4-C , 20-C ) :   1.1009 B(  6-C ,  7-H ) :   0.9384 B(  6-C ,  8-H ) :   0.9449
B(  6-C ,  9-C ) :   1.0780 B(  9-C , 10-H ) :   0.9539 B(  9-C , 11-H ) :   0.9532
B(  9-C , 12-C ) :   1.0656 B( 12-C , 13-H ) :   0.9789 B( 12-C , 14-H ) :   0.9766
B( 12-C , 15-H ) :   0.9760 B( 16-S , 17-C ) :   1.1586 B( 16-S , 20-C ) :   1.1296
B( 17-C , 18-C ) :   1.5937 B( 17-C , 33-H ) :   0.9695 B( 18-C , 19-C ) :   1.2759
B( 18-C , 21-H ) :   0.9896 B( 19-C , 20-C ) :   1.5620 B( 19-C , 22-C ) :   1.0376
B( 22-C , 23-H ) :   0.9327 B( 22-C , 24-H ) :   0.9379 B( 22-C , 25-C ) :   1.0659
B( 25-C , 26-H ) :   0.9578 B( 25-C , 27-H ) :   0.9521 B( 25-C , 28-C ) :   1.0730
B( 28-C , 29-H ) :   0.9715 B( 28-C , 30-H ) :   0.9723 B( 28-C , 31-H ) :   0.9729

Dispersion correction           -0.014714109
FINAL SINGLE POINT ENERGY     -1339.858454179551

DIPOLE MOMENT
-------------
                                X             Y             Z
Electronic contribution:    -13.95199      10.87019      21.50877
Nuclear contribution   :     14.37060     -11.02588     -21.98527
                        -----------------------------------------
Total Dipole Moment    :      0.41862      -0.15569      -0.47650
                        -----------------------------------------
Magnitude (a.u.)       :      0.65309
Magnitude (Debye)      :      1.66003

Rotational constants in cm-1:     0.017179     0.009369     0.007620
Rotational constants in MHz :   515.017483   280.880167   228.431275

                             ****ORCA TERMINATED NORMALLY****
TOTAL RUN TIME: 0 days 0 hours 0 minutes 32 seconds 880 msec
