                         Program Version 4.2.1 -  RELEASE  -
|  1> ! wB97X-D3 SP def2-SVP
|  2> %pal
|  3> nprocs 16
|  4> end
|  5>
|  6> * xyz 0 1
|  7> S 	 19.723 	 -9.02174 	 83.1645
|  8> C 	 20.7251 	 -10.321 	 83.6459
|  9> C 	 21.0256 	 -11.1957 	 82.6147
| 10> C 	 20.7007 	 -10.6387 	 81.3561
| 11> C 	 19.939 	 -9.44245 	 81.4438
| 12> H 	 20.8869 	 -11.0452 	 80.3526
| 13> C 	 21.7644 	 -12.4712 	 82.7546
| 14> H 	 22.1875 	 -12.5263 	 83.7507
| 15> H 	 22.665 	 -12.474 	 82.0942
| 16> C 	 20.9731 	 -13.6693 	 82.3503
| 17> H 	 19.958 	 -13.7065 	 82.6947
| 18> H 	 20.7452 	 -13.612 	 81.303
| 19> C 	 21.7064 	 -15.0853 	 82.646
| 20> H 	 22.358 	 -15.3204 	 81.7629
| 21> H 	 22.5161 	 -14.7934 	 83.3491
| 22> H 	 21.1098 	 -15.8668 	 83.0146
| 23> S 	 19.1423 	 -6.93563 	 80.7721
| 24> C 	 19.2075 	 -6.23735 	 79.2229
| 25> C 	 19.262 	 -7.30624 	 78.3469
| 26> C 	 19.5151 	 -8.58344 	 78.911
| 27> C 	 19.5693 	 -8.53659 	 80.2924
| 28> H 	 19.1931 	 -7.24186 	 77.2938
| 29> C 	 19.9198 	 -9.76614 	 78.104
| 30> H 	 19.5243 	 -9.51686 	 77.1009
| 31> H 	 19.405 	 -10.6352 	 78.3952
| 32> C 	 21.3408 	 -9.95424 	 77.8295
| 33> H 	 21.7558 	 -9.85947 	 78.8234
| 34> H 	 21.7713 	 -9.07668 	 77.3777
| 35> C 	 21.6949 	 -11.2596 	 77.1299
| 36> H 	 21.1221 	 -11.4417 	 76.2159
| 37> H 	 21.5355 	 -12.137 	 77.8151
| 38> H 	 22.7337 	 -11.3358 	 76.8049
| 39> H 	 20.877 	 -10.4663 	 84.6964
| 40> H 	 18.9094 	 -5.26482 	 78.826
| 41> *
| 42>
| 43>                          ****END OF INPUT****

CARTESIAN COORDINATES (ANGSTROEM)
---------------------------------
  S     19.723000   -9.021740   83.164500
  C     20.725100  -10.321000   83.645900
  C     21.025600  -11.195700   82.614700
  C     20.700700  -10.638700   81.356100
  C     19.939000   -9.442450   81.443800
  H     20.886900  -11.045200   80.352600
  C     21.764400  -12.471200   82.754600
  H     22.187500  -12.526300   83.750700
  H     22.665000  -12.474000   82.094200
  C     20.973100  -13.669300   82.350300
  H     19.958000  -13.706500   82.694700
  H     20.745200  -13.612000   81.303000
  C     21.706400  -15.085300   82.646000
  H     22.358000  -15.320400   81.762900
  H     22.516100  -14.793400   83.349100
  H     21.109800  -15.866800   83.014600
  S     19.142300   -6.935630   80.772100
  C     19.207500   -6.237350   79.222900
  C     19.262000   -7.306240   78.346900
  C     19.515100   -8.583440   78.911000
  C     19.569300   -8.536590   80.292400
  H     19.193100   -7.241860   77.293800
  C     19.919800   -9.766140   78.104000
  H     19.524300   -9.516860   77.100900
  H     19.405000  -10.635200   78.395200
  C     21.340800   -9.954240   77.829500
  H     21.755800   -9.859470   78.823400
  H     21.771300   -9.076680   77.377700
  C     21.694900  -11.259600   77.129900
  H     21.122100  -11.441700   76.215900
  H     21.535500  -12.137000   77.815100
  H     22.733700  -11.335800   76.804900
  H     20.877000  -10.466300   84.696400
  H     18.909400   -5.264820   78.826000

 Total Charge           Charge          ....    0
 Multiplicity           Mult            ....    1
 Number of Electrons    NEL             ....  134
 Basis Dimension        Dim             ....  322

ORBITAL ENERGIES
----------------

  NO   OCC          E(Eh)            E(eV)
   0   2.0000     -88.970680     -2421.0153
   1   2.0000     -88.962119     -2420.7823
   2   2.0000     -10.342538      -281.4348
   3   2.0000     -10.331768      -281.1417
   4   2.0000     -10.315931      -280.7108
   5   2.0000     -10.314000      -280.6582
   6   2.0000     -10.302151      -280.3358
   7   2.0000     -10.300703      -280.2964
   8   2.0000     -10.298307      -280.2312
   9   2.0000     -10.291896      -280.0567
  10   2.0000     -10.289241      -279.9845
  11   2.0000     -10.286115      -279.8994
  12   2.0000     -10.285658      -279.8870
  13   2.0000     -10.284775      -279.8629
  14   2.0000     -10.281645      -279.7778
  15   2.0000     -10.279390      -279.7164
  16   2.0000      -8.085376      -220.0143
  17   2.0000      -8.078299      -219.8217
  18   2.0000      -6.043950      -164.4642
  19   2.0000      -6.039856      -164.3528
  20   2.0000      -6.036828      -164.2704
  21   2.0000      -6.036105      -164.2508
  22   2.0000      -6.032438      -164.1510
  23   2.0000      -6.029090      -164.0599
  24   2.0000      -1.014029       -27.5931
  25   2.0000      -0.992930       -27.0190
  26   2.0000      -0.926963       -25.2239
  27   2.0000      -0.915852       -24.9216
  28   2.0000      -0.867961       -23.6184
  29   2.0000      -0.854891       -23.2628
  30   2.0000      -0.847441       -23.0601
  31   2.0000      -0.816207       -22.2101
  32   2.0000      -0.783960       -21.3326
  33   2.0000      -0.774978       -21.0882
  34   2.0000      -0.713261       -19.4088
  35   2.0000      -0.706842       -19.2341
  36   2.0000      -0.695185       -18.9169
  37   2.0000      -0.672490       -18.2994
  38   2.0000      -0.645985       -17.5782
  39   2.0000      -0.624895       -17.0043
  40   2.0000      -0.602535       -16.3958
  41   2.0000      -0.576897       -15.6982
  42   2.0000      -0.569585       -15.4992
  43   2.0000      -0.551897       -15.0179
  44   2.0000      -0.529763       -14.4156
  45   2.0000      -0.527112       -14.3434
  46   2.0000      -0.523291       -14.2395
  47   2.0000      -0.516125       -14.0445
  48   2.0000      -0.511428       -13.9167
  49   2.0000      -0.501139       -13.6367
  50   2.0000      -0.492470       -13.4008
  51   2.0000      -0.488495       -13.2926
  52   2.0000      -0.477756       -13.0004
  53   2.0000      -0.466800       -12.7023
  54   2.0000      -0.461044       -12.5457
  55   2.0000      -0.453978       -12.3534
  56   2.0000      -0.446131       -12.1398
  57   2.0000      -0.443524       -12.0689
  58   2.0000      -0.441027       -12.0009
  59   2.0000      -0.425248       -11.5716
  60   2.0000      -0.416787       -11.3414
  61   2.0000      -0.410413       -11.1679
  62   2.0000      -0.395653       -10.7663
  63   2.0000      -0.363599        -9.8940
  64   2.0000      -0.336733        -9.1630
  65   2.0000      -0.325731        -8.8636
  66   2.0000      -0.284387        -7.7386
  67   0.0000       0.017937         0.4881
  68   0.0000       0.085534         2.3275
  69   0.0000       0.099688         2.7127
  70   0.0000       0.115731         3.1492
  71   0.0000       0.127530         3.4703

MULLIKEN ATOMIC CHARGES
-----------------------
   0 S :    0.117908
   1 C :   -0.127443
   2 C :   -0.053704
   3 C :   -0.019224
   4 C :   -0.099873
   5 H :    0.018956
   6 C :    0.084370
   7 H :    0.013765
   8 H :    0.032611
   9 C :   -0.091037
  10 H :    0.021682
  11 H :    0.016977
  12 C :   -0.045103
  13 H :    0.036912
  14 H :    0.022770
  15 H :    0.048144
  16 S :    0.088383
  17 C :   -0.059305
  18 C :   -0.039553
  19 C :   -0.091758
  20 C :   -0.123040
  21 H :   -0.002530
  22 C :    0.050004
  23 H :    0.002161
  24 H :    0.021473
  25 C :   -0.022690
  26 H :    0.006121
  27 H :    0.010881
  28 C :   -0.032586
  29 H :    0.030834
  30 H :    0.032442
  31 H :    0.035885
  32 H :    0.048975
  33 H :    0.066591
Sum of atomic charges:   -0.0000000

LOEWDIN ATOMIC CHARGES
----------------------
   0 S :    0.412210
   1 C :   -0.198584
   2 C :   -0.064186
   3 C :   -0.062918
   4 C :   -0.181657
   5 H :    0.034029
   6 C :   -0.036262
   7 H :    0.027011
   8 H :    0.037549
   9 C :   -0.042984
  10 H :    0.021478
  11 H :    0.019833
  12 C :   -0.065690
  13 H :    0.033108
  14 H :    0.028278
  15 H :    0.020663
  16 S :    0.435733
  17 C :   -0.209556
  18 C :   -0.068629
  19 C :   -0.069596
  20 C :   -0.190446
  21 H :    0.020347
  22 C :   -0.037323
  23 H :    0.031271
  24 H :    0.022891
  25 C :   -0.047849
  26 H :    0.020008
  27 H :    0.025245
  28 C :   -0.064286
  29 H :    0.026046
  30 H :    0.029450
  31 H :    0.029241
  32 H :    0.024001
  33 H :    0.041572

  Mayer bond orders larger than 0.100000
B(  0-S ,  1-C ) :   1.1603 B(  0-S ,  4-C ) :   1.1540 B(  1-C ,  2-C ) :   1.5752
B(  1-C , 32-H ) :   0.9680 B(  2-C ,  3-C ) :   1.2524 B(  2-C ,  6-C ) :   1.0456
B(  3-C ,  4-C ) :   1.5585 B(  3-C ,  5-H ) :   0.9797 B(  4-C , 20-C ) :   1.0440
B(  6-C ,  7-H ) :   0.9354 B(  6-C ,  8-H ) :   0.9348 B(  6-C ,  9-C ) :   1.0535
B(  9-C , 10-H ) :   0.9611 B(  9-C , 11-H ) :   0.9560 B(  9-C , 12-C ) :   1.0566
B( 12-C , 13-H ) :   0.9750 B( 12-C , 14-H ) :   0.9793 B( 12-C , 15-H ) :   0.9808
B( 16-S , 17-C ) :   1.1712 B( 16-S , 20-C ) :   1.1641 B( 17-C , 18-C ) :   1.5555
B( 17-C , 33-H ) :   0.9650 B( 18-C , 19-C ) :   1.3122 B( 18-C , 21-H ) :   0.9860
B( 19-C , 20-C ) :   1.5414 B( 19-C , 22-C ) :   1.0608 B( 22-C , 23-H ) :   0.9121
B( 22-C , 24-H ) :   0.9330 B( 22-C , 25-C ) :   1.0663 B( 25-C , 26-H ) :   0.9482
B( 25-C , 27-H ) :   0.9392 B( 25-C , 28-C ) :   1.0756 B( 28-C , 29-H ) :   0.9733
B( 28-C , 30-H ) :   0.9728 B( 28-C , 31-H ) :   0.9723

Dispersion correction           -0.014080937
FINAL SINGLE POINT ENERGY     -1339.854704635254

DIPOLE MOMENT
-------------
                                X             Y             Z
Electronic contribution:    -13.03504      27.65720      12.12809
Nuclear contribution   :     13.30892     -28.13135     -12.50735
                        -----------------------------------------
Total Dipole Moment    :      0.27389      -0.47414      -0.37926
                        -----------------------------------------
Magnitude (a.u.)       :      0.66608
Magnitude (Debye)      :      1.69305

Rotational constants in cm-1:     0.018507     0.009130     0.006333
Rotational constants in MHz :   554.831174   273.712415   189.846072

                             ****ORCA TERMINATED NORMALLY****
TOTAL RUN TIME: 0 days 0 hours 0 minutes 30 seconds 374 msec
