                         Program Version 4.2.1 -  RELEASE  -
|  1> ! wB97X-D3 SP def2-SVP
|  2> %pal
|  3> nprocs 16
|  4> end
|  5>
|  6> * xyz 0 1
|  7> S 	 -21.1289 	 0.0822615 	 77.2736
|  8> C 	 -20.4967 	 -1.36633 	 76.5347
|  9> C 	 -21.3492 	 -1.92856 	 75.5883
| 10> C 	 -22.4708 	 -1.06591 	 75.3343
| 11> C 	 -22.465 	 0.132031 	 76.1284
| 12> H 	 -23.2756 	 -1.26291 	 74.5875
| 13> C 	 -21.0004 	 -3.16869 	 74.7665
| 14> H 	 -21.9561 	 -3.57506 	 74.383
| 15> H 	 -20.5835 	 -3.88776 	 75.4063
| 16> C 	 -20.0027 	 -2.86585 	 73.7123
| 17> H 	 -19.1063 	 -2.40326 	 74.2201
| 18> H 	 -19.6886 	 -3.91392 	 73.3626
| 19> C 	 -20.4152 	 -1.76299 	 72.6888
| 20> H 	 -21.3552 	 -2.00544 	 72.0971
| 21> H 	 -20.4479 	 -0.79831 	 73.1247
| 22> H 	 -19.5362 	 -1.70223 	 71.9551
| 23> S 	 -22.9489 	 2.59082 	 77.1365
| 24> C 	 -24.3703 	 3.53612 	 76.8273
| 25> C 	 -25.2287 	 2.79194 	 75.9876
| 26> C 	 -24.7152 	 1.47503 	 75.684
| 27> C 	 -23.4274 	 1.24018 	 76.1597
| 28> H 	 -26.1199 	 3.28362 	 75.6045
| 29> C 	 -25.4895 	 0.493668 	 74.8176
| 30> H 	 -24.8049 	 0.31214 	 73.979
| 31> H 	 -26.3273 	 0.997744 	 74.237
| 32> C 	 -25.8915 	 -0.842926 	 75.5284
| 33> H 	 -26.6306 	 -0.762389 	 76.2739
| 34> H 	 -25.0171 	 -1.19952 	 76.1574
| 35> C 	 -26.2217 	 -2.07273 	 74.532
| 36> H 	 -25.4182 	 -2.5344 	 74.0439
| 37> H 	 -26.9317 	 -1.84438 	 73.7657
| 38> H 	 -26.8034 	 -2.85086 	 75.1253
| 39> H 	 -19.5829 	 -1.93763 	 76.8596
| 40> H 	 -24.5761 	 4.54156 	 77.1638
| 41> *
| 42>
| 43>                          ****END OF INPUT****

CARTESIAN COORDINATES (ANGSTROEM)
---------------------------------
  S    -21.128900    0.082262   77.273600
  C    -20.496700   -1.366330   76.534700
  C    -21.349200   -1.928560   75.588300
  C    -22.470800   -1.065910   75.334300
  C    -22.465000    0.132031   76.128400
  H    -23.275600   -1.262910   74.587500
  C    -21.000400   -3.168690   74.766500
  H    -21.956100   -3.575060   74.383000
  H    -20.583500   -3.887760   75.406300
  C    -20.002700   -2.865850   73.712300
  H    -19.106300   -2.403260   74.220100
  H    -19.688600   -3.913920   73.362600
  C    -20.415200   -1.762990   72.688800
  H    -21.355200   -2.005440   72.097100
  H    -20.447900   -0.798310   73.124700
  H    -19.536200   -1.702230   71.955100
  S    -22.948900    2.590820   77.136500
  C    -24.370300    3.536120   76.827300
  C    -25.228700    2.791940   75.987600
  C    -24.715200    1.475030   75.684000
  C    -23.427400    1.240180   76.159700
  H    -26.119900    3.283620   75.604500
  C    -25.489500    0.493668   74.817600
  H    -24.804900    0.312140   73.979000
  H    -26.327300    0.997744   74.237000
  C    -25.891500   -0.842926   75.528400
  H    -26.630600   -0.762389   76.273900
  H    -25.017100   -1.199520   76.157400
  C    -26.221700   -2.072730   74.532000
  H    -25.418200   -2.534400   74.043900
  H    -26.931700   -1.844380   73.765700
  H    -26.803400   -2.850860   75.125300
  H    -19.582900   -1.937630   76.859600
  H    -24.576100    4.541560   77.163800

 Total Charge           Charge          ....    0
 Multiplicity           Mult            ....    1
 Number of Electrons    NEL             ....  134
 Basis Dimension        Dim             ....  322

ORBITAL ENERGIES
----------------

  NO   OCC          E(Eh)            E(eV)
   0   2.0000     -88.972379     -2421.0615
   1   2.0000     -88.965459     -2420.8732
   2   2.0000     -10.340886      -281.3898
   3   2.0000     -10.330906      -281.1183
   4   2.0000     -10.320899      -280.8459
   5   2.0000     -10.317837      -280.7626
   6   2.0000     -10.308651      -280.5127
   7   2.0000     -10.305035      -280.4143
   8   2.0000     -10.302607      -280.3482
   9   2.0000     -10.300739      -280.2974
  10   2.0000     -10.300066      -280.2791
  11   2.0000     -10.295901      -280.1657
  12   2.0000     -10.295092      -280.1437
  13   2.0000     -10.288589      -279.9667
  14   2.0000     -10.286172      -279.9010
  15   2.0000     -10.282221      -279.7935
  16   2.0000      -8.086513      -220.0452
  17   2.0000      -8.080699      -219.8870
  18   2.0000      -6.045082      -164.4950
  19   2.0000      -6.041111      -164.3870
  20   2.0000      -6.039229      -164.3358
  21   2.0000      -6.037241      -164.2817
  22   2.0000      -6.034971      -164.2199
  23   2.0000      -6.031576      -164.1275
  24   2.0000      -1.006977       -27.4012
  25   2.0000      -0.981958       -26.7204
  26   2.0000      -0.917636       -24.9702
  27   2.0000      -0.898261       -24.4429
  28   2.0000      -0.865547       -23.5527
  29   2.0000      -0.844822       -22.9888
  30   2.0000      -0.838854       -22.8264
  31   2.0000      -0.811146       -22.0724
  32   2.0000      -0.784368       -21.3437
  33   2.0000      -0.773091       -21.0369
  34   2.0000      -0.711754       -19.3678
  35   2.0000      -0.696702       -18.9582
  36   2.0000      -0.693377       -18.8677
  37   2.0000      -0.666779       -18.1440
  38   2.0000      -0.629872       -17.1397
  39   2.0000      -0.615622       -16.7519
  40   2.0000      -0.589021       -16.0281
  41   2.0000      -0.573508       -15.6060
  42   2.0000      -0.554914       -15.1000
  43   2.0000      -0.544832       -14.8256
  44   2.0000      -0.539399       -14.6778
  45   2.0000      -0.521100       -14.1799
  46   2.0000      -0.515595       -14.0300
  47   2.0000      -0.509487       -13.8638
  48   2.0000      -0.504299       -13.7227
  49   2.0000      -0.497556       -13.5392
  50   2.0000      -0.491079       -13.3629
  51   2.0000      -0.482039       -13.1170
  52   2.0000      -0.473508       -12.8848
  53   2.0000      -0.465044       -12.6545
  54   2.0000      -0.460957       -12.5433
  55   2.0000      -0.449886       -12.2420
  56   2.0000      -0.444066       -12.0837
  57   2.0000      -0.437132       -11.8950
  58   2.0000      -0.428000       -11.6465
  59   2.0000      -0.424720       -11.5572
  60   2.0000      -0.415812       -11.3148
  61   2.0000      -0.413702       -11.2574
  62   2.0000      -0.406996       -11.0749
  63   2.0000      -0.359499        -9.7825
  64   2.0000      -0.335743        -9.1360
  65   2.0000      -0.327189        -8.9033
  66   2.0000      -0.279609        -7.6085
  67   0.0000       0.014049         0.3823
  68   0.0000       0.084985         2.3126
  69   0.0000       0.093479         2.5437
  70   0.0000       0.116724         3.1762
  71   0.0000       0.133008         3.6193

MULLIKEN ATOMIC CHARGES
-----------------------
   0 S :    0.117667
   1 C :   -0.134175
   2 C :   -0.123516
   3 C :   -0.004658
   4 C :   -0.121911
   5 H :    0.018272
   6 C :    0.110670
   7 H :    0.025361
   8 H :    0.011516
   9 C :   -0.097939
  10 H :    0.029784
  11 H :    0.042811
  12 C :   -0.076148
  13 H :    0.044420
  14 H :    0.053298
  15 H :    0.041600
  16 S :    0.084935
  17 C :   -0.088108
  18 C :   -0.043448
  19 C :   -0.067077
  20 C :   -0.106317
  21 H :    0.024555
  22 C :    0.036825
  23 H :    0.033976
  24 H :    0.029392
  25 C :   -0.071571
  26 H :    0.022924
  27 H :    0.051150
  28 C :   -0.058307
  29 H :    0.027321
  30 H :    0.023462
  31 H :    0.036616
  32 H :    0.065393
  33 H :    0.061224
Sum of atomic charges:    0.0000000

LOEWDIN ATOMIC CHARGES
----------------------
   0 S :    0.409562
   1 C :   -0.213721
   2 C :   -0.063118
   3 C :   -0.070649
   4 C :   -0.188945
   5 H :    0.034794
   6 C :   -0.033045
   7 H :    0.031075
   8 H :    0.024644
   9 C :   -0.048452
  10 H :    0.030093
  11 H :    0.031818
  12 C :   -0.071768
  13 H :    0.028942
  14 H :    0.025190
  15 H :    0.036290
  16 S :    0.417888
  17 C :   -0.192721
  18 C :   -0.071980
  19 C :   -0.063180
  20 C :   -0.200578
  21 H :    0.033117
  22 C :   -0.042713
  23 H :    0.031987
  24 H :    0.035861
  25 C :   -0.038157
  26 H :    0.018902
  27 H :    0.036744
  28 C :   -0.068509
  29 H :    0.012727
  30 H :    0.019474
  31 H :    0.036718
  32 H :    0.039397
  33 H :    0.032312

  Mayer bond orders larger than 0.100000
B(  0-S ,  1-C ) :   1.1394 B(  0-S ,  4-C ) :   1.1596 B(  1-C ,  2-C ) :   1.6013
B(  1-C ,  4-C ) :   0.1023 B(  1-C , 32-H ) :   0.9556 B(  2-C ,  3-C ) :   1.2706
B(  2-C ,  6-C ) :   1.0201 B(  3-C ,  4-C ) :   1.5230 B(  3-C ,  5-H ) :   0.9812
B(  4-C , 20-C ) :   1.0899 B(  6-C ,  7-H ) :   0.9387 B(  6-C ,  8-H ) :   0.9287
B(  6-C ,  9-C ) :   1.0854 B(  9-C , 10-H ) :   0.9502 B(  9-C , 11-H ) :   0.9567
B(  9-C , 12-C ) :   1.0634 B( 12-C , 13-H ) :   0.9765 B( 12-C , 14-H ) :   0.9696
B( 12-C , 15-H ) :   0.9734 B( 16-S , 17-C ) :   1.1720 B( 16-S , 20-C ) :   1.1428
B( 17-C , 18-C ) :   1.5749 B( 17-C , 20-C ) :   0.1002 B( 17-C , 33-H ) :   0.9710
B( 18-C , 19-C ) :   1.2666 B( 18-C , 21-H ) :   0.9923 B( 19-C , 20-C ) :   1.5502
B( 19-C , 22-C ) :   1.0325 B( 22-C , 23-H ) :   0.9442 B( 22-C , 24-H ) :   0.9376
B( 22-C , 25-C ) :   1.0319 B( 25-C , 26-H ) :   0.9597 B( 25-C , 27-H ) :   0.9587
B( 25-C , 28-C ) :   1.0619 B( 28-C , 29-H ) :   0.9795 B( 28-C , 30-H ) :   0.9768
B( 28-C , 31-H ) :   0.9757

Dispersion correction           -0.015154785
FINAL SINGLE POINT ENERGY     -1339.867143137462

DIPOLE MOMENT
-------------
                                X             Y             Z
Electronic contribution:      6.33784      19.89846      19.36071
Nuclear contribution   :     -6.57295     -20.22562     -19.75426
                        -----------------------------------------
Total Dipole Moment    :     -0.23511      -0.32716      -0.39354
                        -----------------------------------------
Magnitude (a.u.)       :      0.56319
Magnitude (Debye)      :      1.43153

Rotational constants in cm-1:     0.018323     0.009771     0.007327
Rotational constants in MHz :   549.318265   292.929313   219.664047

                             ****ORCA TERMINATED NORMALLY****
TOTAL RUN TIME: 0 days 0 hours 0 minutes 35 seconds 122 msec
