                         Program Version 4.2.1 -  RELEASE  -
|  1> ! wB97X-D3 SP def2-SVP
|  2> %pal
|  3> nprocs 16
|  4> end
|  5>
|  6> * xyz 0 1
|  7> S 	 -43.0423 	 24.4848 	 77.3657
|  8> C 	 -42.8929 	 24.7094 	 79.0823
|  9> C 	 -41.712 	 24.1665 	 79.6301
| 10> C 	 -40.947 	 23.4945 	 78.6222
| 11> C 	 -41.4791 	 23.6895 	 77.3404
| 12> H 	 -40.0243 	 22.9181 	 78.7379
| 13> C 	 -41.4399 	 24.0267 	 81.1027
| 14> H 	 -41.6868 	 22.9478 	 81.2875
| 15> H 	 -42.3008 	 24.5912 	 81.5836
| 16> C 	 -40.0435 	 24.4454 	 81.66
| 17> H 	 -40.2055 	 24.4867 	 82.736
| 18> H 	 -39.2423 	 23.6743 	 81.5351
| 19> C 	 -39.5542 	 25.84 	 81.1112
| 20> H 	 -38.6272 	 26.1826 	 81.7612
| 21> H 	 -39.3752 	 25.723 	 80.0743
| 22> H 	 -40.347 	 26.5848 	 81.1664
| 23> S 	 -41.3892 	 21.9112 	 75.3681
| 24> C 	 -40.1306 	 21.9156 	 74.1976
| 25> C 	 -39.2508 	 22.9609 	 74.428
| 26> C 	 -39.5355 	 23.6407 	 75.6466
| 27> C 	 -40.797 	 23.4042 	 76.1003
| 28> H 	 -38.4493 	 23.1763 	 73.6756
| 29> C 	 -38.5738 	 24.6386 	 76.2258
| 30> H 	 -39.2538 	 25.3977 	 76.732
| 31> H 	 -38.0176 	 25.184 	 75.4569
| 32> C 	 -37.5997 	 24.0879 	 77.2933
| 33> H 	 -36.862 	 23.5292 	 76.7558
| 34> H 	 -38.0409 	 23.4443 	 78.067
| 35> C 	 -36.7954 	 25.0579 	 78.1303
| 36> H 	 -37.3976 	 25.5753 	 78.916
| 37> H 	 -36.2671 	 25.7777 	 77.5965
| 38> H 	 -36.0867 	 24.4887 	 78.6273
| 39> H 	 -43.6411 	 25.1003 	 79.7015
| 40> H 	 -39.838 	 21.0895 	 73.5152
| 41> *
| 42>
| 43>                          ****END OF INPUT****

CARTESIAN COORDINATES (ANGSTROEM)
---------------------------------
  S    -43.042300   24.484800   77.365700
  C    -42.892900   24.709400   79.082300
  C    -41.712000   24.166500   79.630100
  C    -40.947000   23.494500   78.622200
  C    -41.479100   23.689500   77.340400
  H    -40.024300   22.918100   78.737900
  C    -41.439900   24.026700   81.102700
  H    -41.686800   22.947800   81.287500
  H    -42.300800   24.591200   81.583600
  C    -40.043500   24.445400   81.660000
  H    -40.205500   24.486700   82.736000
  H    -39.242300   23.674300   81.535100
  C    -39.554200   25.840000   81.111200
  H    -38.627200   26.182600   81.761200
  H    -39.375200   25.723000   80.074300
  H    -40.347000   26.584800   81.166400
  S    -41.389200   21.911200   75.368100
  C    -40.130600   21.915600   74.197600
  C    -39.250800   22.960900   74.428000
  C    -39.535500   23.640700   75.646600
  C    -40.797000   23.404200   76.100300
  H    -38.449300   23.176300   73.675600
  C    -38.573800   24.638600   76.225800
  H    -39.253800   25.397700   76.732000
  H    -38.017600   25.184000   75.456900
  C    -37.599700   24.087900   77.293300
  H    -36.862000   23.529200   76.755800
  H    -38.040900   23.444300   78.067000
  C    -36.795400   25.057900   78.130300
  H    -37.397600   25.575300   78.916000
  H    -36.267100   25.777700   77.596500
  H    -36.086700   24.488700   78.627300
  H    -43.641100   25.100300   79.701500
  H    -39.838000   21.089500   73.515200

 Total Charge           Charge          ....    0
 Multiplicity           Mult            ....    1
 Number of Electrons    NEL             ....  134
 Basis Dimension        Dim             ....  322

ORBITAL ENERGIES
----------------

  NO   OCC          E(Eh)            E(eV)
   0   2.0000     -88.968998     -2420.9695
   1   2.0000     -88.959970     -2420.7238
   2   2.0000     -10.327561      -281.0272
   3   2.0000     -10.318733      -280.7870
   4   2.0000     -10.316865      -280.7362
   5   2.0000     -10.311083      -280.5788
   6   2.0000     -10.303042      -280.3600
   7   2.0000     -10.302796      -280.3533
   8   2.0000     -10.302304      -280.3399
   9   2.0000     -10.297791      -280.2171
  10   2.0000     -10.296557      -280.1835
  11   2.0000     -10.294657      -280.1319
  12   2.0000     -10.294475      -280.1269
  13   2.0000     -10.287533      -279.9380
  14   2.0000     -10.284761      -279.8626
  15   2.0000     -10.267459      -279.3918
  16   2.0000      -8.083680      -219.9681
  17   2.0000      -8.075395      -219.7427
  18   2.0000      -6.042045      -164.4124
  19   2.0000      -6.038237      -164.3088
  20   2.0000      -6.034556      -164.2086
  21   2.0000      -6.033867      -164.1899
  22   2.0000      -6.029746      -164.0777
  23   2.0000      -6.026188      -163.9809
  24   2.0000      -1.009608       -27.4728
  25   2.0000      -0.983979       -26.7754
  26   2.0000      -0.909408       -24.7463
  27   2.0000      -0.906324       -24.6623
  28   2.0000      -0.868169       -23.6241
  29   2.0000      -0.857116       -23.3233
  30   2.0000      -0.845714       -23.0131
  31   2.0000      -0.811050       -22.0698
  32   2.0000      -0.782863       -21.3028
  33   2.0000      -0.771204       -20.9855
  34   2.0000      -0.708162       -19.2701
  35   2.0000      -0.699739       -19.0409
  36   2.0000      -0.691114       -18.8062
  37   2.0000      -0.659644       -17.9498
  38   2.0000      -0.639747       -17.4084
  39   2.0000      -0.614564       -16.7231
  40   2.0000      -0.590875       -16.0785
  41   2.0000      -0.568321       -15.4648
  42   2.0000      -0.558623       -15.2009
  43   2.0000      -0.547648       -14.9022
  44   2.0000      -0.541487       -14.7346
  45   2.0000      -0.529335       -14.4039
  46   2.0000      -0.518529       -14.1099
  47   2.0000      -0.511726       -13.9248
  48   2.0000      -0.508735       -13.8434
  49   2.0000      -0.498249       -13.5580
  50   2.0000      -0.490863       -13.3571
  51   2.0000      -0.478095       -13.0096
  52   2.0000      -0.468261       -12.7420
  53   2.0000      -0.465569       -12.6688
  54   2.0000      -0.458458       -12.4753
  55   2.0000      -0.448170       -12.1953
  56   2.0000      -0.440546       -11.9879
  57   2.0000      -0.433689       -11.8013
  58   2.0000      -0.432970       -11.7817
  59   2.0000      -0.426570       -11.6076
  60   2.0000      -0.423462       -11.5230
  61   2.0000      -0.416033       -11.3208
  62   2.0000      -0.412675       -11.2295
  63   2.0000      -0.337853        -9.1935
  64   2.0000      -0.329292        -8.9605
  65   2.0000      -0.323446        -8.8014
  66   2.0000      -0.296477        -8.0676
  67   0.0000       0.035243         0.9590
  68   0.0000       0.058582         1.5941
  69   0.0000       0.114620         3.1190
  70   0.0000       0.117482         3.1968
  71   0.0000       0.122823         3.3422

MULLIKEN ATOMIC CHARGES
-----------------------
   0 S :    0.132454
   1 C :   -0.093077
   2 C :   -0.116535
   3 C :    0.039178
   4 C :   -0.180365
   5 H :    0.022885
   6 C :    0.021849
   7 H :    0.055712
   8 H :    0.025271
   9 C :   -0.078083
  10 H :    0.034885
  11 H :    0.039161
  12 C :   -0.069122
  13 H :    0.058128
  14 H :    0.044897
  15 H :    0.032379
  16 S :    0.094692
  17 C :   -0.094272
  18 C :   -0.062812
  19 C :   -0.033006
  20 C :   -0.138582
  21 H :    0.038820
  22 C :    0.050786
  23 H :    0.038121
  24 H :    0.025898
  25 C :   -0.073159
  26 H :    0.016147
  27 H :    0.020674
  28 C :    0.002156
  29 H :    0.025375
  30 H :    0.009399
  31 H :    0.011612
  32 H :    0.025015
  33 H :    0.073519
Sum of atomic charges:    0.0000000

LOEWDIN ATOMIC CHARGES
----------------------
   0 S :    0.418279
   1 C :   -0.200046
   2 C :   -0.067361
   3 C :   -0.058549
   4 C :   -0.204696
   5 H :    0.032802
   6 C :   -0.043058
   7 H :    0.043973
   8 H :    0.035076
   9 C :   -0.046938
  10 H :    0.026179
  11 H :    0.026948
  12 C :   -0.067422
  13 H :    0.042703
  14 H :    0.017266
  15 H :    0.025390
  16 S :    0.412906
  17 C :   -0.199080
  18 C :   -0.083974
  19 C :   -0.050290
  20 C :   -0.204572
  21 H :    0.039920
  22 C :   -0.034375
  23 H :    0.038715
  24 H :    0.031146
  25 C :   -0.037993
  26 H :    0.020162
  27 H :    0.024189
  28 C :   -0.053918
  29 H :    0.028189
  30 H :    0.013312
  31 H :    0.020284
  32 H :    0.014001
  33 H :    0.040828

  Mayer bond orders larger than 0.100000
B(  0-S ,  1-C ) :   1.1463 B(  0-S ,  4-C ) :   1.1586 B(  1-C ,  2-C ) :   1.5990
B(  1-C ,  4-C ) :   0.1004 B(  1-C , 32-H ) :   0.9689 B(  2-C ,  3-C ) :   1.2297
B(  2-C ,  6-C ) :   1.0256 B(  3-C ,  4-C ) :   1.5722 B(  3-C ,  5-H ) :   0.9904
B(  4-C , 20-C ) :   0.9931 B(  6-C ,  7-H ) :   0.9408 B(  6-C ,  8-H ) :   0.9398
B(  6-C ,  9-C ) :   1.0552 B(  9-C , 10-H ) :   0.9580 B(  9-C , 11-H ) :   0.9554
B(  9-C , 12-C ) :   1.0696 B( 12-C , 13-H ) :   0.9744 B( 12-C , 14-H ) :   0.9632
B( 12-C , 15-H ) :   0.9727 B( 16-S , 17-C ) :   1.1772 B( 16-S , 20-C ) :   1.1296
B( 17-C , 18-C ) :   1.6038 B( 17-C , 33-H ) :   0.9587 B( 18-C , 19-C ) :   1.2279
B( 18-C , 21-H ) :   0.9843 B( 19-C , 20-C ) :   1.6244 B( 19-C , 22-C ) :   1.0477
B( 22-C , 23-H ) :   0.9394 B( 22-C , 24-H ) :   0.9377 B( 22-C , 25-C ) :   1.0552
B( 25-C , 26-H ) :   0.9510 B( 25-C , 27-H ) :   0.9554 B( 25-C , 28-C ) :   1.0959
B( 28-C , 29-H ) :   0.9705 B( 28-C , 30-H ) :   0.9693 B( 28-C , 31-H ) :   0.9683

Dispersion correction           -0.016100881
FINAL SINGLE POINT ENERGY     -1339.861542361846

DIPOLE MOMENT
-------------
                                X             Y             Z
Electronic contribution:    -22.11812     -10.31269     -19.98320
Nuclear contribution   :     22.76209      10.29121      20.40699
                        -----------------------------------------
Total Dipole Moment    :      0.64397      -0.02148       0.42380
                        -----------------------------------------
Magnitude (a.u.)       :      0.77121
Magnitude (Debye)      :      1.96026

Rotational constants in cm-1:     0.017786     0.010749     0.007510
Rotational constants in MHz :   533.199839   322.249610   225.140386

                             ****ORCA TERMINATED NORMALLY****
TOTAL RUN TIME: 0 days 0 hours 0 minutes 32 seconds 629 msec
