                         Program Version 4.2.1 -  RELEASE  -
|  1> ! wB97X-D3 SP def2-SVP
|  2> %pal
|  3> nprocs 16
|  4> end
|  5>
|  6> * xyz 0 1
|  7> S 	 8.96014 	 24.0561 	 69.0974
|  8> C 	 8.55032 	 22.7731 	 67.9391
|  9> C 	 8.79467 	 23.2001 	 66.6615
| 10> C 	 9.13966 	 24.61 	 66.6129
| 11> C 	 9.35933 	 25.1811 	 67.8689
| 12> H 	 9.20596 	 25.2668 	 65.8029
| 13> C 	 8.60518 	 22.4124 	 65.4041
| 14> H 	 9.03505 	 21.5029 	 65.7541
| 15> H 	 9.30384 	 22.7883 	 64.6738
| 16> C 	 7.18456 	 22.3046 	 64.8434
| 17> H 	 7.2288 	 21.5126 	 64.0192
| 18> H 	 6.47945 	 22.0885 	 65.7361
| 19> C 	 6.64176 	 23.5398 	 64.1677
| 20> H 	 5.53072 	 23.4269 	 63.9415
| 21> H 	 6.70085 	 24.3653 	 64.8583
| 22> H 	 7.30626 	 23.847 	 63.4024
| 23> S 	 8.62233 	 27.3605 	 69.4643
| 24> C 	 9.19675 	 28.9653 	 68.9654
| 25> C 	 10.0955 	 28.9003 	 67.9432
| 26> C 	 10.3842 	 27.5557 	 67.5267
| 27> C 	 9.57961 	 26.6177 	 68.1397
| 28> H 	 10.4756 	 29.845 	 67.555
| 29> C 	 11.5948 	 27.2949 	 66.5071
| 30> H 	 12.0185 	 28.3114 	 66.2362
| 31> H 	 11.2598 	 26.8951 	 65.5662
| 32> C 	 12.6582 	 26.3444 	 67.0326
| 33> H 	 12.1863 	 25.3324 	 67.1916
| 34> H 	 13.028 	 26.6833 	 68.0459
| 35> C 	 13.7987 	 26.0427 	 66.0603
| 36> H 	 13.3564 	 25.7357 	 65.0992
| 37> H 	 14.3635 	 25.1059 	 66.4154
| 38> H 	 14.4006 	 26.8959 	 65.7937
| 39> H 	 8.04224 	 21.8633 	 68.1932
| 40> H 	 8.80266 	 29.8655 	 69.3505
| 41> *
| 42>
| 43>                          ****END OF INPUT****

CARTESIAN COORDINATES (ANGSTROEM)
---------------------------------
  S      8.960140   24.056100   69.097400
  C      8.550320   22.773100   67.939100
  C      8.794670   23.200100   66.661500
  C      9.139660   24.610000   66.612900
  C      9.359330   25.181100   67.868900
  H      9.205960   25.266800   65.802900
  C      8.605180   22.412400   65.404100
  H      9.035050   21.502900   65.754100
  H      9.303840   22.788300   64.673800
  C      7.184560   22.304600   64.843400
  H      7.228800   21.512600   64.019200
  H      6.479450   22.088500   65.736100
  C      6.641760   23.539800   64.167700
  H      5.530720   23.426900   63.941500
  H      6.700850   24.365300   64.858300
  H      7.306260   23.847000   63.402400
  S      8.622330   27.360500   69.464300
  C      9.196750   28.965300   68.965400
  C     10.095500   28.900300   67.943200
  C     10.384200   27.555700   67.526700
  C      9.579610   26.617700   68.139700
  H     10.475600   29.845000   67.555000
  C     11.594800   27.294900   66.507100
  H     12.018500   28.311400   66.236200
  H     11.259800   26.895100   65.566200
  C     12.658200   26.344400   67.032600
  H     12.186300   25.332400   67.191600
  H     13.028000   26.683300   68.045900
  C     13.798700   26.042700   66.060300
  H     13.356400   25.735700   65.099200
  H     14.363500   25.105900   66.415400
  H     14.400600   26.895900   65.793700
  H      8.042240   21.863300   68.193200
  H      8.802660   29.865500   69.350500

 Total Charge           Charge          ....    0
 Multiplicity           Mult            ....    1
 Number of Electrons    NEL             ....  134
 Basis Dimension        Dim             ....  322

ORBITAL ENERGIES
----------------

  NO   OCC          E(Eh)            E(eV)
   0   2.0000     -88.965573     -2420.8763
   1   2.0000     -88.965410     -2420.8719
   2   2.0000     -10.334514      -281.2164
   3   2.0000     -10.330732      -281.1135
   4   2.0000     -10.316456      -280.7250
   5   2.0000     -10.315113      -280.6885
   6   2.0000     -10.311849      -280.5997
   7   2.0000     -10.303013      -280.3592
   8   2.0000     -10.302089      -280.3341
   9   2.0000     -10.299401      -280.2609
  10   2.0000     -10.296343      -280.1777
  11   2.0000     -10.291561      -280.0476
  12   2.0000     -10.288942      -279.9763
  13   2.0000     -10.287323      -279.9323
  14   2.0000     -10.282641      -279.8049
  15   2.0000     -10.276644      -279.6417
  16   2.0000      -8.080464      -219.8806
  17   2.0000      -8.079497      -219.8543
  18   2.0000      -6.039081      -164.3317
  19   2.0000      -6.038139      -164.3061
  20   2.0000      -6.034847      -164.2165
  21   2.0000      -6.034238      -164.2000
  22   2.0000      -6.031162      -164.1163
  23   2.0000      -6.030031      -164.0855
  24   2.0000      -1.004995       -27.3473
  25   2.0000      -0.982051       -26.7230
  26   2.0000      -0.917530       -24.9673
  27   2.0000      -0.902131       -24.5482
  28   2.0000      -0.870533       -23.6884
  29   2.0000      -0.849041       -23.1036
  30   2.0000      -0.843057       -22.9407
  31   2.0000      -0.817141       -22.2355
  32   2.0000      -0.785320       -21.3697
  33   2.0000      -0.774450       -21.0739
  34   2.0000      -0.705566       -19.1994
  35   2.0000      -0.697071       -18.9683
  36   2.0000      -0.684284       -18.6203
  37   2.0000      -0.662173       -18.0186
  38   2.0000      -0.643675       -17.5153
  39   2.0000      -0.612191       -16.6586
  40   2.0000      -0.593522       -16.1506
  41   2.0000      -0.580532       -15.7971
  42   2.0000      -0.561969       -15.2919
  43   2.0000      -0.550590       -14.9823
  44   2.0000      -0.541968       -14.7477
  45   2.0000      -0.525492       -14.2994
  46   2.0000      -0.521382       -14.1875
  47   2.0000      -0.511500       -13.9186
  48   2.0000      -0.503388       -13.6979
  49   2.0000      -0.497676       -13.5425
  50   2.0000      -0.490813       -13.3557
  51   2.0000      -0.481260       -13.0957
  52   2.0000      -0.473619       -12.8878
  53   2.0000      -0.467879       -12.7316
  54   2.0000      -0.456730       -12.4282
  55   2.0000      -0.446765       -12.1571
  56   2.0000      -0.443346       -12.0641
  57   2.0000      -0.432574       -11.7709
  58   2.0000      -0.429432       -11.6855
  59   2.0000      -0.423273       -11.5178
  60   2.0000      -0.417861       -11.3706
  61   2.0000      -0.409648       -11.1471
  62   2.0000      -0.408265       -11.1095
  63   2.0000      -0.351446        -9.5633
  64   2.0000      -0.333800        -9.0832
  65   2.0000      -0.329528        -8.9669
  66   2.0000      -0.291973        -7.9450
  67   0.0000       0.022855         0.6219
  68   0.0000       0.074665         2.0317
  69   0.0000       0.099697         2.7129
  70   0.0000       0.117667         3.2019
  71   0.0000       0.133802         3.6409

MULLIKEN ATOMIC CHARGES
-----------------------
   0 S :    0.094496
   1 C :   -0.124610
   2 C :   -0.104052
   3 C :    0.031860
   4 C :   -0.136715
   5 H :   -0.011360
   6 C :    0.095157
   7 H :    0.021684
   8 H :    0.015710
   9 C :   -0.090454
  10 H :    0.045753
  11 H :    0.041300
  12 C :   -0.034747
  13 H :    0.055555
  14 H :    0.019269
  15 H :    0.017013
  16 S :    0.091210
  17 C :   -0.076101
  18 C :   -0.034754
  19 C :   -0.032440
  20 C :   -0.145596
  21 H :    0.025343
  22 C :    0.081230
  23 H :    0.023471
  24 H :    0.014465
  25 C :   -0.112935
  26 H :    0.047558
  27 H :    0.042437
  28 C :   -0.052400
  29 H :    0.015453
  30 H :    0.053708
  31 H :    0.033045
  32 H :    0.047632
  33 H :    0.042813
Sum of atomic charges:   -0.0000000

LOEWDIN ATOMIC CHARGES
----------------------
   0 S :    0.405475
   1 C :   -0.190383
   2 C :   -0.058153
   3 C :   -0.062504
   4 C :   -0.200990
   5 H :    0.019056
   6 C :   -0.037824
   7 H :    0.032792
   8 H :    0.028810
   9 C :   -0.044795
  10 H :    0.032166
  11 H :    0.034408
  12 C :   -0.071062
  13 H :    0.040774
  14 H :    0.021717
  15 H :    0.018286
  16 S :    0.369296
  17 C :   -0.163412
  18 C :   -0.071523
  19 C :   -0.054440
  20 C :   -0.178551
  21 H :    0.035904
  22 C :   -0.027599
  23 H :    0.031897
  24 H :    0.021626
  25 C :   -0.053421
  26 H :    0.033743
  27 H :    0.028254
  28 C :   -0.072545
  29 H :    0.022818
  30 H :    0.040837
  31 H :    0.019716
  32 H :    0.028153
  33 H :    0.021473

  Mayer bond orders larger than 0.100000
B(  0-S ,  1-C ) :   1.1252 B(  0-S ,  4-C ) :   1.1571 B(  1-C ,  2-C ) :   1.6210
B(  1-C , 32-H ) :   0.9733 B(  2-C ,  3-C ) :   1.2167 B(  2-C ,  6-C ) :   1.0083
B(  3-C ,  4-C ) :   1.5683 B(  3-C ,  5-H ) :   1.0007 B(  4-C , 20-C ) :   1.0457
B(  6-C ,  7-H ) :   0.9326 B(  6-C ,  8-H ) :   0.9373 B(  6-C ,  9-C ) :   1.0655
B(  9-C , 10-H ) :   0.9536 B(  9-C , 11-H ) :   0.9539 B(  9-C , 12-C ) :   1.0832
B( 12-C , 13-H ) :   0.9697 B( 12-C , 14-H ) :   0.9709 B( 12-C , 15-H ) :   0.9709
B( 16-S , 17-C ) :   1.1336 B( 16-S , 20-C ) :   1.1187 B( 17-C , 18-C ) :   1.6540
B( 17-C , 33-H ) :   0.9697 B( 18-C , 19-C ) :   1.2123 B( 18-C , 21-H ) :   0.9879
B( 19-C , 20-C ) :   1.6335 B( 19-C , 22-C ) :   1.0169 B( 22-C , 23-H ) :   0.9432
B( 22-C , 24-H ) :   0.9322 B( 22-C , 25-C ) :   1.0643 B( 25-C , 26-H ) :   0.9493
B( 25-C , 27-H ) :   0.9563 B( 25-C , 28-C ) :   1.0815 B( 28-C , 29-H ) :   0.9685
B( 28-C , 30-H ) :   0.9737 B( 28-C , 31-H ) :   0.9756

Dispersion correction           -0.014447117
FINAL SINGLE POINT ENERGY     -1339.869436660593

DIPOLE MOMENT
-------------
                                X             Y             Z
Electronic contribution:     -7.67443       6.64864      23.41115
Nuclear contribution   :      7.73374      -6.56895     -24.06730
                        -----------------------------------------
Total Dipole Moment    :      0.05931       0.07969      -0.65615
                        -----------------------------------------
Magnitude (a.u.)       :      0.66363
Magnitude (Debye)      :      1.68681

Rotational constants in cm-1:     0.016837     0.008936     0.007446
Rotational constants in MHz :   504.753352   267.884227   223.221393

                             ****ORCA TERMINATED NORMALLY****
TOTAL RUN TIME: 0 days 0 hours 0 minutes 34 seconds 459 msec
