                         Program Version 4.2.1 -  RELEASE  -
|  1> ! wB97X-D3 SP def2-SVP
|  2> %pal
|  3> nprocs 16
|  4> end
|  5>
|  6> * xyz 0 1
|  7> S 	 -112.301 	 54.219 	 109.003
|  8> C 	 -110.895 	 53.989 	 107.983
|  9> C 	 -109.722 	 53.8184 	 108.706
| 10> C 	 -109.889 	 54.129 	 110.115
| 11> C 	 -111.191 	 54.2314 	 110.464
| 12> H 	 -109.141 	 54.2079 	 110.889
| 13> C 	 -108.372 	 53.6621 	 108.037
| 14> H 	 -108.584 	 52.9003 	 107.299
| 15> H 	 -107.679 	 53.2997 	 108.776
| 16> C 	 -107.764 	 54.9337 	 107.517
| 17> H 	 -106.817 	 54.795 	 107.043
| 18> H 	 -108.525 	 55.399 	 106.913
| 19> C 	 -107.518 	 56.0644 	 108.47
| 20> H 	 -106.904 	 55.7481 	 109.272
| 21> H 	 -106.991 	 56.8505 	 107.929
| 22> H 	 -108.446 	 56.495 	 108.78
| 23> S 	 -112.588 	 56.0719 	 111.761
| 24> C 	 -112.847 	 56.023 	 113.454
| 25> C 	 -112.231 	 54.9187 	 114.008
| 26> C 	 -111.526 	 54.1303 	 113.07
| 27> C 	 -111.663 	 54.6373 	 111.775
| 28> H 	 -112.266 	 54.6523 	 115.073
| 29> C 	 -111.111 	 52.7342 	 113.41
| 30> H 	 -110.228 	 52.6583 	 114.093
| 31> H 	 -110.914 	 52.1613 	 112.46
| 32> C 	 -112.116 	 51.8458 	 114.183
| 33> H 	 -112.08 	 51.9432 	 115.209
| 34> H 	 -111.894 	 50.7762 	 114.043
| 35> C 	 -113.559 	 51.9435 	 113.811
| 36> H 	 -113.573 	 51.5618 	 112.746
| 37> H 	 -114.024 	 52.9358 	 113.954
| 38> H 	 -114.221 	 51.3338 	 114.457
| 39> H 	 -110.957 	 53.9096 	 106.918
| 40> H 	 -112.993 	 56.9107 	 114.04
| 41> *
| 42>
| 43>                          ****END OF INPUT****

CARTESIAN COORDINATES (ANGSTROEM)
---------------------------------
  S    -112.301000   54.219000  109.003000
  C    -110.895000   53.989000  107.983000
  C    -109.722000   53.818400  108.706000
  C    -109.889000   54.129000  110.115000
  C    -111.191000   54.231400  110.464000
  H    -109.141000   54.207900  110.889000
  C    -108.372000   53.662100  108.037000
  H    -108.584000   52.900300  107.299000
  H    -107.679000   53.299700  108.776000
  C    -107.764000   54.933700  107.517000
  H    -106.817000   54.795000  107.043000
  H    -108.525000   55.399000  106.913000
  C    -107.518000   56.064400  108.470000
  H    -106.904000   55.748100  109.272000
  H    -106.991000   56.850500  107.929000
  H    -108.446000   56.495000  108.780000
  S    -112.588000   56.071900  111.761000
  C    -112.847000   56.023000  113.454000
  C    -112.231000   54.918700  114.008000
  C    -111.526000   54.130300  113.070000
  C    -111.663000   54.637300  111.775000
  H    -112.266000   54.652300  115.073000
  C    -111.111000   52.734200  113.410000
  H    -110.228000   52.658300  114.093000
  H    -110.914000   52.161300  112.460000
  C    -112.116000   51.845800  114.183000
  H    -112.080000   51.943200  115.209000
  H    -111.894000   50.776200  114.043000
  C    -113.559000   51.943500  113.811000
  H    -113.573000   51.561800  112.746000
  H    -114.024000   52.935800  113.954000
  H    -114.221000   51.333800  114.457000
  H    -110.957000   53.909600  106.918000
  H    -112.993000   56.910700  114.040000

 Total Charge           Charge          ....    0
 Multiplicity           Mult            ....    1
 Number of Electrons    NEL             ....  134
 Basis Dimension        Dim             ....  322

ORBITAL ENERGIES
----------------

  NO   OCC          E(Eh)            E(eV)
   0   2.0000     -88.967669     -2420.9334
   1   2.0000     -88.964407     -2420.8446
   2   2.0000     -10.331363      -281.1307
   3   2.0000     -10.325532      -280.9720
   4   2.0000     -10.315792      -280.7070
   5   2.0000     -10.309821      -280.5445
   6   2.0000     -10.303318      -280.3675
   7   2.0000     -10.300922      -280.3023
   8   2.0000     -10.296086      -280.1707
   9   2.0000     -10.296061      -280.1701
  10   2.0000     -10.293952      -280.1127
  11   2.0000     -10.286544      -279.9111
  12   2.0000     -10.275736      -279.6170
  13   2.0000     -10.275634      -279.6142
  14   2.0000     -10.272816      -279.5375
  15   2.0000     -10.266740      -279.3722
  16   2.0000      -8.081185      -219.9002
  17   2.0000      -8.080744      -219.8882
  18   2.0000      -6.039874      -164.3533
  19   2.0000      -6.039033      -164.3304
  20   2.0000      -6.036060      -164.2495
  21   2.0000      -6.034815      -164.2157
  22   2.0000      -6.031816      -164.1341
  23   2.0000      -6.031631      -164.1290
  24   2.0000      -1.013126       -27.5686
  25   2.0000      -0.983744       -26.7690
  26   2.0000      -0.919568       -25.0227
  27   2.0000      -0.911970       -24.8160
  28   2.0000      -0.874711       -23.8021
  29   2.0000      -0.854303       -23.2468
  30   2.0000      -0.847566       -23.0634
  31   2.0000      -0.820849       -22.3364
  32   2.0000      -0.782929       -21.3046
  33   2.0000      -0.770973       -20.9793
  34   2.0000      -0.704166       -19.1613
  35   2.0000      -0.696746       -18.9594
  36   2.0000      -0.688413       -18.7327
  37   2.0000      -0.663512       -18.0551
  38   2.0000      -0.644499       -17.5377
  39   2.0000      -0.612693       -16.6722
  40   2.0000      -0.595390       -16.2014
  41   2.0000      -0.585016       -15.9191
  42   2.0000      -0.562699       -15.3118
  43   2.0000      -0.556059       -15.1311
  44   2.0000      -0.547144       -14.8885
  45   2.0000      -0.534138       -14.5346
  46   2.0000      -0.523339       -14.2408
  47   2.0000      -0.519192       -14.1279
  48   2.0000      -0.500655       -13.6235
  49   2.0000      -0.496115       -13.5000
  50   2.0000      -0.489448       -13.3186
  51   2.0000      -0.475078       -12.9275
  52   2.0000      -0.471908       -12.8413
  53   2.0000      -0.464445       -12.6382
  54   2.0000      -0.461109       -12.5474
  55   2.0000      -0.447613       -12.1802
  56   2.0000      -0.443811       -12.0767
  57   2.0000      -0.437885       -11.9155
  58   2.0000      -0.423829       -11.5330
  59   2.0000      -0.418077       -11.3765
  60   2.0000      -0.417309       -11.3556
  61   2.0000      -0.409836       -11.1522
  62   2.0000      -0.406597       -11.0641
  63   2.0000      -0.352907        -9.6031
  64   2.0000      -0.331627        -9.0240
  65   2.0000      -0.328284        -8.9331
  66   2.0000      -0.292531        -7.9602
  67   0.0000       0.028839         0.7848
  68   0.0000       0.062696         1.7061
  69   0.0000       0.108005         2.9390
  70   0.0000       0.118519         3.2251
  71   0.0000       0.130326         3.5464

MULLIKEN ATOMIC CHARGES
-----------------------
   0 S :    0.099540
   1 C :   -0.121243
   2 C :   -0.116546
   3 C :    0.040537
   4 C :   -0.139910
   5 H :    0.020945
   6 C :    0.108413
   7 H :    0.031206
   8 H :    0.008236
   9 C :   -0.047138
  10 H :    0.028606
  11 H :    0.010294
  12 C :   -0.040584
  13 H :    0.014365
  14 H :    0.029452
  15 H :    0.036169
  16 S :    0.118734
  17 C :   -0.078522
  18 C :   -0.069627
  19 C :   -0.001436
  20 C :   -0.190177
  21 H :    0.029757
  22 C :    0.053662
  23 H :    0.038417
  24 H :    0.041293
  25 C :   -0.083210
  26 H :    0.001319
  27 H :    0.028200
  28 C :   -0.071452
  29 H :    0.039036
  30 H :    0.039339
  31 H :    0.028064
  32 H :    0.047560
  33 H :    0.066700
Sum of atomic charges:    0.0000000

LOEWDIN ATOMIC CHARGES
----------------------
   0 S :    0.361639
   1 C :   -0.188567
   2 C :   -0.059852
   3 C :   -0.051286
   4 C :   -0.171119
   5 H :    0.035977
   6 C :   -0.031315
   7 H :    0.034078
   8 H :    0.025119
   9 C :   -0.040441
  10 H :    0.022425
  11 H :    0.023119
  12 C :   -0.054556
  13 H :    0.013250
  14 H :    0.030250
  15 H :    0.023034
  16 S :    0.449645
  17 C :   -0.211685
  18 C :   -0.064332
  19 C :   -0.070769
  20 C :   -0.202915
  21 H :    0.034599
  22 C :   -0.036986
  23 H :    0.038712
  24 H :    0.038004
  25 C :   -0.049900
  26 H :    0.006523
  27 H :    0.032690
  28 C :   -0.074306
  29 H :    0.032144
  30 H :    0.025473
  31 H :    0.026582
  32 H :    0.023915
  33 H :    0.030852

  Mayer bond orders larger than 0.100000
B(  0-S ,  1-C ) :   1.1245 B(  0-S ,  4-C ) :   1.1084 B(  1-C ,  2-C ) :   1.6378
B(  1-C , 32-H ) :   0.9676 B(  2-C ,  3-C ) :   1.1845 B(  2-C ,  6-C ) :   1.0272
B(  3-C ,  4-C ) :   1.6406 B(  3-C ,  5-H ) :   0.9889 B(  4-C , 20-C ) :   1.0255
B(  6-C ,  7-H ) :   0.9355 B(  6-C ,  8-H ) :   0.9332 B(  6-C ,  9-C ) :   1.0785
B(  9-C , 10-H ) :   0.9571 B(  9-C , 11-H ) :   0.9526 B(  9-C , 12-C ) :   1.0896
B( 12-C , 13-H ) :   0.9731 B( 12-C , 14-H ) :   0.9705 B( 12-C , 15-H ) :   0.9731
B( 16-S , 17-C ) :   1.1659 B( 16-S , 20-C ) :   1.1923 B( 17-C , 18-C ) :   1.5694
B( 17-C , 20-C ) :   0.1004 B( 17-C , 33-H ) :   0.9624 B( 18-C , 19-C ) :   1.2887
B( 18-C , 21-H ) :   0.9818 B( 19-C , 20-C ) :   1.5385 B( 19-C , 22-C ) :   1.0579
B( 22-C , 23-H ) :   0.9280 B( 22-C , 24-H ) :   0.9430 B( 22-C , 25-C ) :   1.0647
B( 25-C , 26-H ) :   0.9480 B( 25-C , 27-H ) :   0.9545 B( 25-C , 28-C ) :   1.0938
B( 28-C , 29-H ) :   0.9775 B( 28-C , 30-H ) :   0.9650 B( 28-C , 31-H ) :   0.9694

Dispersion correction           -0.014911025
FINAL SINGLE POINT ENERGY     -1339.860097600520

DIPOLE MOMENT
-------------
                                X             Y             Z
Electronic contribution:    -13.09324       8.76287      -3.35337
Nuclear contribution   :     13.64447      -8.87154       3.53783
                        -----------------------------------------
Total Dipole Moment    :      0.55123      -0.10866       0.18446
                        -----------------------------------------
Magnitude (a.u.)       :      0.59134
Magnitude (Debye)      :      1.50307

Rotational constants in cm-1:     0.023213     0.007765     0.007396
Rotational constants in MHz :   695.899704   232.784965   221.726658

                             ****ORCA TERMINATED NORMALLY****
TOTAL RUN TIME: 0 days 0 hours 0 minutes 28 seconds 94 msec
