                         Program Version 4.2.1 -  RELEASE  -
|  1> ! wB97X-D3 SP def2-SVP
|  2> %pal
|  3> nprocs 16
|  4> end
|  5>
|  6> * xyz 0 1
|  7> S 	 65.3253 	 -3.05673 	 88.6287
|  8> C 	 64.0484 	 -2.72198 	 89.8163
|  9> C 	 64.5712 	 -2.35971 	 91.0762
| 10> C 	 66.0066 	 -2.38074 	 91.066
| 11> C 	 66.5521 	 -2.67597 	 89.8359
| 12> H 	 66.5887 	 -2.12855 	 91.8522
| 13> C 	 63.6928 	 -1.95878 	 92.2806
| 14> H 	 62.9635 	 -1.18969 	 92.0404
| 15> H 	 64.2418 	 -1.62649 	 93.0969
| 16> C 	 62.804 	 -3.06656 	 92.7395
| 17> H 	 62.2323 	 -3.36545 	 91.9359
| 18> H 	 63.3414 	 -3.94459 	 93.0915
| 19> C 	 61.7248 	 -2.76328 	 93.7376
| 20> H 	 60.8796 	 -2.15125 	 93.4364
| 21> H 	 61.4587 	 -3.74405 	 94.1248
| 22> H 	 62.2508 	 -2.26518 	 94.5563
| 23> S 	 68.6247 	 -4.22662 	 88.7572
| 24> C 	 70.2622 	 -3.60554 	 89.0296
| 25> C 	 70.2916 	 -2.29576 	 89.4785
| 26> C 	 68.9945 	 -1.84986 	 89.8082
| 27> C 	 67.9829 	 -2.7515 	 89.5298
| 28> H 	 71.192 	 -1.78351 	 89.583
| 29> C 	 68.8541 	 -0.506187 	 90.434
| 30> H 	 67.8411 	 -0.164668 	 90.3244
| 31> H 	 69.3388 	 0.18015 	 89.7794
| 32> C 	 69.4075 	 -0.326093 	 91.8273
| 33> H 	 70.4567 	 -0.532488 	 91.7956
| 34> H 	 68.9042 	 -0.946362 	 92.5215
| 35> C 	 69.1928 	 1.05116 	 92.4402
| 36> H 	 69.4523 	 1.86676 	 91.738
| 37> H 	 69.6571 	 1.19026 	 93.4128
| 38> H 	 68.1713 	 1.27737 	 92.6374
| 39> H 	 63.0418 	 -2.88387 	 89.4646
| 40> H 	 71.2105 	 -3.93544 	 88.6489
| 41> *
| 42>
| 43>                          ****END OF INPUT****

CARTESIAN COORDINATES (ANGSTROEM)
---------------------------------
  S     65.325300   -3.056730   88.628700
  C     64.048400   -2.721980   89.816300
  C     64.571200   -2.359710   91.076200
  C     66.006600   -2.380740   91.066000
  C     66.552100   -2.675970   89.835900
  H     66.588700   -2.128550   91.852200
  C     63.692800   -1.958780   92.280600
  H     62.963500   -1.189690   92.040400
  H     64.241800   -1.626490   93.096900
  C     62.804000   -3.066560   92.739500
  H     62.232300   -3.365450   91.935900
  H     63.341400   -3.944590   93.091500
  C     61.724800   -2.763280   93.737600
  H     60.879600   -2.151250   93.436400
  H     61.458700   -3.744050   94.124800
  H     62.250800   -2.265180   94.556300
  S     68.624700   -4.226620   88.757200
  C     70.262200   -3.605540   89.029600
  C     70.291600   -2.295760   89.478500
  C     68.994500   -1.849860   89.808200
  C     67.982900   -2.751500   89.529800
  H     71.192000   -1.783510   89.583000
  C     68.854100   -0.506187   90.434000
  H     67.841100   -0.164668   90.324400
  H     69.338800    0.180150   89.779400
  C     69.407500   -0.326093   91.827300
  H     70.456700   -0.532488   91.795600
  H     68.904200   -0.946362   92.521500
  C     69.192800    1.051160   92.440200
  H     69.452300    1.866760   91.738000
  H     69.657100    1.190260   93.412800
  H     68.171300    1.277370   92.637400
  H     63.041800   -2.883870   89.464600
  H     71.210500   -3.935440   88.648900

 Total Charge           Charge          ....    0
 Multiplicity           Mult            ....    1
 Number of Electrons    NEL             ....  134
 Basis Dimension        Dim             ....  322

ORBITAL ENERGIES
----------------

  NO   OCC          E(Eh)            E(eV)
   0   2.0000     -88.969035     -2420.9705
   1   2.0000     -88.966523     -2420.9022
   2   2.0000     -10.329940      -281.0920
   3   2.0000     -10.327110      -281.0150
   4   2.0000     -10.319608      -280.8108
   5   2.0000     -10.316318      -280.7213
   6   2.0000     -10.310282      -280.5570
   7   2.0000     -10.298330      -280.2318
   8   2.0000     -10.289604      -279.9944
   9   2.0000     -10.287270      -279.9309
  10   2.0000     -10.287028      -279.9243
  11   2.0000     -10.281142      -279.7641
  12   2.0000     -10.280566      -279.7484
  13   2.0000     -10.275330      -279.6059
  14   2.0000     -10.274648      -279.5874
  15   2.0000     -10.270191      -279.4661
  16   2.0000      -8.082614      -219.9391
  17   2.0000      -8.080901      -219.8925
  18   2.0000      -6.041290      -164.3919
  19   2.0000      -6.039396      -164.3403
  20   2.0000      -6.037420      -164.2865
  21   2.0000      -6.035464      -164.2333
  22   2.0000      -6.033134      -164.1699
  23   2.0000      -6.031699      -164.1309
  24   2.0000      -1.002028       -27.2666
  25   2.0000      -0.979477       -26.6529
  26   2.0000      -0.921578       -25.0774
  27   2.0000      -0.915341       -24.9077
  28   2.0000      -0.868208       -23.6251
  29   2.0000      -0.856410       -23.3041
  30   2.0000      -0.850633       -23.1469
  31   2.0000      -0.817547       -22.2466
  32   2.0000      -0.787373       -21.4255
  33   2.0000      -0.772024       -21.0078
  34   2.0000      -0.708434       -19.2775
  35   2.0000      -0.700286       -19.0558
  36   2.0000      -0.693602       -18.8739
  37   2.0000      -0.667607       -18.1665
  38   2.0000      -0.651191       -17.7198
  39   2.0000      -0.624940       -17.0055
  40   2.0000      -0.595151       -16.1949
  41   2.0000      -0.583524       -15.8785
  42   2.0000      -0.573062       -15.5938
  43   2.0000      -0.563299       -15.3281
  44   2.0000      -0.530563       -14.4374
  45   2.0000      -0.527728       -14.3602
  46   2.0000      -0.520027       -14.1507
  47   2.0000      -0.516477       -14.0540
  48   2.0000      -0.510526       -13.8921
  49   2.0000      -0.499051       -13.5799
  50   2.0000      -0.491677       -13.3792
  51   2.0000      -0.478528       -13.0214
  52   2.0000      -0.475020       -12.9259
  53   2.0000      -0.463470       -12.6117
  54   2.0000      -0.460415       -12.5285
  55   2.0000      -0.449889       -12.2421
  56   2.0000      -0.442646       -12.0450
  57   2.0000      -0.438450       -11.9308
  58   2.0000      -0.431182       -11.7331
  59   2.0000      -0.428874       -11.6703
  60   2.0000      -0.425669       -11.5830
  61   2.0000      -0.416399       -11.3308
  62   2.0000      -0.412316       -11.2197
  63   2.0000      -0.345004        -9.3880
  64   2.0000      -0.333733        -9.0813
  65   2.0000      -0.331325        -9.0158
  66   2.0000      -0.290523        -7.9055
  67   0.0000       0.028419         0.7733
  68   0.0000       0.064488         1.7548
  69   0.0000       0.103601         2.8191
  70   0.0000       0.124560         3.3894
  71   0.0000       0.128724         3.5028

MULLIKEN ATOMIC CHARGES
-----------------------
   0 S :    0.099743
   1 C :   -0.145302
   2 C :   -0.060466
   3 C :    0.078953
   4 C :   -0.153769
   5 H :   -0.045553
   6 C :    0.143826
   7 H :    0.023587
   8 H :   -0.004471
   9 C :   -0.099536
  10 H :    0.001842
  11 H :    0.026545
  12 C :   -0.028671
  13 H :    0.040895
  14 H :    0.031028
  15 H :    0.012482
  16 S :    0.108222
  17 C :   -0.062010
  18 C :   -0.039340
  19 C :   -0.021834
  20 C :   -0.147135
  21 H :    0.000790
  22 C :    0.078317
  23 H :    0.010568
  24 H :    0.007850
  25 C :   -0.024852
  26 H :    0.022965
  27 H :    0.018805
  28 C :   -0.045230
  29 H :    0.022155
  30 H :    0.036450
  31 H :    0.013096
  32 H :    0.055166
  33 H :    0.044887
Sum of atomic charges:    0.0000000

LOEWDIN ATOMIC CHARGES
----------------------
   0 S :    0.389565
   1 C :   -0.183781
   2 C :   -0.048105
   3 C :   -0.046792
   4 C :   -0.184138
   5 H :    0.012980
   6 C :   -0.023175
   7 H :    0.036077
   8 H :    0.016925
   9 C :   -0.043658
  10 H :    0.011885
  11 H :    0.024785
  12 C :   -0.060879
  13 H :    0.023776
  14 H :    0.031970
  15 H :    0.020595
  16 S :    0.384291
  17 C :   -0.174119
  18 C :   -0.059088
  19 C :   -0.051106
  20 C :   -0.190116
  21 H :    0.023232
  22 C :   -0.034189
  23 H :    0.026868
  24 H :    0.029312
  25 C :   -0.030713
  26 H :    0.021640
  27 H :    0.019944
  28 C :   -0.065628
  29 H :    0.024828
  30 H :    0.028320
  31 H :    0.019289
  32 H :    0.021818
  33 H :    0.027388

  Mayer bond orders larger than 0.100000
B(  0-S ,  1-C ) :   1.1435 B(  0-S ,  4-C ) :   1.1512 B(  1-C ,  2-C ) :   1.5790
B(  1-C , 32-H ) :   0.9748 B(  2-C ,  3-C ) :   1.2429 B(  2-C ,  6-C ) :   1.0239
B(  3-C ,  4-C ) :   1.5647 B(  3-C ,  5-H ) :   1.0163 B(  4-C , 20-C ) :   1.0378
B(  6-C ,  7-H ) :   0.9361 B(  6-C ,  8-H ) :   0.9356 B(  6-C ,  9-C ) :   1.0689
B(  9-C , 10-H ) :   0.9527 B(  9-C , 11-H ) :   0.9546 B(  9-C , 12-C ) :   1.0886
B( 12-C , 13-H ) :   0.9742 B( 12-C , 14-H ) :   0.9715 B( 12-C , 15-H ) :   0.9716
B( 16-S , 17-C ) :   1.1440 B( 16-S , 20-C ) :   1.1127 B( 17-C , 18-C ) :   1.6336
B( 17-C , 33-H ) :   0.9587 B( 18-C , 19-C ) :   1.2241 B( 18-C , 21-H ) :   0.9983
B( 19-C , 20-C ) :   1.6137 B( 19-C , 22-C ) :   1.0583 B( 22-C , 23-H ) :   0.9258
B( 22-C , 24-H ) :   0.9176 B( 22-C , 25-C ) :   1.0701 B( 25-C , 26-H ) :   0.9512
B( 25-C , 27-H ) :   0.9518 B( 25-C , 28-C ) :   1.0903 B( 28-C , 29-H ) :   0.9719
B( 28-C , 30-H ) :   0.9733 B( 28-C , 31-H ) :   0.9726

Dispersion correction           -0.013676841
FINAL SINGLE POINT ENERGY     -1339.863082898594

DIPOLE MOMENT
-------------
                                X             Y             Z
Electronic contribution:      8.07855     -15.45903     -24.27876
Nuclear contribution   :     -8.09510      15.91581      24.76352
                        -----------------------------------------
Total Dipole Moment    :     -0.01654       0.45678       0.48476
                        -----------------------------------------
Magnitude (a.u.)       :      0.66627
Magnitude (Debye)      :      1.69351

Rotational constants in cm-1:     0.018134     0.008104     0.006140
Rotational constants in MHz :   543.645736   242.939829   184.074627

                             ****ORCA TERMINATED NORMALLY****
TOTAL RUN TIME: 0 days 0 hours 0 minutes 29 seconds 521 msec
