                         Program Version 4.2.1 -  RELEASE  -
|  1> ! wB97X-D3 SP def2-SVP
|  2> %pal
|  3> nprocs 16
|  4> end
|  5>
|  6> * xyz 0 1
|  7> S 	 45.8402 	 22.5577 	 103.159
|  8> C 	 45.0765 	 23.9683 	 102.403
|  9> C 	 43.7114 	 23.8635 	 102.631
| 10> C 	 43.2683 	 22.5856 	 103.215
| 11> C 	 44.3295 	 21.6889 	 103.28
| 12> H 	 42.1988 	 22.3458 	 103.504
| 13> C 	 42.7512 	 24.8642 	 102.155
| 14> H 	 43.2166 	 25.6688 	 101.783
| 15> H 	 42.1543 	 25.1985 	 103.004
| 16> C 	 41.8573 	 24.4247 	 100.943
| 17> H 	 42.4632 	 24.3241 	 100.027
| 18> H 	 41.3199 	 23.5533 	 101.126
| 19> C 	 40.7823 	 25.463 	 100.641
| 20> H 	 41.1132 	 26.4521 	 100.334
| 21> H 	 40.3006 	 25.0859 	 99.7692
| 22> H 	 40.0528 	 25.4703 	 101.382
| 23> S 	 43.3639 	 19.9383 	 104.966
| 24> C 	 43.3639 	 18.2807 	 104.671
| 25> C 	 44.0911 	 17.9989 	 103.483
| 26> C 	 44.619 	 19.1745 	 102.876
| 27> C 	 44.2413 	 20.3035 	 103.553
| 28> H 	 44.2239 	 16.9816 	 103.09
| 29> C 	 45.4112 	 19.1296 	 101.635
| 30> H 	 45.3435 	 20.1393 	 101.149
| 31> H 	 45.0126 	 18.4747 	 100.921
| 32> C 	 46.8683 	 18.6884 	 101.859
| 33> H 	 47.265 	 18.6242 	 100.885
| 34> H 	 46.94 	 17.6535 	 102.228
| 35> C 	 47.8983 	 19.525 	 102.629
| 36> H 	 48.3061 	 20.2691 	 101.978
| 37> H 	 48.6917 	 18.8288 	 102.918
| 38> H 	 47.4076 	 20.03 	 103.399
| 39> H 	 45.5035 	 24.8631 	 102.174
| 40> H 	 43.1171 	 17.4389 	 105.303
| 41> *
| 42>
| 43>                          ****END OF INPUT****

CARTESIAN COORDINATES (ANGSTROEM)
---------------------------------
  S     45.840200   22.557700  103.159000
  C     45.076500   23.968300  102.403000
  C     43.711400   23.863500  102.631000
  C     43.268300   22.585600  103.215000
  C     44.329500   21.688900  103.280000
  H     42.198800   22.345800  103.504000
  C     42.751200   24.864200  102.155000
  H     43.216600   25.668800  101.783000
  H     42.154300   25.198500  103.004000
  C     41.857300   24.424700  100.943000
  H     42.463200   24.324100  100.027000
  H     41.319900   23.553300  101.126000
  C     40.782300   25.463000  100.641000
  H     41.113200   26.452100  100.334000
  H     40.300600   25.085900   99.769200
  H     40.052800   25.470300  101.382000
  S     43.363900   19.938300  104.966000
  C     43.363900   18.280700  104.671000
  C     44.091100   17.998900  103.483000
  C     44.619000   19.174500  102.876000
  C     44.241300   20.303500  103.553000
  H     44.223900   16.981600  103.090000
  C     45.411200   19.129600  101.635000
  H     45.343500   20.139300  101.149000
  H     45.012600   18.474700  100.921000
  C     46.868300   18.688400  101.859000
  H     47.265000   18.624200  100.885000
  H     46.940000   17.653500  102.228000
  C     47.898300   19.525000  102.629000
  H     48.306100   20.269100  101.978000
  H     48.691700   18.828800  102.918000
  H     47.407600   20.030000  103.399000
  H     45.503500   24.863100  102.174000
  H     43.117100   17.438900  105.303000

 Total Charge           Charge          ....    0
 Multiplicity           Mult            ....    1
 Number of Electrons    NEL             ....  134
 Basis Dimension        Dim             ....  322

ORBITAL ENERGIES
----------------

  NO   OCC          E(Eh)            E(eV)
   0   2.0000     -88.967147     -2420.9191
   1   2.0000     -88.962283     -2420.7868
   2   2.0000     -10.329810      -281.0884
   3   2.0000     -10.315785      -280.7068
   4   2.0000     -10.314585      -280.6741
   5   2.0000     -10.306468      -280.4533
   6   2.0000     -10.302513      -280.3456
   7   2.0000     -10.300673      -280.2956
   8   2.0000     -10.296853      -280.1916
   9   2.0000     -10.294754      -280.1345
  10   2.0000     -10.284224      -279.8480
  11   2.0000     -10.282043      -279.7886
  12   2.0000     -10.277837      -279.6742
  13   2.0000     -10.275502      -279.6106
  14   2.0000     -10.267266      -279.3865
  15   2.0000     -10.262458      -279.2557
  16   2.0000      -8.083464      -219.9623
  17   2.0000      -8.076439      -219.7711
  18   2.0000      -6.041810      -164.4060
  19   2.0000      -6.037530      -164.2895
  20   2.0000      -6.035125      -164.2241
  21   2.0000      -6.034507      -164.2073
  22   2.0000      -6.031170      -164.1165
  23   2.0000      -6.026875      -163.9996
  24   2.0000      -1.017490       -27.6873
  25   2.0000      -0.985051       -26.8046
  26   2.0000      -0.915506       -24.9122
  27   2.0000      -0.911994       -24.8166
  28   2.0000      -0.875826       -23.8324
  29   2.0000      -0.853632       -23.2285
  30   2.0000      -0.847050       -23.0494
  31   2.0000      -0.812650       -22.1133
  32   2.0000      -0.788579       -21.4583
  33   2.0000      -0.773197       -21.0398
  34   2.0000      -0.711543       -19.3621
  35   2.0000      -0.701284       -19.0829
  36   2.0000      -0.691845       -18.8261
  37   2.0000      -0.668022       -18.1778
  38   2.0000      -0.635891       -17.3035
  39   2.0000      -0.619656       -16.8617
  40   2.0000      -0.597917       -16.2702
  41   2.0000      -0.571932       -15.5631
  42   2.0000      -0.567986       -15.4557
  43   2.0000      -0.552244       -15.0273
  44   2.0000      -0.541944       -14.7470
  45   2.0000      -0.525787       -14.3074
  46   2.0000      -0.520232       -14.1562
  47   2.0000      -0.518979       -14.1221
  48   2.0000      -0.512416       -13.9435
  49   2.0000      -0.506566       -13.7844
  50   2.0000      -0.497062       -13.5257
  51   2.0000      -0.481402       -13.0996
  52   2.0000      -0.469049       -12.7635
  53   2.0000      -0.462353       -12.5813
  54   2.0000      -0.456762       -12.4291
  55   2.0000      -0.447299       -12.1716
  56   2.0000      -0.441301       -12.0084
  57   2.0000      -0.439767       -11.9667
  58   2.0000      -0.433588       -11.7985
  59   2.0000      -0.428419       -11.6579
  60   2.0000      -0.417445       -11.3593
  61   2.0000      -0.409696       -11.1484
  62   2.0000      -0.407600       -11.0914
  63   2.0000      -0.344439        -9.3727
  64   2.0000      -0.331106        -9.0099
  65   2.0000      -0.318485        -8.6664
  66   2.0000      -0.293618        -7.9897
  67   0.0000       0.029324         0.7979
  68   0.0000       0.070547         1.9197
  69   0.0000       0.101916         2.7733
  70   0.0000       0.120826         3.2878
  71   0.0000       0.134126         3.6498

MULLIKEN ATOMIC CHARGES
-----------------------
   0 S :    0.095761
   1 C :   -0.062246
   2 C :   -0.117213
   3 C :    0.016424
   4 C :   -0.147619
   5 H :    0.046498
   6 C :    0.116781
   7 H :   -0.028953
   8 H :    0.027407
   9 C :   -0.074027
  10 H :    0.033515
  11 H :    0.015148
  12 C :   -0.014629
  13 H :    0.026573
  14 H :    0.014457
  15 H :    0.016833
  16 S :    0.140247
  17 C :   -0.082098
  18 C :   -0.077451
  19 C :   -0.002703
  20 C :   -0.188309
  21 H :    0.024071
  22 C :    0.093412
  23 H :    0.033145
  24 H :    0.008099
  25 C :   -0.102707
  26 H :    0.010696
  27 H :    0.021357
  28 C :    0.011984
  29 H :    0.020121
  30 H :    0.033985
  31 H :    0.018759
  32 H :    0.013448
  33 H :    0.059237
Sum of atomic charges:    0.0000000

LOEWDIN ATOMIC CHARGES
----------------------
   0 S :    0.397378
   1 C :   -0.186623
   2 C :   -0.051634
   3 C :   -0.070231
   4 C :   -0.191582
   5 H :    0.040692
   6 C :   -0.029541
   7 H :    0.011224
   8 H :    0.034839
   9 C :   -0.022296
  10 H :    0.028475
  11 H :    0.013336
  12 C :   -0.056884
  13 H :    0.022485
  14 H :    0.025298
  15 H :    0.014807
  16 S :    0.471112
  17 C :   -0.217032
  18 C :   -0.070424
  19 C :   -0.055106
  20 C :   -0.224528
  21 H :    0.032022
  22 C :   -0.030596
  23 H :    0.036897
  24 H :    0.027152
  25 C :   -0.039988
  26 H :    0.017983
  27 H :    0.022093
  28 C :   -0.054370
  29 H :    0.021299
  30 H :    0.032001
  31 H :    0.007988
  32 H :    0.009973
  33 H :    0.033779

  Mayer bond orders larger than 0.100000
B(  0-S ,  1-C ) :   1.0987 B(  0-S ,  4-C ) :   1.1480 B(  1-C ,  2-C ) :   1.6278
B(  1-C , 32-H ) :   0.9771 B(  2-C ,  3-C ) :   1.2034 B(  2-C ,  6-C ) :   1.0681
B(  3-C ,  4-C ) :   1.5652 B(  3-C ,  5-H ) :   0.9826 B(  4-C , 20-C ) :   1.0512
B(  6-C ,  7-H ) :   0.9286 B(  6-C ,  8-H ) :   0.9297 B(  6-C ,  9-C ) :   1.0585
B(  9-C , 10-H ) :   0.9583 B(  9-C , 11-H ) :   0.9573 B(  9-C , 12-C ) :   1.0925
B( 12-C , 13-H ) :   0.9745 B( 12-C , 14-H ) :   0.9699 B( 12-C , 15-H ) :   0.9749
B( 16-S , 17-C ) :   1.1848 B( 16-S , 20-C ) :   1.1692 B( 17-C , 18-C ) :   1.5594
B( 17-C , 20-C ) :   0.1009 B( 17-C , 33-H ) :   0.9675 B( 18-C , 19-C ) :   1.2738
B( 18-C , 21-H ) :   0.9856 B( 19-C , 20-C ) :   1.5447 B( 19-C , 22-C ) :   1.0673
B( 22-C , 23-H ) :   0.9291 B( 22-C , 24-H ) :   0.9214 B( 22-C , 25-C ) :   1.0752
B( 25-C , 26-H ) :   0.9536 B( 25-C , 27-H ) :   0.9607 B( 25-C , 28-C ) :   1.0716
B( 28-C , 29-H ) :   0.9766 B( 28-C , 30-H ) :   0.9717 B( 28-C , 31-H ) :   0.9766

Dispersion correction           -0.014717151
FINAL SINGLE POINT ENERGY     -1339.848717955394

DIPOLE MOMENT
-------------
                                X             Y             Z
Electronic contribution:      1.88566      -5.79584      15.97259
Nuclear contribution   :     -2.17162       5.77260     -16.33655
                        -----------------------------------------
Total Dipole Moment    :     -0.28595      -0.02324      -0.36396
                        -----------------------------------------
Magnitude (a.u.)       :      0.46344
Magnitude (Debye)      :      1.17797

Rotational constants in cm-1:     0.020951     0.008260     0.007090
Rotational constants in MHz :   628.104702   247.627180   212.553545

                             ****ORCA TERMINATED NORMALLY****
TOTAL RUN TIME: 0 days 0 hours 0 minutes 31 seconds 431 msec
