                         Program Version 4.2.1 -  RELEASE  -
|  1> ! wB97X-D3 SP def2-SVP
|  2> %pal
|  3> nprocs 16
|  4> end
|  5>
|  6> * xyz 0 1
|  7> S 	 38.2288 	 11.0334 	 89.8485
|  8> C 	 39.5632 	 10.3185 	 89.0269
|  9> C 	 39.162 	 9.31244 	 88.2139
| 10> C 	 37.7607 	 9.02658 	 88.2824
| 11> C 	 37.0799 	 9.94193 	 89.0275
| 12> H 	 37.2951 	 8.14317 	 87.8184
| 13> C 	 40.1308 	 8.40785 	 87.4913
| 14> H 	 39.5567 	 7.46503 	 87.3655
| 15> H 	 40.9349 	 8.24031 	 88.1922
| 16> C 	 40.6707 	 8.90342 	 86.1455
| 17> H 	 41.0874 	 9.81704 	 86.2328
| 18> H 	 41.3886 	 8.21201 	 85.8413
| 19> C 	 39.5257 	 8.92895 	 85.1191
| 20> H 	 38.7001 	 9.55958 	 85.4854
| 21> H 	 39.8273 	 9.40635 	 84.2069
| 22> H 	 39.2095 	 7.92104 	 84.9554
| 23> S 	 35.1009 	 9.37176 	 90.7479
| 24> C 	 33.4139 	 9.4939 	 90.1497
| 25> C 	 33.3372 	 10.023 	 88.9066
| 26> C 	 34.6445 	 10.0839 	 88.325
| 27> C 	 35.6755 	 9.945 	 89.2209
| 28> H 	 32.3984 	 10.328 	 88.3514
| 29> C 	 34.8798 	 10.373 	 86.8085
| 30> H 	 34.4871 	 9.47236 	 86.3232
| 31> H 	 35.9608 	 10.3484 	 86.5901
| 32> C 	 34.2565 	 11.6305 	 86.2286
| 33> H 	 33.2138 	 11.6462 	 86.382
| 34> H 	 34.2352 	 11.6441 	 85.1474
| 35> C 	 34.9369 	 12.9934 	 86.7823
| 36> H 	 34.6941 	 13.9254 	 86.1077
| 37> H 	 36.0697 	 13.0316 	 86.6657
| 38> H 	 34.7333 	 13.2033 	 87.7918
| 39> H 	 40.5794 	 10.6497 	 89.3083
| 40> H 	 32.5158 	 9.26993 	 90.7231
| 41> *
| 42>
| 43>                          ****END OF INPUT****

CARTESIAN COORDINATES (ANGSTROEM)
---------------------------------
  S     38.228800   11.033400   89.848500
  C     39.563200   10.318500   89.026900
  C     39.162000    9.312440   88.213900
  C     37.760700    9.026580   88.282400
  C     37.079900    9.941930   89.027500
  H     37.295100    8.143170   87.818400
  C     40.130800    8.407850   87.491300
  H     39.556700    7.465030   87.365500
  H     40.934900    8.240310   88.192200
  C     40.670700    8.903420   86.145500
  H     41.087400    9.817040   86.232800
  H     41.388600    8.212010   85.841300
  C     39.525700    8.928950   85.119100
  H     38.700100    9.559580   85.485400
  H     39.827300    9.406350   84.206900
  H     39.209500    7.921040   84.955400
  S     35.100900    9.371760   90.747900
  C     33.413900    9.493900   90.149700
  C     33.337200   10.023000   88.906600
  C     34.644500   10.083900   88.325000
  C     35.675500    9.945000   89.220900
  H     32.398400   10.328000   88.351400
  C     34.879800   10.373000   86.808500
  H     34.487100    9.472360   86.323200
  H     35.960800   10.348400   86.590100
  C     34.256500   11.630500   86.228600
  H     33.213800   11.646200   86.382000
  H     34.235200   11.644100   85.147400
  C     34.936900   12.993400   86.782300
  H     34.694100   13.925400   86.107700
  H     36.069700   13.031600   86.665700
  H     34.733300   13.203300   87.791800
  H     40.579400   10.649700   89.308300
  H     32.515800    9.269930   90.723100

 Total Charge           Charge          ....    0
 Multiplicity           Mult            ....    1
 Number of Electrons    NEL             ....  134
 Basis Dimension        Dim             ....  322

ORBITAL ENERGIES
----------------

  NO   OCC          E(Eh)            E(eV)
   0   2.0000     -88.962916     -2420.8040
   1   2.0000     -88.962200     -2420.7845
   2   2.0000     -10.323991      -280.9301
   3   2.0000     -10.319290      -280.8022
   4   2.0000     -10.317307      -280.7482
   5   2.0000     -10.311448      -280.5888
   6   2.0000     -10.302749      -280.3521
   7   2.0000     -10.298531      -280.2373
   8   2.0000     -10.293951      -280.1126
   9   2.0000     -10.293608      -280.1033
  10   2.0000     -10.292618      -280.0764
  11   2.0000     -10.288680      -279.9692
  12   2.0000     -10.287188      -279.9286
  13   2.0000     -10.286975      -279.9228
  14   2.0000     -10.271828      -279.5106
  15   2.0000     -10.271664      -279.5062
  16   2.0000      -8.077686      -219.8050
  17   2.0000      -8.077294      -219.7943
  18   2.0000      -6.036359      -164.2577
  19   2.0000      -6.035834      -164.2434
  20   2.0000      -6.032288      -164.1469
  21   2.0000      -6.031738      -164.1319
  22   2.0000      -6.028155      -164.0344
  23   2.0000      -6.028025      -164.0309
  24   2.0000      -1.010435       -27.4953
  25   2.0000      -0.986518       -26.8445
  26   2.0000      -0.914648       -24.8888
  27   2.0000      -0.897766       -24.4295
  28   2.0000      -0.878071       -23.8935
  29   2.0000      -0.848267       -23.0825
  30   2.0000      -0.837349       -22.7854
  31   2.0000      -0.814978       -22.1767
  32   2.0000      -0.777879       -21.1672
  33   2.0000      -0.767152       -20.8753
  34   2.0000      -0.709908       -19.3176
  35   2.0000      -0.707872       -19.2622
  36   2.0000      -0.698616       -19.0103
  37   2.0000      -0.658469       -17.9178
  38   2.0000      -0.644280       -17.5318
  39   2.0000      -0.611789       -16.6476
  40   2.0000      -0.592052       -16.1105
  41   2.0000      -0.578687       -15.7469
  42   2.0000      -0.551482       -15.0066
  43   2.0000      -0.546193       -14.8627
  44   2.0000      -0.545136       -14.8339
  45   2.0000      -0.532202       -14.4820
  46   2.0000      -0.516203       -14.0466
  47   2.0000      -0.507906       -13.8208
  48   2.0000      -0.500672       -13.6240
  49   2.0000      -0.493675       -13.4336
  50   2.0000      -0.484039       -13.1714
  51   2.0000      -0.477535       -12.9944
  52   2.0000      -0.467330       -12.7167
  53   2.0000      -0.464253       -12.6330
  54   2.0000      -0.457629       -12.4527
  55   2.0000      -0.449141       -12.2218
  56   2.0000      -0.447699       -12.1825
  57   2.0000      -0.433774       -11.8036
  58   2.0000      -0.429461       -11.6862
  59   2.0000      -0.425984       -11.5916
  60   2.0000      -0.424932       -11.5630
  61   2.0000      -0.415223       -11.2988
  62   2.0000      -0.410346       -11.1661
  63   2.0000      -0.346275        -9.4226
  64   2.0000      -0.328858        -8.9487
  65   2.0000      -0.323383        -8.7997
  66   2.0000      -0.300723        -8.1831
  67   0.0000       0.038763         1.0548
  68   0.0000       0.066088         1.7984
  69   0.0000       0.116207         3.1621
  70   0.0000       0.119364         3.2481
  71   0.0000       0.122858         3.3431

MULLIKEN ATOMIC CHARGES
-----------------------
   0 S :    0.103764
   1 C :   -0.141295
   2 C :   -0.090697
   3 C :    0.036338
   4 C :   -0.169459
   5 H :    0.029308
   6 C :    0.035023
   7 H :    0.017028
   8 H :    0.025647
   9 C :    0.032544
  10 H :   -0.000992
  11 H :    0.016089
  12 C :   -0.060034
  13 H :    0.040591
  14 H :    0.025741
  15 H :    0.022970
  16 S :    0.104453
  17 C :   -0.090410
  18 C :   -0.039378
  19 C :   -0.059759
  20 C :   -0.158572
  21 H :    0.048861
  22 C :    0.063991
  23 H :    0.031064
  24 H :    0.035170
  25 C :   -0.027099
  26 H :    0.008416
  27 H :    0.021017
  28 C :   -0.101428
  29 H :    0.039965
  30 H :    0.038815
  31 H :    0.043758
  32 H :    0.061758
  33 H :    0.056812
Sum of atomic charges:   -0.0000000

LOEWDIN ATOMIC CHARGES
----------------------
   0 S :    0.396175
   1 C :   -0.201629
   2 C :   -0.074536
   3 C :   -0.056907
   4 C :   -0.190969
   5 H :    0.038736
   6 C :   -0.027478
   7 H :    0.029929
   8 H :    0.028191
   9 C :   -0.020313
  10 H :    0.008112
  11 H :    0.018640
  12 C :   -0.057853
  13 H :    0.027873
  14 H :    0.021654
  15 H :    0.020099
  16 S :    0.393760
  17 C :   -0.167389
  18 C :   -0.076595
  19 C :   -0.050399
  20 C :   -0.212993
  21 H :    0.046374
  22 C :   -0.031898
  23 H :    0.033445
  24 H :    0.031206
  25 C :   -0.039735
  26 H :    0.014850
  27 H :    0.026536
  28 C :   -0.075712
  29 H :    0.035852
  30 H :    0.031904
  31 H :    0.016686
  32 H :    0.033790
  33 H :    0.030592

  Mayer bond orders larger than 0.100000
B(  0-S ,  1-C ) :   1.1385 B(  0-S ,  4-C ) :   1.1401 B(  1-C ,  2-C ) :   1.6197
B(  1-C , 32-H ) :   0.9677 B(  2-C ,  3-C ) :   1.2328 B(  2-C ,  6-C ) :   1.0071
B(  3-C ,  4-C ) :   1.5846 B(  3-C ,  5-H ) :   0.9917 B(  4-C , 20-C ) :   1.0335
B(  6-C ,  7-H ) :   0.9452 B(  6-C ,  8-H ) :   0.9425 B(  6-C ,  9-C ) :   1.0744
B(  9-C , 10-H ) :   0.9529 B(  9-C , 11-H ) :   0.9528 B(  9-C , 12-C ) :   1.0790
B( 12-C , 13-H ) :   0.9772 B( 12-C , 14-H ) :   0.9725 B( 12-C , 15-H ) :   0.9771
B( 16-S , 17-C ) :   1.1380 B( 16-S , 20-C ) :   1.1282 B( 17-C , 18-C ) :   1.6481
B( 17-C , 33-H ) :   0.9638 B( 18-C , 19-C ) :   1.2110 B( 18-C , 21-H ) :   0.9765
B( 19-C , 20-C ) :   1.6413 B( 19-C , 22-C ) :   1.0246 B( 22-C , 23-H ) :   0.9296
B( 22-C , 24-H ) :   0.9400 B( 22-C , 25-C ) :   1.0823 B( 25-C , 26-H ) :   0.9532
B( 25-C , 27-H ) :   0.9522 B( 25-C , 28-C ) :   1.0484 B( 28-C , 29-H ) :   0.9775
B( 28-C , 30-H ) :   0.9778 B( 28-C , 31-H ) :   0.9820

Dispersion correction           -0.015225924
FINAL SINGLE POINT ENERGY     -1339.869479164292

DIPOLE MOMENT
-------------
                                X             Y             Z
Electronic contribution:     -4.60562      -1.81993      25.47858
Nuclear contribution   :      4.62735       1.60152     -26.05642
                        -----------------------------------------
Total Dipole Moment    :      0.02173      -0.21841      -0.57784
                        -----------------------------------------
Magnitude (a.u.)       :      0.61812
Magnitude (Debye)      :      1.57115

Rotational constants in cm-1:     0.018764     0.009279     0.007652
Rotational constants in MHz :   562.533648   278.173818   229.400396

                             ****ORCA TERMINATED NORMALLY****
TOTAL RUN TIME: 0 days 0 hours 0 minutes 31 seconds 908 msec
