                         Program Version 4.2.1 -  RELEASE  -
|  1> ! wB97X-D3 SP def2-SVP
|  2> %pal
|  3> nprocs 16
|  4> end
|  5>
|  6> * xyz 0 1
|  7> S 	 1.02265 	 80.9031 	 48.0915
|  8> C 	 1.39218 	 80.0731 	 49.6152
|  9> C 	 1.63866 	 78.7484 	 49.4795
| 10> C 	 1.10231 	 78.2189 	 48.2675
| 11> C 	 0.734434 	 79.2716 	 47.3871
| 12> H 	 1.15287 	 77.1996 	 47.8313
| 13> C 	 2.04077 	 77.773 	 50.601
| 14> H 	 1.26144 	 77.3561 	 51.1782
| 15> H 	 2.45867 	 78.4447 	 51.3778
| 16> C 	 3.03025 	 76.6274 	 50.2192
| 17> H 	 3.02036 	 75.9598 	 51.0256
| 18> H 	 2.52714 	 76.0482 	 49.3639
| 19> C 	 4.56323 	 76.9277 	 49.7543
| 20> H 	 4.59775 	 77.7461 	 49.0085
| 21> H 	 5.234 	 77.2386 	 50.5496
| 22> H 	 5.03935 	 76.1433 	 49.1361
| 23> S 	 -1.29284 	 78.6193 	 45.672
| 24> C 	 -1.04186 	 78.5208 	 43.9082
| 25> C 	 0.249642 	 78.8725 	 43.6133
| 26> C 	 1.09765 	 79.2729 	 44.7713
| 27> C 	 0.412454 	 79.0522 	 45.9581
| 28> H 	 0.446255 	 78.9449 	 42.5005
| 29> C 	 2.43222 	 79.8612 	 44.5431
| 30> H 	 2.8392 	 80.4991 	 45.3311
| 31> H 	 2.19179 	 80.4668 	 43.6418
| 32> C 	 3.55482 	 78.8832 	 44.1678
| 33> H 	 4.54616 	 79.4211 	 44.3316
| 34> H 	 3.5061 	 78.5953 	 43.0881
| 35> C 	 3.55913 	 77.703 	 45.1094
| 36> H 	 2.7129 	 77.0061 	 45.1981
| 37> H 	 3.73131 	 78.0651 	 46.1136
| 38> H 	 4.45001 	 77.0394 	 44.8531
| 39> H 	 1.43981 	 80.601 	 50.5847
| 40> H 	 -1.67369 	 78.0225 	 43.2111
| 41> *
| 42>
| 43>                          ****END OF INPUT****

CARTESIAN COORDINATES (ANGSTROEM)
---------------------------------
  S      1.022650   80.903100   48.091500
  C      1.392180   80.073100   49.615200
  C      1.638660   78.748400   49.479500
  C      1.102310   78.218900   48.267500
  C      0.734434   79.271600   47.387100
  H      1.152870   77.199600   47.831300
  C      2.040770   77.773000   50.601000
  H      1.261440   77.356100   51.178200
  H      2.458670   78.444700   51.377800
  C      3.030250   76.627400   50.219200
  H      3.020360   75.959800   51.025600
  H      2.527140   76.048200   49.363900
  C      4.563230   76.927700   49.754300
  H      4.597750   77.746100   49.008500
  H      5.234000   77.238600   50.549600
  H      5.039350   76.143300   49.136100
  S     -1.292840   78.619300   45.672000
  C     -1.041860   78.520800   43.908200
  C      0.249642   78.872500   43.613300
  C      1.097650   79.272900   44.771300
  C      0.412454   79.052200   45.958100
  H      0.446255   78.944900   42.500500
  C      2.432220   79.861200   44.543100
  H      2.839200   80.499100   45.331100
  H      2.191790   80.466800   43.641800
  C      3.554820   78.883200   44.167800
  H      4.546160   79.421100   44.331600
  H      3.506100   78.595300   43.088100
  C      3.559130   77.703000   45.109400
  H      2.712900   77.006100   45.198100
  H      3.731310   78.065100   46.113600
  H      4.450010   77.039400   44.853100
  H      1.439810   80.601000   50.584700
  H     -1.673690   78.022500   43.211100

 Total Charge           Charge          ....    0
 Multiplicity           Mult            ....    1
 Number of Electrons    NEL             ....  134
 Basis Dimension        Dim             ....  322

ORBITAL ENERGIES
----------------

  NO   OCC          E(Eh)            E(eV)
   0   2.0000     -88.972393     -2421.0619
   1   2.0000     -88.958519     -2420.6844
   2   2.0000     -10.336746      -281.2772
   3   2.0000     -10.329341      -281.0756
   4   2.0000     -10.319200      -280.7997
   5   2.0000     -10.315333      -280.6945
   6   2.0000     -10.309699      -280.5412
   7   2.0000     -10.303658      -280.3768
   8   2.0000     -10.303330      -280.3678
   9   2.0000     -10.301304      -280.3127
  10   2.0000     -10.301196      -280.3098
  11   2.0000     -10.296246      -280.1751
  12   2.0000     -10.293018      -280.0873
  13   2.0000     -10.290443      -280.0172
  14   2.0000     -10.287760      -279.9442
  15   2.0000     -10.275925      -279.6221
  16   2.0000      -8.085666      -220.0222
  17   2.0000      -8.072514      -219.6643
  18   2.0000      -6.044174      -164.4703
  19   2.0000      -6.040675      -164.3751
  20   2.0000      -6.036220      -164.2539
  21   2.0000      -6.031279      -164.1194
  22   2.0000      -6.027157      -164.0073
  23   2.0000      -6.022992      -163.8939
  24   2.0000      -0.997038       -27.1308
  25   2.0000      -0.976365       -26.5683
  26   2.0000      -0.911373       -24.7997
  27   2.0000      -0.899442       -24.4751
  28   2.0000      -0.863453       -23.4957
  29   2.0000      -0.842435       -22.9238
  30   2.0000      -0.840008       -22.8578
  31   2.0000      -0.810834       -22.0639
  32   2.0000      -0.784352       -21.3433
  33   2.0000      -0.773192       -21.0396
  34   2.0000      -0.710608       -19.3366
  35   2.0000      -0.697586       -18.9823
  36   2.0000      -0.685384       -18.6503
  37   2.0000      -0.655978       -17.8501
  38   2.0000      -0.636854       -17.3297
  39   2.0000      -0.616066       -16.7640
  40   2.0000      -0.594444       -16.1756
  41   2.0000      -0.561943       -15.2912
  42   2.0000      -0.549919       -14.9641
  43   2.0000      -0.540037       -14.6951
  44   2.0000      -0.537753       -14.6330
  45   2.0000      -0.530631       -14.4392
  46   2.0000      -0.515672       -14.0321
  47   2.0000      -0.513290       -13.9673
  48   2.0000      -0.499548       -13.5934
  49   2.0000      -0.495481       -13.4827
  50   2.0000      -0.481871       -13.1124
  51   2.0000      -0.478149       -13.0111
  52   2.0000      -0.463131       -12.6024
  53   2.0000      -0.457922       -12.4607
  54   2.0000      -0.457278       -12.4432
  55   2.0000      -0.447332       -12.1725
  56   2.0000      -0.444440       -12.0938
  57   2.0000      -0.438649       -11.9363
  58   2.0000      -0.423616       -11.5272
  59   2.0000      -0.422889       -11.5074
  60   2.0000      -0.415393       -11.3034
  61   2.0000      -0.414844       -11.2885
  62   2.0000      -0.410821       -11.1790
  63   2.0000      -0.337630        -9.1874
  64   2.0000      -0.330749        -9.0001
  65   2.0000      -0.321520        -8.7490
  66   2.0000      -0.303661        -8.2630
  67   0.0000       0.035159         0.9567
  68   0.0000       0.054009         1.4697
  69   0.0000       0.095749         2.6055
  70   0.0000       0.106737         2.9045
  71   0.0000       0.126410         3.4398

MULLIKEN ATOMIC CHARGES
-----------------------
   0 S :    0.119990
   1 C :   -0.136501
   2 C :   -0.042932
   3 C :    0.023718
   4 C :   -0.155851
   5 H :    0.044476
   6 C :    0.059780
   7 H :    0.034178
   8 H :    0.009072
   9 C :   -0.081536
  10 H :    0.021760
  11 H :    0.037362
  12 C :   -0.071810
  13 H :    0.032460
  14 H :    0.041594
  15 H :    0.039511
  16 S :    0.083879
  17 C :   -0.087191
  18 C :   -0.073679
  19 C :   -0.011259
  20 C :   -0.201245
  21 H :    0.045221
  22 C :    0.055442
  23 H :    0.031236
  24 H :    0.037583
  25 C :   -0.081225
  26 H :    0.042073
  27 H :    0.036482
  28 C :   -0.071915
  29 H :    0.047472
  30 H :    0.023878
  31 H :    0.033276
  32 H :    0.059124
  33 H :    0.055575
Sum of atomic charges:   -0.0000000

LOEWDIN ATOMIC CHARGES
----------------------
   0 S :    0.378913
   1 C :   -0.182239
   2 C :   -0.069345
   3 C :   -0.051223
   4 C :   -0.184552
   5 H :    0.041805
   6 C :   -0.032977
   7 H :    0.030858
   8 H :    0.029324
   9 C :   -0.036134
  10 H :    0.016714
  11 H :    0.031430
  12 C :   -0.077540
  13 H :    0.027818
  14 H :    0.024499
  15 H :    0.032123
  16 S :    0.370428
  17 C :   -0.177981
  18 C :   -0.078240
  19 C :   -0.055368
  20 C :   -0.190799
  21 H :    0.042069
  22 C :   -0.042648
  23 H :    0.030709
  24 H :    0.042566
  25 C :   -0.044413
  26 H :    0.035570
  27 H :    0.023898
  28 C :   -0.076233
  29 H :    0.026010
  30 H :    0.022343
  31 H :    0.031213
  32 H :    0.033711
  33 H :    0.027691

  Mayer bond orders larger than 0.100000
B(  0-S ,  1-C ) :   1.1299 B(  0-S ,  4-C ) :   1.1285 B(  1-C ,  2-C ) :   1.6443
B(  1-C , 32-H ) :   0.9607 B(  2-C ,  3-C ) :   1.2060 B(  2-C ,  6-C ) :   1.0156
B(  3-C ,  4-C ) :   1.6047 B(  3-C ,  5-H ) :   0.9759 B(  4-C , 20-C ) :   1.0225
B(  6-C ,  7-H ) :   0.9446 B(  6-C ,  8-H ) :   0.9394 B(  6-C ,  9-C ) :   1.0672
B(  9-C , 10-H ) :   0.9582 B(  9-C , 11-H ) :   0.9587 B(  9-C , 12-C ) :   1.0519
B( 12-C , 13-H ) :   0.9775 B( 12-C , 14-H ) :   0.9784 B( 12-C , 15-H ) :   0.9778
B( 16-S , 17-C ) :   1.1200 B( 16-S , 20-C ) :   1.1302 B( 17-C , 18-C ) :   1.6925
B( 17-C , 33-H ) :   0.9645 B( 18-C , 19-C ) :   1.1660 B( 18-C , 21-H ) :   0.9713
B( 19-C , 20-C ) :   1.6305 B( 19-C , 22-C ) :   1.0483 B( 22-C , 23-H ) :   0.9392
B( 22-C , 24-H ) :   0.9293 B( 22-C , 25-C ) :   1.0730 B( 25-C , 26-H ) :   0.9559
B( 25-C , 27-H ) :   0.9542 B( 25-C , 28-C ) :   1.0789 B( 28-C , 29-H ) :   0.9689
B( 28-C , 30-H ) :   0.9731 B( 28-C , 31-H ) :   0.9712

Dispersion correction           -0.015794275
FINAL SINGLE POINT ENERGY     -1339.848814333270

DIPOLE MOMENT
-------------
                                X             Y             Z
Electronic contribution:    -23.15907      13.04124      -2.98371
Nuclear contribution   :     23.66935     -13.29782       3.02826
                        -----------------------------------------
Total Dipole Moment    :      0.51028      -0.25659       0.04455
                        -----------------------------------------
Magnitude (a.u.)       :      0.57290
Magnitude (Debye)      :      1.45619

Rotational constants in cm-1:     0.018553     0.009311     0.007887
Rotational constants in MHz :   556.215837   279.151077   236.444564

                             ****ORCA TERMINATED NORMALLY****
TOTAL RUN TIME: 0 days 0 hours 0 minutes 35 seconds 220 msec
