                         Program Version 4.2.1 -  RELEASE  -
|  1> ! wB97X-D3 SP def2-SVP
|  2> %pal
|  3> nprocs 16
|  4> end
|  5>
|  6> * xyz 0 1
|  7> S 	 -15.6966 	 33.3938 	 35.0756
|  8> C 	 -16.7445 	 31.9998 	 34.722
|  9> C 	 -18.0653 	 32.397 	 34.6161
| 10> C 	 -18.2893 	 33.767 	 34.9868
| 11> C 	 -17.0775 	 34.4207 	 35.2647
| 12> H 	 -19.2703 	 34.2264 	 35.1276
| 13> C 	 -19.2368 	 31.4374 	 34.5294
| 14> H 	 -19.7248 	 31.2236 	 35.5095
| 15> H 	 -18.801 	 30.4705 	 34.2977
| 16> C 	 -20.2163 	 31.7196 	 33.3942
| 17> H 	 -19.718 	 31.7811 	 32.4303
| 18> H 	 -20.7253 	 30.7524 	 33.2865
| 19> C 	 -21.2083 	 32.7912 	 33.7793
| 20> H 	 -21.9291 	 32.9185 	 32.9736
| 21> H 	 -21.5236 	 32.6668 	 34.8043
| 22> H 	 -20.7447 	 33.7724 	 33.7305
| 23> S 	 -16.3175 	 37.1151 	 35.0662
| 24> C 	 -16.8278 	 38.1986 	 36.2858
| 25> C 	 -17.4618 	 37.4839 	 37.3314
| 26> C 	 -17.6864 	 36.1357 	 37.016
| 27> C 	 -17.0795 	 35.7358 	 35.8539
| 28> H 	 -17.9724 	 37.9826 	 38.0995
| 29> C 	 -18.5485 	 35.2674 	 37.999
| 30> H 	 -18.3333 	 35.4701 	 39.0662
| 31> H 	 -18.2301 	 34.251 	 37.7019
| 32> C 	 -20.0366 	 35.4562 	 37.8124
| 33> H 	 -20.5176 	 34.8588 	 38.5666
| 34> H 	 -20.3851 	 34.9738 	 36.8768
| 35> C 	 -20.6582 	 36.8432 	 37.9055
| 36> H 	 -21.7898 	 36.8068 	 37.8642
| 37> H 	 -20.4148 	 37.5133 	 37.0857
| 38> H 	 -20.2209 	 37.2957 	 38.8189
| 39> H 	 -16.4414 	 30.9604 	 34.7638
| 40> H 	 -16.6187 	 39.3036 	 36.3491
| 41> *
| 42>
| 43>                          ****END OF INPUT****

CARTESIAN COORDINATES (ANGSTROEM)
---------------------------------
  S    -15.696600   33.393800   35.075600
  C    -16.744500   31.999800   34.722000
  C    -18.065300   32.397000   34.616100
  C    -18.289300   33.767000   34.986800
  C    -17.077500   34.420700   35.264700
  H    -19.270300   34.226400   35.127600
  C    -19.236800   31.437400   34.529400
  H    -19.724800   31.223600   35.509500
  H    -18.801000   30.470500   34.297700
  C    -20.216300   31.719600   33.394200
  H    -19.718000   31.781100   32.430300
  H    -20.725300   30.752400   33.286500
  C    -21.208300   32.791200   33.779300
  H    -21.929100   32.918500   32.973600
  H    -21.523600   32.666800   34.804300
  H    -20.744700   33.772400   33.730500
  S    -16.317500   37.115100   35.066200
  C    -16.827800   38.198600   36.285800
  C    -17.461800   37.483900   37.331400
  C    -17.686400   36.135700   37.016000
  C    -17.079500   35.735800   35.853900
  H    -17.972400   37.982600   38.099500
  C    -18.548500   35.267400   37.999000
  H    -18.333300   35.470100   39.066200
  H    -18.230100   34.251000   37.701900
  C    -20.036600   35.456200   37.812400
  H    -20.517600   34.858800   38.566600
  H    -20.385100   34.973800   36.876800
  C    -20.658200   36.843200   37.905500
  H    -21.789800   36.806800   37.864200
  H    -20.414800   37.513300   37.085700
  H    -20.220900   37.295700   38.818900
  H    -16.441400   30.960400   34.763800
  H    -16.618700   39.303600   36.349100

 Total Charge           Charge          ....    0
 Multiplicity           Mult            ....    1
 Number of Electrons    NEL             ....  134
 Basis Dimension        Dim             ....  322

ORBITAL ENERGIES
----------------

  NO   OCC          E(Eh)            E(eV)
   0   2.0000     -88.970159     -2421.0011
   1   2.0000     -88.966333     -2420.8970
   2   2.0000     -10.328400      -281.0500
   3   2.0000     -10.321584      -280.8646
   4   2.0000     -10.321043      -280.8498
   5   2.0000     -10.316737      -280.7327
   6   2.0000     -10.300139      -280.2810
   7   2.0000     -10.297862      -280.2191
   8   2.0000     -10.296563      -280.1837
   9   2.0000     -10.295804      -280.1631
  10   2.0000     -10.291030      -280.0332
  11   2.0000     -10.285724      -279.8888
  12   2.0000     -10.284942      -279.8675
  13   2.0000     -10.284496      -279.8554
  14   2.0000     -10.284023      -279.8425
  15   2.0000     -10.276863      -279.6476
  16   2.0000      -8.084508      -219.9907
  17   2.0000      -8.081457      -219.9076
  18   2.0000      -6.043070      -164.4403
  19   2.0000      -6.039849      -164.3527
  20   2.0000      -6.039065      -164.3313
  21   2.0000      -6.035808      -164.2427
  22   2.0000      -6.035233      -164.2270
  23   2.0000      -6.032425      -164.1506
  24   2.0000      -1.007463       -27.4145
  25   2.0000      -0.983743       -26.7690
  26   2.0000      -0.916267       -24.9329
  27   2.0000      -0.909991       -24.7621
  28   2.0000      -0.870299       -23.6820
  29   2.0000      -0.850243       -23.1363
  30   2.0000      -0.844449       -22.9786
  31   2.0000      -0.809956       -22.0400
  32   2.0000      -0.788148       -21.4466
  33   2.0000      -0.775155       -21.0930
  34   2.0000      -0.704138       -19.1606
  35   2.0000      -0.700126       -19.0514
  36   2.0000      -0.688040       -18.7225
  37   2.0000      -0.663918       -18.0661
  38   2.0000      -0.639766       -17.4089
  39   2.0000      -0.616831       -16.7848
  40   2.0000      -0.588999       -16.0275
  41   2.0000      -0.574433       -15.6311
  42   2.0000      -0.561324       -15.2744
  43   2.0000      -0.550734       -14.9862
  44   2.0000      -0.542383       -14.7590
  45   2.0000      -0.533027       -14.5044
  46   2.0000      -0.520996       -14.1770
  47   2.0000      -0.513942       -13.9851
  48   2.0000      -0.503370       -13.6974
  49   2.0000      -0.495550       -13.4846
  50   2.0000      -0.488551       -13.2941
  51   2.0000      -0.482983       -13.1426
  52   2.0000      -0.475341       -12.9347
  53   2.0000      -0.470421       -12.8008
  54   2.0000      -0.463823       -12.6213
  55   2.0000      -0.449140       -12.2217
  56   2.0000      -0.445742       -12.1293
  57   2.0000      -0.438523       -11.9328
  58   2.0000      -0.433161       -11.7869
  59   2.0000      -0.419955       -11.4276
  60   2.0000      -0.414859       -11.2889
  61   2.0000      -0.406950       -11.0737
  62   2.0000      -0.404481       -11.0065
  63   2.0000      -0.336595        -9.1592
  64   2.0000      -0.335133        -9.1194
  65   2.0000      -0.330961        -9.0059
  66   2.0000      -0.294767        -8.0210
  67   0.0000       0.036163         0.9840
  68   0.0000       0.058761         1.5990
  69   0.0000       0.112889         3.0719
  70   0.0000       0.120648         3.2830
  71   0.0000       0.127091         3.4583

MULLIKEN ATOMIC CHARGES
-----------------------
   0 S :    0.123276
   1 C :   -0.133516
   2 C :   -0.055398
   3 C :    0.012450
   4 C :   -0.150351
   5 H :    0.014006
   6 C :    0.018230
   7 H :    0.047048
   8 H :   -0.001310
   9 C :   -0.066078
  10 H :    0.029414
  11 H :    0.021501
  12 C :   -0.016616
  13 H :    0.032604
  14 H :    0.031559
  15 H :    0.029958
  16 S :    0.124082
  17 C :   -0.125504
  18 C :   -0.012212
  19 C :   -0.045213
  20 C :   -0.180759
  21 H :   -0.003392
  22 C :    0.073486
  23 H :    0.035740
  24 H :    0.042034
  25 C :   -0.063690
  26 H :    0.023444
  27 H :    0.014060
  28 C :   -0.072605
  29 H :    0.047261
  30 H :    0.041201
  31 H :    0.030591
  32 H :    0.053162
  33 H :    0.081536
Sum of atomic charges:    0.0000000

LOEWDIN ATOMIC CHARGES
----------------------
   0 S :    0.407360
   1 C :   -0.192140
   2 C :   -0.063418
   3 C :   -0.058471
   4 C :   -0.201028
   5 H :    0.030503
   6 C :   -0.036470
   7 H :    0.035856
   8 H :    0.024876
   9 C :   -0.042088
  10 H :    0.028302
  11 H :    0.025402
  12 C :   -0.066839
  13 H :    0.030248
  14 H :    0.026064
  15 H :    0.025083
  16 S :    0.423719
  17 C :   -0.207774
  18 C :   -0.073485
  19 C :   -0.053815
  20 C :   -0.208149
  21 H :    0.018671
  22 C :   -0.025880
  23 H :    0.033595
  24 H :    0.037468
  25 C :   -0.048249
  26 H :    0.023750
  27 H :    0.019152
  28 C :   -0.071564
  29 H :    0.036834
  30 H :    0.023684
  31 H :    0.024164
  32 H :    0.030662
  33 H :    0.043975

  Mayer bond orders larger than 0.100000
B(  0-S ,  1-C ) :   1.1254 B(  0-S ,  4-C ) :   1.1615 B(  1-C ,  2-C ) :   1.6230
B(  1-C , 32-H ) :   0.9674 B(  2-C ,  3-C ) :   1.2243 B(  2-C ,  6-C ) :   1.0279
B(  3-C ,  4-C ) :   1.5562 B(  3-C ,  5-H ) :   0.9879 B(  4-C , 20-C ) :   1.0344
B(  6-C ,  7-H ) :   0.9443 B(  6-C ,  8-H ) :   0.9318 B(  6-C ,  9-C ) :   1.0811
B(  9-C , 10-H ) :   0.9509 B(  9-C , 11-H ) :   0.9540 B(  9-C , 12-C ) :   1.0834
B( 12-C , 13-H ) :   0.9644 B( 12-C , 14-H ) :   0.9711 B( 12-C , 15-H ) :   0.9641
B( 16-S , 17-C ) :   1.1870 B( 16-S , 20-C ) :   1.1388 B( 17-C , 18-C ) :   1.5647
B( 17-C , 20-C ) :   0.1070 B( 17-C , 33-H ) :   0.9600 B( 18-C , 19-C ) :   1.2869
B( 18-C , 21-H ) :   0.9872 B( 19-C , 20-C ) :   1.5995 B( 19-C , 22-C ) :   1.0151
B( 22-C , 23-H ) :   0.9429 B( 22-C , 24-H ) :   0.9265 B( 22-C , 25-C ) :   1.0894
B( 25-C , 26-H ) :   0.9500 B( 25-C , 27-H ) :   0.9432 B( 25-C , 28-C ) :   1.0835
B( 28-C , 29-H ) :   0.9698 B( 28-C , 30-H ) :   0.9687 B( 28-C , 31-H ) :   0.9710

Dispersion correction           -0.015759247
FINAL SINGLE POINT ENERGY     -1339.871987353539

DIPOLE MOMENT
-------------
                                X             Y             Z
Electronic contribution:     27.82021       6.84590      -5.22949
Nuclear contribution   :    -28.49927      -7.10569       5.51483
                        -----------------------------------------
Total Dipole Moment    :     -0.67906      -0.25979       0.28533
                        -----------------------------------------
Magnitude (a.u.)       :      0.78104
Magnitude (Debye)      :      1.98526

Rotational constants in cm-1:     0.017653     0.010210     0.007643
Rotational constants in MHz :   529.212842   306.079538   229.126217

                             ****ORCA TERMINATED NORMALLY****
TOTAL RUN TIME: 0 days 0 hours 0 minutes 34 seconds 868 msec
