                         Program Version 4.2.1 -  RELEASE  -
|  1> ! wB97X-D3 SP def2-SVP
|  2> %pal
|  3> nprocs 16
|  4> end
|  5>
|  6> * xyz 0 1
|  7> S 	 51.8862 	 23.568 	 89.5271
|  8> C 	 50.4529 	 24.0718 	 90.3548
|  9> C 	 49.4237 	 23.1479 	 90.1274
| 10> C 	 49.8477 	 21.9595 	 89.4062
| 11> C 	 51.1367 	 22.0751 	 88.9478
| 12> H 	 49.2697 	 21.0354 	 89.3646
| 13> C 	 48.053 	 23.3494 	 90.6104
| 14> H 	 47.9963 	 24.2932 	 91.2315
| 15> H 	 47.8375 	 22.4936 	 91.2615
| 16> C 	 47.0322 	 23.4996 	 89.4487
| 17> H 	 47.3062 	 24.4352 	 88.9435
| 18> H 	 46.9434 	 22.6056 	 88.7935
| 19> C 	 45.5552 	 23.6817 	 89.8845
| 20> H 	 44.9805 	 23.5655 	 88.9506
| 21> H 	 45.2479 	 22.9008 	 90.5967
| 22> H 	 45.3237 	 24.6796 	 90.3488
| 23> S 	 53.5622 	 21.3506 	 87.9353
| 24> C 	 53.7734 	 20.2069 	 86.6485
| 25> C 	 52.5038 	 19.5505 	 86.4661
| 26> C 	 51.4559 	 20.0448 	 87.2766
| 27> C 	 51.8494 	 21.1578 	 88.0177
| 28> H 	 52.4285 	 18.7354 	 85.8389
| 29> C 	 50.0962 	 19.4188 	 87.2095
| 30> H 	 49.8889 	 19.2047 	 86.1284
| 31> H 	 49.4018 	 20.1914 	 87.5082
| 32> C 	 49.9252 	 18.0813 	 87.938
| 33> H 	 50.4637 	 18.0554 	 88.9115
| 34> H 	 50.6082 	 17.3772 	 87.3989
| 35> C 	 48.5263 	 17.5039 	 87.9299
| 36> H 	 48.3102 	 17.3814 	 86.8887
| 37> H 	 47.774 	 17.8561 	 88.6237
| 38> H 	 48.5208 	 16.3939 	 88.1574
| 39> H 	 50.3417 	 25.0816 	 90.8216
| 40> H 	 54.6781 	 19.9094 	 86.2721
| 41> *
| 42>
| 43>                          ****END OF INPUT****

CARTESIAN COORDINATES (ANGSTROEM)
---------------------------------
  S     51.886200   23.568000   89.527100
  C     50.452900   24.071800   90.354800
  C     49.423700   23.147900   90.127400
  C     49.847700   21.959500   89.406200
  C     51.136700   22.075100   88.947800
  H     49.269700   21.035400   89.364600
  C     48.053000   23.349400   90.610400
  H     47.996300   24.293200   91.231500
  H     47.837500   22.493600   91.261500
  C     47.032200   23.499600   89.448700
  H     47.306200   24.435200   88.943500
  H     46.943400   22.605600   88.793500
  C     45.555200   23.681700   89.884500
  H     44.980500   23.565500   88.950600
  H     45.247900   22.900800   90.596700
  H     45.323700   24.679600   90.348800
  S     53.562200   21.350600   87.935300
  C     53.773400   20.206900   86.648500
  C     52.503800   19.550500   86.466100
  C     51.455900   20.044800   87.276600
  C     51.849400   21.157800   88.017700
  H     52.428500   18.735400   85.838900
  C     50.096200   19.418800   87.209500
  H     49.888900   19.204700   86.128400
  H     49.401800   20.191400   87.508200
  C     49.925200   18.081300   87.938000
  H     50.463700   18.055400   88.911500
  H     50.608200   17.377200   87.398900
  C     48.526300   17.503900   87.929900
  H     48.310200   17.381400   86.888700
  H     47.774000   17.856100   88.623700
  H     48.520800   16.393900   88.157400
  H     50.341700   25.081600   90.821600
  H     54.678100   19.909400   86.272100

 Total Charge           Charge          ....    0
 Multiplicity           Mult            ....    1
 Number of Electrons    NEL             ....  134
 Basis Dimension        Dim             ....  322

ORBITAL ENERGIES
----------------

  NO   OCC          E(Eh)            E(eV)
   0   2.0000     -88.966298     -2420.8960
   1   2.0000     -88.965062     -2420.8624
   2   2.0000     -10.336300      -281.2650
   3   2.0000     -10.330768      -281.1145
   4   2.0000     -10.317287      -280.7476
   5   2.0000     -10.316324      -280.7215
   6   2.0000     -10.302918      -280.3567
   7   2.0000     -10.301343      -280.3138
   8   2.0000     -10.296455      -280.1808
   9   2.0000     -10.293932      -280.1121
  10   2.0000     -10.293566      -280.1022
  11   2.0000     -10.293406      -280.0978
  12   2.0000     -10.293234      -280.0931
  13   2.0000     -10.291975      -280.0589
  14   2.0000     -10.284011      -279.8422
  15   2.0000     -10.283318      -279.8233
  16   2.0000      -8.081536      -219.9098
  17   2.0000      -8.079794      -219.8624
  18   2.0000      -6.039916      -164.3545
  19   2.0000      -6.038418      -164.3137
  20   2.0000      -6.035841      -164.2436
  21   2.0000      -6.034279      -164.2011
  22   2.0000      -6.032553      -164.1541
  23   2.0000      -6.030449      -164.0969
  24   2.0000      -1.008208       -27.4347
  25   2.0000      -0.984989       -26.8029
  26   2.0000      -0.914553       -24.8863
  27   2.0000      -0.909739       -24.7553
  28   2.0000      -0.866323       -23.5739
  29   2.0000      -0.858695       -23.3663
  30   2.0000      -0.846490       -23.0342
  31   2.0000      -0.816652       -22.2222
  32   2.0000      -0.783668       -21.3247
  33   2.0000      -0.766853       -20.8671
  34   2.0000      -0.705774       -19.2051
  35   2.0000      -0.699226       -19.0269
  36   2.0000      -0.690899       -18.8003
  37   2.0000      -0.669262       -18.2115
  38   2.0000      -0.638606       -17.3774
  39   2.0000      -0.623941       -16.9783
  40   2.0000      -0.598013       -16.2728
  41   2.0000      -0.572166       -15.5694
  42   2.0000      -0.567650       -15.4465
  43   2.0000      -0.560678       -15.2568
  44   2.0000      -0.529878       -14.4187
  45   2.0000      -0.527429       -14.3521
  46   2.0000      -0.518427       -14.1071
  47   2.0000      -0.513771       -13.9804
  48   2.0000      -0.511554       -13.9201
  49   2.0000      -0.502502       -13.6738
  50   2.0000      -0.497969       -13.5504
  51   2.0000      -0.484242       -13.1769
  52   2.0000      -0.475367       -12.9354
  53   2.0000      -0.462219       -12.5776
  54   2.0000      -0.457487       -12.4489
  55   2.0000      -0.450445       -12.2572
  56   2.0000      -0.443725       -12.0744
  57   2.0000      -0.430363       -11.7108
  58   2.0000      -0.428819       -11.6688
  59   2.0000      -0.423648       -11.5281
  60   2.0000      -0.422358       -11.4929
  61   2.0000      -0.413676       -11.2567
  62   2.0000      -0.408050       -11.1036
  63   2.0000      -0.359816        -9.7911
  64   2.0000      -0.331610        -9.0236
  65   2.0000      -0.324284        -8.8242
  66   2.0000      -0.282112        -7.6766
  67   0.0000       0.018196         0.4951
  68   0.0000       0.086685         2.3588
  69   0.0000       0.099096         2.6965
  70   0.0000       0.115388         3.1399
  71   0.0000       0.129870         3.5339

MULLIKEN ATOMIC CHARGES
-----------------------
   0 S :    0.097891
   1 C :   -0.129721
   2 C :   -0.093285
   3 C :   -0.029972
   4 C :   -0.080970
   5 H :    0.033236
   6 C :    0.052491
   7 H :    0.024772
   8 H :    0.032114
   9 C :   -0.106480
  10 H :    0.039865
  11 H :    0.041504
  12 C :   -0.067907
  13 H :    0.040345
  14 H :    0.031314
  15 H :    0.038644
  16 S :    0.097989
  17 C :   -0.053514
  18 C :   -0.019318
  19 C :   -0.057790
  20 C :   -0.116288
  21 H :   -0.012156
  22 C :    0.051363
  23 H :    0.028254
  24 H :    0.016218
  25 C :   -0.086059
  26 H :    0.033271
  27 H :    0.018427
  28 C :   -0.020947
  29 H :    0.020717
  30 H :    0.048771
  31 H :    0.024896
  32 H :    0.071687
  33 H :    0.030640
Sum of atomic charges:   -0.0000000

LOEWDIN ATOMIC CHARGES
----------------------
   0 S :    0.397766
   1 C :   -0.217553
   2 C :   -0.061555
   3 C :   -0.073122
   4 C :   -0.174959
   5 H :    0.035388
   6 C :   -0.041327
   7 H :    0.035483
   8 H :    0.031525
   9 C :   -0.042584
  10 H :    0.030033
  11 H :    0.028285
  12 C :   -0.073392
  13 H :    0.029540
  14 H :    0.022791
  15 H :    0.025662
  16 S :    0.430243
  17 C :   -0.180083
  18 C :   -0.054575
  19 C :   -0.061812
  20 C :   -0.198014
  21 H :    0.014739
  22 C :   -0.036158
  23 H :    0.035948
  24 H :    0.023887
  25 C :   -0.051091
  26 H :    0.026058
  27 H :    0.029123
  28 C :   -0.075018
  29 H :    0.027987
  30 H :    0.027384
  31 H :    0.037483
  32 H :    0.040807
  33 H :    0.011109

  Mayer bond orders larger than 0.100000
B(  0-S ,  1-C ) :   1.1233 B(  0-S ,  4-C ) :   1.1491 B(  1-C ,  2-C ) :   1.6135
B(  1-C , 32-H ) :   0.9618 B(  2-C ,  3-C ) :   1.2224 B(  2-C ,  6-C ) :   1.0533
B(  3-C ,  4-C ) :   1.5885 B(  3-C ,  5-H ) :   0.9808 B(  4-C , 20-C ) :   1.0552
B(  6-C ,  7-H ) :   0.9430 B(  6-C ,  8-H ) :   0.9309 B(  6-C ,  9-C ) :   1.0597
B(  9-C , 10-H ) :   0.9559 B(  9-C , 11-H ) :   0.9601 B(  9-C , 12-C ) :   1.0787
B( 12-C , 13-H ) :   0.9774 B( 12-C , 14-H ) :   0.9745 B( 12-C , 15-H ) :   0.9757
B( 16-S , 17-C ) :   1.1782 B( 16-S , 20-C ) :   1.1670 B( 17-C , 18-C ) :   1.5274
B( 17-C , 20-C ) :   0.1120 B( 17-C , 33-H ) :   0.9854 B( 18-C , 19-C ) :   1.3020
B( 18-C , 21-H ) :   0.9994 B( 19-C , 20-C ) :   1.5337 B( 19-C , 22-C ) :   1.0450
B( 22-C , 23-H ) :   0.9294 B( 22-C , 24-H ) :   0.9356 B( 22-C , 25-C ) :   1.0517
B( 25-C , 26-H ) :   0.9559 B( 25-C , 27-H ) :   0.9472 B( 25-C , 28-C ) :   1.0844
B( 28-C , 29-H ) :   0.9650 B( 28-C , 30-H ) :   0.9776 B( 28-C , 31-H ) :   0.9662

Dispersion correction           -0.013603966
FINAL SINGLE POINT ENERGY     -1339.869464490978

DIPOLE MOMENT
-------------
                                X             Y             Z
Electronic contribution:     30.74689      10.52042      -0.66582
Nuclear contribution   :    -31.33988     -10.96982       0.61455
                        -----------------------------------------
Total Dipole Moment    :     -0.59299      -0.44941      -0.05127
                        -----------------------------------------
Magnitude (a.u.)       :      0.74581
Magnitude (Debye)      :      1.89570

Rotational constants in cm-1:     0.016604     0.009311     0.006283
Rotational constants in MHz :   497.785862   279.148185   188.355270

                             ****ORCA TERMINATED NORMALLY****
TOTAL RUN TIME: 0 days 0 hours 0 minutes 27 seconds 924 msec
