                         Program Version 4.2.1 -  RELEASE  -
|  1> ! wB97X-D3 SP def2-SVP
|  2> %pal
|  3> nprocs 16
|  4> end
|  5>
|  6> * xyz 0 1
|  7> S 	 -1.2916 	 2.38738 	 80.9265
|  8> C 	 -1.88199 	 1.02827 	 81.7515
|  9> C 	 -1.44554 	 0.98224 	 83.0863
| 10> C 	 -0.769054 	 2.15423 	 83.4104
| 11> C 	 -0.563896 	 3.00283 	 82.3242
| 12> H 	 -0.353484 	 2.38458 	 84.389
| 13> C 	 -1.68363 	 -0.126077 	 84.0657
| 14> H 	 -2.40951 	 -0.875787 	 83.6704
| 15> H 	 -2.35051 	 0.243535 	 84.8674
| 16> C 	 -0.500434 	 -0.91378 	 84.698
| 17> H 	 -0.175708 	 -1.60877 	 83.8989
| 18> H 	 0.28395 	 -0.173586 	 84.9521
| 19> C 	 -0.945365 	 -1.66678 	 85.9289
| 20> H 	 -0.131047 	 -2.09481 	 86.4795
| 21> H 	 -1.2984 	 -0.817275 	 86.5128
| 22> H 	 -1.71887 	 -2.38218 	 85.5937
| 23> S 	 1.18778 	 4.38885 	 80.869
| 24> C 	 2.05553 	 5.75985 	 81.4582
| 25> C 	 1.76597 	 5.98267 	 82.7378
| 26> C 	 0.820957 	 5.0082 	 83.2429
| 27> C 	 0.341665 	 4.14466 	 82.2977
| 28> H 	 2.23431 	 6.76035 	 83.2187
| 29> C 	 0.308428 	 5.08665 	 84.6248
| 30> H 	 -0.646743 	 4.62264 	 84.5763
| 31> H 	 0.166934 	 6.12862 	 84.8213
| 32> C 	 1.27861 	 4.50166 	 85.6281
| 33> H 	 1.32902 	 3.43638 	 85.5034
| 34> H 	 0.83964 	 4.60767 	 86.5947
| 35> C 	 2.63921 	 5.19911 	 85.7773
| 36> H 	 3.36789 	 4.92161 	 85.0177
| 37> H 	 2.97694 	 4.92562 	 86.7464
| 38> H 	 2.49563 	 6.30083 	 85.749
| 39> H 	 -2.45473 	 0.255556 	 81.3029
| 40> H 	 2.62598 	 6.47794 	 80.8932
| 41> *
| 42>
| 43>                          ****END OF INPUT****

CARTESIAN COORDINATES (ANGSTROEM)
---------------------------------
  S     -1.291600    2.387380   80.926500
  C     -1.881990    1.028270   81.751500
  C     -1.445540    0.982240   83.086300
  C     -0.769054    2.154230   83.410400
  C     -0.563896    3.002830   82.324200
  H     -0.353484    2.384580   84.389000
  C     -1.683630   -0.126077   84.065700
  H     -2.409510   -0.875787   83.670400
  H     -2.350510    0.243535   84.867400
  C     -0.500434   -0.913780   84.698000
  H     -0.175708   -1.608770   83.898900
  H      0.283950   -0.173586   84.952100
  C     -0.945365   -1.666780   85.928900
  H     -0.131047   -2.094810   86.479500
  H     -1.298400   -0.817275   86.512800
  H     -1.718870   -2.382180   85.593700
  S      1.187780    4.388850   80.869000
  C      2.055530    5.759850   81.458200
  C      1.765970    5.982670   82.737800
  C      0.820957    5.008200   83.242900
  C      0.341665    4.144660   82.297700
  H      2.234310    6.760350   83.218700
  C      0.308428    5.086650   84.624800
  H     -0.646743    4.622640   84.576300
  H      0.166934    6.128620   84.821300
  C      1.278610    4.501660   85.628100
  H      1.329020    3.436380   85.503400
  H      0.839640    4.607670   86.594700
  C      2.639210    5.199110   85.777300
  H      3.367890    4.921610   85.017700
  H      2.976940    4.925620   86.746400
  H      2.495630    6.300830   85.749000
  H     -2.454730    0.255556   81.302900
  H      2.625980    6.477940   80.893200

 Total Charge           Charge          ....    0
 Multiplicity           Mult            ....    1
 Number of Electrons    NEL             ....  134
 Basis Dimension        Dim             ....  322

ORBITAL ENERGIES
----------------

  NO   OCC          E(Eh)            E(eV)
   0   2.0000     -88.971911     -2421.0488
   1   2.0000     -88.955927     -2420.6138
   2   2.0000     -10.326818      -281.0070
   3   2.0000     -10.317035      -280.7408
   4   2.0000     -10.310169      -280.5540
   5   2.0000     -10.305024      -280.4140
   6   2.0000     -10.300712      -280.2966
   7   2.0000     -10.294431      -280.1257
   8   2.0000     -10.291245      -280.0390
   9   2.0000     -10.291042      -280.0335
  10   2.0000     -10.290412      -280.0164
  11   2.0000     -10.280882      -279.7570
  12   2.0000     -10.280033      -279.7339
  13   2.0000     -10.279948      -279.7316
  14   2.0000     -10.278368      -279.6886
  15   2.0000     -10.276031      -279.6250
  16   2.0000      -8.088291      -220.0936
  17   2.0000      -8.073029      -219.6783
  18   2.0000      -6.046471      -164.5328
  19   2.0000      -6.042459      -164.4237
  20   2.0000      -6.039416      -164.3409
  21   2.0000      -6.031578      -164.1276
  22   2.0000      -6.027123      -164.0063
  23   2.0000      -6.023676      -163.9126
  24   2.0000      -1.023858       -27.8606
  25   2.0000      -0.999256       -27.1911
  26   2.0000      -0.918300       -24.9882
  27   2.0000      -0.915656       -24.9163
  28   2.0000      -0.880216       -23.9519
  29   2.0000      -0.861532       -23.4435
  30   2.0000      -0.847051       -23.0494
  31   2.0000      -0.822657       -22.3856
  32   2.0000      -0.783656       -21.3244
  33   2.0000      -0.773988       -21.0613
  34   2.0000      -0.710002       -19.3201
  35   2.0000      -0.697863       -18.9898
  36   2.0000      -0.692615       -18.8470
  37   2.0000      -0.670852       -18.2548
  38   2.0000      -0.641779       -17.4637
  39   2.0000      -0.630801       -17.1650
  40   2.0000      -0.591612       -16.0986
  41   2.0000      -0.578848       -15.7512
  42   2.0000      -0.572462       -15.5775
  43   2.0000      -0.559175       -15.2159
  44   2.0000      -0.552445       -15.0328
  45   2.0000      -0.534024       -14.5315
  46   2.0000      -0.519123       -14.1261
  47   2.0000      -0.511637       -13.9224
  48   2.0000      -0.507361       -13.8060
  49   2.0000      -0.501259       -13.6400
  50   2.0000      -0.495592       -13.4857
  51   2.0000      -0.479889       -13.0584
  52   2.0000      -0.476996       -12.9797
  53   2.0000      -0.468605       -12.7514
  54   2.0000      -0.464089       -12.6285
  55   2.0000      -0.456179       -12.4133
  56   2.0000      -0.443732       -12.0746
  57   2.0000      -0.439932       -11.9712
  58   2.0000      -0.433578       -11.7983
  59   2.0000      -0.425172       -11.5695
  60   2.0000      -0.423791       -11.5319
  61   2.0000      -0.417999       -11.3743
  62   2.0000      -0.404579       -11.0092
  63   2.0000      -0.362363        -9.8604
  64   2.0000      -0.336984        -9.1698
  65   2.0000      -0.323126        -8.7927
  66   2.0000      -0.285330        -7.7642
  67   0.0000       0.030124         0.8197
  68   0.0000       0.088883         2.4186
  69   0.0000       0.118935         3.2364
  70   0.0000       0.120281         3.2730
  71   0.0000       0.134910         3.6711

MULLIKEN ATOMIC CHARGES
-----------------------
   0 S :    0.139609
   1 C :   -0.105765
   2 C :   -0.045333
   3 C :    0.003059
   4 C :   -0.129754
   5 H :   -0.004096
   6 C :    0.003961
   7 H :    0.008592
   8 H :    0.026409
   9 C :   -0.082009
  10 H :    0.038799
  11 H :    0.033190
  12 C :   -0.032139
  13 H :    0.039387
  14 H :    0.026881
  15 H :    0.045117
  16 S :    0.080032
  17 C :   -0.064326
  18 C :   -0.005621
  19 C :   -0.099651
  20 C :   -0.089976
  21 H :   -0.020220
  22 C :    0.084695
  23 H :    0.012454
  24 H :    0.011940
  25 C :   -0.055927
  26 H :    0.020735
  27 H :    0.014546
  28 C :   -0.035279
  29 H :    0.049029
  30 H :    0.026191
  31 H :    0.028140
  32 H :    0.031966
  33 H :    0.045364
Sum of atomic charges:    0.0000000

LOEWDIN ATOMIC CHARGES
----------------------
   0 S :    0.466721
   1 C :   -0.210574
   2 C :   -0.062888
   3 C :   -0.063171
   4 C :   -0.213054
   5 H :    0.028389
   6 C :   -0.047599
   7 H :    0.030044
   8 H :    0.031406
   9 C :   -0.040401
  10 H :    0.025372
  11 H :    0.023376
  12 C :   -0.062530
  13 H :    0.025428
  14 H :    0.027999
  15 H :    0.031757
  16 S :    0.424598
  17 C :   -0.187739
  18 C :   -0.061722
  19 C :   -0.063599
  20 C :   -0.214242
  21 H :    0.018736
  22 C :   -0.032617
  23 H :    0.026358
  24 H :    0.027197
  25 C :   -0.036692
  26 H :    0.017780
  27 H :    0.020681
  28 C :   -0.057946
  29 H :    0.026545
  30 H :    0.023710
  31 H :    0.027016
  32 H :    0.020917
  33 H :    0.030744

  Mayer bond orders larger than 0.100000
B(  0-S ,  1-C ) :   1.1709 B(  0-S ,  4-C ) :   1.1895 B(  1-C ,  2-C ) :   1.5451
B(  1-C ,  4-C ) :   0.1021 B(  1-C , 32-H ) :   0.9723 B(  2-C ,  3-C ) :   1.3135
B(  2-C ,  6-C ) :   1.0300 B(  3-C ,  4-C ) :   1.4960 B(  3-C ,  5-H ) :   0.9907
B(  4-C , 20-C ) :   1.0384 B(  6-C ,  7-H ) :   0.9345 B(  6-C ,  8-H ) :   0.9401
B(  6-C ,  9-C ) :   1.0464 B(  9-C , 10-H ) :   0.9546 B(  9-C , 11-H ) :   0.9603
B(  9-C , 12-C ) :   1.0715 B( 12-C , 13-H ) :   0.9723 B( 12-C , 14-H ) :   0.9762
B( 12-C , 15-H ) :   0.9745 B( 16-S , 17-C ) :   1.1454 B( 16-S , 20-C ) :   1.1402
B( 17-C , 18-C ) :   1.6372 B( 17-C , 33-H ) :   0.9636 B( 18-C , 19-C ) :   1.2108
B( 18-C , 21-H ) :   1.0090 B( 19-C , 20-C ) :   1.6148 B( 19-C , 22-C ) :   1.0447
B( 22-C , 23-H ) :   0.9309 B( 22-C , 24-H ) :   0.9313 B( 22-C , 25-C ) :   1.0855
B( 25-C , 26-H ) :   0.9443 B( 25-C , 27-H ) :   0.9540 B( 25-C , 28-C ) :   1.0825
B( 28-C , 29-H ) :   0.9712 B( 28-C , 30-H ) :   0.9720 B( 28-C , 31-H ) :   0.9715

Dispersion correction           -0.014271991
FINAL SINGLE POINT ENERGY     -1339.875332319136

DIPOLE MOMENT
-------------
                                X             Y             Z
Electronic contribution:     -3.18957       9.56476     -28.05247
Nuclear contribution   :      3.24190      -9.67303      28.68863
                        -----------------------------------------
Total Dipole Moment    :      0.05233      -0.10828       0.63616
                        -----------------------------------------
Magnitude (a.u.)       :      0.64742
Magnitude (Debye)      :      1.64562

Rotational constants in cm-1:     0.018494     0.009293     0.006662
Rotational constants in MHz :   554.424248   278.604438   199.731257

                             ****ORCA TERMINATED NORMALLY****
TOTAL RUN TIME: 0 days 0 hours 0 minutes 36 seconds 65 msec
