                         Program Version 4.2.1 -  RELEASE  -
|  1> ! wB97X-D3 SP def2-SVP
|  2> %pal
|  3> nprocs 16
|  4> end
|  5>
|  6> * xyz 0 1
|  7> S 	 8.68835 	 -25.6122 	 84.7397
|  8> C 	 7.60604 	 -26.055 	 86.0373
|  9> C 	 6.24745 	 -25.9163 	 85.6752
| 10> C 	 6.10025 	 -25.43 	 84.3239
| 11> C 	 7.34538 	 -25.3144 	 83.674
| 12> H 	 5.1161 	 -25.3254 	 83.8503
| 13> C 	 5.07136 	 -26.0935 	 86.5198
| 14> H 	 5.51155 	 -26.5967 	 87.4239
| 15> H 	 4.27757 	 -26.7979 	 86.1403
| 16> C 	 4.45575 	 -24.8231 	 86.9093
| 17> H 	 5.23212 	 -24.1178 	 87.2183
| 18> H 	 4.0391 	 -24.278 	 86.1058
| 19> C 	 3.4725 	 -25.1271 	 88.0168
| 20> H 	 2.82018 	 -24.2428 	 88.0182
| 21> H 	 2.85104 	 -26.017 	 87.6704
| 22> H 	 3.97804 	 -25.3505 	 88.9984
| 23> S 	 7.40638 	 -26.6336 	 81.3473
| 24> C 	 7.88555 	 -25.8234 	 79.8935
| 25> C 	 8.09753 	 -24.4478 	 80.1092
| 26> C 	 7.91736 	 -24.077 	 81.4763
| 27> C 	 7.63824 	 -25.1585 	 82.252
| 28> H 	 8.33767 	 -23.714 	 79.3355
| 29> C 	 8.28513 	 -22.7098 	 82.0517
| 30> H 	 9.08373 	 -22.192 	 81.493
| 31> H 	 8.86762 	 -22.7922 	 82.932
| 32> C 	 7.12978 	 -21.8286 	 82.2308
| 33> H 	 7.42995 	 -20.908 	 82.6821
| 34> H 	 6.42589 	 -22.3203 	 82.9128
| 35> C 	 6.27841 	 -21.5386 	 80.9658
| 36> H 	 5.67504 	 -22.4512 	 80.8694
| 37> H 	 6.81315 	 -21.36 	 80.043
| 38> H 	 5.61956 	 -20.681 	 81.103
| 39> H 	 7.8934 	 -26.2729 	 87.0184
| 40> H 	 7.99373 	 -26.1899 	 78.8395
| 41> *
| 42>
| 43>                          ****END OF INPUT****

CARTESIAN COORDINATES (ANGSTROEM)
---------------------------------
  S      8.688350  -25.612200   84.739700
  C      7.606040  -26.055000   86.037300
  C      6.247450  -25.916300   85.675200
  C      6.100250  -25.430000   84.323900
  C      7.345380  -25.314400   83.674000
  H      5.116100  -25.325400   83.850300
  C      5.071360  -26.093500   86.519800
  H      5.511550  -26.596700   87.423900
  H      4.277570  -26.797900   86.140300
  C      4.455750  -24.823100   86.909300
  H      5.232120  -24.117800   87.218300
  H      4.039100  -24.278000   86.105800
  C      3.472500  -25.127100   88.016800
  H      2.820180  -24.242800   88.018200
  H      2.851040  -26.017000   87.670400
  H      3.978040  -25.350500   88.998400
  S      7.406380  -26.633600   81.347300
  C      7.885550  -25.823400   79.893500
  C      8.097530  -24.447800   80.109200
  C      7.917360  -24.077000   81.476300
  C      7.638240  -25.158500   82.252000
  H      8.337670  -23.714000   79.335500
  C      8.285130  -22.709800   82.051700
  H      9.083730  -22.192000   81.493000
  H      8.867620  -22.792200   82.932000
  C      7.129780  -21.828600   82.230800
  H      7.429950  -20.908000   82.682100
  H      6.425890  -22.320300   82.912800
  C      6.278410  -21.538600   80.965800
  H      5.675040  -22.451200   80.869400
  H      6.813150  -21.360000   80.043000
  H      5.619560  -20.681000   81.103000
  H      7.893400  -26.272900   87.018400
  H      7.993730  -26.189900   78.839500

 Total Charge           Charge          ....    0
 Multiplicity           Mult            ....    1
 Number of Electrons    NEL             ....  134
 Basis Dimension        Dim             ....  322

ORBITAL ENERGIES
----------------

  NO   OCC          E(Eh)            E(eV)
   0   2.0000     -88.968629     -2420.9595
   1   2.0000     -88.967896     -2420.9395
   2   2.0000     -10.330167      -281.0981
   3   2.0000     -10.319936      -280.8197
   4   2.0000     -10.319563      -280.8096
   5   2.0000     -10.311819      -280.5989
   6   2.0000     -10.299259      -280.2571
   7   2.0000     -10.298837      -280.2456
   8   2.0000     -10.298617      -280.2396
   9   2.0000     -10.294196      -280.1193
  10   2.0000     -10.288941      -279.9763
  11   2.0000     -10.286237      -279.9028
  12   2.0000     -10.283301      -279.8229
  13   2.0000     -10.275948      -279.6228
  14   2.0000     -10.275716      -279.6165
  15   2.0000     -10.272402      -279.5263
  16   2.0000      -8.083216      -219.9555
  17   2.0000      -8.082711      -219.9417
  18   2.0000      -6.041676      -164.4024
  19   2.0000      -6.041209      -164.3897
  20   2.0000      -6.037665      -164.2932
  21   2.0000      -6.037185      -164.2802
  22   2.0000      -6.034127      -164.1969
  23   2.0000      -6.033491      -164.1796
  24   2.0000      -1.007376       -27.4121
  25   2.0000      -0.982862       -26.7450
  26   2.0000      -0.929209       -25.2851
  27   2.0000      -0.914716       -24.8907
  28   2.0000      -0.866606       -23.5815
  29   2.0000      -0.849678       -23.1209
  30   2.0000      -0.845588       -23.0096
  31   2.0000      -0.808753       -22.0073
  32   2.0000      -0.786090       -21.3906
  33   2.0000      -0.768272       -20.9058
  34   2.0000      -0.707502       -19.2521
  35   2.0000      -0.697866       -18.9899
  36   2.0000      -0.684942       -18.6382
  37   2.0000      -0.662950       -18.0398
  38   2.0000      -0.642864       -17.4932
  39   2.0000      -0.620927       -16.8963
  40   2.0000      -0.602352       -16.3908
  41   2.0000      -0.578632       -15.7454
  42   2.0000      -0.561931       -15.2909
  43   2.0000      -0.549629       -14.9562
  44   2.0000      -0.543877       -14.7996
  45   2.0000      -0.529625       -14.4118
  46   2.0000      -0.518142       -14.0994
  47   2.0000      -0.508089       -13.8258
  48   2.0000      -0.500168       -13.6103
  49   2.0000      -0.491873       -13.3845
  50   2.0000      -0.484557       -13.1855
  51   2.0000      -0.478226       -13.0132
  52   2.0000      -0.472426       -12.8554
  53   2.0000      -0.466909       -12.7052
  54   2.0000      -0.458479       -12.4758
  55   2.0000      -0.448293       -12.1987
  56   2.0000      -0.447179       -12.1684
  57   2.0000      -0.439743       -11.9660
  58   2.0000      -0.435858       -11.8603
  59   2.0000      -0.420735       -11.4488
  60   2.0000      -0.415523       -11.3069
  61   2.0000      -0.411718       -11.2034
  62   2.0000      -0.405846       -11.0436
  63   2.0000      -0.337710        -9.1895
  64   2.0000      -0.328646        -8.9429
  65   2.0000      -0.318472        -8.6661
  66   2.0000      -0.308043        -8.3823
  67   0.0000       0.045791         1.2460
  68   0.0000       0.052307         1.4233
  69   0.0000       0.112667         3.0658
  70   0.0000       0.118066         3.2127
  71   0.0000       0.124010         3.3745

MULLIKEN ATOMIC CHARGES
-----------------------
   0 S :    0.126707
   1 C :   -0.086332
   2 C :   -0.109840
   3 C :    0.044300
   4 C :   -0.175434
   5 H :    0.025180
   6 C :    0.027789
   7 H :    0.016038
   8 H :    0.043503
   9 C :   -0.067968
  10 H :    0.024888
  11 H :    0.015705
  12 C :   -0.047169
  13 H :    0.034674
  14 H :    0.034019
  15 H :    0.054441
  16 S :    0.139402
  17 C :   -0.097394
  18 C :   -0.056289
  19 C :   -0.005113
  20 C :   -0.198410
  21 H :    0.022419
  22 C :    0.101565
  23 H :    0.012975
  24 H :    0.006632
  25 C :   -0.057466
  26 H :    0.017736
  27 H :    0.025660
  28 C :   -0.063741
  29 H :    0.041482
  30 H :    0.024510
  31 H :    0.033757
  32 H :    0.021619
  33 H :    0.070154
Sum of atomic charges:    0.0000000

LOEWDIN ATOMIC CHARGES
----------------------
   0 S :    0.423376
   1 C :   -0.199081
   2 C :   -0.059551
   3 C :   -0.060863
   4 C :   -0.202949
   5 H :    0.035496
   6 C :   -0.046307
   7 H :    0.034528
   8 H :    0.036518
   9 C :   -0.047156
  10 H :    0.028533
  11 H :    0.017652
  12 C :   -0.065279
  13 H :    0.027247
  14 H :    0.030952
  15 H :    0.033753
  16 S :    0.429163
  17 C :   -0.205949
  18 C :   -0.072138
  19 C :   -0.054321
  20 C :   -0.209466
  21 H :    0.031848
  22 C :   -0.032993
  23 H :    0.031976
  24 H :    0.026875
  25 C :   -0.038912
  26 H :    0.017533
  27 H :    0.026509
  28 C :   -0.067127
  29 H :    0.029674
  30 H :    0.017872
  31 H :    0.026634
  32 H :    0.013697
  33 H :    0.042257

  Mayer bond orders larger than 0.100000
B(  0-S ,  1-C ) :   1.1392 B(  0-S ,  4-C ) :   1.1792 B(  1-C ,  2-C ) :   1.5975
B(  1-C ,  4-C ) :   0.1006 B(  1-C , 32-H ) :   0.9708 B(  2-C ,  3-C ) :   1.2383
B(  2-C ,  6-C ) :   1.0433 B(  3-C ,  4-C ) :   1.5624 B(  3-C ,  5-H ) :   0.9922
B(  4-C , 20-C ) :   0.9820 B(  6-C ,  7-H ) :   0.9382 B(  6-C ,  8-H ) :   0.9277
B(  6-C ,  9-C ) :   1.0687 B(  9-C , 10-H ) :   0.9445 B(  9-C , 11-H ) :   0.9500
B(  9-C , 12-C ) :   1.0797 B( 12-C , 13-H ) :   0.9730 B( 12-C , 14-H ) :   0.9682
B( 12-C , 15-H ) :   0.9751 B( 16-S , 17-C ) :   1.1562 B( 16-S , 20-C ) :   1.1529
B( 17-C , 18-C ) :   1.6067 B( 17-C , 33-H ) :   0.9606 B( 18-C , 19-C ) :   1.2491
B( 18-C , 21-H ) :   0.9822 B( 19-C , 20-C ) :   1.6252 B( 19-C , 22-C ) :   1.0175
B( 22-C , 23-H ) :   0.9359 B( 22-C , 24-H ) :   0.9313 B( 22-C , 25-C ) :   1.0879
B( 25-C , 26-H ) :   0.9529 B( 25-C , 27-H ) :   0.9564 B( 25-C , 28-C ) :   1.0679
B( 28-C , 29-H ) :   0.9750 B( 28-C , 30-H ) :   0.9785 B( 28-C , 31-H ) :   0.9760

Dispersion correction           -0.014765829
FINAL SINGLE POINT ENERGY     -1339.870248473974

DIPOLE MOMENT
-------------
                                X             Y             Z
Electronic contribution:     16.37576     -15.99707      -9.34823
Nuclear contribution   :    -16.66423      16.34692       9.48035
                        -----------------------------------------
Total Dipole Moment    :     -0.28847       0.34985       0.13212
                        -----------------------------------------
Magnitude (a.u.)       :      0.47230
Magnitude (Debye)      :      1.20050

Rotational constants in cm-1:     0.020306     0.008185     0.007102
Rotational constants in MHz :   608.746621   245.380854   212.905948

                             ****ORCA TERMINATED NORMALLY****
TOTAL RUN TIME: 0 days 0 hours 0 minutes 32 seconds 441 msec
