                         Program Version 4.2.1 -  RELEASE  -
|  1> ! wB97X-D3 SP def2-SVP
|  2> %pal
|  3> nprocs 16
|  4> end
|  5>
|  6> * xyz 0 1
|  7> S 	 -100.725 	 53.5204 	 115.879
|  8> C 	 -99.1701 	 52.8406 	 115.42
|  9> C 	 -98.3741 	 52.9073 	 116.565
| 10> C 	 -98.9985 	 53.5657 	 117.705
| 11> C 	 -100.285 	 54.059 	 117.439
| 12> H 	 -98.57 	 53.7783 	 118.685
| 13> C 	 -96.9233 	 52.3751 	 116.575
| 14> H 	 -96.7587 	 51.6364 	 115.869
| 15> H 	 -96.716 	 51.9598 	 117.535
| 16> C 	 -95.8958 	 53.4616 	 116.321
| 17> H 	 -96.0506 	 54.3616 	 116.839
| 18> H 	 -94.974 	 53.0656 	 116.732
| 19> C 	 -95.7027 	 53.8048 	 114.83
| 20> H 	 -96.4682 	 53.2695 	 114.196
| 21> H 	 -95.759 	 54.9139 	 114.667
| 22> H 	 -94.7853 	 53.301 	 114.47
| 23> S 	 -102.647 	 53.9136 	 118.9
| 24> C 	 -103.288 	 55.3801 	 119.622
| 25> C 	 -102.462 	 56.4334 	 119.417
| 26> C 	 -101.278 	 56.0842 	 118.682
| 27> C 	 -101.246 	 54.76 	 118.281
| 28> H 	 -102.761 	 57.3375 	 119.956
| 29> C 	 -100.258 	 57.1462 	 118.308
| 30> H 	 -99.3139 	 56.5685 	 118.098
| 31> H 	 -100.044 	 57.8087 	 119.138
| 32> C 	 -100.584 	 57.9566 	 117.097
| 33> H 	 -101.283 	 58.7266 	 117.383
| 34> H 	 -101.195 	 57.3963 	 116.413
| 35> C 	 -99.4294 	 58.624 	 116.28
| 36> H 	 -98.7165 	 59.1982 	 116.955
| 37> H 	 -99.7721 	 59.3499 	 115.541
| 38> H 	 -98.9128 	 57.7924 	 115.663
| 39> H 	 -98.8607 	 52.4855 	 114.432
| 40> H 	 -104.265 	 55.4178 	 120.049
| 41> *
| 42>
| 43>                          ****END OF INPUT****

CARTESIAN COORDINATES (ANGSTROEM)
---------------------------------
  S    -100.725000   53.520400  115.879000
  C    -99.170100   52.840600  115.420000
  C    -98.374100   52.907300  116.565000
  C    -98.998500   53.565700  117.705000
  C    -100.285000   54.059000  117.439000
  H    -98.570000   53.778300  118.685000
  C    -96.923300   52.375100  116.575000
  H    -96.758700   51.636400  115.869000
  H    -96.716000   51.959800  117.535000
  C    -95.895800   53.461600  116.321000
  H    -96.050600   54.361600  116.839000
  H    -94.974000   53.065600  116.732000
  C    -95.702700   53.804800  114.830000
  H    -96.468200   53.269500  114.196000
  H    -95.759000   54.913900  114.667000
  H    -94.785300   53.301000  114.470000
  S    -102.647000   53.913600  118.900000
  C    -103.288000   55.380100  119.622000
  C    -102.462000   56.433400  119.417000
  C    -101.278000   56.084200  118.682000
  C    -101.246000   54.760000  118.281000
  H    -102.761000   57.337500  119.956000
  C    -100.258000   57.146200  118.308000
  H    -99.313900   56.568500  118.098000
  H    -100.044000   57.808700  119.138000
  C    -100.584000   57.956600  117.097000
  H    -101.283000   58.726600  117.383000
  H    -101.195000   57.396300  116.413000
  C    -99.429400   58.624000  116.280000
  H    -98.716500   59.198200  116.955000
  H    -99.772100   59.349900  115.541000
  H    -98.912800   57.792400  115.663000
  H    -98.860700   52.485500  114.432000
  H    -104.265000   55.417800  120.049000

 Total Charge           Charge          ....    0
 Multiplicity           Mult            ....    1
 Number of Electrons    NEL             ....  134
 Basis Dimension        Dim             ....  322

ORBITAL ENERGIES
----------------

  NO   OCC          E(Eh)            E(eV)
   0   2.0000     -88.963799     -2420.8280
   1   2.0000     -88.962132     -2420.7827
   2   2.0000     -10.331281      -281.1285
   3   2.0000     -10.328975      -281.0657
   4   2.0000     -10.319473      -280.8071
   5   2.0000     -10.315533      -280.6999
   6   2.0000     -10.307945      -280.4934
   7   2.0000     -10.307244      -280.4744
   8   2.0000     -10.300855      -280.3005
   9   2.0000     -10.294112      -280.1170
  10   2.0000     -10.289432      -279.9897
  11   2.0000     -10.288912      -279.9755
  12   2.0000     -10.284742      -279.8621
  13   2.0000     -10.284107      -279.8448
  14   2.0000     -10.277750      -279.6718
  15   2.0000     -10.277198      -279.6568
  16   2.0000      -8.078843      -219.8365
  17   2.0000      -8.077441      -219.7983
  18   2.0000      -6.037320      -164.2838
  19   2.0000      -6.035885      -164.2448
  20   2.0000      -6.033291      -164.1742
  21   2.0000      -6.031545      -164.1267
  22   2.0000      -6.029615      -164.0742
  23   2.0000      -6.028514      -164.0442
  24   2.0000      -1.008821       -27.4514
  25   2.0000      -0.985951       -26.8291
  26   2.0000      -0.914808       -24.8932
  27   2.0000      -0.907291       -24.6887
  28   2.0000      -0.872048       -23.7296
  29   2.0000      -0.844084       -22.9687
  30   2.0000      -0.838047       -22.8044
  31   2.0000      -0.817314       -22.2402
  32   2.0000      -0.782668       -21.2975
  33   2.0000      -0.772361       -21.0170
  34   2.0000      -0.709900       -19.3174
  35   2.0000      -0.693890       -18.8817
  36   2.0000      -0.692141       -18.8341
  37   2.0000      -0.659083       -17.9346
  38   2.0000      -0.646953       -17.6045
  39   2.0000      -0.617615       -16.8062
  40   2.0000      -0.597029       -16.2460
  41   2.0000      -0.577259       -15.7080
  42   2.0000      -0.561437       -15.2775
  43   2.0000      -0.548066       -14.9136
  44   2.0000      -0.541197       -14.7267
  45   2.0000      -0.523195       -14.2369
  46   2.0000      -0.518155       -14.0997
  47   2.0000      -0.512367       -13.9422
  48   2.0000      -0.508068       -13.8252
  49   2.0000      -0.504889       -13.7387
  50   2.0000      -0.485966       -13.2238
  51   2.0000      -0.480552       -13.0765
  52   2.0000      -0.474294       -12.9062
  53   2.0000      -0.462604       -12.5881
  54   2.0000      -0.460476       -12.5302
  55   2.0000      -0.444727       -12.1016
  56   2.0000      -0.440723       -11.9927
  57   2.0000      -0.436075       -11.8662
  58   2.0000      -0.432690       -11.7741
  59   2.0000      -0.423495       -11.5239
  60   2.0000      -0.415979       -11.3194
  61   2.0000      -0.406808       -11.0698
  62   2.0000      -0.401546       -10.9266
  63   2.0000      -0.339020        -9.2252
  64   2.0000      -0.331672        -9.0252
  65   2.0000      -0.324392        -8.8271
  66   2.0000      -0.307819        -8.3762
  67   0.0000       0.040133         1.0921
  68   0.0000       0.057111         1.5541
  69   0.0000       0.118150         3.2150
  70   0.0000       0.121443         3.3046
  71   0.0000       0.130916         3.5624

MULLIKEN ATOMIC CHARGES
-----------------------
   0 S :    0.109307
   1 C :   -0.125625
   2 C :   -0.109291
   3 C :    0.060106
   4 C :   -0.189401
   5 H :    0.016446
   6 C :    0.107764
   7 H :    0.002889
   8 H :    0.014655
   9 C :   -0.049322
  10 H :    0.015305
  11 H :    0.020807
  12 C :   -0.079495
  13 H :    0.018668
  14 H :    0.055647
  15 H :    0.036369
  16 S :    0.109026
  17 C :   -0.096957
  18 C :   -0.030511
  19 C :   -0.034979
  20 C :   -0.160123
  21 H :    0.029678
  22 C :    0.094363
  23 H :    0.022504
  24 H :    0.024033
  25 C :   -0.054463
  26 H :    0.012904
  27 H :    0.022292
  28 C :   -0.092315
  29 H :    0.040851
  30 H :    0.037819
  31 H :    0.052231
  32 H :    0.064346
  33 H :    0.054472
Sum of atomic charges:    0.0000000

LOEWDIN ATOMIC CHARGES
----------------------
   0 S :    0.425773
   1 C :   -0.204356
   2 C :   -0.058211
   3 C :   -0.066897
   4 C :   -0.211159
   5 H :    0.032947
   6 C :   -0.019199
   7 H :    0.018558
   8 H :    0.027910
   9 C :   -0.038661
  10 H :    0.016460
  11 H :    0.022745
  12 C :   -0.074132
  13 H :    0.023701
  14 H :    0.035453
  15 H :    0.029412
  16 S :    0.402440
  17 C :   -0.171633
  18 C :   -0.077545
  19 C :   -0.047295
  20 C :   -0.208025
  21 H :    0.039415
  22 C :   -0.034586
  23 H :    0.034260
  24 H :    0.029159
  25 C :   -0.048203
  26 H :    0.019738
  27 H :    0.023351
  28 C :   -0.074483
  29 H :    0.028738
  30 H :    0.026005
  31 H :    0.036256
  32 H :    0.035695
  33 H :    0.026370

  Mayer bond orders larger than 0.100000
B(  0-S ,  1-C ) :   1.1423 B(  0-S ,  4-C ) :   1.1857 B(  1-C ,  2-C ) :   1.5807
B(  1-C ,  4-C ) :   0.1050 B(  1-C , 32-H ) :   0.9723 B(  2-C ,  3-C ) :   1.2442
B(  2-C ,  6-C ) :   1.0314 B(  3-C ,  4-C ) :   1.5546 B(  3-C ,  5-H ) :   0.9951
B(  4-C , 20-C ) :   1.0096 B(  6-C ,  7-H ) :   0.9461 B(  6-C ,  8-H ) :   0.9375
B(  6-C ,  9-C ) :   1.0763 B(  9-C , 10-H ) :   0.9632 B(  9-C , 11-H ) :   0.9609
B(  9-C , 12-C ) :   1.0546 B( 12-C , 13-H ) :   0.9803 B( 12-C , 14-H ) :   0.9789
B( 12-C , 15-H ) :   0.9755 B( 16-S , 17-C ) :   1.1538 B( 16-S , 20-C ) :   1.1436
B( 17-C , 18-C ) :   1.6353 B( 17-C , 33-H ) :   0.9673 B( 18-C , 19-C ) :   1.2121
B( 18-C , 21-H ) :   0.9906 B( 19-C , 20-C ) :   1.6169 B( 19-C , 22-C ) :   1.0566
B( 22-C , 23-H ) :   0.9283 B( 22-C , 24-H ) :   0.9286 B( 22-C , 25-C ) :   1.0618
B( 25-C , 26-H ) :   0.9488 B( 25-C , 27-H ) :   0.9549 B( 25-C , 28-C ) :   1.0810
B( 28-C , 29-H ) :   0.9758 B( 28-C , 30-H ) :   0.9743 B( 28-C , 31-H ) :   0.9749

Dispersion correction           -0.014461450
FINAL SINGLE POINT ENERGY     -1339.874891501081

DIPOLE MOMENT
-------------
                                X             Y             Z
Electronic contribution:    -23.60533     -13.05636       8.41189
Nuclear contribution   :     24.01658      13.37175      -8.30845
                        -----------------------------------------
Total Dipole Moment    :      0.41124       0.31539       0.10344
                        -----------------------------------------
Magnitude (a.u.)       :      0.52848
Magnitude (Debye)      :      1.34329

Rotational constants in cm-1:     0.019552     0.008752     0.006981
Rotational constants in MHz :   586.166684   262.364838   209.300056

                             ****ORCA TERMINATED NORMALLY****
TOTAL RUN TIME: 0 days 0 hours 0 minutes 34 seconds 971 msec
