                         Program Version 4.2.1 -  RELEASE  -
|  1> ! wB97X-D3 SP def2-SVP
|  2> %pal
|  3> nprocs 16
|  4> end
|  5>
|  6> * xyz 0 1
|  7> S 	 51.339 	 12.4022 	 87.8355
|  8> C 	 51.9984 	 13.35 	 89.1652
|  9> C 	 52.4506 	 14.611 	 88.7124
| 10> C 	 52.1899 	 14.7736 	 87.2931
| 11> C 	 51.6333 	 13.692 	 86.6774
| 12> H 	 52.3107 	 15.7063 	 86.8386
| 13> C 	 53.0706 	 15.7467 	 89.5347
| 14> H 	 53.7063 	 16.2601 	 88.8636
| 15> H 	 53.7655 	 15.3258 	 90.3168
| 16> C 	 51.9243 	 16.7112 	 90.0786
| 17> H 	 52.4373 	 17.6045 	 90.4604
| 18> H 	 51.3454 	 17.0351 	 89.2475
| 19> C 	 51.0681 	 16.1664 	 91.2105
| 20> H 	 51.7259 	 15.8208 	 91.9566
| 21> H 	 50.4184 	 16.9048 	 91.57
| 22> H 	 50.4655 	 15.2734 	 90.8662
| 23> S 	 52.8985 	 13.8204 	 84.1954
| 24> C 	 52.0803 	 13.1005 	 82.761
| 25> C 	 50.9045 	 12.5199 	 83.1316
| 26> C 	 50.5887 	 12.7061 	 84.5053
| 27> C 	 51.5739 	 13.354 	 85.2521
| 28> H 	 50.3047 	 11.9906 	 82.4593
| 29> C 	 49.2838 	 12.148 	 84.9648
| 30> H 	 48.9687 	 12.4802 	 86.0027
| 31> H 	 49.4019 	 11.0202 	 85.0835
| 32> C 	 48.0455 	 12.3125 	 84.0482
| 33> H 	 48.0112 	 11.7903 	 83.1158
| 34> H 	 47.8529 	 13.3862 	 83.8875
| 35> C 	 46.7964 	 11.6562 	 84.732
| 36> H 	 46.792 	 10.6215 	 84.5242
| 37> H 	 45.8233 	 12.091 	 84.3684
| 38> H 	 46.8633 	 11.9092 	 85.8053
| 39> H 	 51.9665 	 12.9679 	 90.1845
| 40> H 	 52.4439 	 12.9503 	 81.755
| 41> *
| 42>
| 43>                          ****END OF INPUT****

CARTESIAN COORDINATES (ANGSTROEM)
---------------------------------
  S     51.339000   12.402200   87.835500
  C     51.998400   13.350000   89.165200
  C     52.450600   14.611000   88.712400
  C     52.189900   14.773600   87.293100
  C     51.633300   13.692000   86.677400
  H     52.310700   15.706300   86.838600
  C     53.070600   15.746700   89.534700
  H     53.706300   16.260100   88.863600
  H     53.765500   15.325800   90.316800
  C     51.924300   16.711200   90.078600
  H     52.437300   17.604500   90.460400
  H     51.345400   17.035100   89.247500
  C     51.068100   16.166400   91.210500
  H     51.725900   15.820800   91.956600
  H     50.418400   16.904800   91.570000
  H     50.465500   15.273400   90.866200
  S     52.898500   13.820400   84.195400
  C     52.080300   13.100500   82.761000
  C     50.904500   12.519900   83.131600
  C     50.588700   12.706100   84.505300
  C     51.573900   13.354000   85.252100
  H     50.304700   11.990600   82.459300
  C     49.283800   12.148000   84.964800
  H     48.968700   12.480200   86.002700
  H     49.401900   11.020200   85.083500
  C     48.045500   12.312500   84.048200
  H     48.011200   11.790300   83.115800
  H     47.852900   13.386200   83.887500
  C     46.796400   11.656200   84.732000
  H     46.792000   10.621500   84.524200
  H     45.823300   12.091000   84.368400
  H     46.863300   11.909200   85.805300
  H     51.966500   12.967900   90.184500
  H     52.443900   12.950300   81.755000

 Total Charge           Charge          ....    0
 Multiplicity           Mult            ....    1
 Number of Electrons    NEL             ....  134
 Basis Dimension        Dim             ....  322

ORBITAL ENERGIES
----------------

  NO   OCC          E(Eh)            E(eV)
   0   2.0000     -88.966816     -2420.9101
   1   2.0000     -88.964403     -2420.8445
   2   2.0000     -10.330651      -281.1113
   3   2.0000     -10.329768      -281.0873
   4   2.0000     -10.319633      -280.8115
   5   2.0000     -10.318807      -280.7890
   6   2.0000     -10.307590      -280.4838
   7   2.0000     -10.300413      -280.2885
   8   2.0000     -10.298816      -280.2450
   9   2.0000     -10.298812      -280.2449
  10   2.0000     -10.291061      -280.0340
  11   2.0000     -10.288253      -279.9576
  12   2.0000     -10.286964      -279.9225
  13   2.0000     -10.286387      -279.9068
  14   2.0000     -10.279179      -279.7107
  15   2.0000     -10.272465      -279.5280
  16   2.0000      -8.080337      -219.8771
  17   2.0000      -8.078802      -219.8354
  18   2.0000      -6.039094      -164.3321
  19   2.0000      -6.037375      -164.2853
  20   2.0000      -6.035044      -164.2219
  21   2.0000      -6.033281      -164.1739
  22   2.0000      -6.030854      -164.1079
  23   2.0000      -6.029586      -164.0734
  24   2.0000      -1.002525       -27.2801
  25   2.0000      -0.979277       -26.6475
  26   2.0000      -0.906499       -24.6671
  27   2.0000      -0.905038       -24.6273
  28   2.0000      -0.868248       -23.6262
  29   2.0000      -0.851229       -23.1631
  30   2.0000      -0.843804       -22.9611
  31   2.0000      -0.816538       -22.2191
  32   2.0000      -0.782161       -21.2837
  33   2.0000      -0.764056       -20.7910
  34   2.0000      -0.705583       -19.1999
  35   2.0000      -0.699380       -19.0311
  36   2.0000      -0.691865       -18.8266
  37   2.0000      -0.663152       -18.0453
  38   2.0000      -0.642350       -17.4792
  39   2.0000      -0.619237       -16.8503
  40   2.0000      -0.598650       -16.2901
  41   2.0000      -0.570132       -15.5141
  42   2.0000      -0.569373       -15.4934
  43   2.0000      -0.551933       -15.0189
  44   2.0000      -0.540617       -14.7109
  45   2.0000      -0.522472       -14.2172
  46   2.0000      -0.517255       -14.0752
  47   2.0000      -0.511951       -13.9309
  48   2.0000      -0.510066       -13.8796
  49   2.0000      -0.493698       -13.4342
  50   2.0000      -0.483335       -13.1522
  51   2.0000      -0.475352       -12.9350
  52   2.0000      -0.465115       -12.6564
  53   2.0000      -0.461313       -12.5530
  54   2.0000      -0.453674       -12.3451
  55   2.0000      -0.452626       -12.3166
  56   2.0000      -0.443288       -12.0625
  57   2.0000      -0.439587       -11.9618
  58   2.0000      -0.433659       -11.8005
  59   2.0000      -0.426973       -11.6185
  60   2.0000      -0.423298       -11.5185
  61   2.0000      -0.414355       -11.2752
  62   2.0000      -0.411835       -11.2066
  63   2.0000      -0.349708        -9.5160
  64   2.0000      -0.332309        -9.0426
  65   2.0000      -0.325367        -8.8537
  66   2.0000      -0.289245        -7.8708
  67   0.0000       0.026846         0.7305
  68   0.0000       0.072282         1.9669
  69   0.0000       0.108425         2.9504
  70   0.0000       0.115169         3.1339
  71   0.0000       0.125612         3.4181

MULLIKEN ATOMIC CHARGES
-----------------------
   0 S :    0.095881
   1 C :   -0.131355
   2 C :   -0.113163
   3 C :    0.008074
   4 C :   -0.117579
   5 H :   -0.001346
   6 C :    0.059464
   7 H :    0.015236
   8 H :    0.041487
   9 C :   -0.070022
  10 H :    0.028821
  11 H :    0.022782
  12 C :   -0.019395
  13 H :    0.017097
  14 H :    0.031752
  15 H :    0.040747
  16 S :    0.102508
  17 C :   -0.078335
  18 C :   -0.004958
  19 C :   -0.010599
  20 C :   -0.116397
  21 H :   -0.003084
  22 C :   -0.009968
  23 H :    0.031053
  24 H :    0.047136
  25 C :   -0.086554
  26 H :    0.029873
  27 H :    0.042162
  28 C :   -0.067508
  29 H :    0.033681
  30 H :    0.039019
  31 H :    0.032385
  32 H :    0.058069
  33 H :    0.053036
Sum of atomic charges:   -0.0000000

LOEWDIN ATOMIC CHARGES
----------------------
   0 S :    0.403201
   1 C :   -0.197486
   2 C :   -0.056251
   3 C :   -0.064911
   4 C :   -0.184548
   5 H :    0.022575
   6 C :   -0.029401
   7 H :    0.024587
   8 H :    0.036847
   9 C :   -0.031290
  10 H :    0.023998
  11 H :    0.018960
  12 C :   -0.058959
  13 H :    0.018426
  14 H :    0.021529
  15 H :    0.032262
  16 S :    0.387722
  17 C :   -0.167268
  18 C :   -0.058134
  19 C :   -0.063797
  20 C :   -0.198544
  21 H :    0.023079
  22 C :   -0.048190
  23 H :    0.029115
  24 H :    0.041293
  25 C :   -0.042608
  26 H :    0.018960
  27 H :    0.026447
  28 C :   -0.062285
  29 H :    0.017446
  30 H :    0.031632
  31 H :    0.024707
  32 H :    0.027979
  33 H :    0.032907

  Mayer bond orders larger than 0.100000
B(  0-S ,  1-C ) :   1.1434 B(  0-S ,  4-C ) :   1.1478 B(  1-C ,  2-C ) :   1.5910
B(  1-C , 32-H ) :   0.9720 B(  2-C ,  3-C ) :   1.2437 B(  2-C ,  6-C ) :   1.0217
B(  3-C ,  4-C ) :   1.5698 B(  3-C ,  5-H ) :   1.0058 B(  4-C , 20-C ) :   1.0424
B(  6-C ,  7-H ) :   0.9374 B(  6-C ,  8-H ) :   0.9492 B(  6-C ,  9-C ) :   1.0599
B(  9-C , 10-H ) :   0.9566 B(  9-C , 11-H ) :   0.9570 B(  9-C , 12-C ) :   1.0817
B( 12-C , 13-H ) :   0.9746 B( 12-C , 14-H ) :   0.9723 B( 12-C , 15-H ) :   0.9712
B( 16-S , 17-C ) :   1.1348 B( 16-S , 20-C ) :   1.1186 B( 17-C , 18-C ) :   1.6260
B( 17-C , 33-H ) :   0.9640 B( 18-C , 19-C ) :   1.2422 B( 18-C , 21-H ) :   0.9952
B( 19-C , 20-C ) :   1.5791 B( 19-C , 22-C ) :   1.0529 B( 22-C , 23-H ) :   0.9312
B( 22-C , 24-H ) :   0.9323 B( 22-C , 25-C ) :   1.0664 B( 25-C , 26-H ) :   0.9519
B( 25-C , 27-H ) :   0.9611 B( 25-C , 28-C ) :   1.0706 B( 28-C , 29-H ) :   0.9814
B( 28-C , 30-H ) :   0.9750 B( 28-C , 31-H ) :   0.9760

Dispersion correction           -0.013937687
FINAL SINGLE POINT ENERGY     -1339.877882110811

DIPOLE MOMENT
-------------
                                X             Y             Z
Electronic contribution:     15.97935      -5.53642     -10.14800
Nuclear contribution   :    -16.23033       5.67507      10.22547
                        -----------------------------------------
Total Dipole Moment    :     -0.25099       0.13866       0.07747
                        -----------------------------------------
Magnitude (a.u.)       :      0.29702
Magnitude (Debye)      :      0.75496

Rotational constants in cm-1:     0.020393     0.007624     0.006241
Rotational constants in MHz :   611.373474   228.562075   187.101664

                             ****ORCA TERMINATED NORMALLY****
TOTAL RUN TIME: 0 days 0 hours 0 minutes 28 seconds 848 msec
