                         Program Version 4.2.1 -  RELEASE  -
|  1> ! wB97X-D3 SP def2-SVP
|  2> %pal
|  3> nprocs 16
|  4> end
|  5>
|  6> * xyz 0 1
|  7> S 	 26.7539 	 5.48146 	 77.1478
|  8> C 	 28.1177 	 6.66847 	 77.5193
|  9> C 	 29.2169 	 6.04087 	 78.0296
| 10> C 	 28.9974 	 4.61354 	 78.197
| 11> C 	 27.7448 	 4.12969 	 77.8012
| 12> H 	 29.8239 	 4.06435 	 78.5528
| 13> C 	 30.5602 	 6.76728 	 78.3048
| 14> H 	 31.3896 	 6.09093 	 78.4071
| 15> H 	 30.559 	 7.25512 	 79.2085
| 16> C 	 30.962 	 7.7266 	 77.1896
| 17> H 	 32.0009 	 7.64134 	 76.9239
| 18> H 	 30.4194 	 7.46252 	 76.3243
| 19> C 	 30.5534 	 9.13708 	 77.45
| 20> H 	 31.0404 	 9.78874 	 76.7501
| 21> H 	 29.4545 	 9.30407 	 77.5292
| 22> H 	 30.9545 	 9.50296 	 78.3834
| 23> S 	 28.344 	 1.46355 	 77.438
| 24> C 	 27.095 	 0.287509 	 77.6152
| 25> C 	 25.8529 	 0.860625 	 77.8109
| 26> C 	 25.9069 	 2.27101 	 77.978
| 27> C 	 27.2502 	 2.75536 	 77.854
| 28> H 	 25.03 	 0.189834 	 77.7703
| 29> C 	 24.6501 	 3.08277 	 78.2516
| 30> H 	 24.9686 	 3.79246 	 79.0182
| 31> H 	 23.9871 	 2.38466 	 78.8099
| 32> C 	 23.7587 	 3.56688 	 77.1157
| 33> H 	 23.4138 	 2.59354 	 76.7099
| 34> H 	 24.3975 	 3.98789 	 76.3159
| 35> C 	 22.6001 	 4.55661 	 77.2917
| 36> H 	 21.9982 	 4.63265 	 76.3686
| 37> H 	 22.9813 	 5.45395 	 77.6867
| 38> H 	 21.9609 	 4.12128 	 78.0825
| 39> H 	 28.0401 	 7.72959 	 77.2692
| 40> H 	 27.2699 	 -0.759686 	 77.506
| 41> *
| 42>
| 43>                          ****END OF INPUT****

CARTESIAN COORDINATES (ANGSTROEM)
---------------------------------
  S     26.753900    5.481460   77.147800
  C     28.117700    6.668470   77.519300
  C     29.216900    6.040870   78.029600
  C     28.997400    4.613540   78.197000
  C     27.744800    4.129690   77.801200
  H     29.823900    4.064350   78.552800
  C     30.560200    6.767280   78.304800
  H     31.389600    6.090930   78.407100
  H     30.559000    7.255120   79.208500
  C     30.962000    7.726600   77.189600
  H     32.000900    7.641340   76.923900
  H     30.419400    7.462520   76.324300
  C     30.553400    9.137080   77.450000
  H     31.040400    9.788740   76.750100
  H     29.454500    9.304070   77.529200
  H     30.954500    9.502960   78.383400
  S     28.344000    1.463550   77.438000
  C     27.095000    0.287509   77.615200
  C     25.852900    0.860625   77.810900
  C     25.906900    2.271010   77.978000
  C     27.250200    2.755360   77.854000
  H     25.030000    0.189834   77.770300
  C     24.650100    3.082770   78.251600
  H     24.968600    3.792460   79.018200
  H     23.987100    2.384660   78.809900
  C     23.758700    3.566880   77.115700
  H     23.413800    2.593540   76.709900
  H     24.397500    3.987890   76.315900
  C     22.600100    4.556610   77.291700
  H     21.998200    4.632650   76.368600
  H     22.981300    5.453950   77.686700
  H     21.960900    4.121280   78.082500
  H     28.040100    7.729590   77.269200
  H     27.269900   -0.759686   77.506000

 Total Charge           Charge          ....    0
 Multiplicity           Mult            ....    1
 Number of Electrons    NEL             ....  134
 Basis Dimension        Dim             ....  322

ORBITAL ENERGIES
----------------

  NO   OCC          E(Eh)            E(eV)
   0   2.0000     -88.969290     -2420.9775
   1   2.0000     -88.967108     -2420.9181
   2   2.0000     -10.339716      -281.3580
   3   2.0000     -10.331711      -281.1401
   4   2.0000     -10.319584      -280.8101
   5   2.0000     -10.314067      -280.6600
   6   2.0000     -10.309904      -280.5468
   7   2.0000     -10.305249      -280.4201
   8   2.0000     -10.295926      -280.1664
   9   2.0000     -10.291976      -280.0589
  10   2.0000     -10.291680      -280.0509
  11   2.0000     -10.286946      -279.9220
  12   2.0000     -10.285129      -279.8726
  13   2.0000     -10.278190      -279.6838
  14   2.0000     -10.276368      -279.6342
  15   2.0000     -10.275630      -279.6141
  16   2.0000      -8.084353      -219.9864
  17   2.0000      -8.079164      -219.8452
  18   2.0000      -6.042774      -164.4323
  19   2.0000      -6.038745      -164.3226
  20   2.0000      -6.038034      -164.3033
  21   2.0000      -6.035268      -164.2280
  22   2.0000      -6.034168      -164.1981
  23   2.0000      -6.029583      -164.0733
  24   2.0000      -1.001829       -27.2612
  25   2.0000      -0.974153       -26.5081
  26   2.0000      -0.918185       -24.9851
  27   2.0000      -0.906507       -24.6673
  28   2.0000      -0.868412       -23.6307
  29   2.0000      -0.853762       -23.2321
  30   2.0000      -0.840676       -22.8759
  31   2.0000      -0.811059       -22.0700
  32   2.0000      -0.789921       -21.4948
  33   2.0000      -0.776329       -21.1250
  34   2.0000      -0.707189       -19.2436
  35   2.0000      -0.704712       -19.1762
  36   2.0000      -0.690424       -18.7874
  37   2.0000      -0.664324       -18.0772
  38   2.0000      -0.632111       -17.2006
  39   2.0000      -0.620787       -16.8925
  40   2.0000      -0.595414       -16.2020
  41   2.0000      -0.581930       -15.8351
  42   2.0000      -0.563058       -15.3216
  43   2.0000      -0.549907       -14.9637
  44   2.0000      -0.534853       -14.5541
  45   2.0000      -0.528967       -14.3939
  46   2.0000      -0.518872       -14.1192
  47   2.0000      -0.517325       -14.0771
  48   2.0000      -0.507943       -13.8218
  49   2.0000      -0.495517       -13.4837
  50   2.0000      -0.488982       -13.3059
  51   2.0000      -0.481383       -13.0991
  52   2.0000      -0.471175       -12.8213
  53   2.0000      -0.468591       -12.7510
  54   2.0000      -0.461994       -12.5715
  55   2.0000      -0.449187       -12.2230
  56   2.0000      -0.445432       -12.1208
  57   2.0000      -0.436366       -11.8741
  58   2.0000      -0.429033       -11.6746
  59   2.0000      -0.422317       -11.4918
  60   2.0000      -0.418721       -11.3940
  61   2.0000      -0.414309       -11.2739
  62   2.0000      -0.400713       -10.9040
  63   2.0000      -0.352416        -9.5897
  64   2.0000      -0.333248        -9.0681
  65   2.0000      -0.330866        -9.0033
  66   2.0000      -0.285063        -7.7570
  67   0.0000       0.018450         0.5020
  68   0.0000       0.078445         2.1346
  69   0.0000       0.095657         2.6030
  70   0.0000       0.114390         3.1127
  71   0.0000       0.127462         3.4684

MULLIKEN ATOMIC CHARGES
-----------------------
   0 S :    0.078129
   1 C :   -0.152404
   2 C :   -0.080870
   3 C :    0.025142
   4 C :   -0.108955
   5 H :   -0.007276
   6 C :    0.132225
   7 H :    0.009536
   8 H :    0.015804
   9 C :   -0.070323
  10 H :    0.025391
  11 H :    0.025620
  12 C :   -0.043953
  13 H :    0.026867
  14 H :    0.032549
  15 H :    0.011250
  16 S :    0.120002
  17 C :   -0.094672
  18 C :   -0.021845
  19 C :   -0.056858
  20 C :   -0.130423
  21 H :    0.008741
  22 C :    0.049296
  23 H :    0.032421
  24 H :    0.017610
  25 C :   -0.088948
  26 H :    0.016842
  27 H :    0.028342
  28 C :   -0.004042
  29 H :    0.051176
  30 H :    0.029162
  31 H :    0.021350
  32 H :    0.053671
  33 H :    0.049443
Sum of atomic charges:    0.0000000

LOEWDIN ATOMIC CHARGES
----------------------
   0 S :    0.358025
   1 C :   -0.170204
   2 C :   -0.052584
   3 C :   -0.063762
   4 C :   -0.169057
   5 H :    0.021420
   6 C :   -0.018012
   7 H :    0.030292
   8 H :    0.021577
   9 C :   -0.038981
  10 H :    0.025210
  11 H :    0.022069
  12 C :   -0.063447
  13 H :    0.025535
  14 H :    0.025740
  15 H :    0.018555
  16 S :    0.431958
  17 C :   -0.188621
  18 C :   -0.067226
  19 C :   -0.051540
  20 C :   -0.203901
  21 H :    0.028874
  22 C :   -0.047549
  23 H :    0.028309
  24 H :    0.033361
  25 C :   -0.051959
  26 H :    0.023945
  27 H :    0.014690
  28 C :   -0.055811
  29 H :    0.036586
  30 H :    0.020254
  31 H :    0.025518
  32 H :    0.026703
  33 H :    0.024036

  Mayer bond orders larger than 0.100000
B(  0-S ,  1-C ) :   1.1035 B(  0-S ,  4-C ) :   1.1196 B(  1-C ,  2-C ) :   1.6519
B(  1-C , 32-H ) :   0.9619 B(  2-C ,  3-C ) :   1.2398 B(  2-C ,  6-C ) :   1.0133
B(  3-C ,  4-C ) :   1.5575 B(  3-C ,  5-H ) :   0.9956 B(  4-C , 20-C ) :   1.0835
B(  6-C ,  7-H ) :   0.9396 B(  6-C ,  8-H ) :   0.9372 B(  6-C ,  9-C ) :   1.0568
B(  9-C , 10-H ) :   0.9564 B(  9-C , 11-H ) :   0.9605 B(  9-C , 12-C ) :   1.0864
B( 12-C , 13-H ) :   0.9683 B( 12-C , 14-H ) :   0.9729 B( 12-C , 15-H ) :   0.9701
B( 16-S , 17-C ) :   1.1711 B( 16-S , 20-C ) :   1.1613 B( 17-C , 18-C ) :   1.5835
B( 17-C , 33-H ) :   0.9696 B( 18-C , 19-C ) :   1.2674 B( 18-C , 21-H ) :   0.9980
B( 19-C , 20-C ) :   1.5190 B( 19-C , 22-C ) :   1.0444 B( 22-C , 23-H ) :   0.9314
B( 22-C , 24-H ) :   0.9326 B( 22-C , 25-C ) :   1.0438 B( 25-C , 26-H ) :   0.9515
B( 25-C , 27-H ) :   0.9563 B( 25-C , 28-C ) :   1.0815 B( 28-C , 29-H ) :   0.9712
B( 28-C , 30-H ) :   0.9734 B( 28-C , 31-H ) :   0.9743

Dispersion correction           -0.014087554
FINAL SINGLE POINT ENERGY     -1339.866958587438

DIPOLE MOMENT
-------------
                                X             Y             Z
Electronic contribution:      3.61098     -17.23927      -0.39528
Nuclear contribution   :     -3.43668      17.31123       0.43050
                        -----------------------------------------
Total Dipole Moment    :      0.17430       0.07196       0.03522
                        -----------------------------------------
Magnitude (a.u.)       :      0.19183
Magnitude (Debye)      :      0.48759

Rotational constants in cm-1:     0.021176     0.007886     0.005934
Rotational constants in MHz :   634.852941   236.431283   177.889226

                             ****ORCA TERMINATED NORMALLY****
TOTAL RUN TIME: 0 days 0 hours 0 minutes 33 seconds 442 msec
