                         Program Version 4.2.1 -  RELEASE  -
|  1> ! wB97X-D3 SP def2-SVP
|  2> %pal
|  3> nprocs 16
|  4> end
|  5>
|  6> * xyz 0 1
|  7> S 	 55.7466 	 7.1333 	 64.9594
|  8> C 	 55.5522 	 8.97251 	 65.1486
|  9> C 	 54.2133 	 9.34151 	 65.3
| 10> C 	 53.3179 	 8.29438 	 64.9895
| 11> C 	 53.9345 	 7.10822 	 64.6201
| 12> H 	 52.222 	 8.43611 	 65.0322
| 13> C 	 53.6001 	 10.6857 	 65.7601
| 14> H 	 52.6065 	 10.7481 	 65.2336
| 15> H 	 54.2256 	 11.4841 	 65.3698
| 16> C 	 53.4796 	 10.8005 	 67.3001
| 17> H 	 52.5861 	 10.2505 	 67.5763
| 18> H 	 54.3609 	 10.4204 	 67.884
| 19> C 	 53.4617 	 12.3422 	 67.6805
| 20> H 	 54.2555 	 12.8616 	 67.2342
| 21> H 	 52.5061 	 12.7735 	 67.41
| 22> H 	 53.4804 	 12.4266 	 68.7481
| 23> S 	 53.905 	 4.37299 	 64.5439
| 24> C 	 52.9992 	 3.54051 	 63.3405
| 25> C 	 52.2352 	 4.39135 	 62.5822
| 26> C 	 52.4321 	 5.74987 	 62.9082
| 27> C 	 53.3061 	 5.92586 	 64.0019
| 28> H 	 51.6838 	 3.9528 	 61.7772
| 29> C 	 51.7703 	 6.91846 	 62.1419
| 30> H 	 51.2156 	 7.44346 	 62.9532
| 31> H 	 50.9292 	 6.53789 	 61.5578
| 32> C 	 52.6211 	 7.93959 	 61.445
| 33> H 	 53.1396 	 7.35823 	 60.6865
| 34> H 	 53.4319 	 8.28942 	 62.1139
| 35> C 	 51.8471 	 9.07881 	 60.8399
| 36> H 	 52.3793 	 9.63737 	 60.1192
| 37> H 	 51.4405 	 9.7559 	 61.6095
| 38> H 	 50.935 	 8.74116 	 60.2327
| 39> H 	 56.3732 	 9.59859 	 65.4897
| 40> H 	 52.9415 	 2.47253 	 63.4291
| 41> *
| 42>
| 43>                          ****END OF INPUT****

CARTESIAN COORDINATES (ANGSTROEM)
---------------------------------
  S     55.746600    7.133300   64.959400
  C     55.552200    8.972510   65.148600
  C     54.213300    9.341510   65.300000
  C     53.317900    8.294380   64.989500
  C     53.934500    7.108220   64.620100
  H     52.222000    8.436110   65.032200
  C     53.600100   10.685700   65.760100
  H     52.606500   10.748100   65.233600
  H     54.225600   11.484100   65.369800
  C     53.479600   10.800500   67.300100
  H     52.586100   10.250500   67.576300
  H     54.360900   10.420400   67.884000
  C     53.461700   12.342200   67.680500
  H     54.255500   12.861600   67.234200
  H     52.506100   12.773500   67.410000
  H     53.480400   12.426600   68.748100
  S     53.905000    4.372990   64.543900
  C     52.999200    3.540510   63.340500
  C     52.235200    4.391350   62.582200
  C     52.432100    5.749870   62.908200
  C     53.306100    5.925860   64.001900
  H     51.683800    3.952800   61.777200
  C     51.770300    6.918460   62.141900
  H     51.215600    7.443460   62.953200
  H     50.929200    6.537890   61.557800
  C     52.621100    7.939590   61.445000
  H     53.139600    7.358230   60.686500
  H     53.431900    8.289420   62.113900
  C     51.847100    9.078810   60.839900
  H     52.379300    9.637370   60.119200
  H     51.440500    9.755900   61.609500
  H     50.935000    8.741160   60.232700
  H     56.373200    9.598590   65.489700
  H     52.941500    2.472530   63.429100

 Total Charge           Charge          ....    0
 Multiplicity           Mult            ....    1
 Number of Electrons    NEL             ....  134
 Basis Dimension        Dim             ....  322

ORBITAL ENERGIES
----------------

  NO   OCC          E(Eh)            E(eV)
   0   2.0000     -88.968006     -2420.9425
   1   2.0000     -88.963355     -2420.8160
   2   2.0000     -10.340425      -281.3773
   3   2.0000     -10.328173      -281.0439
   4   2.0000     -10.321857      -280.8720
   5   2.0000     -10.313912      -280.6558
   6   2.0000     -10.309156      -280.5264
   7   2.0000     -10.304977      -280.4127
   8   2.0000     -10.301323      -280.3132
   9   2.0000     -10.296397      -280.1792
  10   2.0000     -10.296330      -280.1774
  11   2.0000     -10.292506      -280.0733
  12   2.0000     -10.291420      -280.0438
  13   2.0000     -10.280605      -279.7495
  14   2.0000     -10.279271      -279.7132
  15   2.0000     -10.276539      -279.6389
  16   2.0000      -8.079813      -219.8629
  17   2.0000      -8.079003      -219.8409
  18   2.0000      -6.038627      -164.3194
  19   2.0000      -6.037265      -164.2823
  20   2.0000      -6.035253      -164.2276
  21   2.0000      -6.033276      -164.1738
  22   2.0000      -6.030096      -164.0873
  23   2.0000      -6.029891      -164.0817
  24   2.0000      -1.002854       -27.2890
  25   2.0000      -0.972775       -26.4706
  26   2.0000      -0.910263       -24.7695
  27   2.0000      -0.904371       -24.6092
  28   2.0000      -0.864387       -23.5212
  29   2.0000      -0.852578       -23.1998
  30   2.0000      -0.840769       -22.8785
  31   2.0000      -0.810347       -22.0507
  32   2.0000      -0.782014       -21.2797
  33   2.0000      -0.770387       -20.9633
  34   2.0000      -0.707198       -19.2438
  35   2.0000      -0.703116       -19.1328
  36   2.0000      -0.691223       -18.8091
  37   2.0000      -0.663254       -18.0480
  38   2.0000      -0.631962       -17.1966
  39   2.0000      -0.621056       -16.8998
  40   2.0000      -0.596568       -16.2334
  41   2.0000      -0.567677       -15.4473
  42   2.0000      -0.564671       -15.3655
  43   2.0000      -0.552242       -15.0273
  44   2.0000      -0.524527       -14.2731
  45   2.0000      -0.522809       -14.2264
  46   2.0000      -0.519502       -14.1364
  47   2.0000      -0.510945       -13.9035
  48   2.0000      -0.506516       -13.7830
  49   2.0000      -0.494628       -13.4595
  50   2.0000      -0.485166       -13.2020
  51   2.0000      -0.477060       -12.9815
  52   2.0000      -0.471997       -12.8437
  53   2.0000      -0.464208       -12.6317
  54   2.0000      -0.455024       -12.3818
  55   2.0000      -0.449998       -12.2451
  56   2.0000      -0.442488       -12.0407
  57   2.0000      -0.440754       -11.9935
  58   2.0000      -0.433340       -11.7918
  59   2.0000      -0.431018       -11.7286
  60   2.0000      -0.420620       -11.4457
  61   2.0000      -0.410454       -11.1690
  62   2.0000      -0.407181       -11.0800
  63   2.0000      -0.346322        -9.4239
  64   2.0000      -0.335063        -9.1175
  65   2.0000      -0.330870        -9.0034
  66   2.0000      -0.283751        -7.7212
  67   0.0000       0.016672         0.4537
  68   0.0000       0.057916         1.5760
  69   0.0000       0.091986         2.5031
  70   0.0000       0.119445         3.2503
  71   0.0000       0.137476         3.7409

MULLIKEN ATOMIC CHARGES
-----------------------
   0 S :    0.080636
   1 C :   -0.128076
   2 C :   -0.080983
   3 C :   -0.005877
   4 C :   -0.108365
   5 H :    0.029396
   6 C :    0.040883
   7 H :    0.038848
   8 H :    0.023546
   9 C :   -0.083133
  10 H :    0.035446
  11 H :    0.049852
  12 C :   -0.030874
  13 H :    0.031366
  14 H :    0.025086
  15 H :    0.027908
  16 S :    0.091875
  17 C :   -0.096931
  18 C :   -0.027979
  19 C :   -0.025179
  20 C :   -0.162797
  21 H :    0.015488
  22 C :    0.047538
  23 H :    0.015439
  24 H :    0.010832
  25 C :   -0.040985
  26 H :    0.021700
  27 H :    0.054144
  28 C :   -0.043589
  29 H :    0.028196
  30 H :    0.031125
  31 H :    0.026497
  32 H :    0.049899
  33 H :    0.059071
Sum of atomic charges:    0.0000000

LOEWDIN ATOMIC CHARGES
----------------------
   0 S :    0.320673
   1 C :   -0.173542
   2 C :   -0.057688
   3 C :   -0.070837
   4 C :   -0.153957
   5 H :    0.036875
   6 C :   -0.030523
   7 H :    0.036301
   8 H :    0.027028
   9 C :   -0.035633
  10 H :    0.024274
  11 H :    0.032687
  12 C :   -0.056448
  13 H :    0.017621
  14 H :    0.023162
  15 H :    0.023003
  16 S :    0.417320
  17 C :   -0.185331
  18 C :   -0.073983
  19 C :   -0.049306
  20 C :   -0.201318
  21 H :    0.032591
  22 C :   -0.036694
  23 H :    0.029613
  24 H :    0.027656
  25 C :   -0.046905
  26 H :    0.024781
  27 H :    0.035597
  28 C :   -0.065712
  29 H :    0.021370
  30 H :    0.026271
  31 H :    0.031481
  32 H :    0.024981
  33 H :    0.024587

  Mayer bond orders larger than 0.100000
B(  0-S ,  1-C ) :   1.0925 B(  0-S ,  4-C ) :   1.1133 B(  1-C ,  2-C ) :   1.6499
B(  1-C ,  4-C ) :   0.1075 B(  1-C , 32-H ) :   0.9637 B(  2-C ,  3-C ) :   1.2174
B(  2-C ,  6-C ) :   1.0128 B(  3-C ,  4-C ) :   1.5914 B(  3-C ,  5-H ) :   0.9871
B(  4-C , 20-C ) :   1.0606 B(  6-C ,  7-H ) :   0.9439 B(  6-C ,  8-H ) :   0.9477
B(  6-C ,  9-C ) :   1.0451 B(  9-C , 10-H ) :   0.9569 B(  9-C , 11-H ) :   0.9659
B(  9-C , 12-C ) :   1.0709 B( 12-C , 13-H ) :   0.9797 B( 12-C , 14-H ) :   0.9764
B( 12-C , 15-H ) :   0.9773 B( 16-S , 17-C ) :   1.1833 B( 16-S , 20-C ) :   1.1521
B( 17-C , 18-C ) :   1.5698 B( 17-C , 20-C ) :   0.1024 B( 17-C , 33-H ) :   0.9681
B( 18-C , 19-C ) :   1.2705 B( 18-C , 21-H ) :   1.0004 B( 19-C , 20-C ) :   1.5511
B( 19-C , 22-C ) :   1.0205 B( 22-C , 23-H ) :   0.9347 B( 22-C , 24-H ) :   0.9345
B( 22-C , 25-C ) :   1.0584 B( 25-C , 26-H ) :   0.9495 B( 25-C , 27-H ) :   0.9483
B( 25-C , 28-C ) :   1.0868 B( 28-C , 29-H ) :   0.9732 B( 28-C , 30-H ) :   0.9726
B( 28-C , 31-H ) :   0.9713

Dispersion correction           -0.014446484
FINAL SINGLE POINT ENERGY     -1339.866766782627

DIPOLE MOMENT
-------------
                                X             Y             Z
Electronic contribution:     12.56257     -26.78548       2.75935
Nuclear contribution   :    -13.07102      27.24926      -2.80546
                        -----------------------------------------
Total Dipole Moment    :     -0.50846       0.46378      -0.04611
                        -----------------------------------------
Magnitude (a.u.)       :      0.68974
Magnitude (Debye)      :      1.75319

Rotational constants in cm-1:     0.019122     0.008330     0.006638
Rotational constants in MHz :   573.270009   249.742106   198.989014

                             ****ORCA TERMINATED NORMALLY****
TOTAL RUN TIME: 0 days 0 hours 0 minutes 32 seconds 116 msec
