                         Program Version 4.2.1 -  RELEASE  -
|  1> ! wB97X-D3 SP def2-SVP
|  2> %pal
|  3> nprocs 16
|  4> end
|  5>
|  6> * xyz 0 1
|  7> S 	 -15.5426 	 75.3908 	 55.3089
|  8> C 	 -16.8512 	 74.4737 	 54.6292
|  9> C 	 -16.4171 	 73.3859 	 53.888
| 10> C 	 -15.0004 	 73.2686 	 53.9397
| 11> C 	 -14.4021 	 74.3739 	 54.5664
| 12> H 	 -14.3403 	 72.5245 	 53.63
| 13> C 	 -17.1916 	 72.3119 	 53.121
| 14> H 	 -18.2186 	 72.1443 	 53.4364
| 15> H 	 -16.7584 	 71.3216 	 53.1593
| 16> C 	 -17.1904 	 72.5789 	 51.5633
| 17> H 	 -17.4961 	 73.5947 	 51.3586
| 18> H 	 -16.2747 	 72.7247 	 51.0778
| 19> C 	 -18.0846 	 71.647 	 50.645
| 20> H 	 -19.0244 	 71.5378 	 51.0398
| 21> H 	 -18.3441 	 72.0983 	 49.6987
| 22> H 	 -17.8895 	 70.5855 	 50.5491
| 23> S 	 -12.543 	 75.4898 	 56.2689
| 24> C 	 -10.8004 	 75.2355 	 55.97
| 25> C 	 -10.652 	 74.6376 	 54.709
| 26> C 	 -11.807 	 74.3223 	 54.0547
| 27> C 	 -12.9586 	 74.662 	 54.7385
| 28> H 	 -9.63721 	 74.4861 	 54.3011
| 29> C 	 -11.8608 	 73.5128 	 52.7793
| 30> H 	 -12.6627 	 73.9416 	 52.2175
| 31> H 	 -12.273 	 72.4973 	 52.9957
| 32> C 	 -10.6123 	 73.5562 	 51.8319
| 33> H 	 -10.612 	 72.7998 	 51.0641
| 34> H 	 -9.8232 	 73.2577 	 52.5431
| 35> C 	 -10.4184 	 74.875 	 51.2135
| 36> H 	 -11.071 	 75.0443 	 50.4299
| 37> H 	 -9.44926 	 75.0509 	 50.7571
| 38> H 	 -10.4153 	 75.7018 	 51.8678
| 39> H 	 -17.9107 	 74.7476 	 54.6878
| 40> H 	 -10.0229 	 75.6148 	 56.6239
| 41> *
| 42>
| 43>                          ****END OF INPUT****

CARTESIAN COORDINATES (ANGSTROEM)
---------------------------------
  S    -15.542600   75.390800   55.308900
  C    -16.851200   74.473700   54.629200
  C    -16.417100   73.385900   53.888000
  C    -15.000400   73.268600   53.939700
  C    -14.402100   74.373900   54.566400
  H    -14.340300   72.524500   53.630000
  C    -17.191600   72.311900   53.121000
  H    -18.218600   72.144300   53.436400
  H    -16.758400   71.321600   53.159300
  C    -17.190400   72.578900   51.563300
  H    -17.496100   73.594700   51.358600
  H    -16.274700   72.724700   51.077800
  C    -18.084600   71.647000   50.645000
  H    -19.024400   71.537800   51.039800
  H    -18.344100   72.098300   49.698700
  H    -17.889500   70.585500   50.549100
  S    -12.543000   75.489800   56.268900
  C    -10.800400   75.235500   55.970000
  C    -10.652000   74.637600   54.709000
  C    -11.807000   74.322300   54.054700
  C    -12.958600   74.662000   54.738500
  H     -9.637210   74.486100   54.301100
  C    -11.860800   73.512800   52.779300
  H    -12.662700   73.941600   52.217500
  H    -12.273000   72.497300   52.995700
  C    -10.612300   73.556200   51.831900
  H    -10.612000   72.799800   51.064100
  H     -9.823200   73.257700   52.543100
  C    -10.418400   74.875000   51.213500
  H    -11.071000   75.044300   50.429900
  H     -9.449260   75.050900   50.757100
  H    -10.415300   75.701800   51.867800
  H    -17.910700   74.747600   54.687800
  H    -10.022900   75.614800   56.623900

 Total Charge           Charge          ....    0
 Multiplicity           Mult            ....    1
 Number of Electrons    NEL             ....  134
 Basis Dimension        Dim             ....  322

ORBITAL ENERGIES
----------------

  NO   OCC          E(Eh)            E(eV)
   0   2.0000     -88.970191     -2421.0020
   1   2.0000     -88.965441     -2420.8727
   2   2.0000     -10.330182      -281.0985
   3   2.0000     -10.329751      -281.0868
   4   2.0000     -10.324289      -280.9382
   5   2.0000     -10.316129      -280.7161
   6   2.0000     -10.307581      -280.4835
   7   2.0000     -10.299974      -280.2765
   8   2.0000     -10.299657      -280.2679
   9   2.0000     -10.295076      -280.1433
  10   2.0000     -10.292536      -280.0742
  11   2.0000     -10.290413      -280.0164
  12   2.0000     -10.288270      -279.9581
  13   2.0000     -10.286079      -279.8984
  14   2.0000     -10.272266      -279.5226
  15   2.0000     -10.264240      -279.3042
  16   2.0000      -8.085982      -220.0308
  17   2.0000      -8.079201      -219.8462
  18   2.0000      -6.044452      -164.4779
  19   2.0000      -6.040321      -164.3655
  20   2.0000      -6.037711      -164.2945
  21   2.0000      -6.036756      -164.2685
  22   2.0000      -6.033836      -164.1890
  23   2.0000      -6.030037      -164.0856
  24   2.0000      -1.011370       -27.5208
  25   2.0000      -0.986613       -26.8471
  26   2.0000      -0.914290       -24.8791
  27   2.0000      -0.905043       -24.6275
  28   2.0000      -0.866079       -23.5672
  29   2.0000      -0.859582       -23.3904
  30   2.0000      -0.847672       -23.0663
  31   2.0000      -0.812511       -22.1096
  32   2.0000      -0.788688       -21.4613
  33   2.0000      -0.778681       -21.1890
  34   2.0000      -0.718516       -19.5518
  35   2.0000      -0.710276       -19.3276
  36   2.0000      -0.699287       -19.0286
  37   2.0000      -0.663139       -18.0449
  38   2.0000      -0.647334       -17.6148
  39   2.0000      -0.621606       -16.9148
  40   2.0000      -0.600810       -16.3489
  41   2.0000      -0.568184       -15.4611
  42   2.0000      -0.556987       -15.1564
  43   2.0000      -0.549960       -14.9652
  44   2.0000      -0.545015       -14.8306
  45   2.0000      -0.525298       -14.2941
  46   2.0000      -0.519368       -14.1327
  47   2.0000      -0.510564       -13.8932
  48   2.0000      -0.504701       -13.7336
  49   2.0000      -0.497172       -13.5287
  50   2.0000      -0.493474       -13.4281
  51   2.0000      -0.479452       -13.0466
  52   2.0000      -0.474692       -12.9170
  53   2.0000      -0.468927       -12.7601
  54   2.0000      -0.466073       -12.6825
  55   2.0000      -0.453618       -12.3436
  56   2.0000      -0.446520       -12.1504
  57   2.0000      -0.445242       -12.1156
  58   2.0000      -0.439542       -11.9606
  59   2.0000      -0.430066       -11.7027
  60   2.0000      -0.417501       -11.3608
  61   2.0000      -0.407955       -11.1010
  62   2.0000      -0.406614       -11.0645
  63   2.0000      -0.354257        -9.6398
  64   2.0000      -0.337336        -9.1794
  65   2.0000      -0.331868        -9.0306
  66   2.0000      -0.282200        -7.6791
  67   0.0000       0.018532         0.5043
  68   0.0000       0.075804         2.0627
  69   0.0000       0.095709         2.6044
  70   0.0000       0.124819         3.3965
  71   0.0000       0.135448         3.6857

MULLIKEN ATOMIC CHARGES
-----------------------
   0 S :    0.119761
   1 C :   -0.121646
   2 C :   -0.049015
   3 C :    0.021930
   4 C :   -0.134193
   5 H :   -0.022376
   6 C :    0.092013
   7 H :    0.020638
   8 H :    0.028962
   9 C :   -0.064484
  10 H :    0.007496
  11 H :    0.010840
  12 C :   -0.016556
  13 H :   -0.010439
  14 H :    0.028075
  15 H :    0.025348
  16 S :    0.076055
  17 C :   -0.099048
  18 C :   -0.059282
  19 C :   -0.027476
  20 C :   -0.131652
  21 H :    0.029702
  22 C :    0.019132
  23 H :    0.019641
  24 H :    0.057166
  25 C :   -0.035900
  26 H :    0.024068
  27 H :    0.024803
  28 C :   -0.001310
  29 H :    0.015368
  30 H :    0.016698
  31 H :    0.018889
  32 H :    0.051914
  33 H :    0.064878
Sum of atomic charges:   -0.0000000

LOEWDIN ATOMIC CHARGES
----------------------
   0 S :    0.436415
   1 C :   -0.206660
   2 C :   -0.056581
   3 C :   -0.059261
   4 C :   -0.201141
   5 H :    0.019559
   6 C :   -0.024312
   7 H :    0.028385
   8 H :    0.032771
   9 C :   -0.040423
  10 H :    0.024287
  11 H :    0.017047
  12 C :   -0.071749
  13 H :    0.013477
  14 H :    0.031006
  15 H :    0.025356
  16 S :    0.373078
  17 C :   -0.172364
  18 C :   -0.076497
  19 C :   -0.068266
  20 C :   -0.176900
  21 H :    0.036503
  22 C :   -0.033110
  23 H :    0.027100
  24 H :    0.035228
  25 C :   -0.037312
  26 H :    0.026513
  27 H :    0.022745
  28 C :   -0.061995
  29 H :    0.019758
  30 H :    0.030698
  31 H :    0.022872
  32 H :    0.032814
  33 H :    0.030958

  Mayer bond orders larger than 0.100000
B(  0-S ,  1-C ) :   1.1409 B(  0-S ,  4-C ) :   1.1763 B(  1-C ,  2-C ) :   1.6090
B(  1-C , 32-H ) :   0.9658 B(  2-C ,  3-C ) :   1.2273 B(  2-C ,  6-C ) :   1.0341
B(  3-C ,  4-C ) :   1.5449 B(  3-C ,  5-H ) :   1.0056 B(  4-C , 20-C ) :   1.0407
B(  6-C ,  7-H ) :   0.9455 B(  6-C ,  8-H ) :   0.9461 B(  6-C ,  9-C ) :   1.0370
B(  9-C , 10-H ) :   0.9496 B(  9-C , 11-H ) :   0.9586 B(  9-C , 12-C ) :   1.0733
B( 12-C , 13-H ) :   0.9660 B( 12-C , 14-H ) :   0.9737 B( 12-C , 15-H ) :   0.9763
B( 16-S , 17-C ) :   1.1599 B( 16-S , 20-C ) :   1.1382 B( 17-C , 18-C ) :   1.5608
B( 17-C , 20-C ) :   0.1209 B( 17-C , 33-H ) :   0.9697 B( 18-C , 19-C ) :   1.2878
B( 18-C , 21-H ) :   0.9817 B( 19-C , 20-C ) :   1.5847 B( 19-C , 22-C ) :   1.0193
B( 22-C , 23-H ) :   0.9300 B( 22-C , 24-H ) :   0.9315 B( 22-C , 25-C ) :   1.0598
B( 25-C , 26-H ) :   0.9517 B( 25-C , 27-H ) :   0.9517 B( 25-C , 28-C ) :   1.0914
B( 28-C , 29-H ) :   0.9692 B( 28-C , 30-H ) :   0.9644 B( 28-C , 31-H ) :   0.9711

Dispersion correction           -0.013804489
FINAL SINGLE POINT ENERGY     -1339.848101782919

DIPOLE MOMENT
-------------
                                X             Y             Z
Electronic contribution:      1.50839      14.12531      27.13026
Nuclear contribution   :     -1.42261     -14.46977     -27.67422
                        -----------------------------------------
Total Dipole Moment    :      0.08578      -0.34446      -0.54396
                        -----------------------------------------
Magnitude (a.u.)       :      0.64954
Magnitude (Debye)      :      1.65100

Rotational constants in cm-1:     0.018136     0.008586     0.006173
Rotational constants in MHz :   543.689649   257.415763   185.051336

                             ****ORCA TERMINATED NORMALLY****
TOTAL RUN TIME: 0 days 0 hours 0 minutes 33 seconds 774 msec
