                         Program Version 4.2.1 -  RELEASE  -
|  1> ! wB97X-D3 SP def2-SVP
|  2> %pal
|  3> nprocs 16
|  4> end
|  5>
|  6> * xyz 0 1
|  7> S 	 -53.9353 	 41.3093 	 112.277
|  8> C 	 -52.9511 	 40.4773 	 111.058
|  9> C 	 -53.5147 	 39.3072 	 110.594
| 10> C 	 -54.8551 	 39.149 	 111.072
| 11> C 	 -55.2351 	 40.1865 	 111.915
| 12> H 	 -55.5845 	 38.3885 	 110.872
| 13> C 	 -52.7514 	 38.2678 	 109.812
| 14> H 	 -53.3229 	 37.9041 	 108.892
| 15> H 	 -52.6224 	 37.342 	 110.498
| 16> C 	 -51.3253 	 38.7087 	 109.346
| 17> H 	 -51.4882 	 39.5757 	 108.8
| 18> H 	 -50.752 	 38.9615 	 110.234
| 19> C 	 -50.5834 	 37.6857 	 108.415
| 20> H 	 -51.174 	 37.5518 	 107.458
| 21> H 	 -49.6264 	 38.0773 	 108.211
| 22> H 	 -50.4055 	 36.7892 	 108.933
| 23> S 	 -56.6484 	 39.2338 	 114.087
| 24> C 	 -58.3317 	 39.5866 	 114.183
| 25> C 	 -58.7325 	 40.5044 	 113.238
| 26> C 	 -57.6754 	 40.7299 	 112.306
| 27> C 	 -56.4717 	 40.1552 	 112.645
| 28> H 	 -59.6877 	 40.9702 	 113.256
| 29> C 	 -57.9468 	 41.5091 	 111.023
| 30> H 	 -57.033 	 41.9311 	 110.692
| 31> H 	 -58.4859 	 42.485 	 111.242
| 32> C 	 -58.6008 	 40.6574 	 109.982
| 33> H 	 -59.6289 	 40.7749 	 110.105
| 34> H 	 -58.4857 	 39.4862 	 109.986
| 35> C 	 -58.3192 	 41.2536 	 108.631
| 36> H 	 -58.5042 	 42.3029 	 108.442
| 37> H 	 -58.9832 	 40.8057 	 107.936
| 38> H 	 -57.3677 	 41.0227 	 108.34
| 39> H 	 -51.975 	 40.7802 	 110.877
| 40> H 	 -59.0138 	 39.2176 	 114.92
| 41> *
| 42>
| 43>                          ****END OF INPUT****

CARTESIAN COORDINATES (ANGSTROEM)
---------------------------------
  S    -53.935300   41.309300  112.277000
  C    -52.951100   40.477300  111.058000
  C    -53.514700   39.307200  110.594000
  C    -54.855100   39.149000  111.072000
  C    -55.235100   40.186500  111.915000
  H    -55.584500   38.388500  110.872000
  C    -52.751400   38.267800  109.812000
  H    -53.322900   37.904100  108.892000
  H    -52.622400   37.342000  110.498000
  C    -51.325300   38.708700  109.346000
  H    -51.488200   39.575700  108.800000
  H    -50.752000   38.961500  110.234000
  C    -50.583400   37.685700  108.415000
  H    -51.174000   37.551800  107.458000
  H    -49.626400   38.077300  108.211000
  H    -50.405500   36.789200  108.933000
  S    -56.648400   39.233800  114.087000
  C    -58.331700   39.586600  114.183000
  C    -58.732500   40.504400  113.238000
  C    -57.675400   40.729900  112.306000
  C    -56.471700   40.155200  112.645000
  H    -59.687700   40.970200  113.256000
  C    -57.946800   41.509100  111.023000
  H    -57.033000   41.931100  110.692000
  H    -58.485900   42.485000  111.242000
  C    -58.600800   40.657400  109.982000
  H    -59.628900   40.774900  110.105000
  H    -58.485700   39.486200  109.986000
  C    -58.319200   41.253600  108.631000
  H    -58.504200   42.302900  108.442000
  H    -58.983200   40.805700  107.936000
  H    -57.367700   41.022700  108.340000
  H    -51.975000   40.780200  110.877000
  H    -59.013800   39.217600  114.920000

 Total Charge           Charge          ....    0
 Multiplicity           Mult            ....    1
 Number of Electrons    NEL             ....  134
 Basis Dimension        Dim             ....  322

ORBITAL ENERGIES
----------------

  NO   OCC          E(Eh)            E(eV)
   0   2.0000     -88.966406     -2420.8990
   1   2.0000     -88.962241     -2420.7856
   2   2.0000     -10.323973      -280.9296
   3   2.0000     -10.312425      -280.6154
   4   2.0000     -10.310589      -280.5654
   5   2.0000     -10.309218      -280.5281
   6   2.0000     -10.304594      -280.4023
   7   2.0000     -10.303233      -280.3652
   8   2.0000     -10.294169      -280.1186
   9   2.0000     -10.293466      -280.0994
  10   2.0000     -10.285916      -279.8940
  11   2.0000     -10.285122      -279.8724
  12   2.0000     -10.283444      -279.8267
  13   2.0000     -10.281190      -279.7654
  14   2.0000     -10.280043      -279.7342
  15   2.0000     -10.258851      -279.1575
  16   2.0000      -8.080652      -219.8857
  17   2.0000      -8.077969      -219.8127
  18   2.0000      -6.039077      -164.3316
  19   2.0000      -6.036371      -164.2580
  20   2.0000      -6.035395      -164.2314
  21   2.0000      -6.032321      -164.1478
  22   2.0000      -6.031365      -164.1218
  23   2.0000      -6.028800      -164.0520
  24   2.0000      -1.008257       -27.4361
  25   2.0000      -0.983529       -26.7632
  26   2.0000      -0.914098       -24.8739
  27   2.0000      -0.907514       -24.6947
  28   2.0000      -0.868346       -23.6289
  29   2.0000      -0.850955       -23.1557
  30   2.0000      -0.849740       -23.1226
  31   2.0000      -0.813214       -22.1287
  32   2.0000      -0.781598       -21.2684
  33   2.0000      -0.767839       -20.8940
  34   2.0000      -0.713923       -19.4268
  35   2.0000      -0.700708       -19.0672
  36   2.0000      -0.692758       -18.8509
  37   2.0000      -0.658816       -17.9273
  38   2.0000      -0.646012       -17.5789
  39   2.0000      -0.607599       -16.5336
  40   2.0000      -0.595474       -16.2037
  41   2.0000      -0.572673       -15.5832
  42   2.0000      -0.568576       -15.4717
  43   2.0000      -0.561712       -15.2850
  44   2.0000      -0.530202       -14.4275
  45   2.0000      -0.519723       -14.1424
  46   2.0000      -0.518558       -14.1107
  47   2.0000      -0.511923       -13.9301
  48   2.0000      -0.504397       -13.7254
  49   2.0000      -0.499072       -13.5804
  50   2.0000      -0.492963       -13.4142
  51   2.0000      -0.479359       -13.0440
  52   2.0000      -0.471940       -12.8421
  53   2.0000      -0.465136       -12.6570
  54   2.0000      -0.456646       -12.4260
  55   2.0000      -0.446487       -12.1495
  56   2.0000      -0.444316       -12.0905
  57   2.0000      -0.440337       -11.9822
  58   2.0000      -0.434794       -11.8314
  59   2.0000      -0.431025       -11.7288
  60   2.0000      -0.420665       -11.4469
  61   2.0000      -0.410444       -11.1688
  62   2.0000      -0.403081       -10.9684
  63   2.0000      -0.335603        -9.1322
  64   2.0000      -0.326140        -8.8747
  65   2.0000      -0.314142        -8.5482
  66   2.0000      -0.312018        -8.4904
  67   0.0000       0.047640         1.2963
  68   0.0000       0.058683         1.5968
  69   0.0000       0.108589         2.9548
  70   0.0000       0.122594         3.3360
  71   0.0000       0.131990         3.5916

MULLIKEN ATOMIC CHARGES
-----------------------
   0 S :    0.116859
   1 C :   -0.107706
   2 C :   -0.044462
   3 C :    0.035363
   4 C :   -0.174569
   5 H :    0.012597
   6 C :    0.001203
   7 H :    0.041364
   8 H :    0.054183
   9 C :   -0.117988
  10 H :    0.022750
  11 H :    0.037827
  12 C :    0.005452
  13 H :    0.044752
  14 H :    0.022032
  15 H :    0.022326
  16 S :    0.128928
  17 C :   -0.091106
  18 C :   -0.014908
  19 C :   -0.053298
  20 C :   -0.182292
  21 H :    0.009623
  22 C :    0.085666
  23 H :    0.005943
  24 H :    0.031427
  25 C :   -0.065864
  26 H :    0.007936
  27 H :    0.056029
  28 C :   -0.004479
  29 H :    0.023568
  30 H :    0.005492
  31 H :    0.016752
  32 H :    0.021301
  33 H :    0.047301
Sum of atomic charges:    0.0000000

LOEWDIN ATOMIC CHARGES
----------------------
   0 S :    0.394149
   1 C :   -0.180151
   2 C :   -0.062910
   3 C :   -0.048383
   4 C :   -0.192117
   5 H :    0.032294
   6 C :   -0.040991
   7 H :    0.035192
   8 H :    0.042926
   9 C :   -0.039766
  10 H :    0.013586
  11 H :    0.022721
  12 C :   -0.052719
  13 H :    0.035266
  14 H :    0.021927
  15 H :    0.018044
  16 S :    0.429287
  17 C :   -0.187976
  18 C :   -0.070115
  19 C :   -0.049181
  20 C :   -0.229481
  21 H :    0.028414
  22 C :   -0.032969
  23 H :    0.018940
  24 H :    0.039983
  25 C :   -0.043616
  26 H :    0.015732
  27 H :    0.042546
  28 C :   -0.055116
  29 H :    0.026922
  30 H :    0.020721
  31 H :    0.013004
  32 H :    0.008712
  33 H :    0.025126

  Mayer bond orders larger than 0.100000
B(  0-S ,  1-C ) :   1.1253 B(  0-S ,  4-C ) :   1.1408 B(  1-C ,  2-C ) :   1.6338
B(  1-C , 32-H ) :   0.9655 B(  2-C ,  3-C ) :   1.2064 B(  2-C ,  6-C ) :   1.0200
B(  3-C ,  4-C ) :   1.6046 B(  3-C ,  5-H ) :   1.0007 B(  4-C , 20-C ) :   1.0314
B(  6-C ,  7-H ) :   0.9412 B(  6-C ,  8-H ) :   0.9352 B(  6-C ,  9-C ) :   1.0777
B(  9-C , 10-H ) :   0.9545 B(  9-C , 11-H ) :   0.9478 B(  9-C , 12-C ) :   1.0857
B( 12-C , 13-H ) :   0.9743 B( 12-C , 14-H ) :   0.9710 B( 12-C , 15-H ) :   0.9754
B( 16-S , 17-C ) :   1.1753 B( 16-S , 20-C ) :   1.1369 B( 17-C , 18-C ) :   1.5911
B( 17-C , 33-H ) :   0.9672 B( 18-C , 19-C ) :   1.2498 B( 18-C , 21-H ) :   0.9987
B( 19-C , 20-C ) :   1.6104 B( 19-C , 22-C ) :   1.0453 B( 22-C , 23-H ) :   0.9343
B( 22-C , 24-H ) :   0.9280 B( 22-C , 25-C ) :   1.0435 B( 25-C , 26-H ) :   0.9461
B( 25-C , 27-H ) :   0.9578 B( 25-C , 28-C ) :   1.0925 B( 28-C , 29-H ) :   0.9687
B( 28-C , 30-H ) :   0.9675 B( 28-C , 31-H ) :   0.9769

Dispersion correction           -0.014129485
FINAL SINGLE POINT ENERGY     -1339.860712431925

DIPOLE MOMENT
-------------
                                X             Y             Z
Electronic contribution:     -3.64196       4.43859      25.19209
Nuclear contribution   :      3.55791      -4.61899     -25.64069
                        -----------------------------------------
Total Dipole Moment    :     -0.08405      -0.18041      -0.44860
                        -----------------------------------------
Magnitude (a.u.)       :      0.49076
Magnitude (Debye)      :      1.24742

Rotational constants in cm-1:     0.020620     0.007603     0.006493
Rotational constants in MHz :   618.182586   227.928867   194.644290

                             ****ORCA TERMINATED NORMALLY****
TOTAL RUN TIME: 0 days 0 hours 0 minutes 29 seconds 388 msec
