                         Program Version 4.2.1 -  RELEASE  -
|  1> ! wB97X-D3 SP def2-SVP
|  2> %pal
|  3> nprocs 16
|  4> end
|  5>
|  6> * xyz 0 1
|  7> S 	 -40.7769 	 37.31 	 84.6041
|  8> C 	 -39.3934 	 38.4078 	 84.7353
|  9> C 	 -38.4204 	 38.132 	 83.7647
| 10> C 	 -38.7062 	 36.9614 	 83.0492
| 11> C 	 -39.8868 	 36.3413 	 83.3862
| 12> H 	 -38.0389 	 36.5378 	 82.3228
| 13> C 	 -37.1531 	 38.9313 	 83.5034
| 14> H 	 -37.2956 	 39.9408 	 83.2848
| 15> H 	 -36.5988 	 38.4182 	 82.662
| 16> C 	 -36.0663 	 38.9301 	 84.57
| 17> H 	 -36.3991 	 39.5997 	 85.3113
| 18> H 	 -35.9872 	 37.9748 	 85.0596
| 19> C 	 -34.6214 	 39.264 	 84.2243
| 20> H 	 -34.1792 	 38.5626 	 83.4274
| 21> H 	 -34.3845 	 40.2772 	 83.8514
| 22> H 	 -34.0118 	 39.121 	 85.1411
| 23> S 	 -41.926 	 35.3142 	 81.8942
| 24> C 	 -41.9634 	 33.5538 	 81.5839
| 25> C 	 -40.7401 	 32.9396 	 81.8553
| 26> C 	 -39.9049 	 33.8198 	 82.581
| 27> C 	 -40.391 	 35.1239 	 82.7192
| 28> H 	 -40.5113 	 31.8935 	 81.6925
| 29> C 	 -38.6959 	 33.3009 	 83.3725
| 30> H 	 -39.1425 	 32.7094 	 84.1903
| 31> H 	 -38.1737 	 34.1466 	 83.8009
| 32> C 	 -37.6197 	 32.4673 	 82.6323
| 33> H 	 -37.4335 	 33.075 	 81.7497
| 34> H 	 -37.9976 	 31.4735 	 82.3589
| 35> C 	 -36.2784 	 32.3539 	 83.4496
| 36> H 	 -35.7302 	 33.3094 	 83.4263
| 37> H 	 -35.6203 	 31.5728 	 82.9866
| 38> H 	 -36.3453 	 32.2166 	 84.5424
| 39> H 	 -39.4592 	 39.2032 	 85.4737
| 40> H 	 -42.79 	 32.9328 	 81.3115
| 41> *
| 42>
| 43>                          ****END OF INPUT****

CARTESIAN COORDINATES (ANGSTROEM)
---------------------------------
  S    -40.776900   37.310000   84.604100
  C    -39.393400   38.407800   84.735300
  C    -38.420400   38.132000   83.764700
  C    -38.706200   36.961400   83.049200
  C    -39.886800   36.341300   83.386200
  H    -38.038900   36.537800   82.322800
  C    -37.153100   38.931300   83.503400
  H    -37.295600   39.940800   83.284800
  H    -36.598800   38.418200   82.662000
  C    -36.066300   38.930100   84.570000
  H    -36.399100   39.599700   85.311300
  H    -35.987200   37.974800   85.059600
  C    -34.621400   39.264000   84.224300
  H    -34.179200   38.562600   83.427400
  H    -34.384500   40.277200   83.851400
  H    -34.011800   39.121000   85.141100
  S    -41.926000   35.314200   81.894200
  C    -41.963400   33.553800   81.583900
  C    -40.740100   32.939600   81.855300
  C    -39.904900   33.819800   82.581000
  C    -40.391000   35.123900   82.719200
  H    -40.511300   31.893500   81.692500
  C    -38.695900   33.300900   83.372500
  H    -39.142500   32.709400   84.190300
  H    -38.173700   34.146600   83.800900
  C    -37.619700   32.467300   82.632300
  H    -37.433500   33.075000   81.749700
  H    -37.997600   31.473500   82.358900
  C    -36.278400   32.353900   83.449600
  H    -35.730200   33.309400   83.426300
  H    -35.620300   31.572800   82.986600
  H    -36.345300   32.216600   84.542400
  H    -39.459200   39.203200   85.473700
  H    -42.790000   32.932800   81.311500

 Total Charge           Charge          ....    0
 Multiplicity           Mult            ....    1
 Number of Electrons    NEL             ....  134
 Basis Dimension        Dim             ....  322

ORBITAL ENERGIES
----------------

  NO   OCC          E(Eh)            E(eV)
   0   2.0000     -88.970081     -2420.9990
   1   2.0000     -88.966205     -2420.8935
   2   2.0000     -10.332587      -281.1640
   3   2.0000     -10.326118      -280.9879
   4   2.0000     -10.322790      -280.8974
   5   2.0000     -10.319798      -280.8160
   6   2.0000     -10.305653      -280.4311
   7   2.0000     -10.302846      -280.3547
   8   2.0000     -10.295096      -280.1438
   9   2.0000     -10.292686      -280.0782
  10   2.0000     -10.292455      -280.0719
  11   2.0000     -10.291582      -280.0482
  12   2.0000     -10.289371      -279.9880
  13   2.0000     -10.289291      -279.9858
  14   2.0000     -10.287252      -279.9304
  15   2.0000     -10.280023      -279.7337
  16   2.0000      -8.083750      -219.9700
  17   2.0000      -8.080264      -219.8752
  18   2.0000      -6.042247      -164.4179
  19   2.0000      -6.038826      -164.3248
  20   2.0000      -6.038386      -164.3128
  21   2.0000      -6.034968      -164.2198
  22   2.0000      -6.034603      -164.2099
  23   2.0000      -6.030905      -164.1093
  24   2.0000      -1.001393       -27.2493
  25   2.0000      -0.980291       -26.6751
  26   2.0000      -0.913166       -24.8485
  27   2.0000      -0.900916       -24.5152
  28   2.0000      -0.866941       -23.5907
  29   2.0000      -0.853110       -23.2143
  30   2.0000      -0.844351       -22.9760
  31   2.0000      -0.813106       -22.1258
  32   2.0000      -0.781120       -21.2554
  33   2.0000      -0.766806       -20.8658
  34   2.0000      -0.703459       -19.1421
  35   2.0000      -0.699876       -19.0446
  36   2.0000      -0.693745       -18.8778
  37   2.0000      -0.660602       -17.9759
  38   2.0000      -0.647291       -17.6137
  39   2.0000      -0.623685       -16.9713
  40   2.0000      -0.589313       -16.0360
  41   2.0000      -0.570501       -15.5241
  42   2.0000      -0.567866       -15.4524
  43   2.0000      -0.564338       -15.3564
  44   2.0000      -0.524110       -14.2617
  45   2.0000      -0.521619       -14.1940
  46   2.0000      -0.515539       -14.0285
  47   2.0000      -0.509021       -13.8512
  48   2.0000      -0.498579       -13.5670
  49   2.0000      -0.496085       -13.4992
  50   2.0000      -0.487222       -13.2580
  51   2.0000      -0.479803       -13.0561
  52   2.0000      -0.472197       -12.8491
  53   2.0000      -0.466947       -12.7063
  54   2.0000      -0.458844       -12.4858
  55   2.0000      -0.453092       -12.3293
  56   2.0000      -0.449141       -12.2217
  57   2.0000      -0.435183       -11.8419
  58   2.0000      -0.427959       -11.6454
  59   2.0000      -0.423559       -11.5256
  60   2.0000      -0.421619       -11.4728
  61   2.0000      -0.417942       -11.3728
  62   2.0000      -0.411100       -11.1866
  63   2.0000      -0.342920        -9.3313
  64   2.0000      -0.332962        -9.0603
  65   2.0000      -0.328799        -8.9471
  66   2.0000      -0.292050        -7.9471
  67   0.0000       0.026426         0.7191
  68   0.0000       0.059879         1.6294
  69   0.0000       0.104449         2.8422
  70   0.0000       0.120604         3.2818
  71   0.0000       0.123127         3.3504

MULLIKEN ATOMIC CHARGES
-----------------------
   0 S :    0.111371
   1 C :   -0.143944
   2 C :   -0.045128
   3 C :    0.043130
   4 C :   -0.156244
   5 H :    0.010628
   6 C :    0.091879
   7 H :    0.023741
   8 H :    0.016599
   9 C :   -0.060496
  10 H :    0.012942
  11 H :    0.023187
  12 C :   -0.092265
  13 H :    0.037134
  14 H :    0.034344
  15 H :    0.042678
  16 S :    0.106624
  17 C :   -0.086036
  18 C :   -0.029087
  19 C :   -0.036274
  20 C :   -0.170949
  21 H :    0.024556
  22 C :    0.041201
  23 H :    0.044989
  24 H :    0.017845
  25 C :   -0.078138
  26 H :    0.034761
  27 H :    0.036129
  28 C :   -0.077920
  29 H :    0.029583
  30 H :    0.047729
  31 H :    0.037409
  32 H :    0.056787
  33 H :    0.051234
Sum of atomic charges:   -0.0000000

LOEWDIN ATOMIC CHARGES
----------------------
   0 S :    0.387058
   1 C :   -0.181288
   2 C :   -0.062308
   3 C :   -0.053045
   4 C :   -0.189575
   5 H :    0.031858
   6 C :   -0.027046
   7 H :    0.024120
   8 H :    0.034328
   9 C :   -0.044648
  10 H :    0.015531
  11 H :    0.024932
  12 C :   -0.074081
  13 H :    0.029669
  14 H :    0.022145
  15 H :    0.033865
  16 S :    0.391968
  17 C :   -0.168199
  18 C :   -0.067104
  19 C :   -0.059571
  20 C :   -0.200319
  21 H :    0.033868
  22 C :   -0.032652
  23 H :    0.034920
  24 H :    0.025746
  25 C :   -0.039984
  26 H :    0.026813
  27 H :    0.020584
  28 C :   -0.076172
  29 H :    0.026360
  30 H :    0.032751
  31 H :    0.026998
  32 H :    0.026345
  33 H :    0.026135

  Mayer bond orders larger than 0.100000
B(  0-S ,  1-C ) :   1.1498 B(  0-S ,  4-C ) :   1.1434 B(  1-C ,  2-C ) :   1.5617
B(  1-C ,  4-C ) :   0.1046 B(  1-C , 32-H ) :   0.9764 B(  2-C ,  3-C ) :   1.2732
B(  2-C ,  6-C ) :   1.0236 B(  3-C ,  4-C ) :   1.5573 B(  3-C ,  5-H ) :   0.9948
B(  4-C , 20-C ) :   1.0309 B(  6-C ,  7-H ) :   0.9377 B(  6-C ,  8-H ) :   0.9447
B(  6-C ,  9-C ) :   1.0614 B(  9-C , 10-H ) :   0.9505 B(  9-C , 11-H ) :   0.9544
B(  9-C , 12-C ) :   1.0915 B( 12-C , 13-H ) :   0.9713 B( 12-C , 14-H ) :   0.9755
B( 12-C , 15-H ) :   0.9726 B( 16-S , 17-C ) :   1.1492 B( 16-S , 20-C ) :   1.1319
B( 17-C , 18-C ) :   1.6111 B( 17-C , 20-C ) :   0.1008 B( 17-C , 33-H ) :   0.9679
B( 18-C , 19-C ) :   1.2436 B( 18-C , 21-H ) :   0.9873 B( 19-C , 20-C ) :   1.6090
B( 19-C , 22-C ) :   1.0402 B( 22-C , 23-H ) :   0.9349 B( 22-C , 24-H ) :   0.9396
B( 22-C , 25-C ) :   1.0543 B( 25-C , 26-H ) :   0.9613 B( 25-C , 27-H ) :   0.9567
B( 25-C , 28-C ) :   1.0748 B( 28-C , 29-H ) :   0.9739 B( 28-C , 30-H ) :   0.9766
B( 28-C , 31-H ) :   0.9771

Dispersion correction           -0.013481743
FINAL SINGLE POINT ENERGY     -1339.869650448177

DIPOLE MOMENT
-------------
                                X             Y             Z
Electronic contribution:    -32.44173       2.82052      -3.48436
Nuclear contribution   :     33.06539      -2.94237       3.62558
                        -----------------------------------------
Total Dipole Moment    :      0.62366      -0.12185       0.14122
                        -----------------------------------------
Magnitude (a.u.)       :      0.65096
Magnitude (Debye)      :      1.65461

Rotational constants in cm-1:     0.016514     0.008608     0.006166
Rotational constants in MHz :   495.086973   258.063700   184.866786

                             ****ORCA TERMINATED NORMALLY****
TOTAL RUN TIME: 0 days 0 hours 0 minutes 28 seconds 495 msec
