                         Program Version 4.2.1 -  RELEASE  -
|  1> ! wB97X-D3 SP def2-SVP
|  2> %pal
|  3> nprocs 16
|  4> end
|  5>
|  6> * xyz 0 1
|  7> S 	 -57.9352 	 52.8591 	 135.963
|  8> C 	 -57.1301 	 51.3211 	 136.087
|  9> C 	 -57.7811 	 50.369 	 135.353
| 10> C 	 -58.9858 	 50.8872 	 134.8
| 11> C 	 -59.2686 	 52.2255 	 135.068
| 12> H 	 -59.6912 	 50.4874 	 134.128
| 13> C 	 -57.2402 	 49.0516 	 134.97
| 14> H 	 -56.1926 	 49.2226 	 134.934
| 15> H 	 -57.48 	 48.8249 	 133.869
| 16> C 	 -57.6831 	 47.8891 	 135.925
| 17> H 	 -58.8044 	 47.8727 	 136.037
| 18> H 	 -57.4641 	 46.9267 	 135.556
| 19> C 	 -56.9565 	 47.9949 	 137.292
| 20> H 	 -57.0144 	 47.1073 	 137.988
| 21> H 	 -55.9397 	 48.104 	 137.126
| 22> H 	 -57.2157 	 48.8744 	 137.921
| 23> S 	 -60.8276 	 52.8764 	 132.881
| 24> C 	 -62.229 	 53.9841 	 133.074
| 25> C 	 -62.1908 	 54.4942 	 134.357
| 26> C 	 -61.1576 	 54.0048 	 135.226
| 27> C 	 -60.4124 	 53.0329 	 134.552
| 28> H 	 -62.8512 	 55.3288 	 134.621
| 29> C 	 -61.0229 	 54.4879 	 136.688
| 30> H 	 -60.8318 	 53.6198 	 137.335
| 31> H 	 -61.9404 	 54.852 	 137.066
| 32> C 	 -59.9838 	 55.606 	 137.011
| 33> H 	 -60.1627 	 56.4553 	 136.281
| 34> H 	 -59.0358 	 55.1023 	 136.823
| 35> C 	 -60.1155 	 56.0766 	 138.48
| 36> H 	 -61.1219 	 56.4833 	 138.721
| 37> H 	 -59.3243 	 56.8021 	 138.593
| 38> H 	 -59.9393 	 55.2761 	 139.143
| 39> H 	 -56.2707 	 51.1386 	 136.728
| 40> H 	 -62.8688 	 54.4355 	 132.316
| 41> *
| 42>
| 43>                          ****END OF INPUT****

CARTESIAN COORDINATES (ANGSTROEM)
---------------------------------
  S    -57.935200   52.859100  135.963000
  C    -57.130100   51.321100  136.087000
  C    -57.781100   50.369000  135.353000
  C    -58.985800   50.887200  134.800000
  C    -59.268600   52.225500  135.068000
  H    -59.691200   50.487400  134.128000
  C    -57.240200   49.051600  134.970000
  H    -56.192600   49.222600  134.934000
  H    -57.480000   48.824900  133.869000
  C    -57.683100   47.889100  135.925000
  H    -58.804400   47.872700  136.037000
  H    -57.464100   46.926700  135.556000
  C    -56.956500   47.994900  137.292000
  H    -57.014400   47.107300  137.988000
  H    -55.939700   48.104000  137.126000
  H    -57.215700   48.874400  137.921000
  S    -60.827600   52.876400  132.881000
  C    -62.229000   53.984100  133.074000
  C    -62.190800   54.494200  134.357000
  C    -61.157600   54.004800  135.226000
  C    -60.412400   53.032900  134.552000
  H    -62.851200   55.328800  134.621000
  C    -61.022900   54.487900  136.688000
  H    -60.831800   53.619800  137.335000
  H    -61.940400   54.852000  137.066000
  C    -59.983800   55.606000  137.011000
  H    -60.162700   56.455300  136.281000
  H    -59.035800   55.102300  136.823000
  C    -60.115500   56.076600  138.480000
  H    -61.121900   56.483300  138.721000
  H    -59.324300   56.802100  138.593000
  H    -59.939300   55.276100  139.143000
  H    -56.270700   51.138600  136.728000
  H    -62.868800   54.435500  132.316000

 Total Charge           Charge          ....    0
 Multiplicity           Mult            ....    1
 Number of Electrons    NEL             ....  134
 Basis Dimension        Dim             ....  322

ORBITAL ENERGIES
----------------

  NO   OCC          E(Eh)            E(eV)
   0   2.0000     -88.970932     -2421.0222
   1   2.0000     -88.966750     -2420.9083
   2   2.0000     -10.333315      -281.1838
   3   2.0000     -10.329412      -281.0776
   4   2.0000     -10.321695      -280.8676
   5   2.0000     -10.313636      -280.6483
   6   2.0000     -10.307236      -280.4742
   7   2.0000     -10.298786      -280.2442
   8   2.0000     -10.296599      -280.1847
   9   2.0000     -10.295489      -280.1545
  10   2.0000     -10.292931      -280.0849
  11   2.0000     -10.288979      -279.9773
  12   2.0000     -10.288468      -279.9634
  13   2.0000     -10.287677      -279.9419
  14   2.0000     -10.278161      -279.6830
  15   2.0000     -10.276673      -279.6425
  16   2.0000      -8.084855      -220.0001
  17   2.0000      -8.081407      -219.9063
  18   2.0000      -6.043522      -164.4526
  19   2.0000      -6.039893      -164.3539
  20   2.0000      -6.039453      -164.3419
  21   2.0000      -6.035803      -164.2426
  22   2.0000      -6.035503      -164.2344
  23   2.0000      -6.032320      -164.1478
  24   2.0000      -1.008373       -27.4392
  25   2.0000      -0.986024       -26.8311
  26   2.0000      -0.911916       -24.8145
  27   2.0000      -0.902116       -24.5478
  28   2.0000      -0.867242       -23.5989
  29   2.0000      -0.850344       -23.1390
  30   2.0000      -0.843947       -22.9650
  31   2.0000      -0.815360       -22.1871
  32   2.0000      -0.782242       -21.2859
  33   2.0000      -0.772927       -21.0324
  34   2.0000      -0.712798       -19.3962
  35   2.0000      -0.698089       -18.9960
  36   2.0000      -0.689747       -18.7690
  37   2.0000      -0.666378       -18.1331
  38   2.0000      -0.640628       -17.4324
  39   2.0000      -0.613701       -16.6997
  40   2.0000      -0.594580       -16.1793
  41   2.0000      -0.572806       -15.5868
  42   2.0000      -0.564403       -15.3582
  43   2.0000      -0.542743       -14.7688
  44   2.0000      -0.536865       -14.6088
  45   2.0000      -0.523679       -14.2500
  46   2.0000      -0.521883       -14.2012
  47   2.0000      -0.506644       -13.7865
  48   2.0000      -0.505448       -13.7539
  49   2.0000      -0.500833       -13.6283
  50   2.0000      -0.484332       -13.1793
  51   2.0000      -0.480621       -13.0784
  52   2.0000      -0.472301       -12.8520
  53   2.0000      -0.467022       -12.7083
  54   2.0000      -0.460676       -12.5356
  55   2.0000      -0.447673       -12.1818
  56   2.0000      -0.439939       -11.9713
  57   2.0000      -0.434148       -11.8138
  58   2.0000      -0.429559       -11.6889
  59   2.0000      -0.425494       -11.5783
  60   2.0000      -0.424523       -11.5519
  61   2.0000      -0.421146       -11.4600
  62   2.0000      -0.410186       -11.1617
  63   2.0000      -0.348302        -9.4778
  64   2.0000      -0.333156        -9.0656
  65   2.0000      -0.328515        -8.9393
  66   2.0000      -0.294980        -8.0268
  67   0.0000       0.026962         0.7337
  68   0.0000       0.074081         2.0158
  69   0.0000       0.106801         2.9062
  70   0.0000       0.117944         3.2094
  71   0.0000       0.123660         3.3650

MULLIKEN ATOMIC CHARGES
-----------------------
   0 S :    0.096895
   1 C :   -0.121803
   2 C :   -0.061099
   3 C :    0.024926
   4 C :   -0.145832
   5 H :   -0.013458
   6 C :    0.030767
   7 H :    0.020403
   8 H :    0.046072
   9 C :   -0.020106
  10 H :    0.041480
  11 H :    0.019481
  12 C :   -0.078703
  13 H :    0.041680
  14 H :    0.007763
  15 H :    0.039150
  16 S :    0.111168
  17 C :   -0.098239
  18 C :   -0.044595
  19 C :   -0.018688
  20 C :   -0.153452
  21 H :    0.025471
  22 C :    0.054739
  23 H :    0.029271
  24 H :   -0.004664
  25 C :   -0.095405
  26 H :    0.039577
  27 H :    0.033689
  28 C :   -0.022382
  29 H :    0.036664
  30 H :    0.038363
  31 H :    0.022446
  32 H :    0.053746
  33 H :    0.064678
Sum of atomic charges:   -0.0000000

LOEWDIN ATOMIC CHARGES
----------------------
   0 S :    0.434988
   1 C :   -0.199490
   2 C :   -0.066691
   3 C :   -0.064699
   4 C :   -0.199541
   5 H :    0.018428
   6 C :   -0.033025
   7 H :    0.026035
   8 H :    0.043953
   9 C :   -0.031557
  10 H :    0.032109
  11 H :    0.017112
  12 C :   -0.074263
  13 H :    0.033298
  14 H :    0.011624
  15 H :    0.027623
  16 S :    0.405705
  17 C :   -0.186585
  18 C :   -0.066216
  19 C :   -0.058885
  20 C :   -0.198561
  21 H :    0.033021
  22 C :   -0.036339
  23 H :    0.031714
  24 H :    0.018874
  25 C :   -0.040437
  26 H :    0.028492
  27 H :    0.007707
  28 C :   -0.059735
  29 H :    0.028564
  30 H :    0.028813
  31 H :    0.019839
  32 H :    0.030849
  33 H :    0.037276

  Mayer bond orders larger than 0.100000
B(  0-S ,  1-C ) :   1.1490 B(  0-S ,  4-C ) :   1.1604 B(  1-C ,  2-C ) :   1.5922
B(  1-C , 32-H ) :   0.9664 B(  2-C ,  3-C ) :   1.2420 B(  2-C ,  6-C ) :   1.0103
B(  3-C ,  4-C ) :   1.5679 B(  3-C ,  5-H ) :   1.0059 B(  4-C , 20-C ) :   1.0232
B(  6-C ,  7-H ) :   0.9502 B(  6-C ,  8-H ) :   0.9467 B(  6-C ,  9-C ) :   1.0551
B(  9-C , 10-H ) :   0.9606 B(  9-C , 11-H ) :   0.9588 B(  9-C , 12-C ) :   1.0623
B( 12-C , 13-H ) :   0.9756 B( 12-C , 14-H ) :   0.9749 B( 12-C , 15-H ) :   0.9754
B( 16-S , 17-C ) :   1.1235 B( 16-S , 20-C ) :   1.1581 B( 17-C , 18-C ) :   1.6270
B( 17-C , 33-H ) :   0.9660 B( 18-C , 19-C ) :   1.2560 B( 18-C , 21-H ) :   0.9769
B( 19-C , 20-C ) :   1.5701 B( 19-C , 22-C ) :   1.0381 B( 22-C , 23-H ) :   0.9327
B( 22-C , 24-H ) :   0.9375 B( 22-C , 25-C ) :   1.0547 B( 25-C , 26-H ) :   0.9562
B( 25-C , 27-H ) :   0.9475 B( 25-C , 28-C ) :   1.0822 B( 28-C , 29-H ) :   0.9746
B( 28-C , 30-H ) :   0.9740 B( 28-C , 31-H ) :   0.9730

Dispersion correction           -0.014314407
FINAL SINGLE POINT ENERGY     -1339.876163324520

DIPOLE MOMENT
-------------
                                X             Y             Z
Electronic contribution:     -4.70582       5.69987     -17.09762
Nuclear contribution   :      4.76527      -5.75869      17.27659
                        -----------------------------------------
Total Dipole Moment    :      0.05944      -0.05882       0.17897
                        -----------------------------------------
Magnitude (a.u.)       :      0.19755
Magnitude (Debye)      :      0.50213

Rotational constants in cm-1:     0.019765     0.008291     0.006370
Rotational constants in MHz :   592.548587   248.561606   190.952994

                             ****ORCA TERMINATED NORMALLY****
TOTAL RUN TIME: 0 days 0 hours 0 minutes 34 seconds 446 msec
