                         Program Version 4.2.1 -  RELEASE  -
|  1> ! wB97X-D3 SP def2-SVP
|  2> %pal
|  3> nprocs 16
|  4> end
|  5>
|  6> * xyz 0 1
|  7> S 	 44.1621 	 19.3515 	 87.9442
|  8> C 	 42.6389 	 20.1239 	 87.5757
|  9> C 	 42.5234 	 20.5202 	 86.2691
| 10> C 	 43.6116 	 20.0037 	 85.4836
| 11> C 	 44.5515 	 19.3018 	 86.2162
| 12> H 	 43.899 	 20.2336 	 84.4334
| 13> C 	 41.3921 	 21.3854 	 85.681
| 14> H 	 41.0371 	 20.9327 	 84.7876
| 15> H 	 41.9739 	 22.2473 	 85.4414
| 16> C 	 40.196 	 21.6664 	 86.6217
| 17> H 	 39.7861 	 20.6964 	 86.958
| 18> H 	 40.427 	 22.063 	 87.6278
| 19> C 	 39.0919 	 22.4911 	 85.9705
| 20> H 	 38.4755 	 22.0188 	 85.2061
| 21> H 	 38.2695 	 22.8043 	 86.6424
| 22> H 	 39.5324 	 23.4945 	 85.8067
| 23> S 	 47.2247 	 19.6608 	 86.3145
| 24> C 	 48.3963 	 18.5132 	 85.7366
| 25> C 	 47.7053 	 17.6173 	 84.8955
| 26> C 	 46.2537 	 17.6221 	 85.0939
| 27> C 	 45.8233 	 18.7552 	 85.7973
| 28> H 	 48.1725 	 16.8658 	 84.2636
| 29> C 	 45.3613 	 16.5555 	 84.5038
| 30> H 	 45.4891 	 16.6578 	 83.4642
| 31> H 	 44.3693 	 16.8036 	 84.7736
| 32> C 	 45.6956 	 14.9828 	 84.8137
| 33> H 	 45.7394 	 14.7498 	 85.9146
| 34> H 	 46.7569 	 14.7902 	 84.3914
| 35> C 	 44.6901 	 13.9461 	 84.2266
| 36> H 	 44.5121 	 14.285 	 83.2019
| 37> H 	 43.6478 	 14.0594 	 84.7148
| 38> H 	 45.0397 	 12.9207 	 84.3513
| 39> H 	 41.8545 	 20.2248 	 88.2937
| 40> H 	 49.4781 	 18.5282 	 85.8333
| 41> *
| 42>
| 43>                          ****END OF INPUT****

CARTESIAN COORDINATES (ANGSTROEM)
---------------------------------
  S     44.162100   19.351500   87.944200
  C     42.638900   20.123900   87.575700
  C     42.523400   20.520200   86.269100
  C     43.611600   20.003700   85.483600
  C     44.551500   19.301800   86.216200
  H     43.899000   20.233600   84.433400
  C     41.392100   21.385400   85.681000
  H     41.037100   20.932700   84.787600
  H     41.973900   22.247300   85.441400
  C     40.196000   21.666400   86.621700
  H     39.786100   20.696400   86.958000
  H     40.427000   22.063000   87.627800
  C     39.091900   22.491100   85.970500
  H     38.475500   22.018800   85.206100
  H     38.269500   22.804300   86.642400
  H     39.532400   23.494500   85.806700
  S     47.224700   19.660800   86.314500
  C     48.396300   18.513200   85.736600
  C     47.705300   17.617300   84.895500
  C     46.253700   17.622100   85.093900
  C     45.823300   18.755200   85.797300
  H     48.172500   16.865800   84.263600
  C     45.361300   16.555500   84.503800
  H     45.489100   16.657800   83.464200
  H     44.369300   16.803600   84.773600
  C     45.695600   14.982800   84.813700
  H     45.739400   14.749800   85.914600
  H     46.756900   14.790200   84.391400
  C     44.690100   13.946100   84.226600
  H     44.512100   14.285000   83.201900
  H     43.647800   14.059400   84.714800
  H     45.039700   12.920700   84.351300
  H     41.854500   20.224800   88.293700
  H     49.478100   18.528200   85.833300

 Total Charge           Charge          ....    0
 Multiplicity           Mult            ....    1
 Number of Electrons    NEL             ....  134
 Basis Dimension        Dim             ....  322

ORBITAL ENERGIES
----------------

  NO   OCC          E(Eh)            E(eV)
   0   2.0000     -88.963134     -2420.8099
   1   2.0000     -88.960687     -2420.7434
   2   2.0000     -10.329558      -281.0816
   3   2.0000     -10.324727      -280.9501
   4   2.0000     -10.321538      -280.8633
   5   2.0000     -10.310475      -280.5623
   6   2.0000     -10.307502      -280.4814
   7   2.0000     -10.303874      -280.3827
   8   2.0000     -10.303170      -280.3635
   9   2.0000     -10.300352      -280.2868
  10   2.0000     -10.297870      -280.2193
  11   2.0000     -10.295228      -280.1474
  12   2.0000     -10.294863      -280.1375
  13   2.0000     -10.290639      -280.0225
  14   2.0000     -10.287710      -279.9428
  15   2.0000     -10.284479      -279.8549
  16   2.0000      -8.077832      -219.8090
  17   2.0000      -8.075735      -219.7519
  18   2.0000      -6.036325      -164.2568
  19   2.0000      -6.034391      -164.2041
  20   2.0000      -6.032467      -164.1518
  21   2.0000      -6.030020      -164.0852
  22   2.0000      -6.028477      -164.0432
  23   2.0000      -6.026460      -163.9883
  24   2.0000      -1.004158       -27.3245
  25   2.0000      -0.980575       -26.6828
  26   2.0000      -0.910941       -24.7880
  27   2.0000      -0.894519       -24.3411
  28   2.0000      -0.868580       -23.6353
  29   2.0000      -0.849576       -23.1181
  30   2.0000      -0.843165       -22.9437
  31   2.0000      -0.813023       -22.1235
  32   2.0000      -0.781651       -21.2698
  33   2.0000      -0.768504       -20.9120
  34   2.0000      -0.715148       -19.4602
  35   2.0000      -0.695741       -18.9321
  36   2.0000      -0.690766       -18.7967
  37   2.0000      -0.656624       -17.8676
  38   2.0000      -0.643138       -17.5007
  39   2.0000      -0.607004       -16.5174
  40   2.0000      -0.588618       -16.0171
  41   2.0000      -0.574417       -15.6307
  42   2.0000      -0.566389       -15.4122
  43   2.0000      -0.556608       -15.1461
  44   2.0000      -0.527432       -14.3522
  45   2.0000      -0.526057       -14.3147
  46   2.0000      -0.519944       -14.1484
  47   2.0000      -0.515946       -14.0396
  48   2.0000      -0.507249       -13.8029
  49   2.0000      -0.501412       -13.6441
  50   2.0000      -0.490822       -13.3559
  51   2.0000      -0.474300       -12.9064
  52   2.0000      -0.471059       -12.8182
  53   2.0000      -0.461172       -12.5491
  54   2.0000      -0.453430       -12.3384
  55   2.0000      -0.452500       -12.3132
  56   2.0000      -0.443992       -12.0816
  57   2.0000      -0.431353       -11.7377
  58   2.0000      -0.424612       -11.5543
  59   2.0000      -0.423043       -11.5116
  60   2.0000      -0.418295       -11.3824
  61   2.0000      -0.417129       -11.3506
  62   2.0000      -0.411076       -11.1860
  63   2.0000      -0.335761        -9.1365
  64   2.0000      -0.327963        -8.9243
  65   2.0000      -0.319421        -8.6919
  66   2.0000      -0.301364        -8.2005
  67   0.0000       0.037970         1.0332
  68   0.0000       0.058356         1.5879
  69   0.0000       0.111317         3.0291
  70   0.0000       0.120985         3.2922
  71   0.0000       0.138363         3.7650

MULLIKEN ATOMIC CHARGES
-----------------------
   0 S :    0.118689
   1 C :   -0.122377
   2 C :   -0.112263
   3 C :    0.035855
   4 C :   -0.181051
   5 H :    0.030670
   6 C :    0.132411
   7 H :    0.028740
   8 H :    0.035939
   9 C :   -0.111108
  10 H :    0.023214
  11 H :    0.031343
  12 C :   -0.045820
  13 H :    0.044009
  14 H :    0.021016
  15 H :    0.036146
  16 S :    0.104103
  17 C :   -0.094064
  18 C :   -0.035045
  19 C :   -0.052039
  20 C :   -0.172899
  21 H :    0.022322
  22 C :    0.106278
  23 H :    0.024118
  24 H :    0.017997
  25 C :   -0.139820
  26 H :    0.047586
  27 H :    0.038892
  28 C :   -0.065515
  29 H :    0.029029
  30 H :    0.043048
  31 H :    0.054071
  32 H :    0.038362
  33 H :    0.068161
Sum of atomic charges:   -0.0000000

LOEWDIN ATOMIC CHARGES
----------------------
   0 S :    0.397602
   1 C :   -0.194374
   2 C :   -0.062577
   3 C :   -0.060327
   4 C :   -0.195584
   5 H :    0.041197
   6 C :   -0.018743
   7 H :    0.030051
   8 H :    0.035286
   9 C :   -0.051414
  10 H :    0.023828
  11 H :    0.027262
  12 C :   -0.077582
  13 H :    0.029007
  14 H :    0.030815
  15 H :    0.032675
  16 S :    0.412977
  17 C :   -0.191499
  18 C :   -0.071936
  19 C :   -0.051563
  20 C :   -0.214047
  21 H :    0.026304
  22 C :   -0.025349
  23 H :    0.028719
  24 H :    0.024489
  25 C :   -0.047082
  26 H :    0.027314
  27 H :    0.026566
  28 C :   -0.075259
  29 H :    0.022761
  30 H :    0.034684
  31 H :    0.030013
  32 H :    0.020643
  33 H :    0.035143

  Mayer bond orders larger than 0.100000
B(  0-S ,  1-C ) :   1.1306 B(  0-S ,  4-C ) :   1.1404 B(  1-C ,  2-C ) :   1.6466
B(  1-C , 32-H ) :   0.9619 B(  2-C ,  3-C ) :   1.2205 B(  2-C ,  6-C ) :   0.9894
B(  3-C ,  4-C ) :   1.6116 B(  3-C ,  5-H ) :   0.9859 B(  4-C , 20-C ) :   1.0221
B(  6-C ,  7-H ) :   0.9426 B(  6-C ,  8-H ) :   0.9311 B(  6-C ,  9-C ) :   1.0708
B(  9-C , 10-H ) :   0.9524 B(  9-C , 11-H ) :   0.9495 B(  9-C , 12-C ) :   1.0923
B( 12-C , 13-H ) :   0.9744 B( 12-C , 14-H ) :   0.9679 B( 12-C , 15-H ) :   0.9721
B( 16-S , 17-C ) :   1.1592 B( 16-S , 20-C ) :   1.1472 B( 17-C , 18-C ) :   1.5874
B( 17-C , 20-C ) :   0.1020 B( 17-C , 33-H ) :   0.9712 B( 18-C , 19-C ) :   1.2418
B( 18-C , 21-H ) :   0.9817 B( 19-C , 20-C ) :   1.5894 B( 19-C , 22-C ) :   1.0589
B( 22-C , 23-H ) :   0.9283 B( 22-C , 24-H ) :   0.9371 B( 22-C , 25-C ) :   1.0401
B( 25-C , 26-H ) :   0.9626 B( 25-C , 27-H ) :   0.9548 B( 25-C , 28-C ) :   1.0732
B( 28-C , 29-H ) :   0.9750 B( 28-C , 30-H ) :   0.9743 B( 28-C , 31-H ) :   0.9744

Dispersion correction           -0.013096694
FINAL SINGLE POINT ENERGY     -1339.858573655480

DIPOLE MOMENT
-------------
                                X             Y             Z
Electronic contribution:     20.32898       6.75725      10.74560
Nuclear contribution   :    -20.73965      -6.81633     -11.15642
                        -----------------------------------------
Total Dipole Moment    :     -0.41067      -0.05908      -0.41081
                        -----------------------------------------
Magnitude (a.u.)       :      0.58388
Magnitude (Debye)      :      1.48410

Rotational constants in cm-1:     0.020271     0.006751     0.005673
Rotational constants in MHz :   607.702062   202.395322   170.070736

                             ****ORCA TERMINATED NORMALLY****
TOTAL RUN TIME: 0 days 0 hours 0 minutes 28 seconds 204 msec
