                         Program Version 4.2.1 -  RELEASE  -
|  1> ! wB97X-D3 SP def2-SVP
|  2> %pal
|  3> nprocs 16
|  4> end
|  5>
|  6> * xyz 0 1
|  7> S 	 -107.649 	 55.0076 	 118.846
|  8> C 	 -108.41 	 53.5106 	 119.049
|  9> C 	 -107.54 	 52.5141 	 118.725
| 10> C 	 -106.279 	 52.9399 	 118.231
| 11> C 	 -106.138 	 54.2914 	 118.3
| 12> H 	 -105.545 	 52.2707 	 117.912
| 13> C 	 -107.716 	 50.9782 	 118.851
| 14> H 	 -107.638 	 50.4965 	 117.822
| 15> H 	 -108.768 	 50.9123 	 119.117
| 16> C 	 -106.83 	 50.3937 	 120.021
| 17> H 	 -105.801 	 50.3618 	 119.608
| 18> H 	 -106.809 	 51.135 	 120.851
| 19> C 	 -107.303 	 49.0367 	 120.532
| 20> H 	 -107.402 	 48.1314 	 119.893
| 21> H 	 -106.618 	 48.795 	 121.287
| 22> H 	 -108.256 	 49.1722 	 120.983
| 23> S 	 -104.779 	 56.4206 	 119.264
| 24> C 	 -103.248 	 56.8437 	 118.559
| 25> C 	 -102.844 	 55.9921 	 117.574
| 26> C 	 -103.847 	 55.0184 	 117.244
| 27> C 	 -104.946 	 55.0959 	 118.147
| 28> H 	 -101.809 	 56.0884 	 117.205
| 29> C 	 -103.702 	 54.0169 	 116.108
| 30> H 	 -103.196 	 54.482 	 115.262
| 31> H 	 -104.68 	 53.7407 	 115.668
| 32> C 	 -102.951 	 52.7197 	 116.435
| 33> H 	 -103.314 	 51.8671 	 115.834
| 34> H 	 -103.218 	 52.3891 	 117.417
| 35> C 	 -101.467 	 52.676 	 116.34
| 36> H 	 -101.091 	 52.844 	 115.357
| 37> H 	 -101.088 	 51.7086 	 116.724
| 38> H 	 -100.995 	 53.5316 	 116.821
| 39> H 	 -109.35 	 53.3309 	 119.468
| 40> H 	 -102.664 	 57.8094 	 118.666
| 41> *
| 42>
| 43>                          ****END OF INPUT****

CARTESIAN COORDINATES (ANGSTROEM)
---------------------------------
  S    -107.649000   55.007600  118.846000
  C    -108.410000   53.510600  119.049000
  C    -107.540000   52.514100  118.725000
  C    -106.279000   52.939900  118.231000
  C    -106.138000   54.291400  118.300000
  H    -105.545000   52.270700  117.912000
  C    -107.716000   50.978200  118.851000
  H    -107.638000   50.496500  117.822000
  H    -108.768000   50.912300  119.117000
  C    -106.830000   50.393700  120.021000
  H    -105.801000   50.361800  119.608000
  H    -106.809000   51.135000  120.851000
  C    -107.303000   49.036700  120.532000
  H    -107.402000   48.131400  119.893000
  H    -106.618000   48.795000  121.287000
  H    -108.256000   49.172200  120.983000
  S    -104.779000   56.420600  119.264000
  C    -103.248000   56.843700  118.559000
  C    -102.844000   55.992100  117.574000
  C    -103.847000   55.018400  117.244000
  C    -104.946000   55.095900  118.147000
  H    -101.809000   56.088400  117.205000
  C    -103.702000   54.016900  116.108000
  H    -103.196000   54.482000  115.262000
  H    -104.680000   53.740700  115.668000
  C    -102.951000   52.719700  116.435000
  H    -103.314000   51.867100  115.834000
  H    -103.218000   52.389100  117.417000
  C    -101.467000   52.676000  116.340000
  H    -101.091000   52.844000  115.357000
  H    -101.088000   51.708600  116.724000
  H    -100.995000   53.531600  116.821000
  H    -109.350000   53.330900  119.468000
  H    -102.664000   57.809400  118.666000

 Total Charge           Charge          ....    0
 Multiplicity           Mult            ....    1
 Number of Electrons    NEL             ....  134
 Basis Dimension        Dim             ....  322

ORBITAL ENERGIES
----------------

  NO   OCC          E(Eh)            E(eV)
   0   2.0000     -88.968293     -2420.9503
   1   2.0000     -88.963495     -2420.8198
   2   2.0000     -10.328988      -281.0660
   3   2.0000     -10.327182      -281.0169
   4   2.0000     -10.315795      -280.7070
   5   2.0000     -10.309202      -280.5277
   6   2.0000     -10.305197      -280.4187
   7   2.0000     -10.296367      -280.1784
   8   2.0000     -10.296181      -280.1733
   9   2.0000     -10.294697      -280.1329
  10   2.0000     -10.294623      -280.1309
  11   2.0000     -10.293828      -280.1093
  12   2.0000     -10.284069      -279.8437
  13   2.0000     -10.282084      -279.7897
  14   2.0000     -10.274188      -279.5749
  15   2.0000     -10.274060      -279.5714
  16   2.0000      -8.083186      -219.9547
  17   2.0000      -8.079311      -219.8492
  18   2.0000      -6.041630      -164.4011
  19   2.0000      -6.037836      -164.2979
  20   2.0000      -6.037673      -164.2934
  21   2.0000      -6.033996      -164.1934
  22   2.0000      -6.033620      -164.1831
  23   2.0000      -6.030023      -164.0853
  24   2.0000      -1.013368       -27.5751
  25   2.0000      -0.988535       -26.8994
  26   2.0000      -0.911964       -24.8158
  27   2.0000      -0.903937       -24.5974
  28   2.0000      -0.874774       -23.8038
  29   2.0000      -0.856311       -23.3014
  30   2.0000      -0.848541       -23.0900
  31   2.0000      -0.819189       -22.2913
  32   2.0000      -0.783865       -21.3301
  33   2.0000      -0.770342       -20.9621
  34   2.0000      -0.711872       -19.3710
  35   2.0000      -0.699121       -19.0240
  36   2.0000      -0.691930       -18.8284
  37   2.0000      -0.660380       -17.9698
  38   2.0000      -0.641154       -17.4467
  39   2.0000      -0.626037       -17.0353
  40   2.0000      -0.595039       -16.1918
  41   2.0000      -0.565505       -15.3882
  42   2.0000      -0.557221       -15.1628
  43   2.0000      -0.551514       -15.0075
  44   2.0000      -0.536315       -14.5939
  45   2.0000      -0.528668       -14.3858
  46   2.0000      -0.518753       -14.1160
  47   2.0000      -0.514638       -14.0040
  48   2.0000      -0.512930       -13.9575
  49   2.0000      -0.500986       -13.6325
  50   2.0000      -0.495790       -13.4911
  51   2.0000      -0.480601       -13.0778
  52   2.0000      -0.471478       -12.8296
  53   2.0000      -0.469392       -12.7728
  54   2.0000      -0.463910       -12.6236
  55   2.0000      -0.451847       -12.2954
  56   2.0000      -0.442603       -12.0438
  57   2.0000      -0.436760       -11.8848
  58   2.0000      -0.433839       -11.8054
  59   2.0000      -0.424936       -11.5631
  60   2.0000      -0.417627       -11.3642
  61   2.0000      -0.410702       -11.1758
  62   2.0000      -0.407134       -11.0787
  63   2.0000      -0.357068        -9.7163
  64   2.0000      -0.333467        -9.0741
  65   2.0000      -0.327674        -8.9165
  66   2.0000      -0.286391        -7.7931
  67   0.0000       0.024866         0.6766
  68   0.0000       0.082289         2.2392
  69   0.0000       0.111235         3.0269
  70   0.0000       0.125844         3.4244
  71   0.0000       0.130201         3.5430

MULLIKEN ATOMIC CHARGES
-----------------------
   0 S :    0.104714
   1 C :   -0.086467
   2 C :   -0.125121
   3 C :    0.041728
   4 C :   -0.110698
   5 H :   -0.022304
   6 C :    0.049169
   7 H :    0.053196
   8 H :    0.000884
   9 C :   -0.097267
  10 H :    0.035031
  11 H :    0.046699
  12 C :   -0.015069
  13 H :    0.040114
  14 H :    0.022841
  15 H :    0.021823
  16 S :    0.117115
  17 C :   -0.109423
  18 C :   -0.059951
  19 C :   -0.027777
  20 C :   -0.146321
  21 H :    0.035066
  22 C :    0.060226
  23 H :    0.020709
  24 H :    0.033512
  25 C :   -0.072403
  26 H :    0.021784
  27 H :    0.021546
  28 C :   -0.019763
  29 H :    0.011342
  30 H :    0.040882
  31 H :    0.016001
  32 H :    0.022079
  33 H :    0.076103
Sum of atomic charges:    0.0000000

LOEWDIN ATOMIC CHARGES
----------------------
   0 S :    0.418802
   1 C :   -0.210638
   2 C :   -0.065950
   3 C :   -0.056140
   4 C :   -0.185205
   5 H :    0.020635
   6 C :   -0.038476
   7 H :    0.038716
   8 H :    0.019740
   9 C :   -0.037377
  10 H :    0.023864
  11 H :    0.034771
  12 C :   -0.066216
  13 H :    0.031666
  14 H :    0.022449
  15 H :    0.021944
  16 S :    0.418217
  17 C :   -0.207528
  18 C :   -0.078338
  19 C :   -0.053067
  20 C :   -0.197312
  21 H :    0.038168
  22 C :   -0.035541
  23 H :    0.030939
  24 H :    0.038336
  25 C :   -0.047890
  26 H :    0.026945
  27 H :    0.018154
  28 C :   -0.065213
  29 H :    0.017711
  30 H :    0.033807
  31 H :    0.022599
  32 H :    0.021149
  33 H :    0.046279

  Mayer bond orders larger than 0.100000
B(  0-S ,  1-C ) :   1.1323 B(  0-S ,  4-C ) :   1.1496 B(  1-C ,  2-C ) :   1.6186
B(  1-C , 32-H ) :   0.9741 B(  2-C ,  3-C ) :   1.2487 B(  2-C ,  6-C ) :   1.0198
B(  3-C ,  4-C ) :   1.5461 B(  3-C ,  5-H ) :   1.0117 B(  4-C , 20-C ) :   1.0701
B(  6-C ,  7-H ) :   0.9446 B(  6-C ,  8-H ) :   0.9426 B(  6-C ,  9-C ) :   1.0409
B(  9-C , 10-H ) :   0.9560 B(  9-C , 11-H ) :   0.9559 B(  9-C , 12-C ) :   1.0832
B( 12-C , 13-H ) :   0.9756 B( 12-C , 14-H ) :   0.9724 B( 12-C , 15-H ) :   0.9730
B( 16-S , 17-C ) :   1.1464 B( 16-S , 20-C ) :   1.1507 B( 17-C , 18-C ) :   1.6386
B( 17-C , 33-H ) :   0.9519 B( 18-C , 19-C ) :   1.2406 B( 18-C , 21-H ) :   0.9805
B( 19-C , 20-C ) :   1.5603 B( 19-C , 22-C ) :   1.0589 B( 22-C , 23-H ) :   0.9396
B( 22-C , 24-H ) :   0.9313 B( 22-C , 25-C ) :   1.0549 B( 25-C , 26-H ) :   0.9528
B( 25-C , 27-H ) :   0.9498 B( 25-C , 28-C ) :   1.0963 B( 28-C , 29-H ) :   0.9693
B( 28-C , 30-H ) :   0.9697 B( 28-C , 31-H ) :   0.9697

Dispersion correction           -0.014301912
FINAL SINGLE POINT ENERGY     -1339.873594131691

DIPOLE MOMENT
-------------
                                X             Y             Z
Electronic contribution:     -9.16019      27.53181       4.53747
Nuclear contribution   :      9.43182     -28.10193      -4.66581
                        -----------------------------------------
Total Dipole Moment    :      0.27163      -0.57012      -0.12834
                        -----------------------------------------
Magnitude (a.u.)       :      0.64443
Magnitude (Debye)      :      1.63801

Rotational constants in cm-1:     0.017295     0.009144     0.006734
Rotational constants in MHz :   518.494001   274.119680   201.868018

                             ****ORCA TERMINATED NORMALLY****
TOTAL RUN TIME: 0 days 0 hours 0 minutes 33 seconds 865 msec
