                         Program Version 4.2.1 -  RELEASE  -
|  1> ! wB97X-D3 SP def2-SVP
|  2> %pal
|  3> nprocs 16
|  4> end
|  5>
|  6> * xyz 0 1
|  7> S 	 49.2264 	 11.2475 	 89.1864
|  8> C 	 49.6664 	 11.9088 	 90.7499
|  9> C 	 51.0856 	 12.1037 	 90.8686
| 10> C 	 51.735 	 11.6018 	 89.684
| 11> C 	 50.9101 	 11.174 	 88.6205
| 12> H 	 52.8124 	 11.6053 	 89.5198
| 13> C 	 51.8437 	 12.6841 	 92.0483
| 14> H 	 51.2524 	 13.4704 	 92.4553
| 15> H 	 52.7407 	 13.101 	 91.543
| 16> C 	 52.366 	 11.6699 	 93.0767
| 17> H 	 52.9816 	 12.2184 	 93.7537
| 18> H 	 51.4758 	 11.2461 	 93.6094
| 19> C 	 53.1414 	 10.3977 	 92.4849
| 20> H 	 54.0522 	 10.7198 	 91.9527
| 21> H 	 53.6325 	 9.84368 	 93.3399
| 22> H 	 52.6292 	 9.72677 	 91.8091
| 23> S 	 52.7529 	 9.63953 	 87.4159
| 24> C 	 52.5935 	 9.35577 	 85.61
| 25> C 	 51.3055 	 9.6343 	 85.2038
| 26> C 	 50.4391 	 10.1214 	 86.2592
| 27> C 	 51.1754 	 10.3837 	 87.3974
| 28> H 	 50.9607 	 9.49176 	 84.2551
| 29> C 	 49.0081 	 10.5427 	 85.9629
| 30> H 	 49.0135 	 10.4302 	 84.8673
| 31> H 	 48.8854 	 11.5403 	 86.271
| 32> C 	 47.9241 	 9.61639 	 86.4969
| 33> H 	 48.1724 	 9.47734 	 87.5371
| 34> H 	 48.0431 	 8.73521 	 85.888
| 35> C 	 46.4975 	 10.2067 	 86.2999
| 36> H 	 45.6421 	 9.56341 	 86.5165
| 37> H 	 46.2738 	 10.4568 	 85.2689
| 38> H 	 46.5347 	 11.1529 	 86.9004
| 39> H 	 48.9341 	 12.2812 	 91.459
| 40> H 	 53.327 	 8.95638 	 84.9265
| 41> *
| 42>
| 43>                          ****END OF INPUT****

CARTESIAN COORDINATES (ANGSTROEM)
---------------------------------
  S     49.226400   11.247500   89.186400
  C     49.666400   11.908800   90.749900
  C     51.085600   12.103700   90.868600
  C     51.735000   11.601800   89.684000
  C     50.910100   11.174000   88.620500
  H     52.812400   11.605300   89.519800
  C     51.843700   12.684100   92.048300
  H     51.252400   13.470400   92.455300
  H     52.740700   13.101000   91.543000
  C     52.366000   11.669900   93.076700
  H     52.981600   12.218400   93.753700
  H     51.475800   11.246100   93.609400
  C     53.141400   10.397700   92.484900
  H     54.052200   10.719800   91.952700
  H     53.632500    9.843680   93.339900
  H     52.629200    9.726770   91.809100
  S     52.752900    9.639530   87.415900
  C     52.593500    9.355770   85.610000
  C     51.305500    9.634300   85.203800
  C     50.439100   10.121400   86.259200
  C     51.175400   10.383700   87.397400
  H     50.960700    9.491760   84.255100
  C     49.008100   10.542700   85.962900
  H     49.013500   10.430200   84.867300
  H     48.885400   11.540300   86.271000
  C     47.924100    9.616390   86.496900
  H     48.172400    9.477340   87.537100
  H     48.043100    8.735210   85.888000
  C     46.497500   10.206700   86.299900
  H     45.642100    9.563410   86.516500
  H     46.273800   10.456800   85.268900
  H     46.534700   11.152900   86.900400
  H     48.934100   12.281200   91.459000
  H     53.327000    8.956380   84.926500

 Total Charge           Charge          ....    0
 Multiplicity           Mult            ....    1
 Number of Electrons    NEL             ....  134
 Basis Dimension        Dim             ....  322

ORBITAL ENERGIES
----------------

  NO   OCC          E(Eh)            E(eV)
   0   2.0000     -88.969329     -2420.9785
   1   2.0000     -88.966796     -2420.9096
   2   2.0000     -10.338734      -281.3312
   3   2.0000     -10.331975      -281.1473
   4   2.0000     -10.323198      -280.9085
   5   2.0000     -10.322352      -280.8855
   6   2.0000     -10.312209      -280.6095
   7   2.0000     -10.303045      -280.3601
   8   2.0000     -10.302977      -280.3582
   9   2.0000     -10.296681      -280.1869
  10   2.0000     -10.296158      -280.1727
  11   2.0000     -10.292922      -280.0846
  12   2.0000     -10.287214      -279.9293
  13   2.0000     -10.286160      -279.9006
  14   2.0000     -10.281132      -279.7638
  15   2.0000     -10.279495      -279.7193
  16   2.0000      -8.082819      -219.9447
  17   2.0000      -8.080411      -219.8792
  18   2.0000      -6.041375      -164.3942
  19   2.0000      -6.039186      -164.3346
  20   2.0000      -6.037320      -164.2838
  21   2.0000      -6.035312      -164.2292
  22   2.0000      -6.033811      -164.1883
  23   2.0000      -6.030713      -164.1040
  24   2.0000      -1.000979       -27.2380
  25   2.0000      -0.975848       -26.5542
  26   2.0000      -0.910383       -24.7728
  27   2.0000      -0.908209       -24.7136
  28   2.0000      -0.866548       -23.5800
  29   2.0000      -0.846429       -23.0325
  30   2.0000      -0.838076       -22.8052
  31   2.0000      -0.812757       -22.1162
  32   2.0000      -0.784119       -21.3369
  33   2.0000      -0.769952       -20.9515
  34   2.0000      -0.707823       -19.2608
  35   2.0000      -0.700936       -19.0734
  36   2.0000      -0.690246       -18.7826
  37   2.0000      -0.676017       -18.3954
  38   2.0000      -0.637612       -17.3503
  39   2.0000      -0.613628       -16.6977
  40   2.0000      -0.591876       -16.1058
  41   2.0000      -0.578318       -15.7368
  42   2.0000      -0.568785       -15.4774
  43   2.0000      -0.548468       -14.9246
  44   2.0000      -0.540010       -14.6944
  45   2.0000      -0.519782       -14.1440
  46   2.0000      -0.516627       -14.0581
  47   2.0000      -0.514455       -13.9990
  48   2.0000      -0.504277       -13.7221
  49   2.0000      -0.494212       -13.4482
  50   2.0000      -0.486985       -13.2515
  51   2.0000      -0.473724       -12.8907
  52   2.0000      -0.467813       -12.7299
  53   2.0000      -0.467036       -12.7087
  54   2.0000      -0.454124       -12.3573
  55   2.0000      -0.452248       -12.3063
  56   2.0000      -0.441544       -12.0150
  57   2.0000      -0.439756       -11.9664
  58   2.0000      -0.429233       -11.6800
  59   2.0000      -0.423479       -11.5234
  60   2.0000      -0.421334       -11.4651
  61   2.0000      -0.417226       -11.3533
  62   2.0000      -0.411177       -11.1887
  63   2.0000      -0.354834        -9.6555
  64   2.0000      -0.332198        -9.0396
  65   2.0000      -0.330834        -9.0025
  66   2.0000      -0.282261        -7.6807
  67   0.0000       0.013296         0.3618
  68   0.0000       0.076273         2.0755
  69   0.0000       0.095370         2.5951
  70   0.0000       0.110597         3.0095
  71   0.0000       0.124523         3.3884

MULLIKEN ATOMIC CHARGES
-----------------------
   0 S :    0.070373
   1 C :   -0.109278
   2 C :   -0.113588
   3 C :   -0.025621
   4 C :   -0.105952
   5 H :    0.025312
   6 C :    0.078316
   7 H :    0.028390
   8 H :    0.028711
   9 C :   -0.053077
  10 H :    0.033728
  11 H :    0.038752
  12 C :   -0.092304
  13 H :    0.021096
  14 H :    0.041615
  15 H :    0.061423
  16 S :    0.086099
  17 C :   -0.084629
  18 C :    0.015903
  19 C :   -0.076884
  20 C :   -0.113765
  21 H :   -0.017098
  22 C :    0.048592
  23 H :    0.012674
  24 H :    0.026022
  25 C :   -0.049406
  26 H :    0.040203
  27 H :    0.020851
  28 C :   -0.042972
  29 H :    0.040334
  30 H :    0.019212
  31 H :    0.036717
  32 H :    0.056731
  33 H :    0.053519
Sum of atomic charges:    0.0000000

LOEWDIN ATOMIC CHARGES
----------------------
   0 S :    0.416249
   1 C :   -0.200033
   2 C :   -0.056579
   3 C :   -0.073863
   4 C :   -0.184981
   5 H :    0.026669
   6 C :   -0.032864
   7 H :    0.029271
   8 H :    0.036565
   9 C :   -0.031872
  10 H :    0.022257
  11 H :    0.028689
  12 C :   -0.075862
  13 H :    0.022126
  14 H :    0.035609
  15 H :    0.027689
  16 S :    0.375572
  17 C :   -0.162272
  18 C :   -0.048574
  19 C :   -0.060730
  20 C :   -0.186998
  21 H :    0.014887
  22 C :   -0.032104
  23 H :    0.031891
  24 H :    0.017749
  25 C :   -0.037956
  26 H :    0.009028
  27 H :    0.021741
  28 C :   -0.069340
  29 H :    0.027682
  30 H :    0.021782
  31 H :    0.031080
  32 H :    0.027716
  33 H :    0.029774

  Mayer bond orders larger than 0.100000
B(  0-S ,  1-C ) :   1.1634 B(  0-S ,  4-C ) :   1.1406 B(  1-C ,  2-C ) :   1.5638
B(  1-C ,  4-C ) :   0.1038 B(  1-C , 32-H ) :   0.9668 B(  2-C ,  3-C ) :   1.2756
B(  2-C ,  6-C ) :   1.0191 B(  3-C ,  4-C ) :   1.5485 B(  3-C ,  5-H ) :   0.9742
B(  4-C , 20-C ) :   1.0598 B(  6-C ,  7-H ) :   0.9412 B(  6-C ,  8-H ) :   0.9369
B(  6-C ,  9-C ) :   1.0709 B(  9-C , 10-H ) :   0.9578 B(  9-C , 11-H ) :   0.9564
B(  9-C , 12-C ) :   1.0705 B( 12-C , 13-H ) :   0.9741 B( 12-C , 14-H ) :   0.9735
B( 12-C , 15-H ) :   0.9736 B( 16-S , 17-C ) :   1.1048 B( 16-S , 20-C ) :   1.1249
B( 17-C , 18-C ) :   1.6493 B( 17-C , 33-H ) :   0.9691 B( 18-C , 19-C ) :   1.2313
B( 18-C , 21-H ) :   0.9926 B( 19-C , 20-C ) :   1.5856 B( 19-C , 22-C ) :   1.0392
B( 22-C , 23-H ) :   0.9308 B( 22-C , 24-H ) :   0.9368 B( 22-C , 25-C ) :   1.0537
B( 25-C , 26-H ) :   0.9578 B( 25-C , 27-H ) :   0.9506 B( 25-C , 28-C ) :   1.0773
B( 28-C , 29-H ) :   0.9759 B( 28-C , 30-H ) :   0.9732 B( 28-C , 31-H ) :   0.9738

Dispersion correction           -0.014639482
FINAL SINGLE POINT ENERGY     -1339.861977396092

DIPOLE MOMENT
-------------
                                X             Y             Z
Electronic contribution:      5.75984      -0.91550      -7.09242
Nuclear contribution   :     -5.73520       1.06116       7.16840
                        -----------------------------------------
Total Dipole Moment    :      0.02464       0.14566       0.07599
                        -----------------------------------------
Magnitude (a.u.)       :      0.16613
Magnitude (Debye)      :      0.42227

Rotational constants in cm-1:     0.020327     0.009067     0.006636
Rotational constants in MHz :   609.373726   271.808264   198.950329

                             ****ORCA TERMINATED NORMALLY****
TOTAL RUN TIME: 0 days 0 hours 0 minutes 31 seconds 919 msec
