                         Program Version 4.2.1 -  RELEASE  -
|  1> ! wB97X-D3 SP def2-SVP
|  2> %pal
|  3> nprocs 16
|  4> end
|  5>
|  6> * xyz 0 1
|  7> S 	 -102.892 	 49.1123 	 119.14
|  8> C 	 -103.361 	 50.4414 	 120.165
|  9> C 	 -103.762 	 50.0768 	 121.445
| 10> C 	 -103.617 	 48.693 	 121.566
| 11> C 	 -103.346 	 47.9784 	 120.428
| 12> H 	 -103.912 	 48.1839 	 122.465
| 13> C 	 -104.213 	 50.9859 	 122.539
| 14> H 	 -105.296 	 50.9172 	 122.558
| 15> H 	 -104.064 	 52.0043 	 122.105
| 16> C 	 -103.642 	 50.6315 	 123.904
| 17> H 	 -104.181 	 51.0583 	 124.739
| 18> H 	 -103.721 	 49.5949 	 124.083
| 19> C 	 -102.145 	 50.9359 	 124.007
| 20> H 	 -101.918 	 50.7948 	 125.003
| 21> H 	 -101.614 	 50.2736 	 123.403
| 22> H 	 -101.929 	 51.9731 	 123.682
| 23> S 	 -104.15 	 45.6617 	 119.058
| 24> C 	 -103.542 	 44.0873 	 119.542
| 25> C 	 -102.633 	 44.2454 	 120.534
| 26> C 	 -102.418 	 45.6196 	 120.972
| 27> C 	 -103.239 	 46.5323 	 120.309
| 28> H 	 -102.118 	 43.3476 	 120.821
| 29> C 	 -101.24 	 45.9052 	 121.962
| 30> H 	 -100.962 	 44.9491 	 122.442
| 31> H 	 -101.617 	 46.5598 	 122.765
| 32> C 	 -100.061 	 46.4556 	 121.357
| 33> H 	 -100.365 	 47.1459 	 120.551
| 34> H 	 -99.4735 	 45.6321 	 120.962
| 35> C 	 -99.1802 	 47.312 	 122.364
| 36> H 	 -98.6126 	 46.7821 	 123.119
| 37> H 	 -99.7601 	 48.0765 	 122.845
| 38> H 	 -98.3418 	 47.7358 	 121.791
| 39> H 	 -103.314 	 51.5258 	 119.826
| 40> H 	 -103.67 	 43.147 	 119.125
| 41> *
| 42>
| 43>                          ****END OF INPUT****

CARTESIAN COORDINATES (ANGSTROEM)
---------------------------------
  S    -102.892000   49.112300  119.140000
  C    -103.361000   50.441400  120.165000
  C    -103.762000   50.076800  121.445000
  C    -103.617000   48.693000  121.566000
  C    -103.346000   47.978400  120.428000
  H    -103.912000   48.183900  122.465000
  C    -104.213000   50.985900  122.539000
  H    -105.296000   50.917200  122.558000
  H    -104.064000   52.004300  122.105000
  C    -103.642000   50.631500  123.904000
  H    -104.181000   51.058300  124.739000
  H    -103.721000   49.594900  124.083000
  C    -102.145000   50.935900  124.007000
  H    -101.918000   50.794800  125.003000
  H    -101.614000   50.273600  123.403000
  H    -101.929000   51.973100  123.682000
  S    -104.150000   45.661700  119.058000
  C    -103.542000   44.087300  119.542000
  C    -102.633000   44.245400  120.534000
  C    -102.418000   45.619600  120.972000
  C    -103.239000   46.532300  120.309000
  H    -102.118000   43.347600  120.821000
  C    -101.240000   45.905200  121.962000
  H    -100.962000   44.949100  122.442000
  H    -101.617000   46.559800  122.765000
  C    -100.061000   46.455600  121.357000
  H    -100.365000   47.145900  120.551000
  H    -99.473500   45.632100  120.962000
  C    -99.180200   47.312000  122.364000
  H    -98.612600   46.782100  123.119000
  H    -99.760100   48.076500  122.845000
  H    -98.341800   47.735800  121.791000
  H    -103.314000   51.525800  119.826000
  H    -103.670000   43.147000  119.125000

 Total Charge           Charge          ....    0
 Multiplicity           Mult            ....    1
 Number of Electrons    NEL             ....  134
 Basis Dimension        Dim             ....  322

ORBITAL ENERGIES
----------------

  NO   OCC          E(Eh)            E(eV)
   0   2.0000     -88.969863     -2420.9931
   1   2.0000     -88.963112     -2420.8093
   2   2.0000     -10.331040      -281.1219
   3   2.0000     -10.330575      -281.1092
   4   2.0000     -10.319191      -280.7995
   5   2.0000     -10.310914      -280.5742
   6   2.0000     -10.308674      -280.5133
   7   2.0000     -10.297700      -280.2147
   8   2.0000     -10.295575      -280.1568
   9   2.0000     -10.289998      -280.0051
  10   2.0000     -10.289745      -279.9982
  11   2.0000     -10.287638      -279.9409
  12   2.0000     -10.284875      -279.8657
  13   2.0000     -10.279853      -279.7290
  14   2.0000     -10.276245      -279.6309
  15   2.0000     -10.267597      -279.3955
  16   2.0000      -8.084102      -219.9796
  17   2.0000      -8.077359      -219.7961
  18   2.0000      -6.042594      -164.4274
  19   2.0000      -6.038747      -164.3227
  20   2.0000      -6.036069      -164.2498
  21   2.0000      -6.034826      -164.2160
  22   2.0000      -6.031847      -164.1349
  23   2.0000      -6.028001      -164.0303
  24   2.0000      -1.005910       -27.3722
  25   2.0000      -0.984314       -26.7845
  26   2.0000      -0.920487       -25.0477
  27   2.0000      -0.913028       -24.8447
  28   2.0000      -0.872815       -23.7505
  29   2.0000      -0.852812       -23.2062
  30   2.0000      -0.837839       -22.7988
  31   2.0000      -0.819542       -22.3009
  32   2.0000      -0.786416       -21.3995
  33   2.0000      -0.774742       -21.0818
  34   2.0000      -0.718602       -19.5541
  35   2.0000      -0.697508       -18.9802
  36   2.0000      -0.687404       -18.7052
  37   2.0000      -0.657823       -17.9003
  38   2.0000      -0.639217       -17.3940
  39   2.0000      -0.629607       -17.1325
  40   2.0000      -0.591999       -16.1091
  41   2.0000      -0.572843       -15.5878
  42   2.0000      -0.571066       -15.5395
  43   2.0000      -0.562729       -15.3126
  44   2.0000      -0.542051       -14.7500
  45   2.0000      -0.523527       -14.2459
  46   2.0000      -0.516302       -14.0493
  47   2.0000      -0.511155       -13.9092
  48   2.0000      -0.501169       -13.6375
  49   2.0000      -0.496034       -13.4978
  50   2.0000      -0.490516       -13.3476
  51   2.0000      -0.485627       -13.2146
  52   2.0000      -0.471392       -12.8272
  53   2.0000      -0.466004       -12.6806
  54   2.0000      -0.461532       -12.5589
  55   2.0000      -0.450504       -12.2588
  56   2.0000      -0.444141       -12.0857
  57   2.0000      -0.441456       -12.0126
  58   2.0000      -0.430947       -11.7267
  59   2.0000      -0.430644       -11.7184
  60   2.0000      -0.422204       -11.4888
  61   2.0000      -0.410913       -11.1815
  62   2.0000      -0.405714       -11.0400
  63   2.0000      -0.345246        -9.3946
  64   2.0000      -0.333418        -9.0728
  65   2.0000      -0.327791        -8.9196
  66   2.0000      -0.296352        -8.0641
  67   0.0000       0.030484         0.8295
  68   0.0000       0.065609         1.7853
  69   0.0000       0.113705         3.0941
  70   0.0000       0.121181         3.2975
  71   0.0000       0.130541         3.5522

MULLIKEN ATOMIC CHARGES
-----------------------
   0 S :    0.123210
   1 C :   -0.155849
   2 C :   -0.106803
   3 C :    0.019880
   4 C :   -0.150746
   5 H :    0.008688
   6 C :    0.102945
   7 H :    0.038132
   8 H :    0.018085
   9 C :   -0.071343
  10 H :    0.024810
  11 H :    0.013391
  12 C :    0.001362
  13 H :    0.016721
  14 H :    0.027302
  15 H :    0.030395
  16 S :    0.097405
  17 C :   -0.050574
  18 C :   -0.047125
  19 C :   -0.036738
  20 C :   -0.174948
  21 H :    0.013520
  22 C :    0.094274
  23 H :    0.017003
  24 H :    0.016101
  25 C :   -0.059741
  26 H :    0.038879
  27 H :    0.025986
  28 C :   -0.059037
  29 H :    0.023433
  30 H :    0.036998
  31 H :    0.029957
  32 H :    0.066176
  33 H :    0.028252
Sum of atomic charges:   -0.0000000

LOEWDIN ATOMIC CHARGES
----------------------
   0 S :    0.403101
   1 C :   -0.205937
   2 C :   -0.070108
   3 C :   -0.058017
   4 C :   -0.191225
   5 H :    0.027580
   6 C :   -0.031672
   7 H :    0.036497
   8 H :    0.034694
   9 C :   -0.034496
  10 H :    0.024533
  11 H :    0.019206
  12 C :   -0.045785
  13 H :    0.016836
  14 H :    0.017011
  15 H :    0.028437
  16 S :    0.389941
  17 C :   -0.173046
  18 C :   -0.074331
  19 C :   -0.047868
  20 C :   -0.197415
  21 H :    0.029147
  22 C :   -0.034915
  23 H :    0.030862
  24 H :    0.027513
  25 C :   -0.041657
  26 H :    0.029062
  27 H :    0.025596
  28 C :   -0.064786
  29 H :    0.021164
  30 H :    0.021019
  31 H :    0.029509
  32 H :    0.037741
  33 H :    0.021811

  Mayer bond orders larger than 0.100000
B(  0-S ,  1-C ) :   1.1521 B(  0-S ,  4-C ) :   1.1352 B(  1-C ,  2-C ) :   1.5973
B(  1-C ,  4-C ) :   0.1013 B(  1-C , 32-H ) :   0.9511 B(  2-C ,  3-C ) :   1.2621
B(  2-C ,  6-C ) :   1.0126 B(  3-C ,  4-C ) :   1.5871 B(  3-C ,  5-H ) :   0.9894
B(  4-C , 20-C ) :   1.0512 B(  6-C ,  7-H ) :   0.9252 B(  6-C ,  8-H ) :   0.9411
B(  6-C ,  9-C ) :   1.0717 B(  9-C , 10-H ) :   0.9543 B(  9-C , 11-H ) :   0.9499
B(  9-C , 12-C ) :   1.0744 B( 12-C , 13-H ) :   0.9726 B( 12-C , 14-H ) :   0.9763
B( 12-C , 15-H ) :   0.9757 B( 16-S , 17-C ) :   1.1376 B( 16-S , 20-C ) :   1.1259
B( 17-C , 18-C ) :   1.6526 B( 17-C , 33-H ) :   0.9706 B( 18-C , 19-C ) :   1.2228
B( 18-C , 21-H ) :   0.9878 B( 19-C , 20-C ) :   1.6017 B( 19-C , 22-C ) :   1.0334
B( 22-C , 23-H ) :   0.9310 B( 22-C , 24-H ) :   0.9333 B( 22-C , 25-C ) :   1.0771
B( 25-C , 26-H ) :   0.9567 B( 25-C , 27-H ) :   0.9498 B( 25-C , 28-C ) :   1.0771
B( 28-C , 29-H ) :   0.9753 B( 28-C , 30-H ) :   0.9779 B( 28-C , 31-H ) :   0.9741

Dispersion correction           -0.015182818
FINAL SINGLE POINT ENERGY     -1339.869317159146

DIPOLE MOMENT
-------------
                                X             Y             Z
Electronic contribution:    -14.15237      -9.28454     -23.09566
Nuclear contribution   :     14.40657       9.33492      23.71403
                        -----------------------------------------
Total Dipole Moment    :      0.25420       0.05039       0.61837
                        -----------------------------------------
Magnitude (a.u.)       :      0.67048
Magnitude (Debye)      :      1.70422

Rotational constants in cm-1:     0.018378     0.009622     0.007680
Rotational constants in MHz :   550.973173   288.457682   230.231464

                             ****ORCA TERMINATED NORMALLY****
TOTAL RUN TIME: 0 days 0 hours 0 minutes 35 seconds 167 msec
