                         Program Version 4.2.1 -  RELEASE  -
|  1> ! wB97X-D3 SP def2-SVP
|  2> %pal
|  3> nprocs 16
|  4> end
|  5>
|  6> * xyz 0 1
|  7> S 	 69.8173 	 28.7163 	 70.765
|  8> C 	 69.6043 	 29.7553 	 69.4179
|  9> C 	 70.4677 	 29.3789 	 68.4049
| 10> C 	 71.2968 	 28.235 	 68.8252
| 11> C 	 71.0518 	 27.7389 	 70.0152
| 12> H 	 72.1094 	 27.8433 	 68.181
| 13> C 	 70.5444 	 29.9528 	 67.0375
| 14> H 	 70.5326 	 29.1687 	 66.2858
| 15> H 	 71.4963 	 30.5097 	 67.1708
| 16> C 	 69.3221 	 30.7461 	 66.5536
| 17> H 	 68.525 	 30.0251 	 66.5973
| 18> H 	 69.0132 	 31.514 	 67.2649
| 19> C 	 69.3168 	 31.4329 	 65.1906
| 20> H 	 70.081 	 32.2529 	 64.9931
| 21> H 	 69.3346 	 30.7688 	 64.3641
| 22> H 	 68.3357 	 32.0021 	 65.2359
| 23> S 	 72.6777 	 27.3337 	 72.1669
| 24> C 	 73.2399 	 25.7169 	 72.4786
| 25> C 	 73.0285 	 24.8011 	 71.4451
| 26> C 	 72.2229 	 25.3618 	 70.4037
| 27> C 	 71.8009 	 26.6705 	 70.7115
| 28> H 	 73.5588 	 23.8156 	 71.3695
| 29> C 	 71.6794 	 24.7414 	 69.1667
| 30> H 	 72.2606 	 25.1921 	 68.3477
| 31> H 	 70.698 	 25.0995 	 68.9656
| 32> C 	 71.6937 	 23.2436 	 69.0804
| 33> H 	 71.1846 	 23.0151 	 68.2264
| 34> H 	 71.1462 	 22.876 	 69.9391
| 35> C 	 73.0717 	 22.7259 	 69.0974
| 36> H 	 73.2126 	 22.057 	 68.2215
| 37> H 	 73.3789 	 22.1164 	 69.9199
| 38> H 	 73.8247 	 23.5317 	 68.9425
| 39> H 	 68.7455 	 30.4336 	 69.2463
| 40> H 	 73.822 	 25.4497 	 73.4152
| 41> *
| 42>
| 43>                          ****END OF INPUT****

CARTESIAN COORDINATES (ANGSTROEM)
---------------------------------
  S     69.817300   28.716300   70.765000
  C     69.604300   29.755300   69.417900
  C     70.467700   29.378900   68.404900
  C     71.296800   28.235000   68.825200
  C     71.051800   27.738900   70.015200
  H     72.109400   27.843300   68.181000
  C     70.544400   29.952800   67.037500
  H     70.532600   29.168700   66.285800
  H     71.496300   30.509700   67.170800
  C     69.322100   30.746100   66.553600
  H     68.525000   30.025100   66.597300
  H     69.013200   31.514000   67.264900
  C     69.316800   31.432900   65.190600
  H     70.081000   32.252900   64.993100
  H     69.334600   30.768800   64.364100
  H     68.335700   32.002100   65.235900
  S     72.677700   27.333700   72.166900
  C     73.239900   25.716900   72.478600
  C     73.028500   24.801100   71.445100
  C     72.222900   25.361800   70.403700
  C     71.800900   26.670500   70.711500
  H     73.558800   23.815600   71.369500
  C     71.679400   24.741400   69.166700
  H     72.260600   25.192100   68.347700
  H     70.698000   25.099500   68.965600
  C     71.693700   23.243600   69.080400
  H     71.184600   23.015100   68.226400
  H     71.146200   22.876000   69.939100
  C     73.071700   22.725900   69.097400
  H     73.212600   22.057000   68.221500
  H     73.378900   22.116400   69.919900
  H     73.824700   23.531700   68.942500
  H     68.745500   30.433600   69.246300
  H     73.822000   25.449700   73.415200

 Total Charge           Charge          ....    0
 Multiplicity           Mult            ....    1
 Number of Electrons    NEL             ....  134
 Basis Dimension        Dim             ....  322

ORBITAL ENERGIES
----------------

  NO   OCC          E(Eh)            E(eV)
   0   2.0000     -88.964272     -2420.8409
   1   2.0000     -88.957319     -2420.6517
   2   2.0000     -10.328617      -281.0560
   3   2.0000     -10.322734      -280.8959
   4   2.0000     -10.322621      -280.8928
   5   2.0000     -10.311885      -280.6007
   6   2.0000     -10.307253      -280.4746
   7   2.0000     -10.300575      -280.2929
   8   2.0000     -10.299763      -280.2708
   9   2.0000     -10.292579      -280.0753
  10   2.0000     -10.289809      -279.9999
  11   2.0000     -10.289231      -279.9842
  12   2.0000     -10.288384      -279.9612
  13   2.0000     -10.284108      -279.8448
  14   2.0000     -10.276323      -279.6330
  15   2.0000     -10.272713      -279.5347
  16   2.0000      -8.078194      -219.8188
  17   2.0000      -8.073125      -219.6809
  18   2.0000      -6.036537      -164.2625
  19   2.0000      -6.033035      -164.1672
  20   2.0000      -6.031803      -164.1337
  21   2.0000      -6.028947      -164.0560
  22   2.0000      -6.027382      -164.0134
  23   2.0000      -6.023704      -163.9133
  24   2.0000      -1.007309       -27.4103
  25   2.0000      -0.980952       -26.6930
  26   2.0000      -0.925075       -25.1726
  27   2.0000      -0.915691       -24.9172
  28   2.0000      -0.868672       -23.6378
  29   2.0000      -0.853442       -23.2233
  30   2.0000      -0.846956       -23.0468
  31   2.0000      -0.816379       -22.2148
  32   2.0000      -0.786035       -21.3891
  33   2.0000      -0.769110       -20.9285
  34   2.0000      -0.710298       -19.3282
  35   2.0000      -0.707366       -19.2484
  36   2.0000      -0.685651       -18.6575
  37   2.0000      -0.653879       -17.7930
  38   2.0000      -0.637130       -17.3372
  39   2.0000      -0.612010       -16.6536
  40   2.0000      -0.599538       -16.3143
  41   2.0000      -0.584933       -15.9168
  42   2.0000      -0.567254       -15.4358
  43   2.0000      -0.558694       -15.2028
  44   2.0000      -0.545076       -14.8323
  45   2.0000      -0.519479       -14.1357
  46   2.0000      -0.517143       -14.0722
  47   2.0000      -0.514413       -13.9979
  48   2.0000      -0.506012       -13.7693
  49   2.0000      -0.498570       -13.5668
  50   2.0000      -0.493165       -13.4197
  51   2.0000      -0.487417       -13.2633
  52   2.0000      -0.471465       -12.8292
  53   2.0000      -0.467807       -12.7297
  54   2.0000      -0.456254       -12.4153
  55   2.0000      -0.449099       -12.2206
  56   2.0000      -0.442947       -12.0532
  57   2.0000      -0.438411       -11.9298
  58   2.0000      -0.429649       -11.6913
  59   2.0000      -0.427604       -11.6357
  60   2.0000      -0.415721       -11.3123
  61   2.0000      -0.412178       -11.2159
  62   2.0000      -0.407759       -11.0957
  63   2.0000      -0.346028        -9.4159
  64   2.0000      -0.330304        -8.9880
  65   2.0000      -0.316481        -8.6119
  66   2.0000      -0.295213        -8.0332
  67   0.0000       0.033749         0.9184
  68   0.0000       0.069207         1.8832
  69   0.0000       0.105627         2.8743
  70   0.0000       0.127267         3.4631
  71   0.0000       0.137728         3.7478

MULLIKEN ATOMIC CHARGES
-----------------------
   0 S :    0.099683
   1 C :   -0.124167
   2 C :   -0.144904
   3 C :    0.018338
   4 C :   -0.133985
   5 H :    0.020559
   6 C :    0.093292
   7 H :    0.031713
   8 H :    0.054451
   9 C :   -0.124597
  10 H :    0.026138
  11 H :    0.025508
  12 C :   -0.047414
  13 H :    0.044195
  14 H :    0.030499
  15 H :    0.039190
  16 S :    0.100370
  17 C :   -0.096313
  18 C :   -0.064320
  19 C :   -0.021006
  20 C :   -0.174932
  21 H :    0.039653
  22 C :    0.021845
  23 H :    0.030377
  24 H :    0.027038
  25 C :    0.032720
  26 H :    0.005312
  27 H :    0.031235
  28 C :   -0.090012
  29 H :    0.028761
  30 H :    0.037863
  31 H :    0.039824
  32 H :    0.067402
  33 H :    0.075684
Sum of atomic charges:    0.0000000

LOEWDIN ATOMIC CHARGES
----------------------
   0 S :    0.407177
   1 C :   -0.219060
   2 C :   -0.067261
   3 C :   -0.067729
   4 C :   -0.208692
   5 H :    0.034975
   6 C :   -0.040053
   7 H :    0.033772
   8 H :    0.044997
   9 C :   -0.047889
  10 H :    0.025467
  11 H :    0.019200
  12 C :   -0.066947
  13 H :    0.032884
  14 H :    0.015980
  15 H :    0.039297
  16 S :    0.384858
  17 C :   -0.189887
  18 C :   -0.089171
  19 C :   -0.046203
  20 C :   -0.173357
  21 H :    0.044210
  22 C :   -0.031245
  23 H :    0.033308
  24 H :    0.030621
  25 C :   -0.035806
  26 H :    0.016959
  27 H :    0.030198
  28 C :   -0.072050
  29 H :    0.032646
  30 H :    0.021578
  31 H :    0.029481
  32 H :    0.038555
  33 H :    0.039184

  Mayer bond orders larger than 0.100000
B(  0-S ,  1-C ) :   1.1265 B(  0-S ,  4-C ) :   1.1335 B(  1-C ,  2-C ) :   1.6343
B(  1-C , 32-H ) :   0.9562 B(  2-C ,  3-C ) :   1.2188 B(  2-C ,  6-C ) :   1.0081
B(  3-C ,  4-C ) :   1.6199 B(  3-C ,  5-H ) :   0.9931 B(  4-C , 20-C ) :   1.0055
B(  6-C ,  7-H ) :   0.9479 B(  6-C ,  8-H ) :   0.9277 B(  6-C ,  9-C ) :   1.0673
B(  9-C , 10-H ) :   0.9567 B(  9-C , 11-H ) :   0.9514 B(  9-C , 12-C ) :   1.0854
B( 12-C , 13-H ) :   0.9748 B( 12-C , 14-H ) :   0.9756 B( 12-C , 15-H ) :   0.9720
B( 16-S , 17-C ) :   1.1688 B( 16-S , 20-C ) :   1.1327 B( 17-C , 18-C ) :   1.5999
B( 17-C , 20-C ) :   0.1072 B( 17-C , 33-H ) :   0.9545 B( 18-C , 19-C ) :   1.2399
B( 18-C , 21-H ) :   0.9738 B( 19-C , 20-C ) :   1.6126 B( 19-C , 22-C ) :   1.0324
B( 22-C , 23-H ) :   0.9192 B( 22-C , 24-H ) :   0.9333 B( 22-C , 25-C ) :   1.0987
B( 25-C , 26-H ) :   0.9467 B( 25-C , 27-H ) :   0.9541 B( 25-C , 28-C ) :   1.0585
B( 28-C , 29-H ) :   0.9671 B( 28-C , 30-H ) :   0.9702 B( 28-C , 31-H ) :   0.9823

Dispersion correction           -0.013645848
FINAL SINGLE POINT ENERGY     -1339.851082416960

DIPOLE MOMENT
-------------
                                X             Y             Z
Electronic contribution:      1.81995       4.78063      24.76783
Nuclear contribution   :     -1.74745      -5.04037     -25.57407
                        -----------------------------------------
Total Dipole Moment    :      0.07250      -0.25973      -0.80624
                        -----------------------------------------
Magnitude (a.u.)       :      0.85014
Magnitude (Debye)      :      2.16088

Rotational constants in cm-1:     0.022401     0.007043     0.005778
Rotational constants in MHz :   671.559354   211.143422   173.209438

                             ****ORCA TERMINATED NORMALLY****
TOTAL RUN TIME: 0 days 0 hours 0 minutes 29 seconds 829 msec
