                         Program Version 4.2.1 -  RELEASE  -
|  1> ! wB97X-D3 SP def2-SVP
|  2> %pal
|  3> nprocs 16
|  4> end
|  5>
|  6> * xyz 0 1
|  7> S 	 -2.03439 	 -25.5597 	 60.4432
|  8> C 	 -3.3771 	 -24.6318 	 59.7036
|  9> C 	 -3.24622 	 -23.296 	 60.0411
| 10> C 	 -2.05304 	 -22.982 	 60.7813
| 11> C 	 -1.31524 	 -24.0636 	 61.1822
| 12> H 	 -1.83092 	 -22.0115 	 61.0724
| 13> C 	 -4.23996 	 -22.1857 	 59.5426
| 14> H 	 -4.74458 	 -22.6614 	 58.6312
| 15> H 	 -3.68793 	 -21.3004 	 59.1604
| 16> C 	 -5.38875 	 -21.7235 	 60.475
| 17> H 	 -6.15666 	 -21.3094 	 59.7878
| 18> H 	 -5.82145 	 -22.6335 	 60.957
| 19> C 	 -4.83637 	 -20.8891 	 61.5675
| 20> H 	 -3.99729 	 -21.5467 	 61.9618
| 21> H 	 -4.51398 	 -19.9518 	 61.125
| 22> H 	 -5.66174 	 -20.6628 	 62.3023
| 23> S 	 -0.136718 	 -25.3322 	 63.2783
| 24> C 	 1.43777 	 -24.8223 	 64.0073
| 25> C 	 1.88056 	 -23.7404 	 63.2123
| 26> C 	 1.02732 	 -23.3252 	 62.0945
| 27> C 	 -0.126313 	 -24.0748 	 62.0366
| 28> H 	 2.82411 	 -23.3626 	 63.5016
| 29> C 	 1.35379 	 -22.0885 	 61.2278
| 30> H 	 0.443443 	 -21.7026 	 60.7433
| 31> H 	 1.98711 	 -22.3033 	 60.3971
| 32> C 	 1.8904 	 -20.8244 	 61.8905
| 33> H 	 2.17312 	 -20.0207 	 61.2077
| 34> H 	 2.82321 	 -21.0827 	 62.2907
| 35> C 	 0.966237 	 -20.3659 	 63.0306
| 36> H 	 0.646545 	 -21.2031 	 63.682
| 37> H 	 0.0463302 	 -20.057 	 62.5623
| 38> H 	 1.37467 	 -19.488 	 63.5632
| 39> H 	 -4.22528 	 -25.0199 	 59.176
| 40> H 	 1.75319 	 -25.3073 	 64.8563
| 41> *
| 42>
| 43>                          ****END OF INPUT****

CARTESIAN COORDINATES (ANGSTROEM)
---------------------------------
  S     -2.034390  -25.559700   60.443200
  C     -3.377100  -24.631800   59.703600
  C     -3.246220  -23.296000   60.041100
  C     -2.053040  -22.982000   60.781300
  C     -1.315240  -24.063600   61.182200
  H     -1.830920  -22.011500   61.072400
  C     -4.239960  -22.185700   59.542600
  H     -4.744580  -22.661400   58.631200
  H     -3.687930  -21.300400   59.160400
  C     -5.388750  -21.723500   60.475000
  H     -6.156660  -21.309400   59.787800
  H     -5.821450  -22.633500   60.957000
  C     -4.836370  -20.889100   61.567500
  H     -3.997290  -21.546700   61.961800
  H     -4.513980  -19.951800   61.125000
  H     -5.661740  -20.662800   62.302300
  S     -0.136718  -25.332200   63.278300
  C      1.437770  -24.822300   64.007300
  C      1.880560  -23.740400   63.212300
  C      1.027320  -23.325200   62.094500
  C     -0.126313  -24.074800   62.036600
  H      2.824110  -23.362600   63.501600
  C      1.353790  -22.088500   61.227800
  H      0.443443  -21.702600   60.743300
  H      1.987110  -22.303300   60.397100
  C      1.890400  -20.824400   61.890500
  H      2.173120  -20.020700   61.207700
  H      2.823210  -21.082700   62.290700
  C      0.966237  -20.365900   63.030600
  H      0.646545  -21.203100   63.682000
  H      0.046330  -20.057000   62.562300
  H      1.374670  -19.488000   63.563200
  H     -4.225280  -25.019900   59.176000
  H      1.753190  -25.307300   64.856300

 Total Charge           Charge          ....    0
 Multiplicity           Mult            ....    1
 Number of Electrons    NEL             ....  134
 Basis Dimension        Dim             ....  322

ORBITAL ENERGIES
----------------

  NO   OCC          E(Eh)            E(eV)
   0   2.0000     -88.969282     -2420.9772
   1   2.0000     -88.962165     -2420.7836
   2   2.0000     -10.339446      -281.3506
   3   2.0000     -10.336543      -281.2716
   4   2.0000     -10.326752      -281.0052
   5   2.0000     -10.320404      -280.8325
   6   2.0000     -10.317641      -280.7573
   7   2.0000     -10.307202      -280.4732
   8   2.0000     -10.306577      -280.4562
   9   2.0000     -10.301561      -280.3197
  10   2.0000     -10.293774      -280.1078
  11   2.0000     -10.293396      -280.0975
  12   2.0000     -10.287049      -279.9248
  13   2.0000     -10.282212      -279.7932
  14   2.0000     -10.282204      -279.7930
  15   2.0000     -10.276476      -279.6371
  16   2.0000      -8.082146      -219.9264
  17   2.0000      -8.076261      -219.7662
  18   2.0000      -6.040966      -164.3830
  19   2.0000      -6.036914      -164.2728
  20   2.0000      -6.034891      -164.2177
  21   2.0000      -6.032648      -164.1567
  22   2.0000      -6.030652      -164.1024
  23   2.0000      -6.027120      -164.0063
  24   2.0000      -0.999721       -27.2038
  25   2.0000      -0.975595       -26.5473
  26   2.0000      -0.911907       -24.8143
  27   2.0000      -0.909957       -24.7612
  28   2.0000      -0.872299       -23.7365
  29   2.0000      -0.846410       -23.0320
  30   2.0000      -0.838265       -22.8104
  31   2.0000      -0.818853       -22.2821
  32   2.0000      -0.782796       -21.3010
  33   2.0000      -0.770217       -20.9587
  34   2.0000      -0.710334       -19.3292
  35   2.0000      -0.703945       -19.1553
  36   2.0000      -0.687625       -18.7112
  37   2.0000      -0.666826       -18.1453
  38   2.0000      -0.643171       -17.5016
  39   2.0000      -0.621620       -16.9151
  40   2.0000      -0.603919       -16.4335
  41   2.0000      -0.574501       -15.6330
  42   2.0000      -0.557997       -15.1839
  43   2.0000      -0.552555       -15.0358
  44   2.0000      -0.544474       -14.8159
  45   2.0000      -0.533820       -14.5260
  46   2.0000      -0.525326       -14.2949
  47   2.0000      -0.513771       -13.9804
  48   2.0000      -0.505802       -13.7636
  49   2.0000      -0.497215       -13.5299
  50   2.0000      -0.489953       -13.3323
  51   2.0000      -0.483064       -13.1448
  52   2.0000      -0.467043       -12.7089
  53   2.0000      -0.466321       -12.6892
  54   2.0000      -0.458439       -12.4748
  55   2.0000      -0.444983       -12.1086
  56   2.0000      -0.437076       -11.8934
  57   2.0000      -0.433178       -11.7874
  58   2.0000      -0.425980       -11.5915
  59   2.0000      -0.421497       -11.4695
  60   2.0000      -0.417177       -11.3520
  61   2.0000      -0.411228       -11.1901
  62   2.0000      -0.408539       -11.1169
  63   2.0000      -0.354270        -9.6402
  64   2.0000      -0.331961        -9.0331
  65   2.0000      -0.329687        -8.9712
  66   2.0000      -0.296732        -8.0745
  67   0.0000       0.021767         0.5923
  68   0.0000       0.063332         1.7233
  69   0.0000       0.105747         2.8775
  70   0.0000       0.113300         3.0831
  71   0.0000       0.124300         3.3824

MULLIKEN ATOMIC CHARGES
-----------------------
   0 S :    0.100211
   1 C :   -0.108621
   2 C :   -0.090766
   3 C :    0.057529
   4 C :   -0.112387
   5 H :   -0.013366
   6 C :   -0.013784
   7 H :    0.029292
   8 H :    0.035796
   9 C :   -0.065303
  10 H :    0.037828
  11 H :    0.028881
  12 C :   -0.058306
  13 H :    0.053653
  14 H :    0.026294
  15 H :    0.048670
  16 S :    0.069383
  17 C :   -0.078749
  18 C :   -0.022576
  19 C :   -0.020445
  20 C :   -0.153568
  21 H :    0.016440
  22 C :    0.073376
  23 H :    0.011656
  24 H :    0.033008
  25 C :   -0.061888
  26 H :    0.030224
  27 H :    0.005983
  28 C :   -0.060833
  29 H :    0.055422
  30 H :    0.012888
  31 H :    0.042702
  32 H :    0.047841
  33 H :    0.043515
Sum of atomic charges:   -0.0000000

LOEWDIN ATOMIC CHARGES
----------------------
   0 S :    0.365255
   1 C :   -0.178487
   2 C :   -0.064905
   3 C :   -0.058752
   4 C :   -0.167110
   5 H :    0.016331
   6 C :   -0.038577
   7 H :    0.034565
   8 H :    0.029575
   9 C :   -0.051815
  10 H :    0.025067
  11 H :    0.027004
  12 C :   -0.072859
  13 H :    0.041237
  14 H :    0.020675
  15 H :    0.033097
  16 S :    0.372294
  17 C :   -0.148906
  18 C :   -0.058064
  19 C :   -0.056554
  20 C :   -0.181261
  21 H :    0.024043
  22 C :   -0.029078
  23 H :    0.029931
  24 H :    0.031321
  25 C :   -0.041123
  26 H :    0.029770
  27 H :    0.009246
  28 C :   -0.067948
  29 H :    0.034024
  30 H :    0.018435
  31 H :    0.029262
  32 H :    0.029847
  33 H :    0.014458

  Mayer bond orders larger than 0.100000
B(  0-S ,  1-C ) :   1.1180 B(  0-S ,  4-C ) :   1.1237 B(  1-C ,  2-C ) :   1.6440
B(  1-C , 32-H ) :   0.9663 B(  2-C ,  3-C ) :   1.2219 B(  2-C ,  6-C ) :   1.0110
B(  3-C ,  4-C ) :   1.5911 B(  3-C ,  5-H ) :   0.9964 B(  4-C , 20-C ) :   1.0426
B(  6-C ,  7-H ) :   0.9466 B(  6-C ,  8-H ) :   0.9484 B(  6-C ,  9-C ) :   1.0593
B(  9-C , 10-H ) :   0.9547 B(  9-C , 11-H ) :   0.9525 B(  9-C , 12-C ) :   1.0699
B( 12-C , 13-H ) :   0.9678 B( 12-C , 14-H ) :   0.9757 B( 12-C , 15-H ) :   0.9714
B( 16-S , 17-C ) :   1.1384 B( 16-S , 20-C ) :   1.1439 B( 17-C , 18-C ) :   1.5937
B( 17-C , 20-C ) :   0.1022 B( 17-C , 33-H ) :   0.9896 B( 18-C , 19-C ) :   1.2011
B( 18-C , 21-H ) :   0.9966 B( 19-C , 20-C ) :   1.6100 B( 19-C , 22-C ) :   1.0273
B( 22-C , 23-H ) :   0.9447 B( 22-C , 24-H ) :   0.9292 B( 22-C , 25-C ) :   1.0770
B( 25-C , 26-H ) :   0.9522 B( 25-C , 27-H ) :   0.9478 B( 25-C , 28-C ) :   1.0732
B( 28-C , 29-H ) :   0.9711 B( 28-C , 30-H ) :   0.9742 B( 28-C , 31-H ) :   0.9743

Dispersion correction           -0.014588244
FINAL SINGLE POINT ENERGY     -1339.861815736239

DIPOLE MOMENT
-------------
                                X             Y             Z
Electronic contribution:      5.48551     -27.07467       1.35661
Nuclear contribution   :     -5.44823      27.74692      -1.42731
                        -----------------------------------------
Total Dipole Moment    :      0.03728       0.67224      -0.07070
                        -----------------------------------------
Magnitude (a.u.)       :      0.67698
Magnitude (Debye)      :      1.72074

Rotational constants in cm-1:     0.017900     0.009150     0.007027
Rotational constants in MHz :   536.613811   274.297769   210.651884

                             ****ORCA TERMINATED NORMALLY****
TOTAL RUN TIME: 0 days 0 hours 0 minutes 33 seconds 257 msec
