                         Program Version 4.2.1 -  RELEASE  -
|  1> ! wB97X-D3 SP def2-SVP
|  2> %pal
|  3> nprocs 16
|  4> end
|  5>
|  6> * xyz 0 1
|  7> S 	 -24.8221 	 45.541 	 60.4196
|  8> C 	 -25.9566 	 46.6114 	 61.228
|  9> C 	 -26.3165 	 47.6742 	 60.4555
| 10> C 	 -25.6846 	 47.6296 	 59.1638
| 11> C 	 -24.9319 	 46.496 	 59.023
| 12> H 	 -25.8627 	 48.2512 	 58.2913
| 13> C 	 -27.1265 	 48.9325 	 60.8339
| 14> H 	 -26.4301 	 49.6668 	 61.0313
| 15> H 	 -27.6185 	 48.7014 	 61.7119
| 16> C 	 -28.1717 	 49.6068 	 59.8722
| 17> H 	 -28.7228 	 50.3142 	 60.4639
| 18> H 	 -27.6705 	 50.1277 	 59.0708
| 19> C 	 -29.0774 	 48.5672 	 59.1808
| 20> H 	 -29.8829 	 48.9637 	 58.5223
| 21> H 	 -28.3896 	 47.8993 	 58.6826
| 22> H 	 -29.5926 	 47.905 	 59.9602
| 23> S 	 -22.3769 	 46.0586 	 58.1844
| 24> C 	 -22.093 	 45.7052 	 56.5151
| 25> C 	 -23.2816 	 45.8246 	 55.7655
| 26> C 	 -24.4609 	 45.9873 	 56.5403
| 27> C 	 -24.123 	 46.1022 	 57.9047
| 28> H 	 -23.1831 	 45.5827 	 54.739
| 29> C 	 -25.7878 	 45.8343 	 55.8903
| 30> H 	 -25.7505 	 46.091 	 54.7683
| 31> H 	 -26.5713 	 46.5416 	 56.3063
| 32> C 	 -26.3329 	 44.4171 	 55.9915
| 33> H 	 -27.3831 	 44.4079 	 55.81
| 34> H 	 -26.2336 	 43.921 	 56.9599
| 35> C 	 -25.5929 	 43.4545 	 55.0309
| 36> H 	 -26.1099 	 42.5303 	 54.9654
| 37> H 	 -24.5862 	 43.2955 	 55.4048
| 38> H 	 -25.55 	 43.837 	 54.0447
| 39> H 	 -26.2528 	 46.4372 	 62.2398
| 40> H 	 -21.0909 	 45.4531 	 56.1198
| 41> *
| 42>
| 43>                          ****END OF INPUT****

CARTESIAN COORDINATES (ANGSTROEM)
---------------------------------
  S    -24.822100   45.541000   60.419600
  C    -25.956600   46.611400   61.228000
  C    -26.316500   47.674200   60.455500
  C    -25.684600   47.629600   59.163800
  C    -24.931900   46.496000   59.023000
  H    -25.862700   48.251200   58.291300
  C    -27.126500   48.932500   60.833900
  H    -26.430100   49.666800   61.031300
  H    -27.618500   48.701400   61.711900
  C    -28.171700   49.606800   59.872200
  H    -28.722800   50.314200   60.463900
  H    -27.670500   50.127700   59.070800
  C    -29.077400   48.567200   59.180800
  H    -29.882900   48.963700   58.522300
  H    -28.389600   47.899300   58.682600
  H    -29.592600   47.905000   59.960200
  S    -22.376900   46.058600   58.184400
  C    -22.093000   45.705200   56.515100
  C    -23.281600   45.824600   55.765500
  C    -24.460900   45.987300   56.540300
  C    -24.123000   46.102200   57.904700
  H    -23.183100   45.582700   54.739000
  C    -25.787800   45.834300   55.890300
  H    -25.750500   46.091000   54.768300
  H    -26.571300   46.541600   56.306300
  C    -26.332900   44.417100   55.991500
  H    -27.383100   44.407900   55.810000
  H    -26.233600   43.921000   56.959900
  C    -25.592900   43.454500   55.030900
  H    -26.109900   42.530300   54.965400
  H    -24.586200   43.295500   55.404800
  H    -25.550000   43.837000   54.044700
  H    -26.252800   46.437200   62.239800
  H    -21.090900   45.453100   56.119800

 Total Charge           Charge          ....    0
 Multiplicity           Mult            ....    1
 Number of Electrons    NEL             ....  134
 Basis Dimension        Dim             ....  322

ORBITAL ENERGIES
----------------

  NO   OCC          E(Eh)            E(eV)
   0   2.0000     -88.967255     -2420.9221
   1   2.0000     -88.964264     -2420.8407
   2   2.0000     -10.324468      -280.9431
   3   2.0000     -10.319051      -280.7957
   4   2.0000     -10.318979      -280.7937
   5   2.0000     -10.309989      -280.5491
   6   2.0000     -10.305218      -280.4192
   7   2.0000     -10.303075      -280.3609
   8   2.0000     -10.300524      -280.2915
   9   2.0000     -10.291554      -280.0474
  10   2.0000     -10.289963      -280.0041
  11   2.0000     -10.288969      -279.9771
  12   2.0000     -10.283863      -279.8381
  13   2.0000     -10.281684      -279.7789
  14   2.0000     -10.279669      -279.7240
  15   2.0000     -10.265701      -279.3439
  16   2.0000      -8.081942      -219.9208
  17   2.0000      -8.080257      -219.8750
  18   2.0000      -6.040264      -164.3639
  19   2.0000      -6.038590      -164.3184
  20   2.0000      -6.036422      -164.2594
  21   2.0000      -6.034676      -164.2119
  22   2.0000      -6.032936      -164.1645
  23   2.0000      -6.031041      -164.1130
  24   2.0000      -1.012426       -27.5495
  25   2.0000      -0.984145       -26.7799
  26   2.0000      -0.912759       -24.8374
  27   2.0000      -0.909436       -24.7470
  28   2.0000      -0.869083       -23.6490
  29   2.0000      -0.851035       -23.1578
  30   2.0000      -0.843891       -22.9634
  31   2.0000      -0.810856       -22.0645
  32   2.0000      -0.786897       -21.4126
  33   2.0000      -0.773247       -21.0411
  34   2.0000      -0.709308       -19.3013
  35   2.0000      -0.700016       -19.0484
  36   2.0000      -0.686844       -18.6900
  37   2.0000      -0.661744       -18.0070
  38   2.0000      -0.643505       -17.5107
  39   2.0000      -0.621036       -16.8992
  40   2.0000      -0.597686       -16.2639
  41   2.0000      -0.560814       -15.2605
  42   2.0000      -0.558472       -15.1968
  43   2.0000      -0.550668       -14.9844
  44   2.0000      -0.544124       -14.8064
  45   2.0000      -0.540694       -14.7130
  46   2.0000      -0.518176       -14.1003
  47   2.0000      -0.511299       -13.9131
  48   2.0000      -0.499806       -13.6004
  49   2.0000      -0.496694       -13.5157
  50   2.0000      -0.489019       -13.3069
  51   2.0000      -0.481736       -13.1087
  52   2.0000      -0.467125       -12.7111
  53   2.0000      -0.465193       -12.6585
  54   2.0000      -0.454086       -12.3563
  55   2.0000      -0.449471       -12.2307
  56   2.0000      -0.441558       -12.0154
  57   2.0000      -0.436904       -11.8888
  58   2.0000      -0.435874       -11.8607
  59   2.0000      -0.426746       -11.6124
  60   2.0000      -0.421940       -11.4816
  61   2.0000      -0.418279       -11.3820
  62   2.0000      -0.413791       -11.2598
  63   2.0000      -0.339503        -9.2383
  64   2.0000      -0.334076        -9.0907
  65   2.0000      -0.329840        -8.9754
  66   2.0000      -0.293010        -7.9732
  67   0.0000       0.032024         0.8714
  68   0.0000       0.069899         1.9020
  69   0.0000       0.111979         3.0471
  70   0.0000       0.117077         3.1858
  71   0.0000       0.128671         3.5013

MULLIKEN ATOMIC CHARGES
-----------------------
   0 S :    0.111536
   1 C :   -0.126398
   2 C :   -0.099151
   3 C :    0.037225
   4 C :   -0.173992
   5 H :    0.018847
   6 C :    0.126859
   7 H :    0.028403
   8 H :   -0.001983
   9 C :   -0.066775
  10 H :    0.031189
  11 H :    0.028505
  12 C :   -0.082020
  13 H :    0.048897
  14 H :    0.031739
  15 H :    0.032139
  16 S :    0.119994
  17 C :   -0.119525
  18 C :   -0.036995
  19 C :    0.010707
  20 C :   -0.168111
  21 H :    0.009872
  22 C :    0.023329
  23 H :    0.039357
  24 H :    0.035370
  25 C :   -0.056396
  26 H :    0.019854
  27 H :    0.034607
  28 C :   -0.036680
  29 H :    0.024469
  30 H :    0.043124
  31 H :    0.008818
  32 H :    0.033645
  33 H :    0.069542
Sum of atomic charges:    0.0000000

LOEWDIN ATOMIC CHARGES
----------------------
   0 S :    0.423608
   1 C :   -0.193634
   2 C :   -0.056193
   3 C :   -0.065679
   4 C :   -0.210272
   5 H :    0.033492
   6 C :   -0.016812
   7 H :    0.028633
   8 H :    0.018480
   9 C :   -0.032537
  10 H :    0.023792
  11 H :    0.019907
  12 C :   -0.074734
  13 H :    0.028773
  14 H :    0.022187
  15 H :    0.029846
  16 S :    0.414748
  17 C :   -0.199404
  18 C :   -0.068051
  19 C :   -0.055508
  20 C :   -0.201429
  21 H :    0.024331
  22 C :   -0.039890
  23 H :    0.040566
  24 H :    0.034673
  25 C :   -0.036014
  26 H :    0.018467
  27 H :    0.029253
  28 C :   -0.058594
  29 H :    0.022129
  30 H :    0.027471
  31 H :    0.013282
  32 H :    0.020852
  33 H :    0.034263

  Mayer bond orders larger than 0.100000
B(  0-S ,  1-C ) :   1.1242 B(  0-S ,  4-C ) :   1.1705 B(  1-C ,  2-C ) :   1.6476
B(  1-C , 32-H ) :   0.9728 B(  2-C ,  3-C ) :   1.1980 B(  2-C ,  6-C ) :   1.0086
B(  3-C ,  4-C ) :   1.6072 B(  3-C ,  5-H ) :   0.9907 B(  4-C , 20-C ) :   1.0102
B(  6-C ,  7-H ) :   0.9357 B(  6-C ,  8-H ) :   0.9353 B(  6-C ,  9-C ) :   1.0714
B(  9-C , 10-H ) :   0.9569 B(  9-C , 11-H ) :   0.9537 B(  9-C , 12-C ) :   1.0767
B( 12-C , 13-H ) :   0.9757 B( 12-C , 14-H ) :   0.9704 B( 12-C , 15-H ) :   0.9757
B( 16-S , 17-C ) :   1.1662 B( 16-S , 20-C ) :   1.1643 B( 17-C , 18-C ) :   1.5809
B( 17-C , 20-C ) :   0.1128 B( 17-C , 33-H ) :   0.9656 B( 18-C , 19-C ) :   1.2558
B( 18-C , 21-H ) :   0.9908 B( 19-C , 20-C ) :   1.5604 B( 19-C , 22-C ) :   1.0589
B( 22-C , 23-H ) :   0.9390 B( 22-C , 24-H ) :   0.9263 B( 22-C , 25-C ) :   1.0717
B( 25-C , 26-H ) :   0.9563 B( 25-C , 27-H ) :   0.9565 B( 25-C , 28-C ) :   1.0784
B( 28-C , 29-H ) :   0.9719 B( 28-C , 30-H ) :   0.9741 B( 28-C , 31-H ) :   0.9751

Dispersion correction           -0.015099593
FINAL SINGLE POINT ENERGY     -1339.876725261297

DIPOLE MOMENT
-------------
                                X             Y             Z
Electronic contribution:     21.94305      -3.91638      10.84091
Nuclear contribution   :    -22.30015       4.11765     -11.08419
                        -----------------------------------------
Total Dipole Moment    :     -0.35710       0.20127      -0.24328
                        -----------------------------------------
Magnitude (a.u.)       :      0.47667
Magnitude (Debye)      :      1.21161

Rotational constants in cm-1:     0.019485     0.009050     0.007446
Rotational constants in MHz :   584.139857   271.313206   223.231902

                             ****ORCA TERMINATED NORMALLY****
TOTAL RUN TIME: 0 days 0 hours 0 minutes 34 seconds 697 msec
