                         Program Version 4.2.1 -  RELEASE  -
|  1> ! wB97X-D3 SP def2-SVP
|  2> %pal
|  3> nprocs 16
|  4> end
|  5>
|  6> * xyz 0 1
|  7> S 	 32.9895 	 11.7656 	 70.7787
|  8> C 	 31.8472 	 12.4077 	 69.5604
|  9> C 	 31.8913 	 11.6342 	 68.4561
| 10> C 	 32.5271 	 10.3332 	 68.7456
| 11> C 	 33.1279 	 10.1722 	 69.9735
| 12> H 	 32.577 	 9.56593 	 68.0894
| 13> C 	 31.0232 	 11.6959 	 67.2406
| 14> H 	 31.5178 	 11.1993 	 66.4495
| 15> H 	 31.0382 	 12.8018 	 67.0179
| 16> C 	 29.5526 	 11.2358 	 67.4654
| 17> H 	 29.505 	 10.1373 	 67.4291
| 18> H 	 29.2183 	 11.5388 	 68.4296
| 19> C 	 28.7472 	 11.6779 	 66.3301
| 20> H 	 27.6598 	 11.2392 	 66.4092
| 21> H 	 28.6437 	 12.785 	 66.1278
| 22> H 	 29.1304 	 11.0905 	 65.5227
| 23> S 	 35.7799 	 9.58265 	 70.3311
| 24> C 	 36.2445 	 8.01614 	 70.9227
| 25> C 	 35.1945 	 7.19633 	 71.1214
| 26> C 	 33.9636 	 7.85431 	 70.8097
| 27> C 	 34.0879 	 9.14899 	 70.3778
| 28> H 	 35.4242 	 6.23904 	 71.5998
| 29> C 	 32.6606 	 7.0694 	 70.9255
| 30> H 	 32.9883 	 6.02247 	 70.7615
| 31> H 	 32.012 	 7.27484 	 70.0877
| 32> C 	 31.978 	 7.17185 	 72.3128
| 33> H 	 31.9347 	 8.25885 	 72.5917
| 34> H 	 32.644 	 6.72703 	 73.0844
| 35> C 	 30.5187 	 6.49937 	 72.4164
| 36> H 	 29.8942 	 6.76156 	 71.5708
| 37> H 	 30.0704 	 6.90045 	 73.2724
| 38> H 	 30.4431 	 5.38297 	 72.3962
| 39> H 	 31.2664 	 13.2949 	 69.6957
| 40> H 	 37.2406 	 7.72198 	 71.325
| 41> *
| 42>
| 43>                          ****END OF INPUT****

CARTESIAN COORDINATES (ANGSTROEM)
---------------------------------
  S     32.989500   11.765600   70.778700
  C     31.847200   12.407700   69.560400
  C     31.891300   11.634200   68.456100
  C     32.527100   10.333200   68.745600
  C     33.127900   10.172200   69.973500
  H     32.577000    9.565930   68.089400
  C     31.023200   11.695900   67.240600
  H     31.517800   11.199300   66.449500
  H     31.038200   12.801800   67.017900
  C     29.552600   11.235800   67.465400
  H     29.505000   10.137300   67.429100
  H     29.218300   11.538800   68.429600
  C     28.747200   11.677900   66.330100
  H     27.659800   11.239200   66.409200
  H     28.643700   12.785000   66.127800
  H     29.130400   11.090500   65.522700
  S     35.779900    9.582650   70.331100
  C     36.244500    8.016140   70.922700
  C     35.194500    7.196330   71.121400
  C     33.963600    7.854310   70.809700
  C     34.087900    9.148990   70.377800
  H     35.424200    6.239040   71.599800
  C     32.660600    7.069400   70.925500
  H     32.988300    6.022470   70.761500
  H     32.012000    7.274840   70.087700
  C     31.978000    7.171850   72.312800
  H     31.934700    8.258850   72.591700
  H     32.644000    6.727030   73.084400
  C     30.518700    6.499370   72.416400
  H     29.894200    6.761560   71.570800
  H     30.070400    6.900450   73.272400
  H     30.443100    5.382970   72.396200
  H     31.266400   13.294900   69.695700
  H     37.240600    7.721980   71.325000

 Total Charge           Charge          ....    0
 Multiplicity           Mult            ....    1
 Number of Electrons    NEL             ....  134
 Basis Dimension        Dim             ....  322

ORBITAL ENERGIES
----------------

  NO   OCC          E(Eh)            E(eV)
   0   2.0000     -88.962821     -2420.8014
   1   2.0000     -88.959366     -2420.7074
   2   2.0000     -10.332363      -281.1579
   3   2.0000     -10.325707      -280.9768
   4   2.0000     -10.317834      -280.7625
   5   2.0000     -10.313868      -280.6546
   6   2.0000     -10.302427      -280.3433
   7   2.0000     -10.300558      -280.2924
   8   2.0000     -10.295305      -280.1495
   9   2.0000     -10.292483      -280.0727
  10   2.0000     -10.290080      -280.0073
  11   2.0000     -10.290065      -280.0069
  12   2.0000     -10.289202      -279.9834
  13   2.0000     -10.286170      -279.9009
  14   2.0000     -10.285420      -279.8805
  15   2.0000     -10.278765      -279.6994
  16   2.0000      -8.078051      -219.8149
  17   2.0000      -8.073364      -219.6874
  18   2.0000      -6.036607      -164.2644
  19   2.0000      -6.032498      -164.1526
  20   2.0000      -6.032224      -164.1451
  21   2.0000      -6.028701      -164.0493
  22   2.0000      -6.027988      -164.0299
  23   2.0000      -6.023748      -163.9145
  24   2.0000      -1.007304       -27.4101
  25   2.0000      -0.984138       -26.7798
  26   2.0000      -0.920398       -25.0453
  27   2.0000      -0.897021       -24.4092
  28   2.0000      -0.878040       -23.8927
  29   2.0000      -0.846856       -23.0441
  30   2.0000      -0.841747       -22.9051
  31   2.0000      -0.820420       -22.3248
  32   2.0000      -0.778398       -21.1813
  33   2.0000      -0.769960       -20.9517
  34   2.0000      -0.709192       -19.2981
  35   2.0000      -0.700721       -19.0676
  36   2.0000      -0.692821       -18.8526
  37   2.0000      -0.658402       -17.9160
  38   2.0000      -0.648612       -17.6496
  39   2.0000      -0.619333       -16.8529
  40   2.0000      -0.590211       -16.0605
  41   2.0000      -0.583877       -15.8881
  42   2.0000      -0.565508       -15.3883
  43   2.0000      -0.546420       -14.8689
  44   2.0000      -0.527651       -14.3581
  45   2.0000      -0.525272       -14.2934
  46   2.0000      -0.520217       -14.1558
  47   2.0000      -0.516465       -14.0537
  48   2.0000      -0.506427       -13.7806
  49   2.0000      -0.496689       -13.5156
  50   2.0000      -0.490302       -13.3418
  51   2.0000      -0.483251       -13.1499
  52   2.0000      -0.473198       -12.8764
  53   2.0000      -0.462374       -12.5818
  54   2.0000      -0.457444       -12.4477
  55   2.0000      -0.444407       -12.0929
  56   2.0000      -0.442691       -12.0462
  57   2.0000      -0.438299       -11.9267
  58   2.0000      -0.427626       -11.6363
  59   2.0000      -0.423326       -11.5193
  60   2.0000      -0.415103       -11.2955
  61   2.0000      -0.411883       -11.2079
  62   2.0000      -0.409241       -11.1360
  63   2.0000      -0.342604        -9.3227
  64   2.0000      -0.330835        -9.0025
  65   2.0000      -0.321599        -8.7511
  66   2.0000      -0.307097        -8.3565
  67   0.0000       0.038398         1.0449
  68   0.0000       0.056036         1.5248
  69   0.0000       0.113635         3.0922
  70   0.0000       0.122703         3.3389
  71   0.0000       0.128813         3.5052

MULLIKEN ATOMIC CHARGES
-----------------------
   0 S :    0.076282
   1 C :   -0.118291
   2 C :   -0.048450
   3 C :    0.061191
   4 C :   -0.132879
   5 H :   -0.033163
   6 C :    0.021265
   7 H :    0.020594
   8 H :    0.030848
   9 C :   -0.010972
  10 H :    0.025866
  11 H :    0.019407
  12 C :   -0.076181
  13 H :    0.036878
  14 H :    0.053500
  15 H :    0.023110
  16 S :    0.111475
  17 C :   -0.097279
  18 C :   -0.048266
  19 C :   -0.052680
  20 C :   -0.163894
  21 H :    0.029646
  22 C :    0.087632
  23 H :    0.018512
  24 H :    0.018746
  25 C :   -0.097061
  26 H :    0.044519
  27 H :    0.031510
  28 C :   -0.034978
  29 H :    0.022987
  30 H :    0.029351
  31 H :    0.038288
  32 H :    0.047952
  33 H :    0.064534
Sum of atomic charges:    0.0000000

LOEWDIN ATOMIC CHARGES
----------------------
   0 S :    0.358952
   1 C :   -0.164228
   2 C :   -0.067001
   3 C :   -0.039342
   4 C :   -0.183218
   5 H :    0.008375
   6 C :   -0.032276
   7 H :    0.024352
   8 H :    0.035881
   9 C :   -0.035213
  10 H :    0.030776
  11 H :    0.017087
  12 C :   -0.074416
  13 H :    0.034850
  14 H :    0.030329
  15 H :    0.024021
  16 S :    0.409876
  17 C :   -0.190449
  18 C :   -0.081159
  19 C :   -0.055311
  20 C :   -0.203494
  21 H :    0.039726
  22 C :   -0.034358
  23 H :    0.031247
  24 H :    0.024899
  25 C :   -0.039306
  26 H :    0.031019
  27 H :    0.026028
  28 C :   -0.067437
  29 H :    0.023224
  30 H :    0.019926
  31 H :    0.029927
  32 H :    0.027437
  33 H :    0.039277

  Mayer bond orders larger than 0.100000
B(  0-S ,  1-C ) :   1.1245 B(  0-S ,  4-C ) :   1.1060 B(  1-C ,  2-C ) :   1.6303
B(  1-C , 32-H ) :   0.9768 B(  2-C ,  3-C ) :   1.1847 B(  2-C ,  6-C ) :   1.0478
B(  3-C ,  4-C ) :   1.6280 B(  3-C ,  5-H ) :   1.0059 B(  4-C , 20-C ) :   1.0279
B(  6-C ,  7-H ) :   0.9361 B(  6-C ,  8-H ) :   0.9434 B(  6-C ,  9-C ) :   1.0540
B(  9-C , 10-H ) :   0.9480 B(  9-C , 11-H ) :   0.9576 B(  9-C , 12-C ) :   1.0852
B( 12-C , 13-H ) :   0.9685 B( 12-C , 14-H ) :   0.9751 B( 12-C , 15-H ) :   0.9699
B( 16-S , 17-C ) :   1.1516 B( 16-S , 20-C ) :   1.1327 B( 17-C , 18-C ) :   1.6577
B( 17-C , 33-H ) :   0.9534 B( 18-C , 19-C ) :   1.2204 B( 18-C , 21-H ) :   0.9877
B( 19-C , 20-C ) :   1.6377 B( 19-C , 22-C ) :   1.0358 B( 22-C , 23-H ) :   0.9358
B( 22-C , 24-H ) :   0.9369 B( 22-C , 25-C ) :   1.0562 B( 25-C , 26-H ) :   0.9621
B( 25-C , 27-H ) :   0.9558 B( 25-C , 28-C ) :   1.0630 B( 28-C , 29-H ) :   0.9770
B( 28-C , 30-H ) :   0.9780 B( 28-C , 31-H ) :   0.9780

Dispersion correction           -0.013646937
FINAL SINGLE POINT ENERGY     -1339.853510776615

DIPOLE MOMENT
-------------
                                X             Y             Z
Electronic contribution:     25.40843       9.31798       6.53818
Nuclear contribution   :    -25.87869      -9.68489      -6.81062
                        -----------------------------------------
Total Dipole Moment    :     -0.47026      -0.36691      -0.27244
                        -----------------------------------------
Magnitude (a.u.)       :      0.65574
Magnitude (Debye)      :      1.66675

Rotational constants in cm-1:     0.017851     0.008139     0.006548
Rotational constants in MHz :   535.164493   244.002527   196.305664

                             ****ORCA TERMINATED NORMALLY****
TOTAL RUN TIME: 0 days 0 hours 0 minutes 29 seconds 171 msec
