                         Program Version 4.2.1 -  RELEASE  -
|  1> ! wB97X-D3 SP def2-SVP
|  2> %pal
|  3> nprocs 16
|  4> end
|  5>
|  6> * xyz 0 1
|  7> S 	 -12.6317 	 57.761 	 60.3061
|  8> C 	 -11.7531 	 56.6902 	 59.2114
|  9> C 	 -11.8086 	 55.3649 	 59.6365
| 10> C 	 -12.336 	 55.2899 	 60.9568
| 11> C 	 -12.8789 	 56.4674 	 61.4437
| 12> H 	 -12.3348 	 54.4569 	 61.5217
| 13> C 	 -11.1168 	 54.1636 	 59.0187
| 14> H 	 -10.4508 	 53.9311 	 59.8193
| 15> H 	 -10.6567 	 54.4045 	 58.0193
| 16> C 	 -12.0255 	 52.9372 	 58.6877
| 17> H 	 -11.4176 	 52.1012 	 58.5339
| 18> H 	 -12.5694 	 52.8193 	 59.5899
| 19> C 	 -12.94 	 53.0982 	 57.4076
| 20> H 	 -13.8864 	 52.5401 	 57.5576
| 21> H 	 -13.1979 	 54.1198 	 57.2203
| 22> H 	 -12.3141 	 52.7911 	 56.5505
| 23> S 	 -12.9175 	 57.9895 	 63.7499
| 24> C 	 -14.1201 	 57.8885 	 64.9444
| 25> C 	 -14.8843 	 56.8064 	 64.6462
| 26> C 	 -14.605 	 56.0392 	 63.404
| 27> C 	 -13.5765 	 56.7205 	 62.7363
| 28> H 	 -15.5548 	 56.521 	 65.455
| 29> C 	 -15.3061 	 54.7591 	 62.9948
| 30> H 	 -15.4569 	 54.1245 	 63.8636
| 31> H 	 -14.6786 	 54.2299 	 62.2206
| 32> C 	 -16.6217 	 54.9588 	 62.2959
| 33> H 	 -17.4126 	 55.2712 	 63.0286
| 34> H 	 -16.9136 	 53.9585 	 61.8983
| 35> C 	 -16.7027 	 56.1344 	 61.2284
| 36> H 	 -16.5795 	 57.1039 	 61.6025
| 37> H 	 -17.6693 	 56.0835 	 60.6622
| 38> H 	 -15.8154 	 56.0384 	 60.5195
| 39> H 	 -11.5389 	 56.925 	 58.1626
| 40> H 	 -14.1656 	 58.2934 	 66.0036
| 41> *
| 42>
| 43>                          ****END OF INPUT****

CARTESIAN COORDINATES (ANGSTROEM)
---------------------------------
  S    -12.631700   57.761000   60.306100
  C    -11.753100   56.690200   59.211400
  C    -11.808600   55.364900   59.636500
  C    -12.336000   55.289900   60.956800
  C    -12.878900   56.467400   61.443700
  H    -12.334800   54.456900   61.521700
  C    -11.116800   54.163600   59.018700
  H    -10.450800   53.931100   59.819300
  H    -10.656700   54.404500   58.019300
  C    -12.025500   52.937200   58.687700
  H    -11.417600   52.101200   58.533900
  H    -12.569400   52.819300   59.589900
  C    -12.940000   53.098200   57.407600
  H    -13.886400   52.540100   57.557600
  H    -13.197900   54.119800   57.220300
  H    -12.314100   52.791100   56.550500
  S    -12.917500   57.989500   63.749900
  C    -14.120100   57.888500   64.944400
  C    -14.884300   56.806400   64.646200
  C    -14.605000   56.039200   63.404000
  C    -13.576500   56.720500   62.736300
  H    -15.554800   56.521000   65.455000
  C    -15.306100   54.759100   62.994800
  H    -15.456900   54.124500   63.863600
  H    -14.678600   54.229900   62.220600
  C    -16.621700   54.958800   62.295900
  H    -17.412600   55.271200   63.028600
  H    -16.913600   53.958500   61.898300
  C    -16.702700   56.134400   61.228400
  H    -16.579500   57.103900   61.602500
  H    -17.669300   56.083500   60.662200
  H    -15.815400   56.038400   60.519500
  H    -11.538900   56.925000   58.162600
  H    -14.165600   58.293400   66.003600

 Total Charge           Charge          ....    0
 Multiplicity           Mult            ....    1
 Number of Electrons    NEL             ....  134
 Basis Dimension        Dim             ....  322

ORBITAL ENERGIES
----------------

  NO   OCC          E(Eh)            E(eV)
   0   2.0000     -88.968027     -2420.9431
   1   2.0000     -88.962713     -2420.7985
   2   2.0000     -10.334536      -281.2170
   3   2.0000     -10.333971      -281.2016
   4   2.0000     -10.316411      -280.7238
   5   2.0000     -10.315884      -280.7095
   6   2.0000     -10.313956      -280.6570
   7   2.0000     -10.303190      -280.3641
   8   2.0000     -10.298145      -280.2268
   9   2.0000     -10.297133      -280.1992
  10   2.0000     -10.294634      -280.1312
  11   2.0000     -10.291794      -280.0539
  12   2.0000     -10.287447      -279.9357
  13   2.0000     -10.284290      -279.8498
  14   2.0000     -10.283540      -279.8293
  15   2.0000     -10.277980      -279.6781
  16   2.0000      -8.082499      -219.9360
  17   2.0000      -8.078335      -219.8227
  18   2.0000      -6.040984      -164.3835
  19   2.0000      -6.036965      -164.2742
  20   2.0000      -6.036934      -164.2733
  21   2.0000      -6.033361      -164.1761
  22   2.0000      -6.032563      -164.1544
  23   2.0000      -6.029064      -164.0592
  24   2.0000      -1.007981       -27.4286
  25   2.0000      -0.987280       -26.8653
  26   2.0000      -0.910991       -24.7893
  27   2.0000      -0.909707       -24.7544
  28   2.0000      -0.866857       -23.5884
  29   2.0000      -0.849118       -23.1057
  30   2.0000      -0.835013       -22.7219
  31   2.0000      -0.815380       -22.1876
  32   2.0000      -0.784688       -21.3524
  33   2.0000      -0.777488       -21.1565
  34   2.0000      -0.711227       -19.3535
  35   2.0000      -0.698261       -19.0006
  36   2.0000      -0.686746       -18.6873
  37   2.0000      -0.651326       -17.7235
  38   2.0000      -0.639116       -17.3912
  39   2.0000      -0.628011       -17.0890
  40   2.0000      -0.591548       -16.0968
  41   2.0000      -0.569208       -15.4889
  42   2.0000      -0.555864       -15.1258
  43   2.0000      -0.552514       -15.0347
  44   2.0000      -0.548957       -14.9379
  45   2.0000      -0.537382       -14.6229
  46   2.0000      -0.514142       -13.9905
  47   2.0000      -0.508929       -13.8487
  48   2.0000      -0.499582       -13.5943
  49   2.0000      -0.494748       -13.4628
  50   2.0000      -0.489917       -13.3313
  51   2.0000      -0.482897       -13.1403
  52   2.0000      -0.471792       -12.8381
  53   2.0000      -0.463669       -12.6171
  54   2.0000      -0.457002       -12.4357
  55   2.0000      -0.448688       -12.2094
  56   2.0000      -0.441191       -12.0054
  57   2.0000      -0.440334       -11.9821
  58   2.0000      -0.435784       -11.8583
  59   2.0000      -0.423122       -11.5137
  60   2.0000      -0.419395       -11.4123
  61   2.0000      -0.415314       -11.3013
  62   2.0000      -0.401027       -10.9125
  63   2.0000      -0.349386        -9.5073
  64   2.0000      -0.332228        -9.0404
  65   2.0000      -0.323593        -8.8054
  66   2.0000      -0.298476        -8.1220
  67   0.0000       0.030869         0.8400
  68   0.0000       0.068979         1.8770
  69   0.0000       0.108896         2.9632
  70   0.0000       0.118885         3.2350
  71   0.0000       0.122790         3.3413

MULLIKEN ATOMIC CHARGES
-----------------------
   0 S :    0.116228
   1 C :   -0.120985
   2 C :   -0.093336
   3 C :    0.064202
   4 C :   -0.147508
   5 H :   -0.032105
   6 C :    0.031650
   7 H :    0.042132
   8 H :    0.027982
   9 C :   -0.044715
  10 H :    0.024349
  11 H :    0.008776
  12 C :   -0.062612
  13 H :    0.050987
  14 H :    0.027801
  15 H :    0.039663
  16 S :    0.108485
  17 C :   -0.096630
  18 C :   -0.077216
  19 C :   -0.023555
  20 C :   -0.176689
  21 H :    0.017229
  22 C :    0.090414
  23 H :    0.036381
  24 H :    0.028161
  25 C :   -0.107433
  26 H :    0.032185
  27 H :    0.038310
  28 C :   -0.067101
  29 H :    0.037175
  30 H :    0.046545
  31 H :    0.035457
  32 H :    0.058522
  33 H :    0.087249
Sum of atomic charges:   -0.0000000

LOEWDIN ATOMIC CHARGES
----------------------
   0 S :    0.410381
   1 C :   -0.203249
   2 C :   -0.059927
   3 C :   -0.055962
   4 C :   -0.190840
   5 H :    0.008385
   6 C :   -0.027626
   7 H :    0.035419
   8 H :    0.032452
   9 C :   -0.032019
  10 H :    0.017273
  11 H :    0.012952
  12 C :   -0.065250
  13 H :    0.035043
  14 H :    0.019961
  15 H :    0.030271
  16 S :    0.422707
  17 C :   -0.223620
  18 C :   -0.081356
  19 C :   -0.050820
  20 C :   -0.200079
  21 H :    0.026783
  22 C :   -0.037952
  23 H :    0.036673
  24 H :    0.037174
  25 C :   -0.045741
  26 H :    0.024035
  27 H :    0.027338
  28 C :   -0.070441
  29 H :    0.017967
  30 H :    0.032884
  31 H :    0.029535
  32 H :    0.031222
  33 H :    0.056427

  Mayer bond orders larger than 0.100000
B(  0-S ,  1-C ) :   1.1366 B(  0-S ,  4-C ) :   1.1648 B(  1-C ,  2-C ) :   1.6125
B(  1-C , 32-H ) :   0.9584 B(  2-C ,  3-C ) :   1.2318 B(  2-C ,  6-C ) :   1.0169
B(  3-C ,  4-C ) :   1.5754 B(  3-C ,  5-H ) :   1.0056 B(  4-C , 20-C ) :   1.0072
B(  6-C ,  7-H ) :   0.9413 B(  6-C ,  8-H ) :   0.9491 B(  6-C ,  9-C ) :   1.0707
B(  9-C , 10-H ) :   0.9608 B(  9-C , 11-H ) :   0.9606 B(  9-C , 12-C ) :   1.0601
B( 12-C , 13-H ) :   0.9767 B( 12-C , 14-H ) :   0.9828 B( 12-C , 15-H ) :   0.9771
B( 16-S , 17-C ) :   1.1393 B( 16-S , 20-C ) :   1.1697 B( 17-C , 18-C ) :   1.6455
B( 17-C , 33-H ) :   0.9548 B( 18-C , 19-C ) :   1.2070 B( 18-C , 21-H ) :   0.9802
B( 19-C , 20-C ) :   1.5776 B( 19-C , 22-C ) :   1.0513 B( 22-C , 23-H ) :   0.9309
B( 22-C , 24-H ) :   0.9295 B( 22-C , 25-C ) :   1.0771 B( 25-C , 26-H ) :   0.9544
B( 25-C , 27-H ) :   0.9597 B( 25-C , 28-C ) :   1.0652 B( 28-C , 29-H ) :   0.9708
B( 28-C , 30-H ) :   0.9755 B( 28-C , 31-H ) :   0.9769

Dispersion correction           -0.015182696
FINAL SINGLE POINT ENERGY     -1339.859459049077

DIPOLE MOMENT
-------------
                                X             Y             Z
Electronic contribution:     10.03159      21.45458      13.27893
Nuclear contribution   :    -10.18297     -22.19500     -13.23573
                        -----------------------------------------
Total Dipole Moment    :     -0.15138      -0.74042       0.04320
                        -----------------------------------------
Magnitude (a.u.)       :      0.75697
Magnitude (Debye)      :      1.92407

Rotational constants in cm-1:     0.020379     0.008984     0.007334
Rotational constants in MHz :   610.954704   269.344387   219.871302

                             ****ORCA TERMINATED NORMALLY****
TOTAL RUN TIME: 0 days 0 hours 0 minutes 34 seconds 526 msec
