                         Program Version 4.2.1 -  RELEASE  -
|  1> ! wB97X-D3 SP def2-SVP
|  2> %pal
|  3> nprocs 16
|  4> end
|  5>
|  6> * xyz 0 1
|  7> S 	 -27.0306 	 30.4466 	 38.4331
|  8> C 	 -27.2515 	 31.9983 	 37.6618
|  9> C 	 -27.2645 	 32.99 	 38.6293
| 10> C 	 -26.9291 	 32.4894 	 39.9401
| 11> C 	 -26.8921 	 31.1189 	 40.025
| 12> H 	 -26.7283 	 33.0431 	 40.8153
| 13> C 	 -27.3805 	 34.4908 	 38.2885
| 14> H 	 -27.3108 	 34.7177 	 37.1734
| 15> H 	 -26.3923 	 34.9012 	 38.65
| 16> C 	 -28.485 	 35.3797 	 38.8233
| 17> H 	 -28.1729 	 36.4264 	 38.6854
| 18> H 	 -29.2621 	 35.2045 	 38.1741
| 19> C 	 -28.8975 	 35.1922 	 40.2499
| 20> H 	 -29.7813 	 35.7426 	 40.4239
| 21> H 	 -29.1449 	 34.1071 	 40.3771
| 22> H 	 -28.1553 	 35.516 	 40.9351
| 23> S 	 -25.4089 	 28.9717 	 40.6915
| 24> C 	 -25.1996 	 28.4473 	 42.3771
| 25> C 	 -25.8174 	 29.3041 	 43.2084
| 26> C 	 -26.577 	 30.3545 	 42.5582
| 27> C 	 -26.4546 	 30.3257 	 41.1441
| 28> H 	 -25.5984 	 29.0588 	 44.2526
| 29> C 	 -27.1811 	 31.4413 	 43.3742
| 30> H 	 -26.6288 	 32.329 	 43.1874
| 31> H 	 -26.9391 	 31.1859 	 44.4268
| 32> C 	 -28.6558 	 31.7777 	 43.1483
| 33> H 	 -28.8445 	 31.9263 	 42.0945
| 34> H 	 -28.8693 	 32.7152 	 43.6811
| 35> C 	 -29.5657 	 30.639 	 43.6811
| 36> H 	 -30.4739 	 30.9318 	 43.332
| 37> H 	 -29.4904 	 30.5448 	 44.7772
| 38> H 	 -29.4316 	 29.679 	 43.1551
| 39> H 	 -27.3491 	 32.2379 	 36.6516
| 40> H 	 -24.4802 	 27.6957 	 42.5872
| 41> *
| 42>
| 43>                          ****END OF INPUT****

CARTESIAN COORDINATES (ANGSTROEM)
---------------------------------
  S    -27.030600   30.446600   38.433100
  C    -27.251500   31.998300   37.661800
  C    -27.264500   32.990000   38.629300
  C    -26.929100   32.489400   39.940100
  C    -26.892100   31.118900   40.025000
  H    -26.728300   33.043100   40.815300
  C    -27.380500   34.490800   38.288500
  H    -27.310800   34.717700   37.173400
  H    -26.392300   34.901200   38.650000
  C    -28.485000   35.379700   38.823300
  H    -28.172900   36.426400   38.685400
  H    -29.262100   35.204500   38.174100
  C    -28.897500   35.192200   40.249900
  H    -29.781300   35.742600   40.423900
  H    -29.144900   34.107100   40.377100
  H    -28.155300   35.516000   40.935100
  S    -25.408900   28.971700   40.691500
  C    -25.199600   28.447300   42.377100
  C    -25.817400   29.304100   43.208400
  C    -26.577000   30.354500   42.558200
  C    -26.454600   30.325700   41.144100
  H    -25.598400   29.058800   44.252600
  C    -27.181100   31.441300   43.374200
  H    -26.628800   32.329000   43.187400
  H    -26.939100   31.185900   44.426800
  C    -28.655800   31.777700   43.148300
  H    -28.844500   31.926300   42.094500
  H    -28.869300   32.715200   43.681100
  C    -29.565700   30.639000   43.681100
  H    -30.473900   30.931800   43.332000
  H    -29.490400   30.544800   44.777200
  H    -29.431600   29.679000   43.155100
  H    -27.349100   32.237900   36.651600
  H    -24.480200   27.695700   42.587200

 Total Charge           Charge          ....    0
 Multiplicity           Mult            ....    1
 Number of Electrons    NEL             ....  134
 Basis Dimension        Dim             ....  322

ORBITAL ENERGIES
----------------

  NO   OCC          E(Eh)            E(eV)
   0   2.0000     -88.966770     -2420.9089
   1   2.0000     -88.958528     -2420.6846
   2   2.0000     -10.332692      -281.1668
   3   2.0000     -10.329919      -281.0914
   4   2.0000     -10.313039      -280.6321
   5   2.0000     -10.312685      -280.6224
   6   2.0000     -10.310166      -280.5539
   7   2.0000     -10.307317      -280.4764
   8   2.0000     -10.299566      -280.2654
   9   2.0000     -10.295195      -280.1465
  10   2.0000     -10.293329      -280.0957
  11   2.0000     -10.285377      -279.8793
  12   2.0000     -10.284128      -279.8454
  13   2.0000     -10.277552      -279.6664
  14   2.0000     -10.271513      -279.5021
  15   2.0000     -10.267599      -279.3956
  16   2.0000      -8.081711      -219.9145
  17   2.0000      -8.073175      -219.6823
  18   2.0000      -6.040375      -164.3670
  19   2.0000      -6.036102      -164.2507
  20   2.0000      -6.032337      -164.1482
  21   2.0000      -6.031712      -164.1312
  22   2.0000      -6.027643      -164.0205
  23   2.0000      -6.023930      -163.9195
  24   2.0000      -1.009538       -27.4709
  25   2.0000      -0.982371       -26.7317
  26   2.0000      -0.915712       -24.9178
  27   2.0000      -0.909285       -24.7429
  28   2.0000      -0.878835       -23.9143
  29   2.0000      -0.849732       -23.1224
  30   2.0000      -0.842000       -22.9120
  31   2.0000      -0.822765       -22.3886
  32   2.0000      -0.786175       -21.3929
  33   2.0000      -0.775507       -21.1026
  34   2.0000      -0.715773       -19.4772
  35   2.0000      -0.700934       -19.0734
  36   2.0000      -0.689707       -18.7679
  37   2.0000      -0.662665       -18.0320
  38   2.0000      -0.643249       -17.5037
  39   2.0000      -0.615931       -16.7603
  40   2.0000      -0.590748       -16.0751
  41   2.0000      -0.576574       -15.6894
  42   2.0000      -0.560772       -15.2594
  43   2.0000      -0.552192       -15.0259
  44   2.0000      -0.547638       -14.9020
  45   2.0000      -0.545671       -14.8485
  46   2.0000      -0.518182       -14.1004
  47   2.0000      -0.515288       -14.0217
  48   2.0000      -0.511528       -13.9194
  49   2.0000      -0.501054       -13.6344
  50   2.0000      -0.488681       -13.2977
  51   2.0000      -0.485667       -13.2157
  52   2.0000      -0.479271       -13.0416
  53   2.0000      -0.466318       -12.6891
  54   2.0000      -0.455914       -12.4061
  55   2.0000      -0.442276       -12.0349
  56   2.0000      -0.441420       -12.0117
  57   2.0000      -0.432207       -11.7609
  58   2.0000      -0.428312       -11.6550
  59   2.0000      -0.425325       -11.5737
  60   2.0000      -0.421392       -11.4667
  61   2.0000      -0.414287       -11.2733
  62   2.0000      -0.406067       -11.0496
  63   2.0000      -0.359563        -9.7842
  64   2.0000      -0.329076        -8.9546
  65   2.0000      -0.325084        -8.8460
  66   2.0000      -0.287818        -7.8319
  67   0.0000       0.020307         0.5526
  68   0.0000       0.080348         2.1864
  69   0.0000       0.105826         2.8797
  70   0.0000       0.116878         3.1804
  71   0.0000       0.126050         3.4300

MULLIKEN ATOMIC CHARGES
-----------------------
   0 S :    0.107067
   1 C :   -0.086643
   2 C :   -0.076982
   3 C :    0.017554
   4 C :   -0.106629
   5 H :   -0.005777
   6 C :    0.001272
   7 H :    0.028881
   8 H :    0.033651
   9 C :   -0.036774
  10 H :    0.026202
  11 H :    0.009066
  12 C :   -0.034223
  13 H :    0.023799
  14 H :    0.047917
  15 H :    0.026707
  16 S :    0.065450
  17 C :   -0.089837
  18 C :   -0.039344
  19 C :   -0.027693
  20 C :   -0.138147
  21 H :    0.030265
  22 C :    0.055322
  23 H :    0.027813
  24 H :    0.014984
  25 C :   -0.086361
  26 H :    0.039394
  27 H :    0.028377
  28 C :   -0.016066
  29 H :    0.003846
  30 H :    0.038918
  31 H :    0.040159
  32 H :    0.025334
  33 H :    0.052499
Sum of atomic charges:    0.0000000

LOEWDIN ATOMIC CHARGES
----------------------
   0 S :    0.413620
   1 C :   -0.188498
   2 C :   -0.061319
   3 C :   -0.059422
   4 C :   -0.200388
   5 H :    0.023047
   6 C :   -0.042272
   7 H :    0.036076
   8 H :    0.034104
   9 C :   -0.040242
  10 H :    0.029224
  11 H :    0.013269
  12 C :   -0.060257
  13 H :    0.023311
  14 H :    0.033221
  15 H :    0.019295
  16 S :    0.376274
  17 C :   -0.166528
  18 C :   -0.076597
  19 C :   -0.054388
  20 C :   -0.183198
  21 H :    0.040263
  22 C :   -0.039078
  23 H :    0.025566
  24 H :    0.032268
  25 C :   -0.033704
  26 H :    0.022751
  27 H :    0.026143
  28 C :   -0.058673
  29 H :    0.011879
  30 H :    0.027559
  31 H :    0.032135
  32 H :    0.020883
  33 H :    0.023679

  Mayer bond orders larger than 0.100000
B(  0-S ,  1-C ) :   1.1312 B(  0-S ,  4-C ) :   1.1440 B(  1-C ,  2-C ) :   1.6113
B(  1-C , 32-H ) :   0.9782 B(  2-C ,  3-C ) :   1.2282 B(  2-C ,  6-C ) :   1.0078
B(  3-C ,  4-C ) :   1.5575 B(  3-C ,  5-H ) :   1.0000 B(  4-C , 20-C ) :   1.0787
B(  6-C ,  7-H ) :   0.9498 B(  6-C ,  8-H ) :   0.9417 B(  6-C ,  9-C ) :   1.0707
B(  9-C , 10-H ) :   0.9479 B(  9-C , 11-H ) :   0.9517 B(  9-C , 12-C ) :   1.1063
B( 12-C , 13-H ) :   0.9671 B( 12-C , 14-H ) :   0.9647 B( 12-C , 15-H ) :   0.9735
B( 16-S , 17-C ) :   1.1371 B( 16-S , 20-C ) :   1.1396 B( 17-C , 18-C ) :   1.6408
B( 17-C , 33-H ) :   0.9709 B( 18-C , 19-C ) :   1.2074 B( 18-C , 21-H ) :   0.9877
B( 19-C , 20-C ) :   1.5660 B( 19-C , 22-C ) :   1.0444 B( 22-C , 23-H ) :   0.9304
B( 22-C , 24-H ) :   0.9342 B( 22-C , 25-C ) :   1.0724 B( 25-C , 26-H ) :   0.9523
B( 25-C , 27-H ) :   0.9536 B( 25-C , 28-C ) :   1.0788 B( 28-C , 29-H ) :   0.9707
B( 28-C , 30-H ) :   0.9769 B( 28-C , 31-H ) :   0.9727

Dispersion correction           -0.015190457
FINAL SINGLE POINT ENERGY     -1339.864923414585

DIPOLE MOMENT
-------------
                                X             Y             Z
Electronic contribution:     14.56374     -21.41479     -11.35256
Nuclear contribution   :    -14.57722      22.07294      11.68026
                        -----------------------------------------
Total Dipole Moment    :     -0.01348       0.65814       0.32770
                        -----------------------------------------
Magnitude (a.u.)       :      0.73534
Magnitude (Debye)      :      1.86908

Rotational constants in cm-1:     0.018808     0.010010     0.007244
Rotational constants in MHz :   563.844207   300.102127   217.160160

                             ****ORCA TERMINATED NORMALLY****
TOTAL RUN TIME: 0 days 0 hours 0 minutes 35 seconds 611 msec
