                         Program Version 4.2.1 -  RELEASE  -
|  1> ! wB97X-D3 SP def2-SVP
|  2> %pal
|  3> nprocs 16
|  4> end
|  5>
|  6> * xyz 0 1
|  7> S 	 49.0739 	 9.66269 	 91.8562
|  8> C 	 48.9786 	 11.4263 	 92.0538
|  9> C 	 49.1843 	 12.08 	 90.8869
| 10> C 	 49.1363 	 11.1542 	 89.7475
| 11> C 	 49.0014 	 9.85644 	 90.0996
| 12> H 	 49.3156 	 11.4596 	 88.7257
| 13> C 	 49.5399 	 13.4582 	 90.718
| 14> H 	 49.3733 	 13.8976 	 91.6391
| 15> H 	 48.8357 	 13.8925 	 89.9562
| 16> C 	 51.049 	 13.7284 	 90.3645
| 17> H 	 51.1817 	 14.7751 	 90.5285
| 18> H 	 51.6898 	 13.2669 	 91.0489
| 19> C 	 51.586 	 13.4412 	 88.9245
| 20> H 	 51.4797 	 14.2342 	 88.195
| 21> H 	 52.6621 	 13.2981 	 88.8761
| 22> H 	 51.144 	 12.4454 	 88.682
| 23> S 	 50.3848 	 7.49759 	 89.6974
| 24> C 	 49.8443 	 6.41301 	 88.5081
| 25> C 	 48.624 	 6.77985 	 87.9419
| 26> C 	 48.1049 	 7.98884 	 88.5234
| 27> C 	 49.0275 	 8.60108 	 89.357
| 28> H 	 48.1569 	 6.10189 	 87.2102
| 29> C 	 46.8235 	 8.55674 	 88.08
| 30> H 	 46.4976 	 8.08142 	 87.1624
| 31> H 	 46.9532 	 9.54746 	 87.6825
| 32> C 	 45.8059 	 8.65206 	 89.1982
| 33> H 	 45.9867 	 9.52813 	 89.8577
| 34> H 	 45.7504 	 7.75779 	 89.729
| 35> C 	 44.3541 	 8.85549 	 88.7001
| 36> H 	 43.5589 	 8.57754 	 89.3514
| 37> H 	 44.195 	 8.3235 	 87.8325
| 38> H 	 44.1687 	 9.93871 	 88.508
| 39> H 	 48.8318 	 11.996 	 92.9714
| 40> H 	 50.2053 	 5.4578 	 88.3132
| 41> *
| 42>
| 43>                          ****END OF INPUT****

CARTESIAN COORDINATES (ANGSTROEM)
---------------------------------
  S     49.073900    9.662690   91.856200
  C     48.978600   11.426300   92.053800
  C     49.184300   12.080000   90.886900
  C     49.136300   11.154200   89.747500
  C     49.001400    9.856440   90.099600
  H     49.315600   11.459600   88.725700
  C     49.539900   13.458200   90.718000
  H     49.373300   13.897600   91.639100
  H     48.835700   13.892500   89.956200
  C     51.049000   13.728400   90.364500
  H     51.181700   14.775100   90.528500
  H     51.689800   13.266900   91.048900
  C     51.586000   13.441200   88.924500
  H     51.479700   14.234200   88.195000
  H     52.662100   13.298100   88.876100
  H     51.144000   12.445400   88.682000
  S     50.384800    7.497590   89.697400
  C     49.844300    6.413010   88.508100
  C     48.624000    6.779850   87.941900
  C     48.104900    7.988840   88.523400
  C     49.027500    8.601080   89.357000
  H     48.156900    6.101890   87.210200
  C     46.823500    8.556740   88.080000
  H     46.497600    8.081420   87.162400
  H     46.953200    9.547460   87.682500
  C     45.805900    8.652060   89.198200
  H     45.986700    9.528130   89.857700
  H     45.750400    7.757790   89.729000
  C     44.354100    8.855490   88.700100
  H     43.558900    8.577540   89.351400
  H     44.195000    8.323500   87.832500
  H     44.168700    9.938710   88.508000
  H     48.831800   11.996000   92.971400
  H     50.205300    5.457800   88.313200

 Total Charge           Charge          ....    0
 Multiplicity           Mult            ....    1
 Number of Electrons    NEL             ....  134
 Basis Dimension        Dim             ....  322

ORBITAL ENERGIES
----------------

  NO   OCC          E(Eh)            E(eV)
   0   2.0000     -88.966111     -2420.8910
   1   2.0000     -88.960756     -2420.7453
   2   2.0000     -10.328911      -281.0639
   3   2.0000     -10.324785      -280.9517
   4   2.0000     -10.311213      -280.5824
   5   2.0000     -10.308620      -280.5118
   6   2.0000     -10.301599      -280.3208
   7   2.0000     -10.293957      -280.1128
   8   2.0000     -10.293816      -280.1090
   9   2.0000     -10.293670      -280.1050
  10   2.0000     -10.288597      -279.9670
  11   2.0000     -10.285262      -279.8762
  12   2.0000     -10.282035      -279.7884
  13   2.0000     -10.280457      -279.7455
  14   2.0000     -10.276864      -279.6477
  15   2.0000     -10.265181      -279.3298
  16   2.0000      -8.081172      -219.8999
  17   2.0000      -8.075149      -219.7360
  18   2.0000      -6.039572      -164.3451
  19   2.0000      -6.035659      -164.2386
  20   2.0000      -6.033911      -164.1911
  21   2.0000      -6.031997      -164.1390
  22   2.0000      -6.029937      -164.0829
  23   2.0000      -6.025404      -163.9596
  24   2.0000      -1.006907       -27.3993
  25   2.0000      -0.984739       -26.7961
  26   2.0000      -0.915560       -24.9137
  27   2.0000      -0.913971       -24.8704
  28   2.0000      -0.867338       -23.6015
  29   2.0000      -0.852715       -23.2035
  30   2.0000      -0.840580       -22.8733
  31   2.0000      -0.820262       -22.3205
  32   2.0000      -0.786777       -21.4093
  33   2.0000      -0.773282       -21.0421
  34   2.0000      -0.711999       -19.3745
  35   2.0000      -0.706699       -19.2303
  36   2.0000      -0.694404       -18.8957
  37   2.0000      -0.660363       -17.9694
  38   2.0000      -0.639774       -17.4091
  39   2.0000      -0.622052       -16.9269
  40   2.0000      -0.600547       -16.3417
  41   2.0000      -0.571379       -15.5480
  42   2.0000      -0.564450       -15.3595
  43   2.0000      -0.545852       -14.8534
  44   2.0000      -0.542322       -14.7573
  45   2.0000      -0.525940       -14.3116
  46   2.0000      -0.518002       -14.0956
  47   2.0000      -0.514955       -14.0126
  48   2.0000      -0.507453       -13.8085
  49   2.0000      -0.503912       -13.7121
  50   2.0000      -0.495940       -13.4952
  51   2.0000      -0.484578       -13.1860
  52   2.0000      -0.472301       -12.8520
  53   2.0000      -0.460248       -12.5240
  54   2.0000      -0.453932       -12.3521
  55   2.0000      -0.446520       -12.1504
  56   2.0000      -0.440048       -11.9743
  57   2.0000      -0.434474       -11.8226
  58   2.0000      -0.431358       -11.7378
  59   2.0000      -0.425633       -11.5821
  60   2.0000      -0.417794       -11.3687
  61   2.0000      -0.417038       -11.3482
  62   2.0000      -0.414027       -11.2662
  63   2.0000      -0.339741        -9.2448
  64   2.0000      -0.330895        -9.0041
  65   2.0000      -0.322998        -8.7892
  66   2.0000      -0.296525        -8.0689
  67   0.0000       0.037922         1.0319
  68   0.0000       0.057150         1.5551
  69   0.0000       0.108481         2.9519
  70   0.0000       0.122913         3.3446
  71   0.0000       0.130760         3.5582

MULLIKEN ATOMIC CHARGES
-----------------------
   0 S :    0.090698
   1 C :   -0.115197
   2 C :   -0.113642
   3 C :    0.037001
   4 C :   -0.142493
   5 H :    0.016705
   6 C :    0.100008
   7 H :   -0.009446
   8 H :    0.039995
   9 C :   -0.038849
  10 H :    0.020610
  11 H :    0.017990
  12 C :   -0.062147
  13 H :    0.035778
  14 H :    0.027305
  15 H :    0.033420
  16 S :    0.118770
  17 C :   -0.053651
  18 C :   -0.065810
  19 C :   -0.015071
  20 C :   -0.172661
  21 H :    0.027987
  22 C :    0.099680
  23 H :    0.003429
  24 H :    0.015551
  25 C :   -0.069144
  26 H :    0.055024
  27 H :    0.021625
  28 C :   -0.030835
  29 H :    0.025227
  30 H :    0.003529
  31 H :    0.024621
  32 H :    0.043346
  33 H :    0.030645
Sum of atomic charges:    0.0000000

LOEWDIN ATOMIC CHARGES
----------------------
   0 S :    0.373619
   1 C :   -0.189584
   2 C :   -0.066923
   3 C :   -0.060769
   4 C :   -0.178207
   5 H :    0.030001
   6 C :   -0.029780
   7 H :    0.022606
   8 H :    0.040144
   9 C :   -0.025560
  10 H :    0.021960
  11 H :    0.020014
  12 C :   -0.073036
  13 H :    0.024225
  14 H :    0.028694
  15 H :    0.030271
  16 S :    0.418204
  17 C :   -0.193039
  18 C :   -0.075272
  19 C :   -0.048092
  20 C :   -0.198556
  21 H :    0.035322
  22 C :   -0.036102
  23 H :    0.028371
  24 H :    0.033491
  25 C :   -0.030342
  26 H :    0.035906
  27 H :    0.016583
  28 C :   -0.061325
  29 H :    0.022505
  30 H :    0.009477
  31 H :    0.027025
  32 H :    0.030559
  33 H :    0.017612

  Mayer bond orders larger than 0.100000
B(  0-S ,  1-C ) :   1.1032 B(  0-S ,  4-C ) :   1.1210 B(  1-C ,  2-C ) :   1.6756
B(  1-C , 32-H ) :   0.9601 B(  2-C ,  3-C ) :   1.1597 B(  2-C ,  6-C ) :   1.0597
B(  3-C ,  4-C ) :   1.6494 B(  3-C ,  5-H ) :   0.9917 B(  4-C , 20-C ) :   1.0171
B(  6-C ,  7-H ) :   0.9196 B(  6-C ,  8-H ) :   0.9315 B(  6-C ,  9-C ) :   1.0655
B(  9-C , 10-H ) :   0.9581 B(  9-C , 11-H ) :   0.9552 B(  9-C , 12-C ) :   1.0713
B( 12-C , 13-H ) :   0.9776 B( 12-C , 14-H ) :   0.9712 B( 12-C , 15-H ) :   0.9722
B( 16-S , 17-C ) :   1.1692 B( 16-S , 20-C ) :   1.1320 B( 17-C , 18-C ) :   1.6063
B( 17-C , 33-H ) :   0.9689 B( 18-C , 19-C ) :   1.2413 B( 18-C , 21-H ) :   0.9865
B( 19-C , 20-C ) :   1.5905 B( 19-C , 22-C ) :   1.0615 B( 22-C , 23-H ) :   0.9326
B( 22-C , 24-H ) :   0.9218 B( 22-C , 25-C ) :   1.0498 B( 25-C , 26-H ) :   0.9560
B( 25-C , 27-H ) :   0.9639 B( 25-C , 28-C ) :   1.0816 B( 28-C , 29-H ) :   0.9766
B( 28-C , 30-H ) :   0.9745 B( 28-C , 31-H ) :   0.9761

Dispersion correction           -0.014483953
FINAL SINGLE POINT ENERGY     -1339.853636599562

DIPOLE MOMENT
-------------
                                X             Y             Z
Electronic contribution:      9.52424     -15.97655       9.47201
Nuclear contribution   :     -9.65438      16.34978      -9.77674
                        -----------------------------------------
Total Dipole Moment    :     -0.13013       0.37323      -0.30474
                        -----------------------------------------
Magnitude (a.u.)       :      0.49910
Magnitude (Debye)      :      1.26861

Rotational constants in cm-1:     0.018072     0.008907     0.007603
Rotational constants in MHz :   541.780425   267.027406   227.918436

                             ****ORCA TERMINATED NORMALLY****
TOTAL RUN TIME: 0 days 0 hours 0 minutes 31 seconds 109 msec
