                         Program Version 4.2.1 -  RELEASE  -
|  1> ! wB97X-D3 SP def2-SVP
|  2> %pal
|  3> nprocs 16
|  4> end
|  5>
|  6> * xyz 0 1
|  7> S 	 -2.18313 	 8.46298 	 82.5725
|  8> C 	 -3.0294 	 7.11071 	 81.8699
|  9> C 	 -3.89668 	 7.5752 	 80.9535
| 10> C 	 -3.84541 	 8.97744 	 80.7582
| 11> C 	 -2.99941 	 9.68582 	 81.612
| 12> H 	 -4.44264 	 9.58023 	 80.0523
| 13> C 	 -4.71286 	 6.7503 	 79.8704
| 14> H 	 -4.53569 	 5.6386 	 80.0159
| 15> H 	 -4.46192 	 7.0666 	 78.8475
| 16> C 	 -6.23996 	 6.85049 	 79.9811
| 17> H 	 -6.62167 	 5.96577 	 79.5928
| 18> H 	 -6.50115 	 6.67178 	 81.0254
| 19> C 	 -7.03651 	 7.99641 	 79.3229
| 20> H 	 -8.1071 	 7.86091 	 79.5934
| 21> H 	 -6.78475 	 8.96917 	 79.6662
| 22> H 	 -7.03807 	 8.04226 	 78.2092
| 23> S 	 -0.981097 	 11.4602 	 81.5308
| 24> C 	 -1.3319 	 13.1882 	 81.4936
| 25> C 	 -2.67534 	 13.4074 	 81.4399
| 26> C 	 -3.48675 	 12.2478 	 81.454
| 27> C 	 -2.69347 	 11.1018 	 81.6681
| 28> H 	 -3.03569 	 14.3997 	 81.3851
| 29> C 	 -5.02454 	 12.3019 	 81.3357
| 30> H 	 -5.37185 	 11.5874 	 82.1134
| 31> H 	 -5.3946 	 11.8592 	 80.3871
| 32> C 	 -5.71237 	 13.6638 	 81.7299
| 33> H 	 -5.45875 	 14.4052 	 81.0534
| 34> H 	 -5.16112 	 13.9916 	 82.6346
| 35> C 	 -7.24431 	 13.6311 	 81.8715
| 36> H 	 -7.71218 	 13.3425 	 80.8749
| 37> H 	 -7.6674 	 14.5818 	 82.1296
| 38> H 	 -7.61955 	 13.0335 	 82.7411
| 39> H 	 -2.83316 	 6.07338 	 82.0181
| 40> H 	 -0.63091 	 14.0151 	 81.349
| 41> *
| 42>
| 43>                          ****END OF INPUT****

CARTESIAN COORDINATES (ANGSTROEM)
---------------------------------
  S     -2.183130    8.462980   82.572500
  C     -3.029400    7.110710   81.869900
  C     -3.896680    7.575200   80.953500
  C     -3.845410    8.977440   80.758200
  C     -2.999410    9.685820   81.612000
  H     -4.442640    9.580230   80.052300
  C     -4.712860    6.750300   79.870400
  H     -4.535690    5.638600   80.015900
  H     -4.461920    7.066600   78.847500
  C     -6.239960    6.850490   79.981100
  H     -6.621670    5.965770   79.592800
  H     -6.501150    6.671780   81.025400
  C     -7.036510    7.996410   79.322900
  H     -8.107100    7.860910   79.593400
  H     -6.784750    8.969170   79.666200
  H     -7.038070    8.042260   78.209200
  S     -0.981097   11.460200   81.530800
  C     -1.331900   13.188200   81.493600
  C     -2.675340   13.407400   81.439900
  C     -3.486750   12.247800   81.454000
  C     -2.693470   11.101800   81.668100
  H     -3.035690   14.399700   81.385100
  C     -5.024540   12.301900   81.335700
  H     -5.371850   11.587400   82.113400
  H     -5.394600   11.859200   80.387100
  C     -5.712370   13.663800   81.729900
  H     -5.458750   14.405200   81.053400
  H     -5.161120   13.991600   82.634600
  C     -7.244310   13.631100   81.871500
  H     -7.712180   13.342500   80.874900
  H     -7.667400   14.581800   82.129600
  H     -7.619550   13.033500   82.741100
  H     -2.833160    6.073380   82.018100
  H     -0.630910   14.015100   81.349000

 Total Charge           Charge          ....    0
 Multiplicity           Mult            ....    1
 Number of Electrons    NEL             ....  134
 Basis Dimension        Dim             ....  322

ORBITAL ENERGIES
----------------

  NO   OCC          E(Eh)            E(eV)
   0   2.0000     -88.968487     -2420.9556
   1   2.0000     -88.962139     -2420.7829
   2   2.0000     -10.330956      -281.1196
   3   2.0000     -10.330205      -281.0992
   4   2.0000     -10.317714      -280.7593
   5   2.0000     -10.310987      -280.5762
   6   2.0000     -10.310845      -280.5724
   7   2.0000     -10.302951      -280.3575
   8   2.0000     -10.301244      -280.3111
   9   2.0000     -10.298475      -280.2358
  10   2.0000     -10.292305      -280.0678
  11   2.0000     -10.291005      -280.0325
  12   2.0000     -10.289797      -279.9996
  13   2.0000     -10.289405      -279.9889
  14   2.0000     -10.281876      -279.7841
  15   2.0000     -10.279917      -279.7308
  16   2.0000      -8.082800      -219.9442
  17   2.0000      -8.076981      -219.7858
  18   2.0000      -6.041351      -164.3935
  19   2.0000      -6.037407      -164.2862
  20   2.0000      -6.035639      -164.2381
  21   2.0000      -6.033471      -164.1791
  22   2.0000      -6.031321      -164.1206
  23   2.0000      -6.027702      -164.0221
  24   2.0000      -1.008335       -27.4382
  25   2.0000      -0.986585       -26.8464
  26   2.0000      -0.905593       -24.6424
  27   2.0000      -0.902986       -24.5715
  28   2.0000      -0.874955       -23.8087
  29   2.0000      -0.851169       -23.1615
  30   2.0000      -0.838859       -22.8265
  31   2.0000      -0.816165       -22.2090
  32   2.0000      -0.784958       -21.3598
  33   2.0000      -0.775356       -21.0985
  34   2.0000      -0.712344       -19.3839
  35   2.0000      -0.703916       -19.1545
  36   2.0000      -0.698358       -19.0033
  37   2.0000      -0.655982       -17.8502
  38   2.0000      -0.640684       -17.4339
  39   2.0000      -0.615304       -16.7433
  40   2.0000      -0.596422       -16.2295
  41   2.0000      -0.570992       -15.5375
  42   2.0000      -0.565860       -15.3978
  43   2.0000      -0.542433       -14.7604
  44   2.0000      -0.536669       -14.6035
  45   2.0000      -0.521638       -14.1945
  46   2.0000      -0.516450       -14.0533
  47   2.0000      -0.511647       -13.9226
  48   2.0000      -0.505564       -13.7571
  49   2.0000      -0.499610       -13.5951
  50   2.0000      -0.491904       -13.3854
  51   2.0000      -0.483538       -13.1577
  52   2.0000      -0.475775       -12.9465
  53   2.0000      -0.466976       -12.7071
  54   2.0000      -0.462631       -12.5888
  55   2.0000      -0.453345       -12.3361
  56   2.0000      -0.439926       -11.9710
  57   2.0000      -0.434546       -11.8246
  58   2.0000      -0.428191       -11.6517
  59   2.0000      -0.427261       -11.6264
  60   2.0000      -0.422107       -11.4861
  61   2.0000      -0.416588       -11.3359
  62   2.0000      -0.403236       -10.9726
  63   2.0000      -0.354207        -9.6385
  64   2.0000      -0.332608        -9.0507
  65   2.0000      -0.328277        -8.9329
  66   2.0000      -0.291760        -7.9392
  67   0.0000       0.023533         0.6404
  68   0.0000       0.076161         2.0724
  69   0.0000       0.110635         3.0105
  70   0.0000       0.125220         3.4074
  71   0.0000       0.130872         3.5612

MULLIKEN ATOMIC CHARGES
-----------------------
   0 S :    0.093763
   1 C :   -0.111793
   2 C :   -0.043615
   3 C :    0.010544
   4 C :   -0.157345
   5 H :    0.009865
   6 C :    0.027991
   7 H :    0.027023
   8 H :    0.039148
   9 C :   -0.039692
  10 H :    0.003841
  11 H :    0.016765
  12 C :   -0.052256
  13 H :    0.034194
  14 H :    0.021937
  15 H :    0.036003
  16 S :    0.108740
  17 C :   -0.072749
  18 C :   -0.044143
  19 C :   -0.029680
  20 C :   -0.142215
  21 H :    0.002458
  22 C :    0.033531
  23 H :    0.043028
  24 H :    0.047192
  25 C :   -0.080836
  26 H :    0.020055
  27 H :    0.033373
  28 C :   -0.046170
  29 H :    0.045963
  30 H :    0.025340
  31 H :    0.041874
  32 H :    0.039497
  33 H :    0.058366
Sum of atomic charges:   -0.0000000

LOEWDIN ATOMIC CHARGES
----------------------
   0 S :    0.401053
   1 C :   -0.192436
   2 C :   -0.071990
   3 C :   -0.069846
   4 C :   -0.197108
   5 H :    0.030113
   6 C :   -0.025638
   7 H :    0.035093
   8 H :    0.031499
   9 C :   -0.048230
  10 H :    0.017368
  11 H :    0.027706
  12 C :   -0.069718
  13 H :    0.034671
  14 H :    0.013826
  15 H :    0.028445
  16 S :    0.409956
  17 C :   -0.183060
  18 C :   -0.071857
  19 C :   -0.049539
  20 C :   -0.197200
  21 H :    0.025452
  22 C :   -0.036774
  23 H :    0.040896
  24 H :    0.030630
  25 C :   -0.042667
  26 H :    0.011662
  27 H :    0.030164
  28 C :   -0.069670
  29 H :    0.035468
  30 H :    0.024281
  31 H :    0.032233
  32 H :    0.029661
  33 H :    0.035554

  Mayer bond orders larger than 0.100000
B(  0-S ,  1-C ) :   1.1338 B(  0-S ,  4-C ) :   1.1482 B(  1-C ,  2-C ) :   1.6244
B(  1-C , 32-H ) :   0.9711 B(  2-C ,  3-C ) :   1.2434 B(  2-C ,  6-C ) :   1.0108
B(  3-C ,  4-C ) :   1.5671 B(  3-C ,  5-H ) :   0.9907 B(  4-C , 20-C ) :   1.0478
B(  6-C ,  7-H ) :   0.9461 B(  6-C ,  8-H ) :   0.9531 B(  6-C ,  9-C ) :   1.0708
B(  9-C , 10-H ) :   0.9524 B(  9-C , 11-H ) :   0.9485 B(  9-C , 12-C ) :   1.0772
B( 12-C , 13-H ) :   0.9695 B( 12-C , 14-H ) :   0.9768 B( 12-C , 15-H ) :   0.9745
B( 16-S , 17-C ) :   1.1449 B( 16-S , 20-C ) :   1.1549 B( 17-C , 18-C ) :   1.6101
B( 17-C , 20-C ) :   0.1018 B( 17-C , 33-H ) :   0.9605 B( 18-C , 19-C ) :   1.2597
B( 18-C , 21-H ) :   0.9927 B( 19-C , 20-C ) :   1.5751 B( 19-C , 22-C ) :   1.0198
B( 22-C , 23-H ) :   0.9417 B( 22-C , 24-H ) :   0.9312 B( 22-C , 25-C ) :   1.0643
B( 25-C , 26-H ) :   0.9490 B( 25-C , 27-H ) :   0.9546 B( 25-C , 28-C ) :   1.0863
B( 28-C , 29-H ) :   0.9722 B( 28-C , 30-H ) :   0.9714 B( 28-C , 31-H ) :   0.9742

Dispersion correction           -0.013764467
FINAL SINGLE POINT ENERGY     -1339.867951434792

DIPOLE MOMENT
-------------
                                X             Y             Z
Electronic contribution:     30.55772      -2.48146       9.01900
Nuclear contribution   :    -31.21859       2.71151      -9.44342
                        -----------------------------------------
Total Dipole Moment    :     -0.66087       0.23004      -0.42442
                        -----------------------------------------
Magnitude (a.u.)       :      0.81841
Magnitude (Debye)      :      2.08023

Rotational constants in cm-1:     0.015083     0.009829     0.006487
Rotational constants in MHz :   452.164049   294.671385   194.476383

                             ****ORCA TERMINATED NORMALLY****
TOTAL RUN TIME: 0 days 0 hours 0 minutes 34 seconds 174 msec
