                         Program Version 4.2.1 -  RELEASE  -
|  1> ! wB97X-D3 SP def2-SVP
|  2> %pal
|  3> nprocs 16
|  4> end
|  5>
|  6> * xyz 0 1
|  7> S 	 67.9696 	 22.7771 	 76.3394
|  8> C 	 68.9943 	 21.3542 	 76.3091
|  9> C 	 70.2303 	 21.6066 	 75.7171
| 10> C 	 70.2916 	 22.8778 	 75.1457
| 11> C 	 69.2054 	 23.651 	 75.4358
| 12> H 	 71.0734 	 23.3237 	 74.7277
| 13> C 	 71.3104 	 20.5737 	 75.5736
| 14> H 	 71.0683 	 19.9509 	 74.731
| 15> H 	 71.2223 	 19.8563 	 76.4316
| 16> C 	 72.777 	 21.0901 	 75.4337
| 17> H 	 73.4876 	 20.2342 	 75.3224
| 18> H 	 72.9092 	 21.703 	 74.5249
| 19> C 	 73.2772 	 21.8809 	 76.7123
| 20> H 	 72.663 	 22.7907 	 76.7464
| 21> H 	 73.2824 	 21.137 	 77.532
| 22> H 	 74.3471 	 22.1691 	 76.712
| 23> S 	 67.618 	 25.4763 	 74.2004
| 24> C 	 68.1316 	 27.1783 	 74.1225
| 25> C 	 69.3318 	 27.3967 	 74.8696
| 26> C 	 69.847 	 26.1716 	 75.478
| 27> C 	 69.0779 	 25.0694 	 75.1287
| 28> H 	 69.7224 	 28.4033 	 74.9774
| 29> C 	 71.058 	 26.1697 	 76.4238
| 30> H 	 71.3202 	 25.2416 	 76.7403
| 31> H 	 70.7807 	 26.6812 	 77.2978
| 32> C 	 72.233 	 27.0325 	 75.8747
| 33> H 	 71.7901 	 28.0026 	 75.5941
| 34> H 	 72.6826 	 26.6576 	 74.9688
| 35> C 	 73.224 	 27.2692 	 77.0529
| 36> H 	 73.6314 	 26.3816 	 77.5311
| 37> H 	 72.7523 	 27.7578 	 77.9058
| 38> H 	 74.0351 	 27.9661 	 76.8857
| 39> H 	 68.7332 	 20.399 	 76.7524
| 40> H 	 67.5403 	 27.948 	 73.661
| 41> *
| 42>
| 43>                          ****END OF INPUT****

CARTESIAN COORDINATES (ANGSTROEM)
---------------------------------
  S     67.969600   22.777100   76.339400
  C     68.994300   21.354200   76.309100
  C     70.230300   21.606600   75.717100
  C     70.291600   22.877800   75.145700
  C     69.205400   23.651000   75.435800
  H     71.073400   23.323700   74.727700
  C     71.310400   20.573700   75.573600
  H     71.068300   19.950900   74.731000
  H     71.222300   19.856300   76.431600
  C     72.777000   21.090100   75.433700
  H     73.487600   20.234200   75.322400
  H     72.909200   21.703000   74.524900
  C     73.277200   21.880900   76.712300
  H     72.663000   22.790700   76.746400
  H     73.282400   21.137000   77.532000
  H     74.347100   22.169100   76.712000
  S     67.618000   25.476300   74.200400
  C     68.131600   27.178300   74.122500
  C     69.331800   27.396700   74.869600
  C     69.847000   26.171600   75.478000
  C     69.077900   25.069400   75.128700
  H     69.722400   28.403300   74.977400
  C     71.058000   26.169700   76.423800
  H     71.320200   25.241600   76.740300
  H     70.780700   26.681200   77.297800
  C     72.233000   27.032500   75.874700
  H     71.790100   28.002600   75.594100
  H     72.682600   26.657600   74.968800
  C     73.224000   27.269200   77.052900
  H     73.631400   26.381600   77.531100
  H     72.752300   27.757800   77.905800
  H     74.035100   27.966100   76.885700
  H     68.733200   20.399000   76.752400
  H     67.540300   27.948000   73.661000

 Total Charge           Charge          ....    0
 Multiplicity           Mult            ....    1
 Number of Electrons    NEL             ....  134
 Basis Dimension        Dim             ....  322

ORBITAL ENERGIES
----------------

  NO   OCC          E(Eh)            E(eV)
   0   2.0000     -88.967975     -2420.9417
   1   2.0000     -88.965507     -2420.8745
   2   2.0000     -10.326478      -280.9977
   3   2.0000     -10.324908      -280.9550
   4   2.0000     -10.324702      -280.9494
   5   2.0000     -10.311920      -280.6016
   6   2.0000     -10.310896      -280.5737
   7   2.0000     -10.304295      -280.3941
   8   2.0000     -10.297822      -280.2180
   9   2.0000     -10.297632      -280.2128
  10   2.0000     -10.295377      -280.1514
  11   2.0000     -10.293646      -280.1043
  12   2.0000     -10.285703      -279.8882
  13   2.0000     -10.285472      -279.8819
  14   2.0000     -10.279230      -279.7121
  15   2.0000     -10.279155      -279.7100
  16   2.0000      -8.082280      -219.9300
  17   2.0000      -8.079356      -219.8505
  18   2.0000      -6.040691      -164.3755
  19   2.0000      -6.037890      -164.2993
  20   2.0000      -6.036909      -164.2726
  21   2.0000      -6.034030      -164.1943
  22   2.0000      -6.033120      -164.1695
  23   2.0000      -6.030112      -164.0877
  24   2.0000      -1.004130       -27.3238
  25   2.0000      -0.975981       -26.5578
  26   2.0000      -0.909956       -24.7612
  27   2.0000      -0.905089       -24.6287
  28   2.0000      -0.864401       -23.5216
  29   2.0000      -0.849429       -23.1141
  30   2.0000      -0.843050       -22.9406
  31   2.0000      -0.813732       -22.1428
  32   2.0000      -0.783751       -21.3269
  33   2.0000      -0.769480       -20.9386
  34   2.0000      -0.714526       -19.4432
  35   2.0000      -0.703764       -19.1504
  36   2.0000      -0.689814       -18.7708
  37   2.0000      -0.660837       -17.9823
  38   2.0000      -0.647263       -17.6129
  39   2.0000      -0.626649       -17.0520
  40   2.0000      -0.598571       -16.2880
  41   2.0000      -0.567305       -15.4371
  42   2.0000      -0.558772       -15.2050
  43   2.0000      -0.550102       -14.9690
  44   2.0000      -0.542554       -14.7637
  45   2.0000      -0.524983       -14.2855
  46   2.0000      -0.516941       -14.0667
  47   2.0000      -0.510017       -13.8783
  48   2.0000      -0.502361       -13.6699
  49   2.0000      -0.493284       -13.4229
  50   2.0000      -0.486620       -13.2416
  51   2.0000      -0.478319       -13.0157
  52   2.0000      -0.471704       -12.8357
  53   2.0000      -0.464202       -12.6316
  54   2.0000      -0.456043       -12.4096
  55   2.0000      -0.452411       -12.3107
  56   2.0000      -0.446288       -12.1441
  57   2.0000      -0.440668       -11.9912
  58   2.0000      -0.434239       -11.8162
  59   2.0000      -0.428451       -11.6587
  60   2.0000      -0.425940       -11.5904
  61   2.0000      -0.420579       -11.4445
  62   2.0000      -0.414446       -11.2777
  63   2.0000      -0.341165        -9.2836
  64   2.0000      -0.330340        -8.9890
  65   2.0000      -0.329034        -8.9535
  66   2.0000      -0.292221        -7.9517
  67   0.0000       0.032464         0.8834
  68   0.0000       0.062454         1.6995
  69   0.0000       0.108118         2.9420
  70   0.0000       0.120003         3.2655
  71   0.0000       0.124743         3.3944

MULLIKEN ATOMIC CHARGES
-----------------------
   0 S :    0.123575
   1 C :   -0.126681
   2 C :   -0.081792
   3 C :    0.091763
   4 C :   -0.158367
   5 H :   -0.050129
   6 C :    0.074617
   7 H :    0.044529
   8 H :    0.023520
   9 C :   -0.117355
  10 H :    0.036254
  11 H :    0.040945
  12 C :   -0.075991
  13 H :    0.054343
  14 H :    0.036954
  15 H :    0.036390
  16 S :    0.098326
  17 C :   -0.093137
  18 C :   -0.057301
  19 C :   -0.014276
  20 C :   -0.189575
  21 H :    0.030423
  22 C :    0.163156
  23 H :   -0.012398
  24 H :    0.013284
  25 C :   -0.086190
  26 H :    0.028493
  27 H :    0.036920
  28 C :   -0.045955
  29 H :    0.028191
  30 H :    0.015810
  31 H :    0.029458
  32 H :    0.043061
  33 H :    0.059136
Sum of atomic charges:   -0.0000000

LOEWDIN ATOMIC CHARGES
----------------------
   0 S :    0.402968
   1 C :   -0.198640
   2 C :   -0.061207
   3 C :   -0.049317
   4 C :   -0.185989
   5 H :    0.008719
   6 C :   -0.035193
   7 H :    0.035564
   8 H :    0.034313
   9 C :   -0.046087
  10 H :    0.028957
  11 H :    0.022209
  12 C :   -0.073349
  13 H :    0.026108
  14 H :    0.029654
  15 H :    0.027858
  16 S :    0.383922
  17 C :   -0.173998
  18 C :   -0.070204
  19 C :   -0.047051
  20 C :   -0.193263
  21 H :    0.030386
  22 C :   -0.011386
  23 H :    0.012410
  24 H :    0.031438
  25 C :   -0.029016
  26 H :    0.025355
  27 H :    0.022025
  28 C :   -0.073653
  29 H :    0.024841
  30 H :    0.025740
  31 H :    0.024385
  32 H :    0.026102
  33 H :    0.025401

  Mayer bond orders larger than 0.100000
B(  0-S ,  1-C ) :   1.1371 B(  0-S ,  4-C ) :   1.1565 B(  1-C ,  2-C ) :   1.6042
B(  1-C ,  4-C ) :   0.1004 B(  1-C , 32-H ) :   0.9692 B(  2-C ,  3-C ) :   1.2364
B(  2-C ,  6-C ) :   1.0149 B(  3-C ,  4-C ) :   1.5775 B(  3-C ,  5-H ) :   1.0132
B(  4-C , 20-C ) :   1.0214 B(  6-C ,  7-H ) :   0.9350 B(  6-C ,  8-H ) :   0.9401
B(  6-C ,  9-C ) :   1.0701 B(  9-C , 10-H ) :   0.9578 B(  9-C , 11-H ) :   0.9531
B(  9-C , 12-C ) :   1.0669 B( 12-C , 13-H ) :   0.9759 B( 12-C , 14-H ) :   0.9752
B( 12-C , 15-H ) :   0.9751 B( 16-S , 17-C ) :   1.1492 B( 16-S , 20-C ) :   1.1320
B( 17-C , 18-C ) :   1.6203 B( 17-C , 20-C ) :   0.1012 B( 17-C , 33-H ) :   0.9698
B( 18-C , 19-C ) :   1.2045 B( 18-C , 21-H ) :   0.9841 B( 19-C , 20-C ) :   1.6228
B( 19-C , 22-C ) :   1.0356 B( 22-C , 23-H ) :   0.9356 B( 22-C , 24-H ) :   0.9267
B( 22-C , 25-C ) :   1.0444 B( 25-C , 26-H ) :   0.9544 B( 25-C , 27-H ) :   0.9640
B( 25-C , 28-C ) :   1.0739 B( 28-C , 29-H ) :   0.9757 B( 28-C , 30-H ) :   0.9708
B( 28-C , 31-H ) :   0.9749

Dispersion correction           -0.014586937
FINAL SINGLE POINT ENERGY     -1339.869407220450

DIPOLE MOMENT
-------------
                                X             Y             Z
Electronic contribution:    -30.47113      -0.68960      -7.70985
Nuclear contribution   :     31.13887       0.77265       7.90772
                        -----------------------------------------
Total Dipole Moment    :      0.66774       0.08304       0.19787
                        -----------------------------------------
Magnitude (a.u.)       :      0.70137
Magnitude (Debye)      :      1.78275

Rotational constants in cm-1:     0.015447     0.010696     0.006986
Rotational constants in MHz :   463.080871   320.667339   209.437697

                             ****ORCA TERMINATED NORMALLY****
TOTAL RUN TIME: 0 days 0 hours 0 minutes 29 seconds 26 msec
