                         Program Version 4.2.1 -  RELEASE  -
|  1> ! wB97X-D3 SP def2-SVP
|  2> %pal
|  3> nprocs 16
|  4> end
|  5>
|  6> * xyz 0 1
|  7> S 	 2.24332 	 -18.2758 	 83.8999
|  8> C 	 2.54033 	 -19.7681 	 84.8151
|  9> C 	 3.01333 	 -19.4016 	 86.0278
| 10> C 	 3.05285 	 -17.9837 	 86.2291
| 11> C 	 2.45812 	 -17.2139 	 85.1901
| 12> H 	 3.62167 	 -17.468 	 87.0342
| 13> C 	 3.5404 	 -20.3408 	 87.0945
| 14> H 	 2.92869 	 -21.2175 	 87.2591
| 15> H 	 3.52467 	 -19.8167 	 88.0448
| 16> C 	 4.9966 	 -20.718 	 86.9043
| 17> H 	 5.11537 	 -21.3244 	 86.046
| 18> H 	 5.57708 	 -19.7919 	 86.6448
| 19> C 	 5.61499 	 -21.3522 	 88.18
| 20> H 	 6.69665 	 -21.3865 	 88.1014
| 21> H 	 5.48812 	 -20.8467 	 89.1194
| 22> H 	 5.2864 	 -22.3641 	 88.2725
| 23> S 	 1.36759 	 -14.8329 	 84.3681
| 24> C 	 2.38927 	 -13.5306 	 83.8959
| 25> C 	 3.68396 	 -13.756 	 84.1412
| 26> C 	 3.88732 	 -15.0467 	 84.7696
| 27> C 	 2.69616 	 -15.8298 	 84.8179
| 28> H 	 4.43833 	 -13.0162 	 83.8356
| 29> C 	 5.31282 	 -15.6403 	 84.8817
| 30> H 	 5.74276 	 -15.7635 	 83.9155
| 31> H 	 5.33687 	 -16.6801 	 85.1422
| 32> C 	 6.27645 	 -14.8125 	 85.6845
| 33> H 	 5.8785 	 -14.8771 	 86.6613
| 34> H 	 6.29319 	 -13.7662 	 85.2917
| 35> C 	 7.67938 	 -15.3472 	 85.6038
| 36> H 	 7.71394 	 -16.4337 	 85.8404
| 37> H 	 8.34642 	 -14.7544 	 86.1324
| 38> H 	 8.23431 	 -15.2743 	 84.6426
| 39> H 	 2.49592 	 -20.7444 	 84.3722
| 40> H 	 2.11289 	 -12.6162 	 83.4218
| 41> *
| 42>
| 43>                          ****END OF INPUT****

CARTESIAN COORDINATES (ANGSTROEM)
---------------------------------
  S      2.243320  -18.275800   83.899900
  C      2.540330  -19.768100   84.815100
  C      3.013330  -19.401600   86.027800
  C      3.052850  -17.983700   86.229100
  C      2.458120  -17.213900   85.190100
  H      3.621670  -17.468000   87.034200
  C      3.540400  -20.340800   87.094500
  H      2.928690  -21.217500   87.259100
  H      3.524670  -19.816700   88.044800
  C      4.996600  -20.718000   86.904300
  H      5.115370  -21.324400   86.046000
  H      5.577080  -19.791900   86.644800
  C      5.614990  -21.352200   88.180000
  H      6.696650  -21.386500   88.101400
  H      5.488120  -20.846700   89.119400
  H      5.286400  -22.364100   88.272500
  S      1.367590  -14.832900   84.368100
  C      2.389270  -13.530600   83.895900
  C      3.683960  -13.756000   84.141200
  C      3.887320  -15.046700   84.769600
  C      2.696160  -15.829800   84.817900
  H      4.438330  -13.016200   83.835600
  C      5.312820  -15.640300   84.881700
  H      5.742760  -15.763500   83.915500
  H      5.336870  -16.680100   85.142200
  C      6.276450  -14.812500   85.684500
  H      5.878500  -14.877100   86.661300
  H      6.293190  -13.766200   85.291700
  C      7.679380  -15.347200   85.603800
  H      7.713940  -16.433700   85.840400
  H      8.346420  -14.754400   86.132400
  H      8.234310  -15.274300   84.642600
  H      2.495920  -20.744400   84.372200
  H      2.112890  -12.616200   83.421800

 Total Charge           Charge          ....    0
 Multiplicity           Mult            ....    1
 Number of Electrons    NEL             ....  134
 Basis Dimension        Dim             ....  322

ORBITAL ENERGIES
----------------

  NO   OCC          E(Eh)            E(eV)
   0   2.0000     -88.964449     -2420.8457
   1   2.0000     -88.961355     -2420.7615
   2   2.0000     -10.329086      -281.0687
   3   2.0000     -10.328221      -281.0452
   4   2.0000     -10.315799      -280.7072
   5   2.0000     -10.309142      -280.5260
   6   2.0000     -10.308386      -280.5054
   7   2.0000     -10.301968      -280.3308
   8   2.0000     -10.301701      -280.3235
   9   2.0000     -10.292719      -280.0791
  10   2.0000     -10.288370      -279.9608
  11   2.0000     -10.288293      -279.9587
  12   2.0000     -10.281315      -279.7688
  13   2.0000     -10.280203      -279.7385
  14   2.0000     -10.276941      -279.6498
  15   2.0000     -10.274785      -279.5911
  16   2.0000      -8.080252      -219.8748
  17   2.0000      -8.077110      -219.7893
  18   2.0000      -6.038718      -164.3219
  19   2.0000      -6.035563      -164.2360
  20   2.0000      -6.034499      -164.2071
  21   2.0000      -6.031355      -164.1215
  22   2.0000      -6.031090      -164.1143
  23   2.0000      -6.027909      -164.0277
  24   2.0000      -1.013909       -27.5899
  25   2.0000      -0.990969       -26.9656
  26   2.0000      -0.917610       -24.9694
  27   2.0000      -0.915061       -24.9001
  28   2.0000      -0.876871       -23.8609
  29   2.0000      -0.848206       -23.0809
  30   2.0000      -0.842830       -22.9346
  31   2.0000      -0.816542       -22.2192
  32   2.0000      -0.787209       -21.4211
  33   2.0000      -0.775069       -21.0907
  34   2.0000      -0.708815       -19.2878
  35   2.0000      -0.705123       -19.1874
  36   2.0000      -0.698577       -19.0093
  37   2.0000      -0.654578       -17.8120
  38   2.0000      -0.643085       -17.4992
  39   2.0000      -0.622206       -16.9311
  40   2.0000      -0.602496       -16.3947
  41   2.0000      -0.577679       -15.7195
  42   2.0000      -0.567393       -15.4396
  43   2.0000      -0.563409       -15.3312
  44   2.0000      -0.529517       -14.4089
  45   2.0000      -0.523957       -14.2576
  46   2.0000      -0.522940       -14.2299
  47   2.0000      -0.518885       -14.1196
  48   2.0000      -0.507902       -13.8207
  49   2.0000      -0.501078       -13.6350
  50   2.0000      -0.491932       -13.3861
  51   2.0000      -0.484354       -13.1799
  52   2.0000      -0.471124       -12.8199
  53   2.0000      -0.468415       -12.7462
  54   2.0000      -0.456794       -12.4300
  55   2.0000      -0.452080       -12.3017
  56   2.0000      -0.446433       -12.1480
  57   2.0000      -0.437837       -11.9141
  58   2.0000      -0.433934       -11.8080
  59   2.0000      -0.423773       -11.5314
  60   2.0000      -0.419519       -11.4157
  61   2.0000      -0.411208       -11.1895
  62   2.0000      -0.408455       -11.1146
  63   2.0000      -0.347443        -9.4544
  64   2.0000      -0.332297        -9.0423
  65   2.0000      -0.319074        -8.6824
  66   2.0000      -0.301816        -8.2128
  67   0.0000       0.029965         0.8154
  68   0.0000       0.067067         1.8250
  69   0.0000       0.116319         3.1652
  70   0.0000       0.120133         3.2690
  71   0.0000       0.126475         3.4416

MULLIKEN ATOMIC CHARGES
-----------------------
   0 S :    0.096439
   1 C :   -0.115133
   2 C :   -0.081371
   3 C :   -0.013091
   4 C :   -0.099571
   5 H :    0.034100
   6 C :    0.081552
   7 H :    0.027107
   8 H :    0.010163
   9 C :   -0.076584
  10 H :    0.017236
  11 H :    0.026625
  12 C :   -0.031471
  13 H :    0.026401
  14 H :    0.028902
  15 H :    0.027817
  16 S :    0.124180
  17 C :   -0.068261
  18 C :   -0.050376
  19 C :    0.002005
  20 C :   -0.187361
  21 H :    0.034610
  22 C :    0.048028
  23 H :    0.012836
  24 H :    0.003468
  25 C :   -0.061074
  26 H :    0.023383
  27 H :    0.033376
  28 C :   -0.029808
  29 H :    0.032220
  30 H :    0.012706
  31 H :    0.021529
  32 H :    0.048351
  33 H :    0.041067
Sum of atomic charges:    0.0000000

LOEWDIN ATOMIC CHARGES
----------------------
   0 S :    0.435581
   1 C :   -0.181359
   2 C :   -0.068839
   3 C :   -0.063809
   4 C :   -0.225786
   5 H :    0.035174
   6 C :   -0.031236
   7 H :    0.028980
   8 H :    0.028672
   9 C :   -0.036087
  10 H :    0.016405
  11 H :    0.026737
  12 C :   -0.064346
  13 H :    0.027765
  14 H :    0.023866
  15 H :    0.022589
  16 S :    0.432181
  17 C :   -0.190572
  18 C :   -0.074437
  19 C :   -0.048467
  20 C :   -0.220909
  21 H :    0.038810
  22 C :   -0.036602
  23 H :    0.026412
  24 H :    0.023822
  25 C :   -0.038166
  26 H :    0.021308
  27 H :    0.028849
  28 C :   -0.070041
  29 H :    0.028861
  30 H :    0.017390
  31 H :    0.030266
  32 H :    0.029204
  33 H :    0.027783

  Mayer bond orders larger than 0.100000
B(  0-S ,  1-C ) :   1.1496 B(  0-S ,  4-C ) :   1.1912 B(  1-C ,  2-C ) :   1.5642
B(  1-C ,  4-C ) :   0.1024 B(  1-C , 32-H ) :   0.9843 B(  2-C ,  3-C ) :   1.2810
B(  2-C ,  6-C ) :   1.0268 B(  3-C ,  4-C ) :   1.5155 B(  3-C ,  5-H ) :   0.9926
B(  4-C , 20-C ) :   1.0086 B(  6-C ,  7-H ) :   0.9425 B(  6-C ,  8-H ) :   0.9409
B(  6-C ,  9-C ) :   1.0598 B(  9-C , 10-H ) :   0.9559 B(  9-C , 11-H ) :   0.9560
B(  9-C , 12-C ) :   1.0784 B( 12-C , 13-H ) :   0.9739 B( 12-C , 14-H ) :   0.9760
B( 12-C , 15-H ) :   0.9750 B( 16-S , 17-C ) :   1.1538 B( 16-S , 20-C ) :   1.1515
B( 17-C , 18-C ) :   1.6448 B( 17-C , 33-H ) :   0.9648 B( 18-C , 19-C ) :   1.2304
B( 18-C , 21-H ) :   0.9828 B( 19-C , 20-C ) :   1.5686 B( 19-C , 22-C ) :   1.0368
B( 22-C , 23-H ) :   0.9390 B( 22-C , 24-H ) :   0.9390 B( 22-C , 25-C ) :   1.0537
B( 25-C , 26-H ) :   0.9556 B( 25-C , 27-H ) :   0.9532 B( 25-C , 28-C ) :   1.0957
B( 28-C , 29-H ) :   0.9708 B( 28-C , 30-H ) :   0.9677 B( 28-C , 31-H ) :   0.9669

Dispersion correction           -0.014045869
FINAL SINGLE POINT ENERGY     -1339.857947349045

DIPOLE MOMENT
-------------
                                X             Y             Z
Electronic contribution:    -27.70709      10.12137     -14.23397
Nuclear contribution   :     28.53548     -10.30206      14.34957
                        -----------------------------------------
Total Dipole Moment    :      0.82839      -0.18068       0.11560
                        -----------------------------------------
Magnitude (a.u.)       :      0.85571
Magnitude (Debye)      :      2.17504

Rotational constants in cm-1:     0.017712     0.009004     0.006466
Rotational constants in MHz :   530.981847   269.918316   193.841565

                             ****ORCA TERMINATED NORMALLY****
TOTAL RUN TIME: 0 days 0 hours 0 minutes 33 seconds 334 msec
