                         Program Version 4.2.1 -  RELEASE  -
|  1> ! wB97X-D3 SP def2-SVP
|  2> %pal
|  3> nprocs 16
|  4> end
|  5>
|  6> * xyz 0 1
|  7> S 	 12.8485 	 -1.01679 	 64.1895
|  8> C 	 11.4312 	 -1.37686 	 63.2464
|  9> C 	 11.3845 	 -0.642539 	 62.0848
| 10> C 	 12.5126 	 0.250847 	 61.9966
| 11> C 	 13.4166 	 0.182367 	 63.0281
| 12> H 	 12.7119 	 0.889361 	 61.1662
| 13> C 	 10.1773 	 -0.529121 	 61.307
| 14> H 	 10.0938 	 0.423037 	 60.7241
| 15> H 	 9.44237 	 -0.487733 	 62.0142
| 16> C 	 10.0658 	 -1.71025 	 60.3343
| 17> H 	 10.7682 	 -1.5833 	 59.5238
| 18> H 	 10.2771 	 -2.68237 	 60.7215
| 19> C 	 8.71522 	 -1.67978 	 59.7011
| 20> H 	 8.75284 	 -2.05585 	 58.7265
| 21> H 	 7.96325 	 -2.21497 	 60.2937
| 22> H 	 8.31767 	 -0.659368 	 59.7
| 23> S 	 16.0074 	 -0.183815 	 63.4766
| 24> C 	 17.1648 	 1.1845 	 63.3578
| 25> C 	 16.5629 	 2.27364 	 62.7312
| 26> C 	 15.1582 	 2.06838 	 62.5255
| 27> C 	 14.6846 	 0.819568 	 63.0559
| 28> H 	 17.1981 	 3.0579 	 62.4544
| 29> C 	 14.2543 	 3.21994 	 61.9089
| 30> H 	 13.674 	 2.82199 	 61.0809
| 31> H 	 15.055 	 3.94205 	 61.4736
| 32> C 	 13.3288 	 3.8442 	 62.9688
| 33> H 	 13.949 	 4.36867 	 63.6782
| 34> H 	 12.6839 	 3.12261 	 63.4862
| 35> C 	 12.3078 	 4.83984 	 62.3938
| 36> H 	 11.4855 	 4.2009 	 62.0179
| 37> H 	 12.7965 	 5.42777 	 61.5421
| 38> H 	 11.9774 	 5.715 	 62.9927
| 39> H 	 10.5869 	 -1.96747 	 63.605
| 40> H 	 18.1834 	 1.32924 	 63.7138
| 41> *
| 42>
| 43>                          ****END OF INPUT****

CARTESIAN COORDINATES (ANGSTROEM)
---------------------------------
  S     12.848500   -1.016790   64.189500
  C     11.431200   -1.376860   63.246400
  C     11.384500   -0.642539   62.084800
  C     12.512600    0.250847   61.996600
  C     13.416600    0.182367   63.028100
  H     12.711900    0.889361   61.166200
  C     10.177300   -0.529121   61.307000
  H     10.093800    0.423037   60.724100
  H      9.442370   -0.487733   62.014200
  C     10.065800   -1.710250   60.334300
  H     10.768200   -1.583300   59.523800
  H     10.277100   -2.682370   60.721500
  C      8.715220   -1.679780   59.701100
  H      8.752840   -2.055850   58.726500
  H      7.963250   -2.214970   60.293700
  H      8.317670   -0.659368   59.700000
  S     16.007400   -0.183815   63.476600
  C     17.164800    1.184500   63.357800
  C     16.562900    2.273640   62.731200
  C     15.158200    2.068380   62.525500
  C     14.684600    0.819568   63.055900
  H     17.198100    3.057900   62.454400
  C     14.254300    3.219940   61.908900
  H     13.674000    2.821990   61.080900
  H     15.055000    3.942050   61.473600
  C     13.328800    3.844200   62.968800
  H     13.949000    4.368670   63.678200
  H     12.683900    3.122610   63.486200
  C     12.307800    4.839840   62.393800
  H     11.485500    4.200900   62.017900
  H     12.796500    5.427770   61.542100
  H     11.977400    5.715000   62.992700
  H     10.586900   -1.967470   63.605000
  H     18.183400    1.329240   63.713800

 Total Charge           Charge          ....    0
 Multiplicity           Mult            ....    1
 Number of Electrons    NEL             ....  134
 Basis Dimension        Dim             ....  322

ORBITAL ENERGIES
----------------

  NO   OCC          E(Eh)            E(eV)
   0   2.0000     -88.967964     -2420.9414
   1   2.0000     -88.967743     -2420.9354
   2   2.0000     -10.327996      -281.0391
   3   2.0000     -10.327375      -281.0222
   4   2.0000     -10.317408      -280.7509
   5   2.0000     -10.313743      -280.6512
   6   2.0000     -10.310719      -280.5689
   7   2.0000     -10.305271      -280.4207
   8   2.0000     -10.295625      -280.1582
   9   2.0000     -10.293105      -280.0896
  10   2.0000     -10.291772      -280.0534
  11   2.0000     -10.284306      -279.8502
  12   2.0000     -10.284113      -279.8450
  13   2.0000     -10.283339      -279.8239
  14   2.0000     -10.279299      -279.7139
  15   2.0000     -10.269175      -279.4385
  16   2.0000      -8.082284      -219.9301
  17   2.0000      -8.082238      -219.9289
  18   2.0000      -6.040925      -164.3819
  19   2.0000      -6.040878      -164.3806
  20   2.0000      -6.036749      -164.2683
  21   2.0000      -6.036721      -164.2675
  22   2.0000      -6.033026      -164.1670
  23   2.0000      -6.032898      -164.1635
  24   2.0000      -1.009354       -27.4659
  25   2.0000      -0.982339       -26.7308
  26   2.0000      -0.926880       -25.2217
  27   2.0000      -0.900534       -24.5048
  28   2.0000      -0.878513       -23.9056
  29   2.0000      -0.854531       -23.2530
  30   2.0000      -0.844571       -22.9819
  31   2.0000      -0.816475       -22.2174
  32   2.0000      -0.779218       -21.2036
  33   2.0000      -0.762879       -20.7590
  34   2.0000      -0.710237       -19.3265
  35   2.0000      -0.707278       -19.2460
  36   2.0000      -0.686712       -18.6864
  37   2.0000      -0.665402       -18.1065
  38   2.0000      -0.641186       -17.4475
  39   2.0000      -0.625367       -17.0171
  40   2.0000      -0.585735       -15.9386
  41   2.0000      -0.580060       -15.7842
  42   2.0000      -0.569073       -15.4853
  43   2.0000      -0.561700       -15.2846
  44   2.0000      -0.540801       -14.7160
  45   2.0000      -0.525076       -14.2880
  46   2.0000      -0.514401       -13.9976
  47   2.0000      -0.511740       -13.9252
  48   2.0000      -0.507204       -13.8017
  49   2.0000      -0.504726       -13.7343
  50   2.0000      -0.491568       -13.3763
  51   2.0000      -0.483293       -13.1511
  52   2.0000      -0.472696       -12.8627
  53   2.0000      -0.461328       -12.5534
  54   2.0000      -0.458247       -12.4695
  55   2.0000      -0.450558       -12.2603
  56   2.0000      -0.442584       -12.0433
  57   2.0000      -0.437357       -11.9011
  58   2.0000      -0.425800       -11.5866
  59   2.0000      -0.421977       -11.4826
  60   2.0000      -0.418726       -11.3941
  61   2.0000      -0.417430       -11.3588
  62   2.0000      -0.410997       -11.1838
  63   2.0000      -0.354618        -9.6497
  64   2.0000      -0.330353        -8.9894
  65   2.0000      -0.326149        -8.8750
  66   2.0000      -0.282663        -7.6916
  67   0.0000       0.018503         0.5035
  68   0.0000       0.074991         2.0406
  69   0.0000       0.103593         2.8189
  70   0.0000       0.111127         3.0239
  71   0.0000       0.138379         3.7655

MULLIKEN ATOMIC CHARGES
-----------------------
   0 S :    0.114307
   1 C :   -0.122279
   2 C :   -0.068879
   3 C :    0.018163
   4 C :   -0.133562
   5 H :   -0.007814
   6 C :    0.061401
   7 H :    0.031807
   8 H :    0.008756
   9 C :   -0.067075
  10 H :    0.020514
  11 H :    0.025758
  12 C :   -0.010445
  13 H :    0.022101
  14 H :    0.026665
  15 H :    0.017219
  16 S :    0.111523
  17 C :   -0.098477
  18 C :   -0.035635
  19 C :   -0.035033
  20 C :   -0.137702
  21 H :    0.004656
  22 C :    0.029714
  23 H :    0.028157
  24 H :    0.039378
  25 C :   -0.045413
  26 H :    0.026077
  27 H :    0.048132
  28 C :   -0.094891
  29 H :    0.041863
  30 H :    0.025492
  31 H :    0.045896
  32 H :    0.053412
  33 H :    0.056215
Sum of atomic charges:    0.0000000

LOEWDIN ATOMIC CHARGES
----------------------
   0 S :    0.404489
   1 C :   -0.196974
   2 C :   -0.061910
   3 C :   -0.055209
   4 C :   -0.198510
   5 H :    0.023799
   6 C :   -0.028627
   7 H :    0.038234
   8 H :    0.020237
   9 C :   -0.032704
  10 H :    0.025317
  11 H :    0.021090
  12 C :   -0.060361
  13 H :    0.017559
  14 H :    0.025276
  15 H :    0.024257
  16 S :    0.415772
  17 C :   -0.186840
  18 C :   -0.065506
  19 C :   -0.057567
  20 C :   -0.207036
  21 H :    0.025432
  22 C :   -0.030434
  23 H :    0.020737
  24 H :    0.040556
  25 C :   -0.043938
  26 H :    0.022752
  27 H :    0.030583
  28 C :   -0.081303
  29 H :    0.027485
  30 H :    0.026781
  31 H :    0.030748
  32 H :    0.031612
  33 H :    0.034201

  Mayer bond orders larger than 0.100000
B(  0-S ,  1-C ) :   1.1385 B(  0-S ,  4-C ) :   1.1345 B(  1-C ,  2-C ) :   1.6003
B(  1-C , 32-H ) :   0.9630 B(  2-C ,  3-C ) :   1.2543 B(  2-C ,  6-C ) :   1.0197
B(  3-C ,  4-C ) :   1.5526 B(  3-C ,  5-H ) :   0.9976 B(  4-C , 20-C ) :   1.0926
B(  6-C ,  7-H ) :   0.9395 B(  6-C ,  8-H ) :   0.9477 B(  6-C ,  9-C ) :   1.0548
B(  9-C , 10-H ) :   0.9549 B(  9-C , 11-H ) :   0.9637 B(  9-C , 12-C ) :   1.0828
B( 12-C , 13-H ) :   0.9733 B( 12-C , 14-H ) :   0.9738 B( 12-C , 15-H ) :   0.9685
B( 16-S , 17-C ) :   1.1394 B( 16-S , 20-C ) :   1.1640 B( 17-C , 18-C ) :   1.6151
B( 17-C , 20-C ) :   0.1100 B( 17-C , 33-H ) :   0.9634 B( 18-C , 19-C ) :   1.2650
B( 18-C , 21-H ) :   0.9947 B( 19-C , 20-C ) :   1.5270 B( 19-C , 22-C ) :   1.0250
B( 22-C , 23-H ) :   0.9404 B( 22-C , 24-H ) :   0.9375 B( 22-C , 25-C ) :   1.0621
B( 25-C , 26-H ) :   0.9551 B( 25-C , 27-H ) :   0.9634 B( 25-C , 28-C ) :   1.0638
B( 28-C , 29-H ) :   0.9798 B( 28-C , 30-H ) :   0.9736 B( 28-C , 31-H ) :   0.9759

Dispersion correction           -0.013989774
FINAL SINGLE POINT ENERGY     -1339.849228360978

DIPOLE MOMENT
-------------
                                X             Y             Z
Electronic contribution:     20.92074     -12.54343      15.88277
Nuclear contribution   :    -21.30184      12.91762     -16.30341
                        -----------------------------------------
Total Dipole Moment    :     -0.38110       0.37419      -0.42064
                        -----------------------------------------
Magnitude (a.u.)       :      0.67985
Magnitude (Debye)      :      1.72805

Rotational constants in cm-1:     0.018568     0.008440     0.006629
Rotational constants in MHz :   556.663884   253.038164   198.733748

                             ****ORCA TERMINATED NORMALLY****
TOTAL RUN TIME: 0 days 0 hours 0 minutes 35 seconds 566 msec
