                         Program Version 4.2.1 -  RELEASE  -
|  1> ! wB97X-D3 SP def2-SVP
|  2> %pal
|  3> nprocs 16
|  4> end
|  5>
|  6> * xyz 0 1
|  7> S 	 14.0372 	 -12.2187 	 76.9389
|  8> C 	 14.9691 	 -11.1472 	 77.9942
|  9> C 	 16.3248 	 -11.4682 	 77.9467
| 10> C 	 16.6876 	 -12.5206 	 77.0917
| 11> C 	 15.5535 	 -13.0343 	 76.395
| 12> H 	 17.7336 	 -12.897 	 76.9275
| 13> C 	 17.411 	 -10.759 	 78.666
| 14> H 	 17.619 	 -9.86642 	 78.1714
| 15> H 	 18.2819 	 -11.3846 	 78.524
| 16> C 	 17.0426 	 -10.5151 	 80.1193
| 17> H 	 16.1756 	 -9.90141 	 80.1199
| 18> H 	 16.8369 	 -11.3571 	 80.7401
| 19> C 	 18.0859 	 -9.74763 	 80.8864
| 20> H 	 18.2163 	 -8.782 	 80.3618
| 21> H 	 17.7198 	 -9.45098 	 81.8642
| 22> H 	 19.0689 	 -10.1811 	 80.9882
| 23> S 	 15.3265 	 -15.5945 	 75.2798
| 24> C 	 15.5832 	 -15.7095 	 73.6278
| 25> C 	 15.5296 	 -14.5038 	 72.9747
| 26> C 	 15.5104 	 -13.3936 	 73.869
| 27> C 	 15.5775 	 -13.8556 	 75.1997
| 28> H 	 15.6186 	 -14.404 	 71.9423
| 29> C 	 15.5495 	 -11.9964 	 73.3585
| 30> H 	 15.9379 	 -12.1023 	 72.3875
| 31> H 	 16.2624 	 -11.5031 	 73.9888
| 32> C 	 14.1626 	 -11.3424 	 73.191
| 33> H 	 13.8198 	 -11.2369 	 74.1752
| 34> H 	 13.4623 	 -11.9543 	 72.6653
| 35> C 	 14.1167 	 -9.90676 	 72.5696
| 36> H 	 14.3612 	 -9.94959 	 71.4967
| 37> H 	 14.8201 	 -9.1499 	 73.0179
| 38> H 	 13.046 	 -9.67209 	 72.6565
| 39> H 	 14.6746 	 -10.1687 	 78.5119
| 40> H 	 15.6916 	 -16.7321 	 73.2766
| 41> *
| 42>
| 43>                          ****END OF INPUT****

CARTESIAN COORDINATES (ANGSTROEM)
---------------------------------
  S     14.037200  -12.218700   76.938900
  C     14.969100  -11.147200   77.994200
  C     16.324800  -11.468200   77.946700
  C     16.687600  -12.520600   77.091700
  C     15.553500  -13.034300   76.395000
  H     17.733600  -12.897000   76.927500
  C     17.411000  -10.759000   78.666000
  H     17.619000   -9.866420   78.171400
  H     18.281900  -11.384600   78.524000
  C     17.042600  -10.515100   80.119300
  H     16.175600   -9.901410   80.119900
  H     16.836900  -11.357100   80.740100
  C     18.085900   -9.747630   80.886400
  H     18.216300   -8.782000   80.361800
  H     17.719800   -9.450980   81.864200
  H     19.068900  -10.181100   80.988200
  S     15.326500  -15.594500   75.279800
  C     15.583200  -15.709500   73.627800
  C     15.529600  -14.503800   72.974700
  C     15.510400  -13.393600   73.869000
  C     15.577500  -13.855600   75.199700
  H     15.618600  -14.404000   71.942300
  C     15.549500  -11.996400   73.358500
  H     15.937900  -12.102300   72.387500
  H     16.262400  -11.503100   73.988800
  C     14.162600  -11.342400   73.191000
  H     13.819800  -11.236900   74.175200
  H     13.462300  -11.954300   72.665300
  C     14.116700   -9.906760   72.569600
  H     14.361200   -9.949590   71.496700
  H     14.820100   -9.149900   73.017900
  H     13.046000   -9.672090   72.656500
  H     14.674600  -10.168700   78.511900
  H     15.691600  -16.732100   73.276600

 Total Charge           Charge          ....    0
 Multiplicity           Mult            ....    1
 Number of Electrons    NEL             ....  134
 Basis Dimension        Dim             ....  322

ORBITAL ENERGIES
----------------

  NO   OCC          E(Eh)            E(eV)
   0   2.0000     -88.970602     -2421.0132
   1   2.0000     -88.961301     -2420.7601
   2   2.0000     -10.332717      -281.1675
   3   2.0000     -10.319401      -280.8052
   4   2.0000     -10.319096      -280.7969
   5   2.0000     -10.311217      -280.5825
   6   2.0000     -10.300638      -280.2946
   7   2.0000     -10.300588      -280.2932
   8   2.0000     -10.293319      -280.0955
   9   2.0000     -10.285604      -279.8855
  10   2.0000     -10.282545      -279.8023
  11   2.0000     -10.281354      -279.7699
  12   2.0000     -10.280874      -279.7568
  13   2.0000     -10.277849      -279.6745
  14   2.0000     -10.277202      -279.6569
  15   2.0000     -10.272889      -279.5395
  16   2.0000      -8.083160      -219.9540
  17   2.0000      -8.077866      -219.8099
  18   2.0000      -6.041739      -164.4041
  19   2.0000      -6.037826      -164.2976
  20   2.0000      -6.035987      -164.2475
  21   2.0000      -6.034094      -164.1960
  22   2.0000      -6.032282      -164.1467
  23   2.0000      -6.028769      -164.0511
  24   2.0000      -1.005328       -27.3564
  25   2.0000      -0.981357       -26.7041
  26   2.0000      -0.918770       -25.0010
  27   2.0000      -0.910386       -24.7729
  28   2.0000      -0.865233       -23.5442
  29   2.0000      -0.852798       -23.2058
  30   2.0000      -0.851030       -23.1577
  31   2.0000      -0.807843       -21.9825
  32   2.0000      -0.785248       -21.3677
  33   2.0000      -0.765532       -20.8312
  34   2.0000      -0.711712       -19.3667
  35   2.0000      -0.701405       -19.0862
  36   2.0000      -0.689034       -18.7496
  37   2.0000      -0.663616       -18.0579
  38   2.0000      -0.628922       -17.1138
  39   2.0000      -0.614670       -16.7260
  40   2.0000      -0.599789       -16.3211
  41   2.0000      -0.573039       -15.5932
  42   2.0000      -0.568575       -15.4717
  43   2.0000      -0.556252       -15.1364
  44   2.0000      -0.529760       -14.4155
  45   2.0000      -0.529582       -14.4107
  46   2.0000      -0.516713       -14.0605
  47   2.0000      -0.508104       -13.8262
  48   2.0000      -0.502230       -13.6664
  49   2.0000      -0.500622       -13.6226
  50   2.0000      -0.489539       -13.3210
  51   2.0000      -0.482013       -13.1162
  52   2.0000      -0.474474       -12.9111
  53   2.0000      -0.461098       -12.5471
  54   2.0000      -0.450892       -12.2694
  55   2.0000      -0.450171       -12.2498
  56   2.0000      -0.447539       -12.1782
  57   2.0000      -0.440818       -11.9953
  58   2.0000      -0.432669       -11.7735
  59   2.0000      -0.425198       -11.5702
  60   2.0000      -0.420449       -11.4410
  61   2.0000      -0.416357       -11.3297
  62   2.0000      -0.412770       -11.2320
  63   2.0000      -0.336317        -9.1517
  64   2.0000      -0.327872        -8.9219
  65   2.0000      -0.310301        -8.4437
  66   2.0000      -0.304975        -8.2988
  67   0.0000       0.032946         0.8965
  68   0.0000       0.051240         1.3943
  69   0.0000       0.110541         3.0080
  70   0.0000       0.119556         3.2533
  71   0.0000       0.135078         3.6757

MULLIKEN ATOMIC CHARGES
-----------------------
   0 S :    0.119122
   1 C :   -0.147929
   2 C :   -0.119738
   3 C :    0.023780
   4 C :   -0.167586
   5 H :    0.043009
   6 C :    0.135157
   7 H :    0.016163
   8 H :    0.007423
   9 C :   -0.067866
  10 H :    0.009530
  11 H :    0.030070
  12 C :   -0.037124
  13 H :    0.011221
  14 H :    0.024758
  15 H :    0.032396
  16 S :    0.118030
  17 C :   -0.091642
  18 C :    0.000773
  19 C :   -0.058479
  20 C :   -0.207769
  21 H :   -0.007498
  22 C :    0.153284
  23 H :   -0.009311
  24 H :    0.025445
  25 C :   -0.057616
  26 H :    0.010844
  27 H :    0.021501
  28 C :   -0.063915
  29 H :    0.029133
  30 H :    0.045661
  31 H :    0.042525
  32 H :    0.076711
  33 H :    0.059937
Sum of atomic charges:    0.0000000

LOEWDIN ATOMIC CHARGES
----------------------
   0 S :    0.396036
   1 C :   -0.219259
   2 C :   -0.069359
   3 C :   -0.058637
   4 C :   -0.181443
   5 H :    0.045402
   6 C :   -0.022601
   7 H :    0.026306
   8 H :    0.027656
   9 C :   -0.034159
  10 H :    0.019065
  11 H :    0.024920
  12 C :   -0.064738
  13 H :    0.022668
  14 H :    0.024441
  15 H :    0.021018
  16 S :    0.433326
  17 C :   -0.196296
  18 C :   -0.071127
  19 C :   -0.036438
  20 C :   -0.223966
  21 H :    0.019880
  22 C :   -0.024950
  23 H :    0.021407
  24 H :    0.033682
  25 C :   -0.031242
  26 H :    0.007352
  27 H :    0.022817
  28 C :   -0.068956
  29 H :    0.021074
  30 H :    0.030995
  31 H :    0.031917
  32 H :    0.047343
  33 H :    0.025866

  Mayer bond orders larger than 0.100000
B(  0-S ,  1-C ) :   1.1296 B(  0-S ,  4-C ) :   1.1554 B(  1-C ,  2-C ) :   1.6017
B(  1-C ,  4-C ) :   0.1050 B(  1-C , 32-H ) :   0.9522 B(  2-C ,  3-C ) :   1.2753
B(  2-C ,  6-C ) :   1.0212 B(  3-C ,  4-C ) :   1.5551 B(  3-C ,  5-H ) :   0.9800
B(  4-C , 20-C ) :   1.0323 B(  6-C ,  7-H ) :   0.9195 B(  6-C ,  8-H ) :   0.9402
B(  6-C ,  9-C ) :   1.0716 B(  9-C , 10-H ) :   0.9471 B(  9-C , 11-H ) :   0.9604
B(  9-C , 12-C ) :   1.0995 B( 12-C , 13-H ) :   0.9700 B( 12-C , 14-H ) :   0.9710
B( 12-C , 15-H ) :   0.9757 B( 16-S , 17-C ) :   1.1990 B( 16-S , 20-C ) :   1.1517
B( 17-C , 18-C ) :   1.5471 B( 17-C , 33-H ) :   0.9710 B( 18-C , 19-C ) :   1.2712
B( 18-C , 21-H ) :   1.0039 B( 19-C , 20-C ) :   1.5555 B( 19-C , 22-C ) :   1.0433
B( 22-C , 23-H ) :   0.9202 B( 22-C , 24-H ) :   0.9244 B( 22-C , 25-C ) :   1.0609
B( 25-C , 26-H ) :   0.9509 B( 25-C , 27-H ) :   0.9547 B( 25-C , 28-C ) :   1.0809
B( 28-C , 29-H ) :   0.9767 B( 28-C , 30-H ) :   0.9750 B( 28-C , 31-H ) :   0.9755

Dispersion correction           -0.014290309
FINAL SINGLE POINT ENERGY     -1339.859076701363

DIPOLE MOMENT
-------------
                                X             Y             Z
Electronic contribution:     -8.10447     -22.77900      -3.11514
Nuclear contribution   :      8.45893      23.18321       2.93298
                        -----------------------------------------
Total Dipole Moment    :      0.35447       0.40421      -0.18216
                        -----------------------------------------
Magnitude (a.u.)       :      0.56764
Magnitude (Debye)      :      1.44282

Rotational constants in cm-1:     0.020223     0.007785     0.006452
Rotational constants in MHz :   606.261970   233.375620   193.431951

                             ****ORCA TERMINATED NORMALLY****
TOTAL RUN TIME: 0 days 0 hours 0 minutes 29 seconds 518 msec
