                         Program Version 4.2.1 -  RELEASE  -
|  1> ! wB97X-D3 SP def2-SVP
|  2> %pal
|  3> nprocs 16
|  4> end
|  5>
|  6> * xyz 0 1
|  7> S 	 16.5497 	 -7.82676 	 80.8802
|  8> C 	 16.2023 	 -7.29757 	 79.1745
|  9> C 	 17.0409 	 -8.00873 	 78.341
| 10> C 	 17.9947 	 -8.80028 	 79.0316
| 11> C 	 17.6453 	 -9.08608 	 80.3333
| 12> H 	 18.8453 	 -9.32836 	 78.5838
| 13> C 	 16.9139 	 -7.96054 	 76.7792
| 14> H 	 17.7676 	 -7.41581 	 76.3635
| 15> H 	 16.0321 	 -7.36863 	 76.5964
| 16> C 	 16.6799 	 -9.28782 	 76.1314
| 17> H 	 17.5098 	 -9.94751 	 76.4528
| 18> H 	 15.6709 	 -9.69115 	 76.297
| 19> C 	 16.7106 	 -9.09185 	 74.5854
| 20> H 	 16.7034 	 -10.0545 	 74.0852
| 21> H 	 15.9245 	 -8.42712 	 74.3299
| 22> H 	 17.7013 	 -8.71392 	 74.2708
| 23> S 	 19.6029 	 -8.83831 	 82.2023
| 24> C 	 19.9382 	 -10.236 	 83.2083
| 25> C 	 19.5486 	 -11.4229 	 82.6139
| 26> C 	 18.6211 	 -11.1493 	 81.5272
| 27> C 	 18.4225 	 -9.7958 	 81.3127
| 28> H 	 20.0725 	 -12.3909 	 82.8104
| 29> C 	 18.1599 	 -12.2669 	 80.6093
| 30> H 	 19.0128 	 -13.0262 	 80.504
| 31> H 	 17.9881 	 -11.9041 	 79.5542
| 32> C 	 16.8779 	 -13.0137 	 81.1263
| 33> H 	 16.0312 	 -12.3742 	 81.0183
| 34> H 	 16.9226 	 -13.3233 	 82.1589
| 35> C 	 16.5792 	 -14.2747 	 80.1989
| 36> H 	 17.4143 	 -14.9652 	 80.1901
| 37> H 	 16.5086 	 -13.9251 	 79.2153
| 38> H 	 15.6757 	 -14.9272 	 80.4544
| 39> H 	 15.5702 	 -6.48678 	 78.8374
| 40> H 	 20.7755 	 -10.2976 	 83.9498
| 41> *
| 42>
| 43>                          ****END OF INPUT****

CARTESIAN COORDINATES (ANGSTROEM)
---------------------------------
  S     16.549700   -7.826760   80.880200
  C     16.202300   -7.297570   79.174500
  C     17.040900   -8.008730   78.341000
  C     17.994700   -8.800280   79.031600
  C     17.645300   -9.086080   80.333300
  H     18.845300   -9.328360   78.583800
  C     16.913900   -7.960540   76.779200
  H     17.767600   -7.415810   76.363500
  H     16.032100   -7.368630   76.596400
  C     16.679900   -9.287820   76.131400
  H     17.509800   -9.947510   76.452800
  H     15.670900   -9.691150   76.297000
  C     16.710600   -9.091850   74.585400
  H     16.703400  -10.054500   74.085200
  H     15.924500   -8.427120   74.329900
  H     17.701300   -8.713920   74.270800
  S     19.602900   -8.838310   82.202300
  C     19.938200  -10.236000   83.208300
  C     19.548600  -11.422900   82.613900
  C     18.621100  -11.149300   81.527200
  C     18.422500   -9.795800   81.312700
  H     20.072500  -12.390900   82.810400
  C     18.159900  -12.266900   80.609300
  H     19.012800  -13.026200   80.504000
  H     17.988100  -11.904100   79.554200
  C     16.877900  -13.013700   81.126300
  H     16.031200  -12.374200   81.018300
  H     16.922600  -13.323300   82.158900
  C     16.579200  -14.274700   80.198900
  H     17.414300  -14.965200   80.190100
  H     16.508600  -13.925100   79.215300
  H     15.675700  -14.927200   80.454400
  H     15.570200   -6.486780   78.837400
  H     20.775500  -10.297600   83.949800

 Total Charge           Charge          ....    0
 Multiplicity           Mult            ....    1
 Number of Electrons    NEL             ....  134
 Basis Dimension        Dim             ....  322

ORBITAL ENERGIES
----------------

  NO   OCC          E(Eh)            E(eV)
   0   2.0000     -88.966940     -2420.9135
   1   2.0000     -88.962069     -2420.7810
   2   2.0000     -10.327697      -281.0309
   3   2.0000     -10.324339      -280.9395
   4   2.0000     -10.319956      -280.8203
   5   2.0000     -10.319424      -280.8058
   6   2.0000     -10.307126      -280.4712
   7   2.0000     -10.304209      -280.3918
   8   2.0000     -10.303028      -280.3597
   9   2.0000     -10.300569      -280.2927
  10   2.0000     -10.297084      -280.1979
  11   2.0000     -10.293117      -280.0899
  12   2.0000     -10.289418      -279.9893
  13   2.0000     -10.286269      -279.9036
  14   2.0000     -10.278452      -279.6909
  15   2.0000     -10.277303      -279.6596
  16   2.0000      -8.081445      -219.9073
  17   2.0000      -8.075845      -219.7549
  18   2.0000      -6.040020      -164.3573
  19   2.0000      -6.036368      -164.2579
  20   2.0000      -6.034484      -164.2067
  21   2.0000      -6.031735      -164.1319
  22   2.0000      -6.030612      -164.1013
  23   2.0000      -6.026341      -163.9851
  24   2.0000      -1.006792       -27.3962
  25   2.0000      -0.980639       -26.6845
  26   2.0000      -0.915169       -24.9030
  27   2.0000      -0.898081       -24.4380
  28   2.0000      -0.872020       -23.7289
  29   2.0000      -0.844144       -22.9703
  30   2.0000      -0.838870       -22.8268
  31   2.0000      -0.813457       -22.1353
  32   2.0000      -0.780088       -21.2273
  33   2.0000      -0.766195       -20.8492
  34   2.0000      -0.709705       -19.3121
  35   2.0000      -0.696606       -18.9556
  36   2.0000      -0.689473       -18.7615
  37   2.0000      -0.657165       -17.8824
  38   2.0000      -0.640818       -17.4375
  39   2.0000      -0.617744       -16.8097
  40   2.0000      -0.590688       -16.0734
  41   2.0000      -0.576460       -15.6863
  42   2.0000      -0.565185       -15.3795
  43   2.0000      -0.554475       -15.0880
  44   2.0000      -0.530778       -14.4432
  45   2.0000      -0.519236       -14.1291
  46   2.0000      -0.512017       -13.9327
  47   2.0000      -0.506872       -13.7927
  48   2.0000      -0.500833       -13.6284
  49   2.0000      -0.500194       -13.6110
  50   2.0000      -0.490293       -13.3416
  51   2.0000      -0.482524       -13.1301
  52   2.0000      -0.467775       -12.7288
  53   2.0000      -0.458333       -12.4719
  54   2.0000      -0.453128       -12.3302
  55   2.0000      -0.448468       -12.2034
  56   2.0000      -0.443107       -12.0575
  57   2.0000      -0.437265       -11.8986
  58   2.0000      -0.433801       -11.8043
  59   2.0000      -0.428999       -11.6736
  60   2.0000      -0.423041       -11.5115
  61   2.0000      -0.420902       -11.4533
  62   2.0000      -0.405815       -11.0428
  63   2.0000      -0.335059        -9.1174
  64   2.0000      -0.324388        -8.8271
  65   2.0000      -0.320228        -8.7138
  66   2.0000      -0.306998        -8.3538
  67   0.0000       0.030266         0.8236
  68   0.0000       0.048650         1.3238
  69   0.0000       0.089062         2.4235
  70   0.0000       0.117217         3.1896
  71   0.0000       0.124050         3.3756

MULLIKEN ATOMIC CHARGES
-----------------------
   0 S :    0.087414
   1 C :   -0.112210
   2 C :   -0.088453
   3 C :    0.032019
   4 C :   -0.161767
   5 H :    0.028159
   6 C :    0.072203
   7 H :    0.038595
   8 H :    0.002760
   9 C :   -0.093294
  10 H :    0.034410
  11 H :    0.043050
  12 C :   -0.038012
  13 H :    0.033386
  14 H :    0.033083
  15 H :    0.021208
  16 S :    0.121943
  17 C :   -0.089677
  18 C :   -0.063681
  19 C :    0.002822
  20 C :   -0.176239
  21 H :    0.048756
  22 C :   -0.016545
  23 H :    0.038094
  24 H :    0.036438
  25 C :   -0.047960
  26 H :    0.033707
  27 H :    0.033649
  28 C :   -0.057420
  29 H :    0.018409
  30 H :    0.015787
  31 H :    0.048315
  32 H :    0.052239
  33 H :    0.068811
Sum of atomic charges:   -0.0000000

LOEWDIN ATOMIC CHARGES
----------------------
   0 S :    0.376110
   1 C :   -0.176597
   2 C :   -0.063690
   3 C :   -0.058728
   4 C :   -0.196810
   5 H :    0.033081
   6 C :   -0.029948
   7 H :    0.032198
   8 H :    0.024637
   9 C :   -0.040913
  10 H :    0.023743
  11 H :    0.030720
  12 C :   -0.060167
  13 H :    0.026090
  14 H :    0.020326
  15 H :    0.023677
  16 S :    0.405256
  17 C :   -0.192149
  18 C :   -0.074379
  19 C :   -0.051874
  20 C :   -0.205660
  21 H :    0.043264
  22 C :   -0.037401
  23 H :    0.036617
  24 H :    0.033134
  25 C :   -0.029582
  26 H :    0.022935
  27 H :    0.021550
  28 C :   -0.070585
  29 H :    0.018307
  30 H :    0.014517
  31 H :    0.034665
  32 H :    0.031900
  33 H :    0.035759

  Mayer bond orders larger than 0.100000
B(  0-S ,  1-C ) :   1.1206 B(  0-S ,  4-C ) :   1.1361 B(  1-C ,  2-C ) :   1.6356
B(  1-C ,  4-C ) :   0.1049 B(  1-C , 32-H ) :   0.9684 B(  2-C ,  3-C ) :   1.2247
B(  2-C ,  6-C ) :   1.0070 B(  3-C ,  4-C ) :   1.5941 B(  3-C ,  5-H ) :   0.9845
B(  4-C , 20-C ) :   1.0338 B(  6-C ,  7-H ) :   0.9433 B(  6-C ,  8-H ) :   0.9387
B(  6-C ,  9-C ) :   1.0716 B(  9-C , 10-H ) :   0.9558 B(  9-C , 11-H ) :   0.9557
B(  9-C , 12-C ) :   1.0816 B( 12-C , 13-H ) :   0.9738 B( 12-C , 14-H ) :   0.9766
B( 12-C , 15-H ) :   0.9749 B( 16-S , 17-C ) :   1.1463 B( 16-S , 20-C ) :   1.1407
B( 17-C , 18-C ) :   1.6388 B( 17-C , 33-H ) :   0.9565 B( 18-C , 19-C ) :   1.2258
B( 18-C , 21-H ) :   0.9770 B( 19-C , 20-C ) :   1.6195 B( 19-C , 22-C ) :   1.0402
B( 22-C , 23-H ) :   0.9486 B( 22-C , 24-H ) :   0.9381 B( 22-C , 25-C ) :   1.0491
B( 25-C , 26-H ) :   0.9582 B( 25-C , 27-H ) :   0.9648 B( 25-C , 28-C ) :   1.0669
B( 28-C , 29-H ) :   0.9781 B( 28-C , 30-H ) :   0.9752 B( 28-C , 31-H ) :   0.9768

Dispersion correction           -0.013556523
FINAL SINGLE POINT ENERGY     -1339.847654993052

DIPOLE MOMENT
-------------
                                X             Y             Z
Electronic contribution:      7.18544      18.24196      23.14083
Nuclear contribution   :     -6.90282     -18.59613     -23.84871
                        -----------------------------------------
Total Dipole Moment    :      0.28261      -0.35417      -0.70788
                        -----------------------------------------
Magnitude (a.u.)       :      0.84047
Magnitude (Debye)      :      2.13632

Rotational constants in cm-1:     0.016268     0.008882     0.006696
Rotational constants in MHz :   487.691070   266.271861   200.746302

                             ****ORCA TERMINATED NORMALLY****
TOTAL RUN TIME: 0 days 0 hours 0 minutes 28 seconds 375 msec
