                         Program Version 4.2.1 -  RELEASE  -
|  1> ! wB97X-D3 SP def2-SVP
|  2> %pal
|  3> nprocs 16
|  4> end
|  5>
|  6> * xyz 0 1
|  7> S 	 -61.0661 	 51.3285 	 136.211
|  8> C 	 -61.2705 	 52.8709 	 135.485
|  9> C 	 -60.3051 	 53.7869 	 135.988
| 10> C 	 -59.4995 	 53.2582 	 137.033
| 11> C 	 -59.7914 	 51.9071 	 137.284
| 12> H 	 -58.7288 	 53.6739 	 137.671
| 13> C 	 -60.2299 	 55.3151 	 135.642
| 14> H 	 -60.2679 	 55.2882 	 134.509
| 15> H 	 -59.1706 	 55.6925 	 135.817
| 16> C 	 -61.2788 	 56.2495 	 136.258
| 17> H 	 -62.2725 	 55.8393 	 136.095
| 18> H 	 -61.0331 	 56.2029 	 137.33
| 19> C 	 -61.0771 	 57.6857 	 135.688
| 20> H 	 -61.5156 	 57.8667 	 134.729
| 21> H 	 -61.7232 	 58.343 	 136.272
| 22> H 	 -60.0076 	 58.0433 	 135.727
| 23> S 	 -57.6199 	 50.2243 	 137.692
| 24> C 	 -57.3595 	 49.4927 	 139.294
| 25> C 	 -58.3683 	 49.9034 	 140.163
| 26> C 	 -59.4218 	 50.6365 	 139.555
| 27> C 	 -59.1414 	 50.958 	 138.237
| 28> H 	 -58.3562 	 49.5867 	 141.236
| 29> C 	 -60.4852 	 51.2858 	 140.319
| 30> H 	 -60.3752 	 52.3325 	 140.208
| 31> H 	 -60.3038 	 51.103 	 141.364
| 32> C 	 -61.9687 	 50.8262 	 139.885
| 33> H 	 -62.1977 	 49.7388 	 139.938
| 34> H 	 -62.0157 	 51.2084 	 138.857
| 35> C 	 -63.005 	 51.4871 	 140.706
| 36> H 	 -63.0821 	 52.5565 	 140.665
| 37> H 	 -62.856 	 51.2103 	 141.771
| 38> H 	 -64.004 	 51.1354 	 140.417
| 39> H 	 -62.1462 	 53.0783 	 134.917
| 40> H 	 -56.4894 	 48.9619 	 139.579
| 41> *
| 42>
| 43>                          ****END OF INPUT****

CARTESIAN COORDINATES (ANGSTROEM)
---------------------------------
  S    -61.066100   51.328500  136.211000
  C    -61.270500   52.870900  135.485000
  C    -60.305100   53.786900  135.988000
  C    -59.499500   53.258200  137.033000
  C    -59.791400   51.907100  137.284000
  H    -58.728800   53.673900  137.671000
  C    -60.229900   55.315100  135.642000
  H    -60.267900   55.288200  134.509000
  H    -59.170600   55.692500  135.817000
  C    -61.278800   56.249500  136.258000
  H    -62.272500   55.839300  136.095000
  H    -61.033100   56.202900  137.330000
  C    -61.077100   57.685700  135.688000
  H    -61.515600   57.866700  134.729000
  H    -61.723200   58.343000  136.272000
  H    -60.007600   58.043300  135.727000
  S    -57.619900   50.224300  137.692000
  C    -57.359500   49.492700  139.294000
  C    -58.368300   49.903400  140.163000
  C    -59.421800   50.636500  139.555000
  C    -59.141400   50.958000  138.237000
  H    -58.356200   49.586700  141.236000
  C    -60.485200   51.285800  140.319000
  H    -60.375200   52.332500  140.208000
  H    -60.303800   51.103000  141.364000
  C    -61.968700   50.826200  139.885000
  H    -62.197700   49.738800  139.938000
  H    -62.015700   51.208400  138.857000
  C    -63.005000   51.487100  140.706000
  H    -63.082100   52.556500  140.665000
  H    -62.856000   51.210300  141.771000
  H    -64.004000   51.135400  140.417000
  H    -62.146200   53.078300  134.917000
  H    -56.489400   48.961900  139.579000

 Total Charge           Charge          ....    0
 Multiplicity           Mult            ....    1
 Number of Electrons    NEL             ....  134
 Basis Dimension        Dim             ....  322

ORBITAL ENERGIES
----------------

  NO   OCC          E(Eh)            E(eV)
   0   2.0000     -88.968453     -2420.9547
   1   2.0000     -88.964016     -2420.8340
   2   2.0000     -10.332484      -281.1612
   3   2.0000     -10.326374      -280.9949
   4   2.0000     -10.318681      -280.7856
   5   2.0000     -10.317112      -280.7429
   6   2.0000     -10.310310      -280.5578
   7   2.0000     -10.300326      -280.2861
   8   2.0000     -10.299809      -280.2721
   9   2.0000     -10.298294      -280.2308
  10   2.0000     -10.297440      -280.2076
  11   2.0000     -10.293622      -280.1037
  12   2.0000     -10.284921      -279.8669
  13   2.0000     -10.284291      -279.8498
  14   2.0000     -10.283816      -279.8369
  15   2.0000     -10.270359      -279.4707
  16   2.0000      -8.082835      -219.9451
  17   2.0000      -8.077861      -219.8098
  18   2.0000      -6.041088      -164.3864
  19   2.0000      -6.037130      -164.2787
  20   2.0000      -6.036390      -164.2585
  21   2.0000      -6.034126      -164.1969
  22   2.0000      -6.032393      -164.1498
  23   2.0000      -6.028748      -164.0506
  24   2.0000      -1.001080       -27.2408
  25   2.0000      -0.980521       -26.6813
  26   2.0000      -0.906174       -24.6582
  27   2.0000      -0.903349       -24.5814
  28   2.0000      -0.862581       -23.4720
  29   2.0000      -0.854954       -23.2645
  30   2.0000      -0.849685       -23.1211
  31   2.0000      -0.810311       -22.0497
  32   2.0000      -0.777635       -21.1605
  33   2.0000      -0.765280       -20.8243
  34   2.0000      -0.703109       -19.1326
  35   2.0000      -0.698895       -19.0179
  36   2.0000      -0.688065       -18.7232
  37   2.0000      -0.661667       -18.0049
  38   2.0000      -0.650973       -17.7139
  39   2.0000      -0.607623       -16.5343
  40   2.0000      -0.592836       -16.1319
  41   2.0000      -0.571338       -15.5469
  42   2.0000      -0.564992       -15.3742
  43   2.0000      -0.553390       -15.0585
  44   2.0000      -0.525100       -14.2887
  45   2.0000      -0.517576       -14.0840
  46   2.0000      -0.515373       -14.0240
  47   2.0000      -0.512026       -13.9329
  48   2.0000      -0.510478       -13.8908
  49   2.0000      -0.497265       -13.5313
  50   2.0000      -0.489494       -13.3198
  51   2.0000      -0.480104       -13.0643
  52   2.0000      -0.472442       -12.8558
  53   2.0000      -0.464282       -12.6337
  54   2.0000      -0.455580       -12.3970
  55   2.0000      -0.448302       -12.1989
  56   2.0000      -0.445196       -12.1144
  57   2.0000      -0.433211       -11.7883
  58   2.0000      -0.430483       -11.7140
  59   2.0000      -0.421572       -11.4716
  60   2.0000      -0.417684       -11.3658
  61   2.0000      -0.416302       -11.3282
  62   2.0000      -0.406786       -11.0692
  63   2.0000      -0.339777        -9.2458
  64   2.0000      -0.328844        -8.9483
  65   2.0000      -0.313470        -8.5300
  66   2.0000      -0.309728        -8.4281
  67   0.0000       0.037564         1.0222
  68   0.0000       0.049557         1.3485
  69   0.0000       0.113566         3.0903
  70   0.0000       0.121018         3.2931
  71   0.0000       0.128332         3.4921

MULLIKEN ATOMIC CHARGES
-----------------------
   0 S :    0.124194
   1 C :   -0.118064
   2 C :   -0.078248
   3 C :    0.069066
   4 C :   -0.208464
   5 H :    0.017880
   6 C :   -0.018629
   7 H :    0.034744
   8 H :    0.031962
   9 C :   -0.033478
  10 H :    0.030657
  11 H :    0.034419
  12 C :   -0.050011
  13 H :    0.029531
  14 H :    0.025384
  15 H :    0.048226
  16 S :    0.105477
  17 C :   -0.083575
  18 C :   -0.062695
  19 C :    0.011941
  20 C :   -0.183244
  21 H :    0.037480
  22 C :    0.078086
  23 H :    0.024150
  24 H :    0.002050
  25 C :   -0.088863
  26 H :    0.043674
  27 H :    0.035199
  28 C :   -0.030962
  29 H :    0.021603
  30 H :    0.023709
  31 H :    0.027095
  32 H :    0.051560
  33 H :    0.048145
Sum of atomic charges:   -0.0000000

LOEWDIN ATOMIC CHARGES
----------------------
   0 S :    0.436132
   1 C :   -0.207762
   2 C :   -0.064315
   3 C :   -0.059686
   4 C :   -0.199412
   5 H :    0.037742
   6 C :   -0.045843
   7 H :    0.031597
   8 H :    0.032153
   9 C :   -0.038004
  10 H :    0.025091
  11 H :    0.028931
  12 C :   -0.069104
  13 H :    0.023467
  14 H :    0.026795
  15 H :    0.034625
  16 S :    0.389525
  17 C :   -0.171861
  18 C :   -0.074860
  19 C :   -0.057923
  20 C :   -0.201245
  21 H :    0.039001
  22 C :   -0.026572
  23 H :    0.030911
  24 H :    0.022772
  25 C :   -0.037861
  26 H :    0.032560
  27 H :    0.016570
  28 C :   -0.070281
  29 H :    0.019050
  30 H :    0.024924
  31 H :    0.026779
  32 H :    0.023305
  33 H :    0.022800

  Mayer bond orders larger than 0.100000
B(  0-S ,  1-C ) :   1.1744 B(  0-S ,  4-C ) :   1.1768 B(  1-C ,  2-C ) :   1.5524
B(  1-C ,  4-C ) :   0.1123 B(  1-C , 32-H ) :   0.9782 B(  2-C ,  3-C ) :   1.2580
B(  2-C ,  6-C ) :   1.0086 B(  3-C ,  4-C ) :   1.5658 B(  3-C ,  5-H ) :   0.9950
B(  4-C , 20-C ) :   0.9850 B(  6-C ,  7-H ) :   0.9464 B(  6-C ,  8-H ) :   0.9490
B(  6-C ,  9-C ) :   1.0545 B(  9-C , 10-H ) :   0.9557 B(  9-C , 11-H ) :   0.9554
B(  9-C , 12-C ) :   1.0742 B( 12-C , 13-H ) :   0.9750 B( 12-C , 14-H ) :   0.9724
B( 12-C , 15-H ) :   0.9746 B( 16-S , 17-C ) :   1.1536 B( 16-S , 20-C ) :   1.1463
B( 17-C , 18-C ) :   1.6022 B( 17-C , 20-C ) :   0.1034 B( 17-C , 33-H ) :   0.9727
B( 18-C , 19-C ) :   1.2560 B( 18-C , 21-H ) :   0.9764 B( 19-C , 20-C ) :   1.5812
B( 19-C , 22-C ) :   1.0594 B( 22-C , 23-H ) :   0.9287 B( 22-C , 24-H ) :   0.9332
B( 22-C , 25-C ) :   1.0445 B( 25-C , 26-H ) :   0.9588 B( 25-C , 27-H ) :   0.9493
B( 25-C , 28-C ) :   1.1018 B( 28-C , 29-H ) :   0.9711 B( 28-C , 30-H ) :   0.9705
B( 28-C , 31-H ) :   0.9705

Dispersion correction           -0.014321329
FINAL SINGLE POINT ENERGY     -1339.874969017044

DIPOLE MOMENT
-------------
                                X             Y             Z
Electronic contribution:     14.48000     -21.11813      -7.30385
Nuclear contribution   :    -14.68621      21.66873       7.65269
                        -----------------------------------------
Total Dipole Moment    :     -0.20622       0.55060       0.34884
                        -----------------------------------------
Magnitude (a.u.)       :      0.68365
Magnitude (Debye)      :      1.73770

Rotational constants in cm-1:     0.018897     0.007953     0.006793
Rotational constants in MHz :   566.519105   238.437348   203.654979

                             ****ORCA TERMINATED NORMALLY****
TOTAL RUN TIME: 0 days 0 hours 0 minutes 33 seconds 633 msec
