                         Program Version 4.2.1 -  RELEASE  -
|  1> ! wB97X-D3 SP def2-SVP
|  2> %pal
|  3> nprocs 16
|  4> end
|  5>
|  6> * xyz 0 1
|  7> S 	 -42.1204 	 50.5172 	 103.995
|  8> C 	 -42.9174 	 51.7764 	 104.751
|  9> C 	 -44.0588 	 51.3041 	 105.423
| 10> C 	 -44.3481 	 49.911 	 105.174
| 11> C 	 -43.404 	 49.348 	 104.344
| 12> H 	 -45.1688 	 49.2577 	 105.462
| 13> C 	 -45.0394 	 52.2106 	 106.22
| 14> H 	 -46.0378 	 51.8616 	 106.051
| 15> H 	 -45.0058 	 53.1558 	 105.662
| 16> C 	 -44.9304 	 52.4539 	 107.729
| 17> H 	 -43.995 	 52.8423 	 108.048
| 18> H 	 -45.6844 	 53.1952 	 108.013
| 19> C 	 -45.198 	 51.0486 	 108.488
| 20> H 	 -46.2332 	 50.6726 	 108.45
| 21> H 	 -44.427 	 50.3207 	 108.223
| 22> H 	 -45.1703 	 51.144 	 109.583
| 23> S 	 -44.5777 	 47.3465 	 102.927
| 24> C 	 -43.7364 	 45.8399 	 102.89
| 25> C 	 -42.5121 	 45.8675 	 103.575
| 26> C 	 -42.2872 	 47.1053 	 104.221
| 27> C 	 -43.3256 	 47.9639 	 104.001
| 28> H 	 -41.923 	 45.0108 	 103.483
| 29> C 	 -41.0822 	 47.3015 	 105.136
| 30> H 	 -41.0256 	 46.404 	 105.655
| 31> H 	 -41.3288 	 48.0181 	 105.944
| 32> C 	 -39.7491 	 47.7423 	 104.589
| 33> H 	 -39.88 	 48.527 	 103.876
| 34> H 	 -39.4911 	 46.8952 	 103.929
| 35> C 	 -38.6204 	 47.8244 	 105.631
| 36> H 	 -38.9322 	 48.3811 	 106.521
| 37> H 	 -37.6423 	 48.2747 	 105.292
| 38> H 	 -38.4807 	 46.773 	 105.989
| 39> H 	 -42.7434 	 52.8128 	 104.794
| 40> H 	 -43.9727 	 45.0308 	 102.238
| 41> *
| 42>
| 43>                          ****END OF INPUT****

CARTESIAN COORDINATES (ANGSTROEM)
---------------------------------
  S    -42.120400   50.517200  103.995000
  C    -42.917400   51.776400  104.751000
  C    -44.058800   51.304100  105.423000
  C    -44.348100   49.911000  105.174000
  C    -43.404000   49.348000  104.344000
  H    -45.168800   49.257700  105.462000
  C    -45.039400   52.210600  106.220000
  H    -46.037800   51.861600  106.051000
  H    -45.005800   53.155800  105.662000
  C    -44.930400   52.453900  107.729000
  H    -43.995000   52.842300  108.048000
  H    -45.684400   53.195200  108.013000
  C    -45.198000   51.048600  108.488000
  H    -46.233200   50.672600  108.450000
  H    -44.427000   50.320700  108.223000
  H    -45.170300   51.144000  109.583000
  S    -44.577700   47.346500  102.927000
  C    -43.736400   45.839900  102.890000
  C    -42.512100   45.867500  103.575000
  C    -42.287200   47.105300  104.221000
  C    -43.325600   47.963900  104.001000
  H    -41.923000   45.010800  103.483000
  C    -41.082200   47.301500  105.136000
  H    -41.025600   46.404000  105.655000
  H    -41.328800   48.018100  105.944000
  C    -39.749100   47.742300  104.589000
  H    -39.880000   48.527000  103.876000
  H    -39.491100   46.895200  103.929000
  C    -38.620400   47.824400  105.631000
  H    -38.932200   48.381100  106.521000
  H    -37.642300   48.274700  105.292000
  H    -38.480700   46.773000  105.989000
  H    -42.743400   52.812800  104.794000
  H    -43.972700   45.030800  102.238000

 Total Charge           Charge          ....    0
 Multiplicity           Mult            ....    1
 Number of Electrons    NEL             ....  134
 Basis Dimension        Dim             ....  322

ORBITAL ENERGIES
----------------

  NO   OCC          E(Eh)            E(eV)
   0   2.0000     -88.969106     -2420.9725
   1   2.0000     -88.967967     -2420.9415
   2   2.0000     -10.321977      -280.8753
   3   2.0000     -10.320010      -280.8218
   4   2.0000     -10.313228      -280.6372
   5   2.0000     -10.308955      -280.5209
   6   2.0000     -10.303904      -280.3835
   7   2.0000     -10.300864      -280.3008
   8   2.0000     -10.293669      -280.1050
   9   2.0000     -10.291316      -280.0409
  10   2.0000     -10.289440      -279.9899
  11   2.0000     -10.288921      -279.9758
  12   2.0000     -10.287057      -279.9250
  13   2.0000     -10.284508      -279.8557
  14   2.0000     -10.281514      -279.7742
  15   2.0000     -10.281173      -279.7650
  16   2.0000      -8.084063      -219.9786
  17   2.0000      -8.083070      -219.9515
  18   2.0000      -6.042407      -164.4223
  19   2.0000      -6.041486      -164.3972
  20   2.0000      -6.038664      -164.3204
  21   2.0000      -6.037444      -164.2872
  22   2.0000      -6.034865      -164.2170
  23   2.0000      -6.033969      -164.1927
  24   2.0000      -1.011103       -27.5135
  25   2.0000      -0.987392       -26.8683
  26   2.0000      -0.911918       -24.8146
  27   2.0000      -0.900226       -24.4964
  28   2.0000      -0.874539       -23.7974
  29   2.0000      -0.854751       -23.2590
  30   2.0000      -0.841419       -22.8962
  31   2.0000      -0.811084       -22.0707
  32   2.0000      -0.783107       -21.3094
  33   2.0000      -0.769529       -20.9400
  34   2.0000      -0.708250       -19.2725
  35   2.0000      -0.703612       -19.1463
  36   2.0000      -0.696306       -18.9475
  37   2.0000      -0.668713       -18.1966
  38   2.0000      -0.643158       -17.5012
  39   2.0000      -0.609102       -16.5745
  40   2.0000      -0.597067       -16.2470
  41   2.0000      -0.572116       -15.5681
  42   2.0000      -0.563956       -15.3460
  43   2.0000      -0.543851       -14.7989
  44   2.0000      -0.539653       -14.6847
  45   2.0000      -0.524363       -14.2686
  46   2.0000      -0.518634       -14.1127
  47   2.0000      -0.508218       -13.8293
  48   2.0000      -0.501303       -13.6412
  49   2.0000      -0.493983       -13.4420
  50   2.0000      -0.485255       -13.2044
  51   2.0000      -0.478377       -13.0173
  52   2.0000      -0.471074       -12.8186
  53   2.0000      -0.465456       -12.6657
  54   2.0000      -0.462783       -12.5930
  55   2.0000      -0.449593       -12.2340
  56   2.0000      -0.442288       -12.0353
  57   2.0000      -0.440717       -11.9925
  58   2.0000      -0.432940       -11.7809
  59   2.0000      -0.428933       -11.6718
  60   2.0000      -0.418121       -11.3777
  61   2.0000      -0.414550       -11.2805
  62   2.0000      -0.401124       -10.9151
  63   2.0000      -0.348234        -9.4759
  64   2.0000      -0.337137        -9.1740
  65   2.0000      -0.324381        -8.8268
  66   2.0000      -0.292056        -7.9473
  67   0.0000       0.037033         1.0077
  68   0.0000       0.061839         1.6827
  69   0.0000       0.107840         2.9345
  70   0.0000       0.113255         3.0818
  71   0.0000       0.132861         3.6153

MULLIKEN ATOMIC CHARGES
-----------------------
   0 S :    0.133360
   1 C :   -0.068807
   2 C :   -0.114904
   3 C :    0.029753
   4 C :   -0.159110
   5 H :    0.020750
   6 C :    0.055041
   7 H :    0.014393
   8 H :    0.018858
   9 C :   -0.018065
  10 H :    0.021234
  11 H :    0.033425
  12 C :   -0.104762
  13 H :    0.032690
  14 H :    0.055076
  15 H :    0.024213
  16 S :    0.126043
  17 C :   -0.086701
  18 C :   -0.035468
  19 C :   -0.001664
  20 C :   -0.190835
  21 H :   -0.002528
  22 C :    0.060764
  23 H :    0.003705
  24 H :    0.020584
  25 C :   -0.032430
  26 H :    0.018655
  27 H :    0.012498
  28 C :   -0.056056
  29 H :    0.030178
  30 H :    0.053991
  31 H :    0.032986
  32 H :    0.026787
  33 H :    0.046347
Sum of atomic charges:   -0.0000000

LOEWDIN ATOMIC CHARGES
----------------------
   0 S :    0.443550
   1 C :   -0.219217
   2 C :   -0.063087
   3 C :   -0.060195
   4 C :   -0.195878
   5 H :    0.036270
   6 C :   -0.037748
   7 H :    0.026567
   8 H :    0.029310
   9 C :   -0.027687
  10 H :    0.016707
  11 H :    0.028008
  12 C :   -0.079484
  13 H :    0.026904
  14 H :    0.028898
  15 H :    0.024709
  16 S :    0.419304
  17 C :   -0.190010
  18 C :   -0.060049
  19 C :   -0.053753
  20 C :   -0.196664
  21 H :    0.022463
  22 C :   -0.031034
  23 H :    0.021834
  24 H :    0.029926
  25 C :   -0.045948
  26 H :    0.012319
  27 H :    0.024331
  28 C :   -0.068320
  29 H :    0.022760
  30 H :    0.035975
  31 H :    0.031749
  32 H :    0.025090
  33 H :    0.022401

  Mayer bond orders larger than 0.100000
B(  0-S ,  1-C ) :   1.1590 B(  0-S ,  4-C ) :   1.1427 B(  1-C ,  2-C ) :   1.5938
B(  1-C , 32-H ) :   0.9715 B(  2-C ,  3-C ) :   1.2380 B(  2-C ,  6-C ) :   1.0101
B(  3-C ,  4-C ) :   1.5671 B(  3-C ,  5-H ) :   0.9939 B(  4-C , 20-C ) :   1.0371
B(  6-C ,  7-H ) :   0.9466 B(  6-C ,  8-H ) :   0.9421 B(  6-C ,  9-C ) :   1.0720
B(  9-C , 10-H ) :   0.9597 B(  9-C , 11-H ) :   0.9550 B(  9-C , 12-C ) :   1.0632
B( 12-C , 13-H ) :   0.9766 B( 12-C , 14-H ) :   0.9777 B( 12-C , 15-H ) :   0.9755
B( 16-S , 17-C ) :   1.1565 B( 16-S , 20-C ) :   1.1480 B( 17-C , 18-C ) :   1.6171
B( 17-C , 33-H ) :   0.9674 B( 18-C , 19-C ) :   1.2216 B( 18-C , 21-H ) :   1.0013
B( 19-C , 20-C ) :   1.6053 B( 19-C , 22-C ) :   1.0276 B( 22-C , 23-H ) :   0.9335
B( 22-C , 24-H ) :   0.9290 B( 22-C , 25-C ) :   1.0603 B( 25-C , 26-H ) :   0.9523
B( 25-C , 27-H ) :   0.9520 B( 25-C , 28-C ) :   1.0655 B( 28-C , 29-H ) :   0.9777
B( 28-C , 30-H ) :   0.9746 B( 28-C , 31-H ) :   0.9736

Dispersion correction           -0.014579401
FINAL SINGLE POINT ENERGY     -1339.865707756408

DIPOLE MOMENT
-------------
                                X             Y             Z
Electronic contribution:     -6.79385      -4.65554     -19.66268
Nuclear contribution   :      6.85526       4.65267      19.95047
                        -----------------------------------------
Total Dipole Moment    :      0.06141      -0.00286       0.28779
                        -----------------------------------------
Magnitude (a.u.)       :      0.29428
Magnitude (Debye)      :      0.74800

Rotational constants in cm-1:     0.017660     0.008854     0.007198
Rotational constants in MHz :   529.445377   265.427905   215.793734

                             ****ORCA TERMINATED NORMALLY****
TOTAL RUN TIME: 0 days 0 hours 0 minutes 29 seconds 990 msec
