                         Program Version 4.2.1 -  RELEASE  -
|  1> ! wB97X-D3 SP def2-SVP
|  2> %pal
|  3> nprocs 16
|  4> end
|  5>
|  6> * xyz 0 1
|  7> S 	 52.0178 	 -0.893628 	 90.8069
|  8> C 	 52.9225 	 -2.12216 	 89.9569
|  9> C 	 54.1757 	 -1.72898 	 89.5808
| 10> C 	 54.4097 	 -0.423382 	 89.9678
| 11> C 	 53.3485 	 0.203798 	 90.6137
| 12> H 	 55.2712 	 0.147412 	 89.7057
| 13> C 	 55.1385 	 -2.54366 	 88.7581
| 14> H 	 54.6146 	 -3.37732 	 88.3538
| 15> H 	 55.7704 	 -3.0053 	 89.523
| 16> C 	 56.0493 	 -1.89665 	 87.6901
| 17> H 	 55.4386 	 -1.37302 	 86.9607
| 18> H 	 56.4675 	 -1.04712 	 88.1581
| 19> C 	 57.0055 	 -2.86904 	 87.0022
| 20> H 	 56.4227 	 -3.53621 	 86.3494
| 21> H 	 57.7885 	 -2.27707 	 86.4448
| 22> H 	 57.5494 	 -3.43731 	 87.8168
| 23> S 	 52.5095 	 2.65298 	 89.586
| 24> C 	 52.5303 	 4.01966 	 90.6261
| 25> C 	 53.2637 	 3.70033 	 91.7673
| 26> C 	 53.8357 	 2.42958 	 91.7927
| 27> C 	 53.2158 	 1.62621 	 90.8373
| 28> H 	 53.4832 	 4.57633 	 92.3473
| 29> C 	 54.8163 	 1.8939 	 92.7227
| 30> H 	 55.538 	 2.6935 	 92.8074
| 31> H 	 55.4475 	 1.09433 	 92.3964
| 32> C 	 54.3149 	 1.67375 	 94.2134
| 33> H 	 53.5442 	 0.965217 	 94.316
| 34> H 	 53.8701 	 2.61183 	 94.6038
| 35> C 	 55.4309 	 1.22715 	 95.2122
| 36> H 	 55.6618 	 0.155865 	 95.0292
| 37> H 	 55.1222 	 1.40568 	 96.2685
| 38> H 	 56.3252 	 1.85579 	 95.1964
| 39> H 	 52.4644 	 -3.08615 	 89.6864
| 40> H 	 52.1003 	 5.01815 	 90.34
| 41> *
| 42>
| 43>                          ****END OF INPUT****

CARTESIAN COORDINATES (ANGSTROEM)
---------------------------------
  S     52.017800   -0.893628   90.806900
  C     52.922500   -2.122160   89.956900
  C     54.175700   -1.728980   89.580800
  C     54.409700   -0.423382   89.967800
  C     53.348500    0.203798   90.613700
  H     55.271200    0.147412   89.705700
  C     55.138500   -2.543660   88.758100
  H     54.614600   -3.377320   88.353800
  H     55.770400   -3.005300   89.523000
  C     56.049300   -1.896650   87.690100
  H     55.438600   -1.373020   86.960700
  H     56.467500   -1.047120   88.158100
  C     57.005500   -2.869040   87.002200
  H     56.422700   -3.536210   86.349400
  H     57.788500   -2.277070   86.444800
  H     57.549400   -3.437310   87.816800
  S     52.509500    2.652980   89.586000
  C     52.530300    4.019660   90.626100
  C     53.263700    3.700330   91.767300
  C     53.835700    2.429580   91.792700
  C     53.215800    1.626210   90.837300
  H     53.483200    4.576330   92.347300
  C     54.816300    1.893900   92.722700
  H     55.538000    2.693500   92.807400
  H     55.447500    1.094330   92.396400
  C     54.314900    1.673750   94.213400
  H     53.544200    0.965217   94.316000
  H     53.870100    2.611830   94.603800
  C     55.430900    1.227150   95.212200
  H     55.661800    0.155865   95.029200
  H     55.122200    1.405680   96.268500
  H     56.325200    1.855790   95.196400
  H     52.464400   -3.086150   89.686400
  H     52.100300    5.018150   90.340000

 Total Charge           Charge          ....    0
 Multiplicity           Mult            ....    1
 Number of Electrons    NEL             ....  134
 Basis Dimension        Dim             ....  322

ORBITAL ENERGIES
----------------

  NO   OCC          E(Eh)            E(eV)
   0   2.0000     -88.966628     -2420.9050
   1   2.0000     -88.960169     -2420.7293
   2   2.0000     -10.321775      -280.8698
   3   2.0000     -10.318498      -280.7806
   4   2.0000     -10.317491      -280.7532
   5   2.0000     -10.310789      -280.5708
   6   2.0000     -10.298413      -280.2341
   7   2.0000     -10.294337      -280.1231
   8   2.0000     -10.292966      -280.0859
   9   2.0000     -10.288848      -279.9738
  10   2.0000     -10.288264      -279.9579
  11   2.0000     -10.286945      -279.9220
  12   2.0000     -10.286671      -279.9146
  13   2.0000     -10.286408      -279.9074
  14   2.0000     -10.284594      -279.8580
  15   2.0000     -10.281736      -279.7803
  16   2.0000      -8.081561      -219.9105
  17   2.0000      -8.075350      -219.7415
  18   2.0000      -6.039844      -164.3525
  19   2.0000      -6.036022      -164.2485
  20   2.0000      -6.033682      -164.1848
  21   2.0000      -6.032575      -164.1547
  22   2.0000      -6.029861      -164.0809
  23   2.0000      -6.026215      -163.9816
  24   2.0000      -1.010407       -27.4946
  25   2.0000      -0.989798       -26.9338
  26   2.0000      -0.913399       -24.8548
  27   2.0000      -0.905547       -24.6412
  28   2.0000      -0.869278       -23.6543
  29   2.0000      -0.852414       -23.1954
  30   2.0000      -0.848295       -23.0833
  31   2.0000      -0.810783       -22.0625
  32   2.0000      -0.784601       -21.3501
  33   2.0000      -0.769785       -20.9469
  34   2.0000      -0.713785       -19.4231
  35   2.0000      -0.701616       -19.0919
  36   2.0000      -0.691931       -18.8284
  37   2.0000      -0.653292       -17.7770
  38   2.0000      -0.642708       -17.4890
  39   2.0000      -0.624790       -17.0014
  40   2.0000      -0.601084       -16.3563
  41   2.0000      -0.568625       -15.4731
  42   2.0000      -0.563950       -15.3459
  43   2.0000      -0.555802       -15.1241
  44   2.0000      -0.529767       -14.4157
  45   2.0000      -0.518886       -14.1196
  46   2.0000      -0.515152       -14.0180
  47   2.0000      -0.506502       -13.7826
  48   2.0000      -0.503028       -13.6881
  49   2.0000      -0.498280       -13.5589
  50   2.0000      -0.489773       -13.3274
  51   2.0000      -0.478882       -13.0310
  52   2.0000      -0.476652       -12.9704
  53   2.0000      -0.467539       -12.7224
  54   2.0000      -0.458602       -12.4792
  55   2.0000      -0.452017       -12.3000
  56   2.0000      -0.439456       -11.9582
  57   2.0000      -0.434490       -11.8231
  58   2.0000      -0.431134       -11.7317
  59   2.0000      -0.430183       -11.7059
  60   2.0000      -0.425618       -11.5817
  61   2.0000      -0.416898       -11.3444
  62   2.0000      -0.412845       -11.2341
  63   2.0000      -0.337711        -9.1896
  64   2.0000      -0.324784        -8.8378
  65   2.0000      -0.317432        -8.6378
  66   2.0000      -0.300982        -8.1901
  67   0.0000       0.037172         1.0115
  68   0.0000       0.056295         1.5319
  69   0.0000       0.109244         2.9727
  70   0.0000       0.126365         3.4386
  71   0.0000       0.134208         3.6520

MULLIKEN ATOMIC CHARGES
-----------------------
   0 S :    0.132026
   1 C :   -0.154514
   2 C :   -0.051455
   3 C :    0.032836
   4 C :   -0.190705
   5 H :   -0.000366
   6 C :    0.086392
   7 H :    0.000065
   8 H :    0.031436
   9 C :   -0.058300
  10 H :    0.022836
  11 H :    0.010200
  12 C :   -0.062477
  13 H :    0.048871
  14 H :    0.049872
  15 H :    0.039845
  16 S :    0.115000
  17 C :   -0.126224
  18 C :   -0.034339
  19 C :    0.006528
  20 C :   -0.182699
  21 H :    0.011184
  22 C :    0.103460
  23 H :    0.011191
  24 H :    0.015592
  25 C :   -0.068010
  26 H :    0.024116
  27 H :    0.025239
  28 C :   -0.077129
  29 H :    0.048663
  30 H :    0.036041
  31 H :    0.025042
  32 H :    0.049966
  33 H :    0.079817
Sum of atomic charges:    0.0000000

LOEWDIN ATOMIC CHARGES
----------------------
   0 S :    0.424917
   1 C :   -0.199226
   2 C :   -0.068430
   3 C :   -0.056552
   4 C :   -0.207857
   5 H :    0.025046
   6 C :   -0.029706
   7 H :    0.022173
   8 H :    0.036242
   9 C :   -0.045222
  10 H :    0.024745
  11 H :    0.014860
  12 C :   -0.064951
  13 H :    0.030085
  14 H :    0.036499
  15 H :    0.031571
  16 S :    0.412133
  17 C :   -0.203031
  18 C :   -0.079114
  19 C :   -0.052370
  20 C :   -0.201335
  21 H :    0.028247
  22 C :   -0.032060
  23 H :    0.035580
  24 H :    0.028916
  25 C :   -0.030360
  26 H :    0.016699
  27 H :    0.024641
  28 C :   -0.074949
  29 H :    0.029556
  30 H :    0.031357
  31 H :    0.021250
  32 H :    0.028866
  33 H :    0.041778

  Mayer bond orders larger than 0.100000
B(  0-S ,  1-C ) :   1.1563 B(  0-S ,  4-C ) :   1.1684 B(  1-C ,  2-C ) :   1.5926
B(  1-C ,  4-C ) :   0.1007 B(  1-C , 32-H ) :   0.9623 B(  2-C ,  3-C ) :   1.2737
B(  2-C ,  6-C ) :   1.0124 B(  3-C ,  4-C ) :   1.5565 B(  3-C ,  5-H ) :   0.9959
B(  4-C , 20-C ) :   1.0421 B(  6-C ,  7-H ) :   0.9393 B(  6-C ,  8-H ) :   0.9237
B(  6-C ,  9-C ) :   1.0604 B(  9-C , 10-H ) :   0.9532 B(  9-C , 11-H ) :   0.9475
B(  9-C , 12-C ) :   1.0793 B( 12-C , 13-H ) :   0.9757 B( 12-C , 14-H ) :   0.9731
B( 12-C , 15-H ) :   0.9754 B( 16-S , 17-C ) :   1.1742 B( 16-S , 20-C ) :   1.1578
B( 17-C , 18-C ) :   1.5776 B( 17-C , 20-C ) :   0.1119 B( 17-C , 33-H ) :   0.9627
B( 18-C , 19-C ) :   1.2558 B( 18-C , 21-H ) :   0.9916 B( 19-C , 20-C ) :   1.5336
B( 19-C , 22-C ) :   1.0817 B( 22-C , 23-H ) :   0.9117 B( 22-C , 24-H ) :   0.9292
B( 22-C , 25-C ) :   1.0489 B( 25-C , 26-H ) :   0.9614 B( 25-C , 27-H ) :   0.9583
B( 25-C , 28-C ) :   1.0780 B( 28-C , 29-H ) :   0.9774 B( 28-C , 30-H ) :   0.9745
B( 28-C , 31-H ) :   0.9758

Dispersion correction           -0.013790569
FINAL SINGLE POINT ENERGY     -1339.865085259205

DIPOLE MOMENT
-------------
                                X             Y             Z
Electronic contribution:    -21.57402       8.55980      -4.71784
Nuclear contribution   :     22.15933      -8.56702       4.66305
                        -----------------------------------------
Total Dipole Moment    :      0.58531      -0.00722      -0.05479
                        -----------------------------------------
Magnitude (a.u.)       :      0.58791
Magnitude (Debye)      :      1.49435

Rotational constants in cm-1:     0.017170     0.007897     0.006989
Rotational constants in MHz :   514.731962   236.740687   209.521714

                             ****ORCA TERMINATED NORMALLY****
TOTAL RUN TIME: 0 days 0 hours 0 minutes 27 seconds 320 msec
