                         Program Version 4.2.1 -  RELEASE  -
|  1> ! wB97X-D3 SP def2-SVP
|  2> %pal
|  3> nprocs 16
|  4> end
|  5>
|  6> * xyz 0 1
|  7> S 	 -52.7053 	 44.4046 	 106.027
|  8> C 	 -52.6417 	 46.0896 	 106.479
|  9> C 	 -53.8822 	 46.5343 	 106.838
| 10> C 	 -54.7474 	 45.4389 	 107.059
| 11> C 	 -54.2403 	 44.2327 	 106.798
| 12> H 	 -55.7204 	 45.6125 	 107.427
| 13> C 	 -54.1929 	 47.9418 	 107.145
| 14> H 	 -55.141 	 48.0679 	 107.565
| 15> H 	 -54.1596 	 48.4188 	 106.172
| 16> C 	 -53.1471 	 48.6604 	 107.99
| 17> H 	 -53.2264 	 48.3278 	 109.008
| 18> H 	 -52.1953 	 48.3399 	 107.737
| 19> C 	 -53.2834 	 50.2461 	 107.902
| 20> H 	 -53.0965 	 50.5945 	 106.854
| 21> H 	 -54.4034 	 50.5165 	 108.099
| 22> H 	 -52.73 	 50.8899 	 108.551
| 23> S 	 -55.3635 	 42.3951 	 105.15
| 24> C 	 -56.3133 	 41.0943 	 105.771
| 25> C 	 -56.4305 	 41.2222 	 107.157
| 26> C 	 -55.8019 	 42.3287 	 107.7
| 27> C 	 -55.0649 	 42.9842 	 106.75
| 28> H 	 -57.0886 	 40.461 	 107.59
| 29> C 	 -55.9332 	 42.7325 	 109.172
| 30> H 	 -56.9856 	 42.7376 	 109.512
| 31> H 	 -55.621 	 43.7777 	 109.312
| 32> C 	 -55.1828 	 41.8596 	 110.18
| 33> H 	 -54.1649 	 41.6747 	 109.868
| 34> H 	 -55.7542 	 40.9345 	 110.151
| 35> C 	 -55.2654 	 42.5466 	 111.573
| 36> H 	 -54.6821 	 41.9679 	 112.307
| 37> H 	 -56.3257 	 42.6653 	 111.862
| 38> H 	 -54.7443 	 43.5171 	 111.631
| 39> H 	 -51.7981 	 46.7229 	 106.239
| 40> H 	 -56.8891 	 40.3793 	 105.188
| 41> *
| 42>
| 43>                          ****END OF INPUT****

CARTESIAN COORDINATES (ANGSTROEM)
---------------------------------
  S    -52.705300   44.404600  106.027000
  C    -52.641700   46.089600  106.479000
  C    -53.882200   46.534300  106.838000
  C    -54.747400   45.438900  107.059000
  C    -54.240300   44.232700  106.798000
  H    -55.720400   45.612500  107.427000
  C    -54.192900   47.941800  107.145000
  H    -55.141000   48.067900  107.565000
  H    -54.159600   48.418800  106.172000
  C    -53.147100   48.660400  107.990000
  H    -53.226400   48.327800  109.008000
  H    -52.195300   48.339900  107.737000
  C    -53.283400   50.246100  107.902000
  H    -53.096500   50.594500  106.854000
  H    -54.403400   50.516500  108.099000
  H    -52.730000   50.889900  108.551000
  S    -55.363500   42.395100  105.150000
  C    -56.313300   41.094300  105.771000
  C    -56.430500   41.222200  107.157000
  C    -55.801900   42.328700  107.700000
  C    -55.064900   42.984200  106.750000
  H    -57.088600   40.461000  107.590000
  C    -55.933200   42.732500  109.172000
  H    -56.985600   42.737600  109.512000
  H    -55.621000   43.777700  109.312000
  C    -55.182800   41.859600  110.180000
  H    -54.164900   41.674700  109.868000
  H    -55.754200   40.934500  110.151000
  C    -55.265400   42.546600  111.573000
  H    -54.682100   41.967900  112.307000
  H    -56.325700   42.665300  111.862000
  H    -54.744300   43.517100  111.631000
  H    -51.798100   46.722900  106.239000
  H    -56.889100   40.379300  105.188000

 Total Charge           Charge          ....    0
 Multiplicity           Mult            ....    1
 Number of Electrons    NEL             ....  134
 Basis Dimension        Dim             ....  322

ORBITAL ENERGIES
----------------

  NO   OCC          E(Eh)            E(eV)
   0   2.0000     -88.964905     -2420.8581
   1   2.0000     -88.963631     -2420.8235
   2   2.0000     -10.324021      -280.9309
   3   2.0000     -10.322627      -280.8930
   4   2.0000     -10.312087      -280.6061
   5   2.0000     -10.308707      -280.5142
   6   2.0000     -10.298807      -280.2448
   7   2.0000     -10.293502      -280.1004
   8   2.0000     -10.292562      -280.0749
   9   2.0000     -10.290550      -280.0201
  10   2.0000     -10.289563      -279.9932
  11   2.0000     -10.285810      -279.8911
  12   2.0000     -10.284624      -279.8588
  13   2.0000     -10.283101      -279.8174
  14   2.0000     -10.282346      -279.7969
  15   2.0000     -10.282160      -279.7918
  16   2.0000      -8.080265      -219.8752
  17   2.0000      -8.079052      -219.8422
  18   2.0000      -6.038570      -164.3179
  19   2.0000      -6.037526      -164.2894
  20   2.0000      -6.034630      -164.2106
  21   2.0000      -6.033633      -164.1835
  22   2.0000      -6.031262      -164.1190
  23   2.0000      -6.029634      -164.0747
  24   2.0000      -1.016091       -27.6493
  25   2.0000      -0.994502       -27.0618
  26   2.0000      -0.918934       -25.0055
  27   2.0000      -0.907705       -24.6999
  28   2.0000      -0.865144       -23.5418
  29   2.0000      -0.852599       -23.2004
  30   2.0000      -0.847165       -23.0525
  31   2.0000      -0.813837       -22.1456
  32   2.0000      -0.779591       -21.2137
  33   2.0000      -0.771172       -20.9846
  34   2.0000      -0.718098       -19.5404
  35   2.0000      -0.699593       -19.0369
  36   2.0000      -0.693541       -18.8722
  37   2.0000      -0.659728       -17.9521
  38   2.0000      -0.643160       -17.5013
  39   2.0000      -0.625526       -17.0214
  40   2.0000      -0.598707       -16.2916
  41   2.0000      -0.581105       -15.8127
  42   2.0000      -0.567534       -15.4434
  43   2.0000      -0.559148       -15.2152
  44   2.0000      -0.524766       -14.2796
  45   2.0000      -0.520735       -14.1699
  46   2.0000      -0.516238       -14.0475
  47   2.0000      -0.509101       -13.8533
  48   2.0000      -0.504360       -13.7243
  49   2.0000      -0.492921       -13.4131
  50   2.0000      -0.489967       -13.3327
  51   2.0000      -0.481453       -13.1010
  52   2.0000      -0.473413       -12.8822
  53   2.0000      -0.465873       -12.6771
  54   2.0000      -0.461163       -12.5489
  55   2.0000      -0.445571       -12.1246
  56   2.0000      -0.442276       -12.0350
  57   2.0000      -0.438684       -11.9372
  58   2.0000      -0.432919       -11.7803
  59   2.0000      -0.428697       -11.6654
  60   2.0000      -0.426260       -11.5991
  61   2.0000      -0.423429       -11.5221
  62   2.0000      -0.416361       -11.3298
  63   2.0000      -0.344502        -9.3744
  64   2.0000      -0.333233        -9.0677
  65   2.0000      -0.325749        -8.8641
  66   2.0000      -0.296634        -8.0718
  67   0.0000       0.040084         1.0907
  68   0.0000       0.063064         1.7161
  69   0.0000       0.115623         3.1462
  70   0.0000       0.123366         3.3570
  71   0.0000       0.142797         3.8857

MULLIKEN ATOMIC CHARGES
-----------------------
   0 S :    0.108373
   1 C :   -0.145267
   2 C :   -0.088471
   3 C :    0.048717
   4 C :   -0.129866
   5 H :   -0.009927
   6 C :    0.121864
   7 H :    0.004025
   8 H :    0.029994
   9 C :   -0.041007
  10 H :    0.025426
  11 H :    0.005683
  12 C :   -0.089275
  13 H :    0.036771
  14 H :    0.035466
  15 H :    0.038315
  16 S :    0.118441
  17 C :   -0.107819
  18 C :   -0.062987
  19 C :    0.018871
  20 C :   -0.175497
  21 H :    0.020530
  22 C :    0.036483
  23 H :    0.025436
  24 H :    0.013678
  25 C :   -0.057185
  26 H :    0.035746
  27 H :    0.027910
  28 C :   -0.061988
  29 H :    0.035207
  30 H :    0.036622
  31 H :    0.036982
  32 H :    0.052037
  33 H :    0.056710
Sum of atomic charges:    0.0000000

LOEWDIN ATOMIC CHARGES
----------------------
   0 S :    0.413134
   1 C :   -0.196410
   2 C :   -0.061635
   3 C :   -0.058507
   4 C :   -0.202974
   5 H :    0.023462
   6 C :   -0.024358
   7 H :    0.020945
   8 H :    0.038206
   9 C :   -0.027058
  10 H :    0.024423
  11 H :    0.010360
  12 C :   -0.073168
  13 H :    0.027178
  14 H :    0.033508
  15 H :    0.020161
  16 S :    0.428706
  17 C :   -0.202296
  18 C :   -0.074598
  19 C :   -0.065374
  20 C :   -0.193455
  21 H :    0.034090
  22 C :   -0.032680
  23 H :    0.031644
  24 H :    0.025181
  25 C :   -0.034864
  26 H :    0.023795
  27 H :    0.023351
  28 C :   -0.069373
  29 H :    0.027476
  30 H :    0.027494
  31 H :    0.028116
  32 H :    0.025153
  33 H :    0.030369

  Mayer bond orders larger than 0.100000
B(  0-S ,  1-C ) :   1.1401 B(  0-S ,  4-C ) :   1.1559 B(  1-C ,  2-C ) :   1.5947
B(  1-C , 32-H ) :   0.9680 B(  2-C ,  3-C ) :   1.2616 B(  2-C ,  6-C ) :   1.0245
B(  3-C ,  4-C ) :   1.5652 B(  3-C ,  5-H ) :   1.0057 B(  4-C , 20-C ) :   0.9891
B(  6-C ,  7-H ) :   0.9430 B(  6-C ,  8-H ) :   0.9214 B(  6-C ,  9-C ) :   1.0644
B(  9-C , 10-H ) :   0.9554 B(  9-C , 11-H ) :   0.9575 B(  9-C , 12-C ) :   1.0597
B( 12-C , 13-H ) :   0.9776 B( 12-C , 14-H ) :   0.9767 B( 12-C , 15-H ) :   0.9794
B( 16-S , 17-C ) :   1.1644 B( 16-S , 20-C ) :   1.1799 B( 17-C , 18-C ) :   1.5949
B( 17-C , 20-C ) :   0.1072 B( 17-C , 33-H ) :   0.9679 B( 18-C , 19-C ) :   1.2486
B( 18-C , 21-H ) :   0.9928 B( 19-C , 20-C ) :   1.5977 B( 19-C , 22-C ) :   1.0358
B( 22-C , 23-H ) :   0.9378 B( 22-C , 24-H ) :   0.9365 B( 22-C , 25-C ) :   1.0601
B( 25-C , 26-H ) :   0.9576 B( 25-C , 27-H ) :   0.9556 B( 25-C , 28-C ) :   1.0834
B( 28-C , 29-H ) :   0.9742 B( 28-C , 30-H ) :   0.9726 B( 28-C , 31-H ) :   0.9746

Dispersion correction           -0.013361530
FINAL SINGLE POINT ENERGY     -1339.872063650447

DIPOLE MOMENT
-------------
                                X             Y             Z
Electronic contribution:      2.41043     -16.37363     -22.61873
Nuclear contribution   :     -2.75262      16.78173      22.98338
                        -----------------------------------------
Total Dipole Moment    :     -0.34219       0.40810       0.36466
                        -----------------------------------------
Magnitude (a.u.)       :      0.64546
Magnitude (Debye)      :      1.64062

Rotational constants in cm-1:     0.018759     0.007894     0.006235
Rotational constants in MHz :   562.366990   236.647378   186.914519

                             ****ORCA TERMINATED NORMALLY****
TOTAL RUN TIME: 0 days 0 hours 0 minutes 27 seconds 531 msec
