                         Program Version 4.2.1 -  RELEASE  -
|  1> ! wB97X-D3 SP def2-SVP
|  2> %pal
|  3> nprocs 16
|  4> end
|  5>
|  6> * xyz 0 1
|  7> S 	 -2.88327 	 -13.4897 	 85.252
|  8> C 	 -4.18056 	 -14.5934 	 84.9726
|  9> C 	 -3.74773 	 -15.7647 	 84.3863
| 10> C 	 -2.39013 	 -15.6786 	 83.9311
| 11> C 	 -1.76782 	 -14.5391 	 84.3454
| 12> H 	 -1.74467 	 -16.4006 	 83.4713
| 13> C 	 -4.51621 	 -17.0107 	 84.1839
| 14> H 	 -4.82837 	 -17.3338 	 85.2011
| 15> H 	 -3.94668 	 -17.7655 	 83.6989
| 16> C 	 -5.74322 	 -16.8637 	 83.2719
| 17> H 	 -6.03509 	 -17.8979 	 83.191
| 18> H 	 -6.5265 	 -16.3183 	 83.856
| 19> C 	 -5.493 	 -16.2476 	 81.8781
| 20> H 	 -6.39311 	 -16.5523 	 81.3418
| 21> H 	 -5.38092 	 -15.1268 	 81.8965
| 22> H 	 -4.68461 	 -16.6881 	 81.2919
| 23> S 	 0.529497 	 -14.0856 	 85.5204
| 24> C 	 1.9357 	 -13.9818 	 84.6209
| 25> C 	 1.81108 	 -14.0491 	 83.2747
| 26> C 	 0.414569 	 -14.1779 	 82.9365
| 27> C 	 -0.413141 	 -14.223 	 84.0579
| 28> H 	 2.63303 	 -13.9808 	 82.5007
| 29> C 	 -0.0700438 	 -14.1011 	 81.4587
| 30> H 	 0.256463 	 -13.1989 	 80.91
| 31> H 	 -1.14523 	 -14.2259 	 81.4542
| 32> C 	 0.398501 	 -15.2751 	 80.5659
| 33> H 	 1.45467 	 -15.4931 	 80.8397
| 34> H 	 0.373401 	 -14.9472 	 79.4834
| 35> C 	 -0.39798 	 -16.5629 	 80.7669
| 36> H 	 -0.427831 	 -16.9295 	 81.8441
| 37> H 	 -0.0209745 	 -17.3874 	 80.0622
| 38> H 	 -1.4416 	 -16.4533 	 80.4763
| 39> H 	 -5.08249 	 -14.5994 	 85.5448
| 40> H 	 2.91141 	 -13.9707 	 85.1732
| 41> *
| 42>
| 43>                          ****END OF INPUT****

CARTESIAN COORDINATES (ANGSTROEM)
---------------------------------
  S     -2.883270  -13.489700   85.252000
  C     -4.180560  -14.593400   84.972600
  C     -3.747730  -15.764700   84.386300
  C     -2.390130  -15.678600   83.931100
  C     -1.767820  -14.539100   84.345400
  H     -1.744670  -16.400600   83.471300
  C     -4.516210  -17.010700   84.183900
  H     -4.828370  -17.333800   85.201100
  H     -3.946680  -17.765500   83.698900
  C     -5.743220  -16.863700   83.271900
  H     -6.035090  -17.897900   83.191000
  H     -6.526500  -16.318300   83.856000
  C     -5.493000  -16.247600   81.878100
  H     -6.393110  -16.552300   81.341800
  H     -5.380920  -15.126800   81.896500
  H     -4.684610  -16.688100   81.291900
  S      0.529497  -14.085600   85.520400
  C      1.935700  -13.981800   84.620900
  C      1.811080  -14.049100   83.274700
  C      0.414569  -14.177900   82.936500
  C     -0.413141  -14.223000   84.057900
  H      2.633030  -13.980800   82.500700
  C     -0.070044  -14.101100   81.458700
  H      0.256463  -13.198900   80.910000
  H     -1.145230  -14.225900   81.454200
  C      0.398501  -15.275100   80.565900
  H      1.454670  -15.493100   80.839700
  H      0.373401  -14.947200   79.483400
  C     -0.397980  -16.562900   80.766900
  H     -0.427831  -16.929500   81.844100
  H     -0.020975  -17.387400   80.062200
  H     -1.441600  -16.453300   80.476300
  H     -5.082490  -14.599400   85.544800
  H      2.911410  -13.970700   85.173200

 Total Charge           Charge          ....    0
 Multiplicity           Mult            ....    1
 Number of Electrons    NEL             ....  134
 Basis Dimension        Dim             ....  322

ORBITAL ENERGIES
----------------

  NO   OCC          E(Eh)            E(eV)
   0   2.0000     -88.964130     -2420.8371
   1   2.0000     -88.962709     -2420.7984
   2   2.0000     -10.323050      -280.9045
   3   2.0000     -10.321451      -280.8610
   4   2.0000     -10.314243      -280.6648
   5   2.0000     -10.309643      -280.5396
   6   2.0000     -10.306164      -280.4450
   7   2.0000     -10.297805      -280.2175
   8   2.0000     -10.296096      -280.1710
   9   2.0000     -10.293934      -280.1122
  10   2.0000     -10.292808      -280.0815
  11   2.0000     -10.288344      -279.9601
  12   2.0000     -10.287847      -279.9465
  13   2.0000     -10.286720      -279.9159
  14   2.0000     -10.284658      -279.8598
  15   2.0000     -10.281738      -279.7803
  16   2.0000      -8.079814      -219.8629
  17   2.0000      -8.078842      -219.8365
  18   2.0000      -6.038055      -164.3038
  19   2.0000      -6.037503      -164.2888
  20   2.0000      -6.034029      -164.1943
  21   2.0000      -6.033345      -164.1757
  22   2.0000      -6.030646      -164.1022
  23   2.0000      -6.029457      -164.0699
  24   2.0000      -1.014553       -27.6074
  25   2.0000      -0.988826       -26.9073
  26   2.0000      -0.914268       -24.8785
  27   2.0000      -0.906686       -24.6722
  28   2.0000      -0.875162       -23.8144
  29   2.0000      -0.850130       -23.1332
  30   2.0000      -0.845041       -22.9947
  31   2.0000      -0.812942       -22.1213
  32   2.0000      -0.782803       -21.3012
  33   2.0000      -0.772187       -21.0123
  34   2.0000      -0.704625       -19.1738
  35   2.0000      -0.700196       -19.0533
  36   2.0000      -0.685927       -18.6650
  37   2.0000      -0.656837       -17.8734
  38   2.0000      -0.642168       -17.4743
  39   2.0000      -0.611204       -16.6317
  40   2.0000      -0.596398       -16.2288
  41   2.0000      -0.578828       -15.7507
  42   2.0000      -0.552887       -15.0448
  43   2.0000      -0.547207       -14.8903
  44   2.0000      -0.542955       -14.7746
  45   2.0000      -0.531221       -14.4553
  46   2.0000      -0.512812       -13.9543
  47   2.0000      -0.510459       -13.8903
  48   2.0000      -0.500263       -13.6128
  49   2.0000      -0.497646       -13.5416
  50   2.0000      -0.493134       -13.4189
  51   2.0000      -0.479305       -13.0426
  52   2.0000      -0.472173       -12.8485
  53   2.0000      -0.464825       -12.6485
  54   2.0000      -0.459628       -12.5071
  55   2.0000      -0.449238       -12.2244
  56   2.0000      -0.443101       -12.0574
  57   2.0000      -0.433554       -11.7976
  58   2.0000      -0.432459       -11.7678
  59   2.0000      -0.422481       -11.4963
  60   2.0000      -0.418724       -11.3940
  61   2.0000      -0.414518       -11.2796
  62   2.0000      -0.411344       -11.1932
  63   2.0000      -0.346183        -9.4201
  64   2.0000      -0.332213        -9.0400
  65   2.0000      -0.326902        -8.8955
  66   2.0000      -0.293941        -7.9986
  67   0.0000       0.035524         0.9667
  68   0.0000       0.066509         1.8098
  69   0.0000       0.115625         3.1463
  70   0.0000       0.119375         3.2484
  71   0.0000       0.129349         3.5198

MULLIKEN ATOMIC CHARGES
-----------------------
   0 S :    0.111117
   1 C :   -0.098842
   2 C :   -0.101196
   3 C :    0.041602
   4 C :   -0.148396
   5 H :   -0.013076
   6 C :    0.077259
   7 H :    0.038586
   8 H :    0.008214
   9 C :   -0.090516
  10 H :    0.025059
  11 H :    0.033925
  12 C :   -0.058312
  13 H :    0.034559
  14 H :    0.061491
  15 H :    0.030005
  16 S :    0.114429
  17 C :   -0.091760
  18 C :   -0.045147
  19 C :   -0.046286
  20 C :   -0.182133
  21 H :    0.044679
  22 C :    0.075429
  23 H :    0.046029
  24 H :    0.021193
  25 C :   -0.104695
  26 H :    0.029664
  27 H :    0.042073
  28 C :   -0.101313
  29 H :    0.057097
  30 H :    0.046001
  31 H :    0.029651
  32 H :    0.042489
  33 H :    0.071119
Sum of atomic charges:   -0.0000000

LOEWDIN ATOMIC CHARGES
----------------------
   0 S :    0.397550
   1 C :   -0.211978
   2 C :   -0.057615
   3 C :   -0.060396
   4 C :   -0.192384
   5 H :    0.027679
   6 C :   -0.035972
   7 H :    0.038140
   8 H :    0.023287
   9 C :   -0.038275
  10 H :    0.021866
  11 H :    0.025465
  12 C :   -0.072344
  13 H :    0.030522
  14 H :    0.037061
  15 H :    0.024074
  16 S :    0.442485
  17 C :   -0.206371
  18 C :   -0.085320
  19 C :   -0.051126
  20 C :   -0.203160
  21 H :    0.044735
  22 C :   -0.029567
  23 H :    0.037615
  24 H :    0.027786
  25 C :   -0.050097
  26 H :    0.021929
  27 H :    0.030611
  28 C :   -0.080275
  29 H :    0.029824
  30 H :    0.035705
  31 H :    0.019869
  32 H :    0.023622
  33 H :    0.035055

  Mayer bond orders larger than 0.100000
B(  0-S ,  1-C ) :   1.1290 B(  0-S ,  4-C ) :   1.1358 B(  1-C ,  2-C ) :   1.6242
B(  1-C , 32-H ) :   0.9618 B(  2-C ,  3-C ) :   1.2127 B(  2-C ,  6-C ) :   1.0347
B(  3-C ,  4-C ) :   1.6043 B(  3-C ,  5-H ) :   0.9956 B(  4-C , 20-C ) :   1.0267
B(  6-C ,  7-H ) :   0.9306 B(  6-C ,  8-H ) :   0.9418 B(  6-C ,  9-C ) :   1.0791
B(  9-C , 10-H ) :   0.9614 B(  9-C , 11-H ) :   0.9536 B(  9-C , 12-C ) :   1.0701
B( 12-C , 13-H ) :   0.9726 B( 12-C , 14-H ) :   0.9709 B( 12-C , 15-H ) :   0.9757
B( 16-S , 17-C ) :   1.1863 B( 16-S , 20-C ) :   1.1496 B( 17-C , 18-C ) :   1.6018
B( 17-C , 33-H ) :   0.9562 B( 18-C , 19-C ) :   1.2323 B( 18-C , 21-H ) :   0.9829
B( 19-C , 20-C ) :   1.6116 B( 19-C , 22-C ) :   1.0378 B( 22-C , 23-H ) :   0.9453
B( 22-C , 24-H ) :   0.9409 B( 22-C , 25-C ) :   1.0527 B( 25-C , 26-H ) :   0.9581
B( 25-C , 27-H ) :   0.9558 B( 25-C , 28-C ) :   1.0798 B( 28-C , 29-H ) :   0.9670
B( 28-C , 30-H ) :   0.9690 B( 28-C , 31-H ) :   0.9724

Dispersion correction           -0.015358612
FINAL SINGLE POINT ENERGY     -1339.877514353430

DIPOLE MOMENT
-------------
                                X             Y             Z
Electronic contribution:     10.22640      15.61090      22.40791
Nuclear contribution   :    -10.20130     -16.10846     -22.79924
                        -----------------------------------------
Total Dipole Moment    :      0.02510      -0.49756      -0.39133
                        -----------------------------------------
Magnitude (a.u.)       :      0.63351
Magnitude (Debye)      :      1.61026

Rotational constants in cm-1:     0.019115     0.009861     0.007220
Rotational constants in MHz :   573.043471   295.611010   216.461927

                             ****ORCA TERMINATED NORMALLY****
TOTAL RUN TIME: 0 days 0 hours 0 minutes 35 seconds 523 msec
