                         Program Version 4.2.1 -  RELEASE  -
|  1> ! wB97X-D3 SP def2-SVP
|  2> %pal
|  3> nprocs 16
|  4> end
|  5>
|  6> * xyz 0 1
|  7> S 	 1.28501 	 77.0125 	 45.999
|  8> C 	 -0.020325 	 75.9804 	 46.6316
|  9> C 	 0.155444 	 74.6752 	 46.2092
| 10> C 	 1.25159 	 74.6137 	 45.2728
| 11> C 	 1.94017 	 75.8113 	 45.0033
| 12> H 	 1.44645 	 73.7218 	 44.65
| 13> C 	 -0.743799 	 73.5824 	 46.6063
| 14> H 	 -0.591035 	 73.4851 	 47.6999
| 15> H 	 -0.388 	 72.6855 	 46.1131
| 16> C 	 -2.17799 	 73.7961 	 46.2541
| 17> H 	 -2.66027 	 73.1157 	 46.8958
| 18> H 	 -2.59422 	 74.8182 	 46.4262
| 19> C 	 -2.41773 	 73.4791 	 44.7651
| 20> H 	 -3.48162 	 73.6913 	 44.4177
| 21> H 	 -1.8431 	 74.1018 	 44.0843
| 22> H 	 -2.27503 	 72.4038 	 44.5519
| 23> S 	 2.55766 	 75.9832 	 42.2838
| 24> C 	 4.20796 	 75.9166 	 41.7657
| 25> C 	 5.00465 	 76.2832 	 42.8163
| 26> C 	 4.34997 	 76.4134 	 44.0972
| 27> C 	 2.98701 	 76.0869 	 44.004
| 28> H 	 6.06463 	 76.2247 	 42.5884
| 29> C 	 5.17651 	 76.6973 	 45.3714
| 30> H 	 6.24556 	 76.6496 	 45.1334
| 31> H 	 4.9283 	 76.0263 	 46.1802
| 32> C 	 5.04193 	 78.092 	 46.0912
| 33> H 	 5.55315 	 78.0105 	 47.0679
| 34> H 	 4.0143 	 78.4617 	 46.3005
| 35> C 	 5.7716 	 79.1544 	 45.3011
| 36> H 	 5.60308 	 79.9553 	 45.9961
| 37> H 	 5.40656 	 79.424 	 44.2803
| 38> H 	 6.83471 	 78.9669 	 45.1348
| 39> H 	 -0.890959 	 76.2196 	 47.2648
| 40> H 	 4.47442 	 75.8425 	 40.7032
| 41> *
| 42>
| 43>                          ****END OF INPUT****

CARTESIAN COORDINATES (ANGSTROEM)
---------------------------------
  S      1.285010   77.012500   45.999000
  C     -0.020325   75.980400   46.631600
  C      0.155444   74.675200   46.209200
  C      1.251590   74.613700   45.272800
  C      1.940170   75.811300   45.003300
  H      1.446450   73.721800   44.650000
  C     -0.743799   73.582400   46.606300
  H     -0.591035   73.485100   47.699900
  H     -0.388000   72.685500   46.113100
  C     -2.177990   73.796100   46.254100
  H     -2.660270   73.115700   46.895800
  H     -2.594220   74.818200   46.426200
  C     -2.417730   73.479100   44.765100
  H     -3.481620   73.691300   44.417700
  H     -1.843100   74.101800   44.084300
  H     -2.275030   72.403800   44.551900
  S      2.557660   75.983200   42.283800
  C      4.207960   75.916600   41.765700
  C      5.004650   76.283200   42.816300
  C      4.349970   76.413400   44.097200
  C      2.987010   76.086900   44.004000
  H      6.064630   76.224700   42.588400
  C      5.176510   76.697300   45.371400
  H      6.245560   76.649600   45.133400
  H      4.928300   76.026300   46.180200
  C      5.041930   78.092000   46.091200
  H      5.553150   78.010500   47.067900
  H      4.014300   78.461700   46.300500
  C      5.771600   79.154400   45.301100
  H      5.603080   79.955300   45.996100
  H      5.406560   79.424000   44.280300
  H      6.834710   78.966900   45.134800
  H     -0.890959   76.219600   47.264800
  H      4.474420   75.842500   40.703200

 Total Charge           Charge          ....    0
 Multiplicity           Mult            ....    1
 Number of Electrons    NEL             ....  134
 Basis Dimension        Dim             ....  322

ORBITAL ENERGIES
----------------

  NO   OCC          E(Eh)            E(eV)
   0   2.0000     -88.967259     -2420.9222
   1   2.0000     -88.961042     -2420.7530
   2   2.0000     -10.333557      -281.1904
   3   2.0000     -10.329911      -281.0912
   4   2.0000     -10.316421      -280.7241
   5   2.0000     -10.314985      -280.6850
   6   2.0000     -10.312775      -280.6249
   7   2.0000     -10.298001      -280.2229
   8   2.0000     -10.297747      -280.2159
   9   2.0000     -10.293872      -280.1105
  10   2.0000     -10.292247      -280.0663
  11   2.0000     -10.289767      -279.9988
  12   2.0000     -10.288107      -279.9536
  13   2.0000     -10.287361      -279.9333
  14   2.0000     -10.283031      -279.8155
  15   2.0000     -10.270126      -279.4643
  16   2.0000      -8.081883      -219.9192
  17   2.0000      -8.075981      -219.7586
  18   2.0000      -6.040382      -164.3672
  19   2.0000      -6.036193      -164.2532
  20   2.0000      -6.034492      -164.2069
  21   2.0000      -6.032852      -164.1622
  22   2.0000      -6.030427      -164.0963
  23   2.0000      -6.026741      -163.9960
  24   2.0000      -1.005200       -27.3529
  25   2.0000      -0.985104       -26.8060
  26   2.0000      -0.926286       -25.2055
  27   2.0000      -0.903210       -24.5776
  28   2.0000      -0.867371       -23.6024
  29   2.0000      -0.845839       -23.0165
  30   2.0000      -0.841948       -22.9106
  31   2.0000      -0.809781       -22.0352
  32   2.0000      -0.783780       -21.3277
  33   2.0000      -0.772970       -21.0336
  34   2.0000      -0.709475       -19.3058
  35   2.0000      -0.704572       -19.1724
  36   2.0000      -0.684170       -18.6172
  37   2.0000      -0.655914       -17.8483
  38   2.0000      -0.630782       -17.1644
  39   2.0000      -0.610304       -16.6072
  40   2.0000      -0.594086       -16.1659
  41   2.0000      -0.582832       -15.8597
  42   2.0000      -0.558766       -15.2048
  43   2.0000      -0.549448       -14.9512
  44   2.0000      -0.543283       -14.7835
  45   2.0000      -0.538523       -14.6540
  46   2.0000      -0.518439       -14.1074
  47   2.0000      -0.511793       -13.9266
  48   2.0000      -0.505604       -13.7582
  49   2.0000      -0.495121       -13.4729
  50   2.0000      -0.491907       -13.3855
  51   2.0000      -0.478757       -13.0276
  52   2.0000      -0.472017       -12.8442
  53   2.0000      -0.460690       -12.5360
  54   2.0000      -0.457974       -12.4621
  55   2.0000      -0.441705       -12.0194
  56   2.0000      -0.439696       -11.9647
  57   2.0000      -0.432040       -11.7564
  58   2.0000      -0.426801       -11.6139
  59   2.0000      -0.426492       -11.6054
  60   2.0000      -0.418546       -11.3892
  61   2.0000      -0.414151       -11.2696
  62   2.0000      -0.405363       -11.0305
  63   2.0000      -0.334026        -9.0893
  64   2.0000      -0.328761        -8.9460
  65   2.0000      -0.324284        -8.8242
  66   2.0000      -0.301729        -8.2105
  67   0.0000       0.031992         0.8706
  68   0.0000       0.059404         1.6165
  69   0.0000       0.111197         3.0258
  70   0.0000       0.116483         3.1697
  71   0.0000       0.131146         3.5687

MULLIKEN ATOMIC CHARGES
-----------------------
   0 S :    0.123454
   1 C :   -0.136636
   2 C :   -0.124373
   3 C :    0.034809
   4 C :   -0.168803
   5 H :    0.017742
   6 C :    0.081106
   7 H :    0.047009
   8 H :    0.013681
   9 C :   -0.041482
  10 H :    0.019525
  11 H :    0.038228
  12 C :   -0.088156
  13 H :    0.035375
  14 H :    0.044144
  15 H :    0.034853
  16 S :    0.102546
  17 C :   -0.114644
  18 C :   -0.051504
  19 C :    0.024711
  20 C :   -0.176398
  21 H :    0.027046
  22 C :    0.069903
  23 H :    0.018366
  24 H :    0.035458
  25 C :   -0.095678
  26 H :    0.033633
  27 H :    0.038771
  28 C :   -0.067249
  29 H :    0.028780
  30 H :    0.044797
  31 H :    0.024587
  32 H :    0.053838
  33 H :    0.072557
Sum of atomic charges:   -0.0000000

LOEWDIN ATOMIC CHARGES
----------------------
   0 S :    0.432710
   1 C :   -0.199418
   2 C :   -0.067314
   3 C :   -0.067529
   4 C :   -0.225780
   5 H :    0.031775
   6 C :   -0.033946
   7 H :    0.041009
   8 H :    0.031466
   9 C :   -0.037154
  10 H :    0.020351
  11 H :    0.029268
  12 C :   -0.070576
  13 H :    0.031138
  14 H :    0.026864
  15 H :    0.025464
  16 S :    0.401700
  17 C :   -0.192266
  18 C :   -0.081781
  19 C :   -0.048553
  20 C :   -0.193045
  21 H :    0.032869
  22 C :   -0.033081
  23 H :    0.030973
  24 H :    0.031798
  25 C :   -0.039866
  26 H :    0.029269
  27 H :    0.021967
  28 C :   -0.075000
  29 H :    0.026240
  30 H :    0.029142
  31 H :    0.020191
  32 H :    0.034525
  33 H :    0.036589

  Mayer bond orders larger than 0.100000
B(  0-S ,  1-C ) :   1.1461 B(  0-S ,  4-C ) :   1.1780 B(  1-C ,  2-C ) :   1.5871
B(  1-C , 32-H ) :   0.9646 B(  2-C ,  3-C ) :   1.2633 B(  2-C ,  6-C ) :   1.0245
B(  3-C ,  4-C ) :   1.5508 B(  3-C ,  5-H ) :   0.9890 B(  4-C , 20-C ) :   1.0168
B(  6-C ,  7-H ) :   0.9293 B(  6-C ,  8-H ) :   0.9346 B(  6-C ,  9-C ) :   1.0730
B(  9-C , 10-H ) :   0.9507 B(  9-C , 11-H ) :   0.9590 B(  9-C , 12-C ) :   1.0696
B( 12-C , 13-H ) :   0.9745 B( 12-C , 14-H ) :   0.9778 B( 12-C , 15-H ) :   0.9748
B( 16-S , 17-C ) :   1.1580 B( 16-S , 20-C ) :   1.1506 B( 17-C , 18-C ) :   1.6139
B( 17-C , 20-C ) :   0.1011 B( 17-C , 33-H ) :   0.9652 B( 18-C , 19-C ) :   1.2288
B( 18-C , 21-H ) :   0.9877 B( 19-C , 20-C ) :   1.5795 B( 19-C , 22-C ) :   1.0447
B( 22-C , 23-H ) :   0.9401 B( 22-C , 24-H ) :   0.9351 B( 22-C , 25-C ) :   1.0680
B( 25-C , 26-H ) :   0.9545 B( 25-C , 27-H ) :   0.9560 B( 25-C , 28-C ) :   1.0673
B( 28-C , 29-H ) :   0.9771 B( 28-C , 30-H ) :   0.9771 B( 28-C , 31-H ) :   0.9741

Dispersion correction           -0.014415116
FINAL SINGLE POINT ENERGY     -1339.864822045029

DIPOLE MOMENT
-------------
                                X             Y             Z
Electronic contribution:      1.82494       2.74342      -8.17953
Nuclear contribution   :     -1.82948      -3.06723       8.37414
                        -----------------------------------------
Total Dipole Moment    :     -0.00455      -0.32381       0.19461
                        -----------------------------------------
Magnitude (a.u.)       :      0.37782
Magnitude (Debye)      :      0.96034

Rotational constants in cm-1:     0.023813     0.007829     0.006402
Rotational constants in MHz :   713.887962   234.697579   191.941231

                             ****ORCA TERMINATED NORMALLY****
TOTAL RUN TIME: 0 days 0 hours 0 minutes 32 seconds 862 msec
