                         Program Version 4.2.1 -  RELEASE  -
|  1> ! wB97X-D3 SP def2-SVP
|  2> %pal
|  3> nprocs 16
|  4> end
|  5>
|  6> * xyz 0 1
|  7> S 	 -37.2268 	 30.0051 	 79.7808
|  8> C 	 -36.3596 	 30.5573 	 78.3031
|  9> C 	 -36.2402 	 31.974 	 78.3802
| 10> C 	 -37.0249 	 32.585 	 79.4761
| 11> C 	 -37.7115 	 31.6307 	 80.2572
| 12> H 	 -36.941 	 33.6279 	 79.7509
| 13> C 	 -35.5105 	 32.9228 	 77.4655
| 14> H 	 -34.7386 	 32.3927 	 76.8954
| 15> H 	 -34.8245 	 33.4981 	 78.0821
| 16> C 	 -36.4794 	 33.7976 	 76.6639
| 17> H 	 -37.0217 	 33.1846 	 75.9418
| 18> H 	 -37.2776 	 34.1886 	 77.3389
| 19> C 	 -35.7245 	 34.9203 	 75.8556
| 20> H 	 -35.1136 	 34.5743 	 74.9897
| 21> H 	 -36.4229 	 35.6254 	 75.4235
| 22> H 	 -35.2112 	 35.5892 	 76.4683
| 23> S 	 -37.6095 	 31.4256 	 82.9731
| 24> C 	 -38.9276 	 31.9142 	 83.9558
| 25> C 	 -39.926 	 32.4697 	 83.1806
| 26> C 	 -39.6201 	 32.4495 	 81.7698
| 27> C 	 -38.382 	 31.8382 	 81.5427
| 28> H 	 -40.8399 	 32.8269 	 83.6823
| 29> C 	 -40.5855 	 33.0481 	 80.7803
| 30> H 	 -40.1259 	 33.8016 	 80.0999
| 31> H 	 -41.3137 	 33.6624 	 81.3898
| 32> C 	 -41.3788 	 32.0253 	 79.8708
| 33> H 	 -42.0549 	 31.5685 	 80.6049
| 34> H 	 -40.702 	 31.3601 	 79.3799
| 35> C 	 -42.268 	 32.7139 	 78.8582
| 36> H 	 -43.0864 	 32.1876 	 78.3859
| 37> H 	 -41.7346 	 33.1641 	 78.1
| 38> H 	 -42.7171 	 33.5838 	 79.2395
| 39> H 	 -35.6572 	 29.9034 	 77.7185
| 40> H 	 -38.9682 	 32.0903 	 85.0712
| 41> *
| 42>
| 43>                          ****END OF INPUT****

CARTESIAN COORDINATES (ANGSTROEM)
---------------------------------
  S    -37.226800   30.005100   79.780800
  C    -36.359600   30.557300   78.303100
  C    -36.240200   31.974000   78.380200
  C    -37.024900   32.585000   79.476100
  C    -37.711500   31.630700   80.257200
  H    -36.941000   33.627900   79.750900
  C    -35.510500   32.922800   77.465500
  H    -34.738600   32.392700   76.895400
  H    -34.824500   33.498100   78.082100
  C    -36.479400   33.797600   76.663900
  H    -37.021700   33.184600   75.941800
  H    -37.277600   34.188600   77.338900
  C    -35.724500   34.920300   75.855600
  H    -35.113600   34.574300   74.989700
  H    -36.422900   35.625400   75.423500
  H    -35.211200   35.589200   76.468300
  S    -37.609500   31.425600   82.973100
  C    -38.927600   31.914200   83.955800
  C    -39.926000   32.469700   83.180600
  C    -39.620100   32.449500   81.769800
  C    -38.382000   31.838200   81.542700
  H    -40.839900   32.826900   83.682300
  C    -40.585500   33.048100   80.780300
  H    -40.125900   33.801600   80.099900
  H    -41.313700   33.662400   81.389800
  C    -41.378800   32.025300   79.870800
  H    -42.054900   31.568500   80.604900
  H    -40.702000   31.360100   79.379900
  C    -42.268000   32.713900   78.858200
  H    -43.086400   32.187600   78.385900
  H    -41.734600   33.164100   78.100000
  H    -42.717100   33.583800   79.239500
  H    -35.657200   29.903400   77.718500
  H    -38.968200   32.090300   85.071200

 Total Charge           Charge          ....    0
 Multiplicity           Mult            ....    1
 Number of Electrons    NEL             ....  134
 Basis Dimension        Dim             ....  322

ORBITAL ENERGIES
----------------

  NO   OCC          E(Eh)            E(eV)
   0   2.0000     -88.969526     -2420.9839
   1   2.0000     -88.965967     -2420.8870
   2   2.0000     -10.337111      -281.2871
   3   2.0000     -10.326823      -281.0071
   4   2.0000     -10.323416      -280.9144
   5   2.0000     -10.316175      -280.7174
   6   2.0000     -10.312266      -280.6110
   7   2.0000     -10.304468      -280.3988
   8   2.0000     -10.302618      -280.3485
   9   2.0000     -10.297328      -280.2045
  10   2.0000     -10.295486      -280.1544
  11   2.0000     -10.294864      -280.1375
  12   2.0000     -10.292721      -280.0792
  13   2.0000     -10.282847      -279.8105
  14   2.0000     -10.278478      -279.6916
  15   2.0000     -10.260016      -279.1892
  16   2.0000      -8.085761      -220.0247
  17   2.0000      -8.079573      -219.8564
  18   2.0000      -6.044135      -164.4693
  19   2.0000      -6.039888      -164.3537
  20   2.0000      -6.038245      -164.3090
  21   2.0000      -6.036720      -164.2675
  22   2.0000      -6.034186      -164.1985
  23   2.0000      -6.030256      -164.0916
  24   2.0000      -1.012134       -27.5416
  25   2.0000      -0.976482       -26.5714
  26   2.0000      -0.909583       -24.7510
  27   2.0000      -0.904591       -24.6152
  28   2.0000      -0.866420       -23.5765
  29   2.0000      -0.853987       -23.2382
  30   2.0000      -0.840077       -22.8597
  31   2.0000      -0.812301       -22.1038
  32   2.0000      -0.781231       -21.2584
  33   2.0000      -0.770098       -20.9554
  34   2.0000      -0.711944       -19.3730
  35   2.0000      -0.704376       -19.1671
  36   2.0000      -0.688918       -18.7464
  37   2.0000      -0.658222       -17.9111
  38   2.0000      -0.638105       -17.3637
  39   2.0000      -0.620217       -16.8770
  40   2.0000      -0.591893       -16.1062
  41   2.0000      -0.565758       -15.3951
  42   2.0000      -0.560608       -15.2549
  43   2.0000      -0.554669       -15.0933
  44   2.0000      -0.521724       -14.1968
  45   2.0000      -0.519752       -14.1432
  46   2.0000      -0.516458       -14.0535
  47   2.0000      -0.508292       -13.8313
  48   2.0000      -0.506116       -13.7721
  49   2.0000      -0.501537       -13.6475
  50   2.0000      -0.493252       -13.4221
  51   2.0000      -0.481571       -13.1042
  52   2.0000      -0.465219       -12.6593
  53   2.0000      -0.461421       -12.5559
  54   2.0000      -0.457803       -12.4575
  55   2.0000      -0.447190       -12.1687
  56   2.0000      -0.446048       -12.1376
  57   2.0000      -0.438424       -11.9301
  58   2.0000      -0.431454       -11.7405
  59   2.0000      -0.423977       -11.5370
  60   2.0000      -0.422507       -11.4970
  61   2.0000      -0.414722       -11.2852
  62   2.0000      -0.412658       -11.2290
  63   2.0000      -0.341777        -9.3002
  64   2.0000      -0.327954        -8.9241
  65   2.0000      -0.322685        -8.7807
  66   2.0000      -0.301909        -8.2154
  67   0.0000       0.032940         0.8964
  68   0.0000       0.058652         1.5960
  69   0.0000       0.103235         2.8092
  70   0.0000       0.119823         3.2605
  71   0.0000       0.130082         3.5397

MULLIKEN ATOMIC CHARGES
-----------------------
   0 S :    0.089310
   1 C :   -0.120750
   2 C :   -0.129556
   3 C :    0.035372
   4 C :   -0.153168
   5 H :    0.028996
   6 C :    0.076316
   7 H :    0.011010
   8 H :    0.021977
   9 C :   -0.081898
  10 H :    0.033880
  11 H :    0.040328
  12 C :   -0.032823
  13 H :    0.046736
  14 H :    0.019370
  15 H :    0.014638
  16 S :    0.146493
  17 C :   -0.114860
  18 C :   -0.067604
  19 C :   -0.005303
  20 C :   -0.170755
  21 H :    0.030166
  22 C :    0.011517
  23 H :    0.028298
  24 H :    0.022728
  25 C :   -0.045152
  26 H :    0.030742
  27 H :    0.043975
  28 C :    0.007823
  29 H :    0.033104
  30 H :   -0.001426
  31 H :   -0.007520
  32 H :    0.079249
  33 H :    0.078788
Sum of atomic charges:    0.0000000

LOEWDIN ATOMIC CHARGES
----------------------
   0 S :    0.384016
   1 C :   -0.206605
   2 C :   -0.052433
   3 C :   -0.060946
   4 C :   -0.188609
   5 H :    0.032669
   6 C :   -0.042564
   7 H :    0.028878
   8 H :    0.031691
   9 C :   -0.035441
  10 H :    0.027952
  11 H :    0.030114
  12 C :   -0.069708
  13 H :    0.033287
  14 H :    0.027015
  15 H :    0.015216
  16 S :    0.464572
  17 C :   -0.221084
  18 C :   -0.075971
  19 C :   -0.057450
  20 C :   -0.235045
  21 H :    0.035411
  22 C :   -0.037549
  23 H :    0.028665
  24 H :    0.033093
  25 C :   -0.027861
  26 H :    0.027920
  27 H :    0.023810
  28 C :   -0.067076
  29 H :    0.028758
  30 H :    0.015512
  31 H :    0.019054
  32 H :    0.042825
  33 H :    0.047885

  Mayer bond orders larger than 0.100000
B(  0-S ,  1-C ) :   1.1184 B(  0-S ,  4-C ) :   1.1520 B(  1-C ,  2-C ) :   1.6159
B(  1-C , 32-H ) :   0.9591 B(  2-C ,  3-C ) :   1.2256 B(  2-C ,  6-C ) :   1.0387
B(  3-C ,  4-C ) :   1.5766 B(  3-C ,  5-H ) :   0.9856 B(  4-C , 20-C ) :   1.0177
B(  6-C ,  7-H ) :   0.9400 B(  6-C ,  8-H ) :   0.9368 B(  6-C ,  9-C ) :   1.0441
B(  9-C , 10-H ) :   0.9553 B(  9-C , 11-H ) :   0.9590 B(  9-C , 12-C ) :   1.0742
B( 12-C , 13-H ) :   0.9765 B( 12-C , 14-H ) :   0.9714 B( 12-C , 15-H ) :   0.9752
B( 16-S , 17-C ) :   1.1692 B( 16-S , 20-C ) :   1.1852 B( 17-C , 18-C ) :   1.6015
B( 17-C , 33-H ) :   0.9551 B( 18-C , 19-C ) :   1.2796 B( 18-C , 21-H ) :   0.9821
B( 19-C , 20-C ) :   1.5501 B( 19-C , 22-C ) :   1.0449 B( 22-C , 23-H ) :   0.9375
B( 22-C , 24-H ) :   0.9355 B( 22-C , 25-C ) :   1.0544 B( 25-C , 26-H ) :   0.9560
B( 25-C , 27-H ) :   0.9624 B( 25-C , 28-C ) :   1.0829 B( 28-C , 29-H ) :   0.9742
B( 28-C , 30-H ) :   0.9668 B( 28-C , 31-H ) :   0.9627

Dispersion correction           -0.013922139
FINAL SINGLE POINT ENERGY     -1339.861867530832

DIPOLE MOMENT
-------------
                                X             Y             Z
Electronic contribution:      8.61062     -17.53001      21.54801
Nuclear contribution   :     -8.55835      18.21431     -21.73481
                        -----------------------------------------
Total Dipole Moment    :      0.05227       0.68430      -0.18679
                        -----------------------------------------
Magnitude (a.u.)       :      0.71126
Magnitude (Debye)      :      1.80788

Rotational constants in cm-1:     0.017013     0.008615     0.007020
Rotational constants in MHz :   510.030889   258.259424   210.445690

                             ****ORCA TERMINATED NORMALLY****
TOTAL RUN TIME: 0 days 0 hours 0 minutes 27 seconds 874 msec
