                         Program Version 4.2.1 -  RELEASE  -
|  1> ! wB97X-D3 SP def2-SVP
|  2> %pal
|  3> nprocs 16
|  4> end
|  5>
|  6> * xyz 0 1
|  7> S 	 58.5089 	 6.92046 	 75.5495
|  8> C 	 58.3662 	 8.56091 	 76.1932
|  9> C 	 57.415 	 9.29743 	 75.4741
| 10> C 	 56.8221 	 8.55219 	 74.3808
| 11> C 	 57.2673 	 7.24269 	 74.2409
| 12> H 	 56.0063 	 8.82648 	 73.6815
| 13> C 	 57.1835 	 10.7758 	 75.5596
| 14> H 	 57.426 	 11.2818 	 76.5023
| 15> H 	 56.0694 	 11.0034 	 75.7041
| 16> C 	 57.8567 	 11.4738 	 74.3273
| 17> H 	 58.9485 	 11.3554 	 74.3883
| 18> H 	 57.5877 	 11.0344 	 73.3465
| 19> C 	 57.6054 	 13.0547 	 74.3476
| 20> H 	 56.543 	 13.2422 	 74.3603
| 21> H 	 57.869 	 13.5436 	 75.2496
| 22> H 	 58.0455 	 13.4946 	 73.4768
| 23> S 	 55.3002 	 5.47771 	 73.2787
| 24> C 	 55.9123 	 4.27364 	 72.1222
| 25> C 	 57.1227 	 4.58278 	 71.5856
| 26> C 	 57.7684 	 5.58783 	 72.35
| 27> C 	 56.8954 	 6.21828 	 73.2887
| 28> H 	 57.4572 	 4.02823 	 70.739
| 29> C 	 59.1199 	 6.14862 	 71.987
| 30> H 	 59.6575 	 5.35267 	 71.4197
| 31> H 	 59.581 	 6.53634 	 72.9144
| 32> C 	 59.0667 	 7.54005 	 71.2309
| 33> H 	 60.0903 	 7.89234 	 70.9704
| 34> H 	 58.5881 	 8.30393 	 71.7698
| 35> C 	 58.246 	 7.48828 	 69.8992
| 36> H 	 57.7761 	 8.48771 	 69.5873
| 37> H 	 57.4425 	 6.72643 	 70.0483
| 38> H 	 58.8969 	 7.12182 	 69.111
| 39> H 	 58.8678 	 8.89787 	 77.1107
| 40> H 	 55.3181 	 3.5926 	 71.61
| 41> *
| 42>
| 43>                          ****END OF INPUT****

CARTESIAN COORDINATES (ANGSTROEM)
---------------------------------
  S     58.508900    6.920460   75.549500
  C     58.366200    8.560910   76.193200
  C     57.415000    9.297430   75.474100
  C     56.822100    8.552190   74.380800
  C     57.267300    7.242690   74.240900
  H     56.006300    8.826480   73.681500
  C     57.183500   10.775800   75.559600
  H     57.426000   11.281800   76.502300
  H     56.069400   11.003400   75.704100
  C     57.856700   11.473800   74.327300
  H     58.948500   11.355400   74.388300
  H     57.587700   11.034400   73.346500
  C     57.605400   13.054700   74.347600
  H     56.543000   13.242200   74.360300
  H     57.869000   13.543600   75.249600
  H     58.045500   13.494600   73.476800
  S     55.300200    5.477710   73.278700
  C     55.912300    4.273640   72.122200
  C     57.122700    4.582780   71.585600
  C     57.768400    5.587830   72.350000
  C     56.895400    6.218280   73.288700
  H     57.457200    4.028230   70.739000
  C     59.119900    6.148620   71.987000
  H     59.657500    5.352670   71.419700
  H     59.581000    6.536340   72.914400
  C     59.066700    7.540050   71.230900
  H     60.090300    7.892340   70.970400
  H     58.588100    8.303930   71.769800
  C     58.246000    7.488280   69.899200
  H     57.776100    8.487710   69.587300
  H     57.442500    6.726430   70.048300
  H     58.896900    7.121820   69.111000
  H     58.867800    8.897870   77.110700
  H     55.318100    3.592600   71.610000

 Total Charge           Charge          ....    0
 Multiplicity           Mult            ....    1
 Number of Electrons    NEL             ....  134
 Basis Dimension        Dim             ....  322

ORBITAL ENERGIES
----------------

  NO   OCC          E(Eh)            E(eV)
   0   2.0000     -88.973084     -2421.0807
   1   2.0000     -88.965036     -2420.8617
   2   2.0000     -10.336253      -281.2637
   3   2.0000     -10.330017      -281.0941
   4   2.0000     -10.322278      -280.8835
   5   2.0000     -10.314138      -280.6620
   6   2.0000     -10.308987      -280.5218
   7   2.0000     -10.307505      -280.4815
   8   2.0000     -10.302756      -280.3522
   9   2.0000     -10.301513      -280.3184
  10   2.0000     -10.297839      -280.2184
  11   2.0000     -10.295357      -280.1509
  12   2.0000     -10.294017      -280.1144
  13   2.0000     -10.283786      -279.8360
  14   2.0000     -10.276894      -279.6485
  15   2.0000     -10.275569      -279.6125
  16   2.0000      -8.086915      -220.0561
  17   2.0000      -8.077967      -219.8126
  18   2.0000      -6.045396      -164.5036
  19   2.0000      -6.041729      -164.4038
  20   2.0000      -6.037578      -164.2909
  21   2.0000      -6.036642      -164.2654
  22   2.0000      -6.032672      -164.1574
  23   2.0000      -6.028678      -164.0487
  24   2.0000      -1.000829       -27.2340
  25   2.0000      -0.976566       -26.5737
  26   2.0000      -0.903547       -24.5868
  27   2.0000      -0.899795       -24.4847
  28   2.0000      -0.871024       -23.7018
  29   2.0000      -0.843958       -22.9653
  30   2.0000      -0.839503       -22.8441
  31   2.0000      -0.817088       -22.2341
  32   2.0000      -0.777428       -21.1549
  33   2.0000      -0.764217       -20.7954
  34   2.0000      -0.713608       -19.4183
  35   2.0000      -0.703260       -19.1367
  36   2.0000      -0.684515       -18.6266
  37   2.0000      -0.665626       -18.1126
  38   2.0000      -0.642265       -17.4769
  39   2.0000      -0.615949       -16.7608
  40   2.0000      -0.587475       -15.9860
  41   2.0000      -0.568715       -15.4755
  42   2.0000      -0.552542       -15.0354
  43   2.0000      -0.544089       -14.8054
  44   2.0000      -0.536390       -14.5959
  45   2.0000      -0.532659       -14.4944
  46   2.0000      -0.521469       -14.1899
  47   2.0000      -0.508003       -13.8235
  48   2.0000      -0.504264       -13.7217
  49   2.0000      -0.493017       -13.4157
  50   2.0000      -0.481762       -13.1094
  51   2.0000      -0.475973       -12.9519
  52   2.0000      -0.471595       -12.8327
  53   2.0000      -0.464663       -12.6441
  54   2.0000      -0.454775       -12.3751
  55   2.0000      -0.447312       -12.1720
  56   2.0000      -0.442721       -12.0470
  57   2.0000      -0.439579       -11.9616
  58   2.0000      -0.427342       -11.6286
  59   2.0000      -0.422844       -11.5062
  60   2.0000      -0.418481       -11.3874
  61   2.0000      -0.412125       -11.2145
  62   2.0000      -0.406002       -11.0479
  63   2.0000      -0.345353        -9.3975
  64   2.0000      -0.333375        -9.0716
  65   2.0000      -0.323814        -8.8114
  66   2.0000      -0.294086        -8.0025
  67   0.0000       0.026389         0.7181
  68   0.0000       0.052648         1.4326
  69   0.0000       0.099948         2.7197
  70   0.0000       0.111088         3.0228
  71   0.0000       0.125674         3.4198

MULLIKEN ATOMIC CHARGES
-----------------------
   0 S :    0.094023
   1 C :   -0.120307
   2 C :   -0.060655
   3 C :    0.026725
   4 C :   -0.176606
   5 H :    0.031673
   6 C :    0.022912
   7 H :    0.013807
   8 H :    0.034371
   9 C :   -0.093404
  10 H :    0.038602
  11 H :    0.044868
  12 C :   -0.021259
  13 H :    0.015624
  14 H :    0.020259
  15 H :    0.038262
  16 S :    0.124385
  17 C :   -0.060615
  18 C :   -0.032845
  19 C :   -0.054618
  20 C :   -0.159184
  21 H :    0.020921
  22 C :    0.067422
  23 H :    0.039688
  24 H :    0.038866
  25 C :   -0.060165
  26 H :    0.036579
  27 H :    0.024534
  28 C :   -0.101408
  29 H :    0.045455
  30 H :    0.039483
  31 H :    0.026413
  32 H :    0.065065
  33 H :    0.031129
Sum of atomic charges:    0.0000000

LOEWDIN ATOMIC CHARGES
----------------------
   0 S :    0.367961
   1 C :   -0.190607
   2 C :   -0.066952
   3 C :   -0.061996
   4 C :   -0.169176
   5 H :    0.040397
   6 C :   -0.048630
   7 H :    0.029202
   8 H :    0.038048
   9 C :   -0.032540
  10 H :    0.027891
  11 H :    0.026845
  12 C :   -0.063285
  13 H :    0.021925
  14 H :    0.019663
  15 H :    0.024697
  16 S :    0.403090
  17 C :   -0.162170
  18 C :   -0.065789
  19 C :   -0.048739
  20 C :   -0.211889
  21 H :    0.033288
  22 C :   -0.037251
  23 H :    0.034637
  24 H :    0.034783
  25 C :   -0.033674
  26 H :    0.026480
  27 H :    0.016504
  28 C :   -0.080934
  29 H :    0.031764
  30 H :    0.027143
  31 H :    0.018323
  32 H :    0.036344
  33 H :    0.014644

  Mayer bond orders larger than 0.100000
B(  0-S ,  1-C ) :   1.1312 B(  0-S ,  4-C ) :   1.1102 B(  1-C ,  2-C ) :   1.6213
B(  1-C , 32-H ) :   0.9661 B(  2-C ,  3-C ) :   1.1968 B(  2-C ,  6-C ) :   1.0439
B(  3-C ,  4-C ) :   1.6166 B(  3-C ,  5-H ) :   0.9838 B(  4-C , 20-C ) :   1.0674
B(  6-C ,  7-H ) :   0.9450 B(  6-C ,  8-H ) :   0.9390 B(  6-C ,  9-C ) :   1.0339
B(  9-C , 10-H ) :   0.9585 B(  9-C , 11-H ) :   0.9618 B(  9-C , 12-C ) :   1.0691
B( 12-C , 13-H ) :   0.9759 B( 12-C , 14-H ) :   0.9759 B( 12-C , 15-H ) :   0.9770
B( 16-S , 17-C ) :   1.1540 B( 16-S , 20-C ) :   1.1369 B( 17-C , 18-C ) :   1.6314
B( 17-C , 20-C ) :   0.1015 B( 17-C , 33-H ) :   0.9635 B( 18-C , 19-C ) :   1.2345
B( 18-C , 21-H ) :   0.9888 B( 19-C , 20-C ) :   1.5398 B( 19-C , 22-C ) :   1.0694
B( 22-C , 23-H ) :   0.9424 B( 22-C , 24-H ) :   0.9126 B( 22-C , 25-C ) :   1.0558
B( 25-C , 26-H ) :   0.9619 B( 25-C , 27-H ) :   0.9606 B( 25-C , 28-C ) :   1.0553
B( 28-C , 29-H ) :   0.9777 B( 28-C , 30-H ) :   0.9776 B( 28-C , 31-H ) :   0.9791

Dispersion correction           -0.015523969
FINAL SINGLE POINT ENERGY     -1339.858357377540

DIPOLE MOMENT
-------------
                                X             Y             Z
Electronic contribution:     -7.47186     -22.96662      11.65513
Nuclear contribution   :      7.51223      23.39101     -11.95061
                        -----------------------------------------
Total Dipole Moment    :      0.04037       0.42440      -0.29548
                        -----------------------------------------
Magnitude (a.u.)       :      0.51870
Magnitude (Debye)      :      1.31843

Rotational constants in cm-1:     0.019860     0.008509     0.007507
Rotational constants in MHz :   595.390084   255.090822   225.057413

                             ****ORCA TERMINATED NORMALLY****
TOTAL RUN TIME: 0 days 0 hours 0 minutes 29 seconds 127 msec
