                         Program Version 4.2.1 -  RELEASE  -
|  1> ! wB97X-D3 SP def2-SVP
|  2> %pal
|  3> nprocs 16
|  4> end
|  5>
|  6> * xyz 0 1
|  7> S 	 -47.6693 	 49.3274 	 102.242
|  8> C 	 -47.3028 	 50.6377 	 103.275
|  9> C 	 -47.095 	 50.1988 	 104.575
| 10> C 	 -46.9676 	 48.809 	 104.699
| 11> C 	 -47.2723 	 48.1296 	 103.512
| 12> H 	 -46.7103 	 48.2155 	 105.58
| 13> C 	 -47.1173 	 51.1619 	 105.709
| 14> H 	 -47.1935 	 50.5913 	 106.599
| 15> H 	 -47.9222 	 51.8361 	 105.67
| 16> C 	 -45.7405 	 51.8273 	 105.789
| 17> H 	 -44.9903 	 51.0922 	 105.542
| 18> H 	 -45.5859 	 52.6975 	 105.075
| 19> C 	 -45.3264 	 52.357 	 107.216
| 20> H 	 -45.7203 	 53.2208 	 107.642
| 21> H 	 -45.5708 	 51.6542 	 108
| 22> H 	 -44.2856 	 52.5567 	 107.275
| 23> S 	 -45.8992 	 45.9507 	 102.363
| 24> C 	 -46.4903 	 44.2954 	 102.56
| 25> C 	 -47.485 	 44.292 	 103.438
| 26> C 	 -47.8271 	 45.5649 	 103.961
| 27> C 	 -47.2052 	 46.6783 	 103.383
| 28> H 	 -47.8759 	 43.31 	 103.68
| 29> C 	 -48.9645 	 45.7069 	 104.952
| 30> H 	 -48.8477 	 46.5929 	 105.544
| 31> H 	 -48.9279 	 44.9381 	 105.725
| 32> C 	 -50.3597 	 45.7746 	 104.358
| 33> H 	 -50.5485 	 45.1346 	 103.496
| 34> H 	 -50.4055 	 46.7681 	 103.867
| 35> C 	 -51.5225 	 45.7895 	 105.479
| 36> H 	 -51.4691 	 46.4206 	 106.363
| 37> H 	 -51.6887 	 44.8436 	 105.978
| 38> H 	 -52.3814 	 46.2377 	 105.057
| 39> H 	 -47.3974 	 51.7307 	 103.078
| 40> H 	 -46.0598 	 43.386 	 102.111
| 41> *
| 42>
| 43>                          ****END OF INPUT****

CARTESIAN COORDINATES (ANGSTROEM)
---------------------------------
  S    -47.669300   49.327400  102.242000
  C    -47.302800   50.637700  103.275000
  C    -47.095000   50.198800  104.575000
  C    -46.967600   48.809000  104.699000
  C    -47.272300   48.129600  103.512000
  H    -46.710300   48.215500  105.580000
  C    -47.117300   51.161900  105.709000
  H    -47.193500   50.591300  106.599000
  H    -47.922200   51.836100  105.670000
  C    -45.740500   51.827300  105.789000
  H    -44.990300   51.092200  105.542000
  H    -45.585900   52.697500  105.075000
  C    -45.326400   52.357000  107.216000
  H    -45.720300   53.220800  107.642000
  H    -45.570800   51.654200  108.000000
  H    -44.285600   52.556700  107.275000
  S    -45.899200   45.950700  102.363000
  C    -46.490300   44.295400  102.560000
  C    -47.485000   44.292000  103.438000
  C    -47.827100   45.564900  103.961000
  C    -47.205200   46.678300  103.383000
  H    -47.875900   43.310000  103.680000
  C    -48.964500   45.706900  104.952000
  H    -48.847700   46.592900  105.544000
  H    -48.927900   44.938100  105.725000
  C    -50.359700   45.774600  104.358000
  H    -50.548500   45.134600  103.496000
  H    -50.405500   46.768100  103.867000
  C    -51.522500   45.789500  105.479000
  H    -51.469100   46.420600  106.363000
  H    -51.688700   44.843600  105.978000
  H    -52.381400   46.237700  105.057000
  H    -47.397400   51.730700  103.078000
  H    -46.059800   43.386000  102.111000

 Total Charge           Charge          ....    0
 Multiplicity           Mult            ....    1
 Number of Electrons    NEL             ....  134
 Basis Dimension        Dim             ....  322

ORBITAL ENERGIES
----------------

  NO   OCC          E(Eh)            E(eV)
   0   2.0000     -88.973210     -2421.0841
   1   2.0000     -88.955764     -2420.6094
   2   2.0000     -10.336200      -281.2623
   3   2.0000     -10.334073      -281.2044
   4   2.0000     -10.315937      -280.7109
   5   2.0000     -10.315839      -280.7083
   6   2.0000     -10.306560      -280.4557
   7   2.0000     -10.299161      -280.2544
   8   2.0000     -10.296503      -280.1821
   9   2.0000     -10.293548      -280.1017
  10   2.0000     -10.290342      -280.0144
  11   2.0000     -10.287376      -279.9337
  12   2.0000     -10.284218      -279.8478
  13   2.0000     -10.283439      -279.8266
  14   2.0000     -10.276637      -279.6415
  15   2.0000     -10.268723      -279.4261
  16   2.0000      -8.087378      -220.0687
  17   2.0000      -8.069929      -219.5939
  18   2.0000      -6.045924      -164.5180
  19   2.0000      -6.041857      -164.4073
  20   2.0000      -6.038200      -164.3078
  21   2.0000      -6.028601      -164.0466
  22   2.0000      -6.024467      -163.9341
  23   2.0000      -6.020562      -163.8278
  24   2.0000      -1.005626       -27.3645
  25   2.0000      -0.987201       -26.8631
  26   2.0000      -0.915192       -24.9037
  27   2.0000      -0.901178       -24.5223
  28   2.0000      -0.873230       -23.7618
  29   2.0000      -0.850606       -23.1462
  30   2.0000      -0.836575       -22.7644
  31   2.0000      -0.820458       -22.3258
  32   2.0000      -0.784264       -21.3409
  33   2.0000      -0.772027       -21.0079
  34   2.0000      -0.713010       -19.4020
  35   2.0000      -0.707596       -19.2547
  36   2.0000      -0.699176       -19.0255
  37   2.0000      -0.655624       -17.8404
  38   2.0000      -0.643121       -17.5002
  39   2.0000      -0.621735       -16.9183
  40   2.0000      -0.596864       -16.2415
  41   2.0000      -0.576905       -15.6984
  42   2.0000      -0.563025       -15.3207
  43   2.0000      -0.550412       -14.9775
  44   2.0000      -0.525868       -14.3096
  45   2.0000      -0.521822       -14.1995
  46   2.0000      -0.518609       -14.1121
  47   2.0000      -0.509961       -13.8767
  48   2.0000      -0.504730       -13.7344
  49   2.0000      -0.500734       -13.6257
  50   2.0000      -0.497041       -13.5252
  51   2.0000      -0.479787       -13.0557
  52   2.0000      -0.473764       -12.8918
  53   2.0000      -0.467430       -12.7194
  54   2.0000      -0.458492       -12.4762
  55   2.0000      -0.449320       -12.2266
  56   2.0000      -0.444289       -12.0897
  57   2.0000      -0.439686       -11.9645
  58   2.0000      -0.429728       -11.6935
  59   2.0000      -0.427340       -11.6285
  60   2.0000      -0.417998       -11.3743
  61   2.0000      -0.412570       -11.2266
  62   2.0000      -0.400600       -10.9009
  63   2.0000      -0.345573        -9.4035
  64   2.0000      -0.327677        -8.9166
  65   2.0000      -0.323724        -8.8090
  66   2.0000      -0.300591        -8.1795
  67   0.0000       0.027710         0.7540
  68   0.0000       0.059332         1.6145
  69   0.0000       0.112413         3.0589
  70   0.0000       0.122087         3.3221
  71   0.0000       0.139650         3.8001

MULLIKEN ATOMIC CHARGES
-----------------------
   0 S :    0.141095
   1 C :   -0.117947
   2 C :   -0.135526
   3 C :    0.048017
   4 C :   -0.175078
   5 H :    0.028087
   6 C :    0.157807
   7 H :   -0.003084
   8 H :    0.025921
   9 C :   -0.103078
  10 H :    0.037698
  11 H :    0.041393
  12 C :   -0.027109
  13 H :    0.008045
  14 H :    0.012781
  15 H :    0.021492
  16 S :    0.069751
  17 C :   -0.090757
  18 C :   -0.026254
  19 C :   -0.028897
  20 C :   -0.156646
  21 H :    0.017792
  22 C :    0.084975
  23 H :    0.001126
  24 H :    0.014037
  25 C :   -0.062517
  26 H :    0.033385
  27 H :    0.025041
  28 C :   -0.044722
  29 H :    0.014773
  30 H :    0.033060
  31 H :    0.024073
  32 H :    0.065028
  33 H :    0.066237
Sum of atomic charges:   -0.0000000

LOEWDIN ATOMIC CHARGES
----------------------
   0 S :    0.424648
   1 C :   -0.213199
   2 C :   -0.070217
   3 C :   -0.050333
   4 C :   -0.197674
   5 H :    0.038226
   6 C :   -0.022028
   7 H :    0.026192
   8 H :    0.025374
   9 C :   -0.033452
  10 H :    0.027322
  11 H :    0.029151
  12 C :   -0.071895
  13 H :    0.015028
  14 H :    0.021709
  15 H :    0.023923
  16 S :    0.362025
  17 C :   -0.170602
  18 C :   -0.082900
  19 C :   -0.052132
  20 C :   -0.179210
  21 H :    0.035976
  22 C :   -0.038018
  23 H :    0.025080
  24 H :    0.025214
  25 C :   -0.034646
  26 H :    0.024975
  27 H :    0.028911
  28 C :   -0.073427
  29 H :    0.027214
  30 H :    0.023539
  31 H :    0.023439
  32 H :    0.041615
  33 H :    0.040169

  Mayer bond orders larger than 0.100000
B(  0-S ,  1-C ) :   1.1608 B(  0-S ,  4-C ) :   1.1491 B(  1-C ,  2-C ) :   1.5699
B(  1-C ,  4-C ) :   0.1036 B(  1-C , 32-H ) :   0.9612 B(  2-C ,  3-C ) :   1.2771
B(  2-C ,  6-C ) :   1.0324 B(  3-C ,  4-C ) :   1.5429 B(  3-C ,  5-H ) :   0.9874
B(  4-C , 20-C ) :   1.0628 B(  6-C ,  7-H ) :   0.9325 B(  6-C ,  8-H ) :   0.9408
B(  6-C ,  9-C ) :   1.0537 B(  9-C , 10-H ) :   0.9596 B(  9-C , 11-H ) :   0.9561
B(  9-C , 12-C ) :   1.0736 B( 12-C , 13-H ) :   0.9746 B( 12-C , 14-H ) :   0.9740
B( 12-C , 15-H ) :   0.9758 B( 16-S , 17-C ) :   1.1455 B( 16-S , 20-C ) :   1.1137
B( 17-C , 18-C ) :   1.6381 B( 17-C , 33-H ) :   0.9609 B( 18-C , 19-C ) :   1.2156
B( 18-C , 21-H ) :   0.9955 B( 19-C , 20-C ) :   1.5945 B( 19-C , 22-C ) :   1.0586
B( 22-C , 23-H ) :   0.9278 B( 22-C , 24-H ) :   0.9377 B( 22-C , 25-C ) :   1.0568
B( 25-C , 26-H ) :   0.9630 B( 25-C , 27-H ) :   0.9548 B( 25-C , 28-C ) :   1.0563
B( 28-C , 29-H ) :   0.9749 B( 28-C , 30-H ) :   0.9793 B( 28-C , 31-H ) :   0.9764

Dispersion correction           -0.013877164
FINAL SINGLE POINT ENERGY     -1339.848966374898

DIPOLE MOMENT
-------------
                                X             Y             Z
Electronic contribution:      8.97462      -8.38749     -22.32343
Nuclear contribution   :     -9.24173       8.49384      22.97448
                        -----------------------------------------
Total Dipole Moment    :     -0.26710       0.10635       0.65105
                        -----------------------------------------
Magnitude (a.u.)       :      0.71170
Magnitude (Debye)      :      1.80901

Rotational constants in cm-1:     0.018094     0.007655     0.006552
Rotational constants in MHz :   542.456599   229.487951   196.424472

                             ****ORCA TERMINATED NORMALLY****
TOTAL RUN TIME: 0 days 0 hours 0 minutes 28 seconds 700 msec
