                         Program Version 4.2.1 -  RELEASE  -
|  1> ! wB97X-D3 SP def2-SVP
|  2> %pal
|  3> nprocs 16
|  4> end
|  5>
|  6> * xyz 0 1
|  7> S 	 -38.792 	 38.239 	 80.9422
|  8> C 	 -37.3102 	 38.0775 	 79.9845
|  9> C 	 -36.9592 	 36.7512 	 79.7367
| 10> C 	 -38.0261 	 35.8966 	 80.0731
| 11> C 	 -39.0892 	 36.4898 	 80.7962
| 12> H 	 -38.2006 	 34.8405 	 79.8606
| 13> C 	 -35.7379 	 36.4007 	 78.8986
| 14> H 	 -35.6062 	 35.3343 	 79.017
| 15> H 	 -34.8588 	 36.8377 	 79.3239
| 16> C 	 -35.9818 	 36.758 	 77.3302
| 17> H 	 -36.8407 	 36.3669 	 76.8551
| 18> H 	 -36.1323 	 37.8412 	 77.3135
| 19> C 	 -34.6697 	 36.261 	 76.5156
| 20> H 	 -33.6718 	 36.4188 	 77.0516
| 21> H 	 -34.7669 	 35.1607 	 76.385
| 22> H 	 -34.5781 	 36.731 	 75.5431
| 23> S 	 -41.8741 	 36.6604 	 81.0273
| 24> C 	 -42.7744 	 35.2384 	 81.347
| 25> C 	 -41.9372 	 34.1529 	 81.5648
| 26> C 	 -40.5634 	 34.5004 	 81.542
| 27> C 	 -40.3643 	 35.8574 	 81.2321
| 28> H 	 -42.4032 	 33.1858 	 81.7657
| 29> C 	 -39.4922 	 33.4635 	 81.7395
| 30> H 	 -38.5175 	 34.0049 	 81.8523
| 31> H 	 -39.4165 	 32.9467 	 80.8134
| 32> C 	 -39.6455 	 32.5805 	 82.9513
| 33> H 	 -40.7199 	 32.4414 	 83.0938
| 34> H 	 -39.1292 	 33.089 	 83.8412
| 35> C 	 -38.9528 	 31.2144 	 82.8563
| 36> H 	 -37.8672 	 31.3018 	 82.7774
| 37> H 	 -39.3009 	 30.6803 	 81.9601
| 38> H 	 -39.1123 	 30.6476 	 83.6965
| 39> H 	 -36.7334 	 38.9085 	 79.62
| 40> H 	 -43.8476 	 35.1049 	 81.1188
| 41> *
| 42>
| 43>                          ****END OF INPUT****

CARTESIAN COORDINATES (ANGSTROEM)
---------------------------------
  S    -38.792000   38.239000   80.942200
  C    -37.310200   38.077500   79.984500
  C    -36.959200   36.751200   79.736700
  C    -38.026100   35.896600   80.073100
  C    -39.089200   36.489800   80.796200
  H    -38.200600   34.840500   79.860600
  C    -35.737900   36.400700   78.898600
  H    -35.606200   35.334300   79.017000
  H    -34.858800   36.837700   79.323900
  C    -35.981800   36.758000   77.330200
  H    -36.840700   36.366900   76.855100
  H    -36.132300   37.841200   77.313500
  C    -34.669700   36.261000   76.515600
  H    -33.671800   36.418800   77.051600
  H    -34.766900   35.160700   76.385000
  H    -34.578100   36.731000   75.543100
  S    -41.874100   36.660400   81.027300
  C    -42.774400   35.238400   81.347000
  C    -41.937200   34.152900   81.564800
  C    -40.563400   34.500400   81.542000
  C    -40.364300   35.857400   81.232100
  H    -42.403200   33.185800   81.765700
  C    -39.492200   33.463500   81.739500
  H    -38.517500   34.004900   81.852300
  H    -39.416500   32.946700   80.813400
  C    -39.645500   32.580500   82.951300
  H    -40.719900   32.441400   83.093800
  H    -39.129200   33.089000   83.841200
  C    -38.952800   31.214400   82.856300
  H    -37.867200   31.301800   82.777400
  H    -39.300900   30.680300   81.960100
  H    -39.112300   30.647600   83.696500
  H    -36.733400   38.908500   79.620000
  H    -43.847600   35.104900   81.118800

 Total Charge           Charge          ....    0
 Multiplicity           Mult            ....    1
 Number of Electrons    NEL             ....  134
 Basis Dimension        Dim             ....  322

ORBITAL ENERGIES
----------------

  NO   OCC          E(Eh)            E(eV)
   0   2.0000     -88.968239     -2420.9489
   1   2.0000     -88.966951     -2420.9138
   2   2.0000     -10.335452      -281.2420
   3   2.0000     -10.328509      -281.0530
   4   2.0000     -10.317052      -280.7413
   5   2.0000     -10.313759      -280.6517
   6   2.0000     -10.302849      -280.3548
   7   2.0000     -10.302112      -280.3347
   8   2.0000     -10.299333      -280.2591
   9   2.0000     -10.297897      -280.2200
  10   2.0000     -10.296733      -280.1884
  11   2.0000     -10.294428      -280.1256
  12   2.0000     -10.291382      -280.0427
  13   2.0000     -10.289420      -279.9893
  14   2.0000     -10.286778      -279.9175
  15   2.0000     -10.272803      -279.5372
  16   2.0000      -8.083914      -219.9745
  17   2.0000      -8.080641      -219.8854
  18   2.0000      -6.042305      -164.4195
  19   2.0000      -6.039115      -164.3327
  20   2.0000      -6.038181      -164.3073
  21   2.0000      -6.035316      -164.2293
  22   2.0000      -6.034847      -164.2165
  23   2.0000      -6.031500      -164.1255
  24   2.0000      -1.007401       -27.4128
  25   2.0000      -0.981835       -26.7171
  26   2.0000      -0.914666       -24.8893
  27   2.0000      -0.898931       -24.4612
  28   2.0000      -0.861504       -23.4427
  29   2.0000      -0.854612       -23.2552
  30   2.0000      -0.840750       -22.8780
  31   2.0000      -0.811259       -22.0755
  32   2.0000      -0.784234       -21.3401
  33   2.0000      -0.767897       -20.8955
  34   2.0000      -0.711830       -19.3699
  35   2.0000      -0.701647       -19.0928
  36   2.0000      -0.695786       -18.9333
  37   2.0000      -0.655250       -17.8303
  38   2.0000      -0.639119       -17.3913
  39   2.0000      -0.617850       -16.8126
  40   2.0000      -0.597101       -16.2479
  41   2.0000      -0.566545       -15.4165
  42   2.0000      -0.564431       -15.3589
  43   2.0000      -0.551453       -15.0058
  44   2.0000      -0.527140       -14.3442
  45   2.0000      -0.523189       -14.2367
  46   2.0000      -0.519560       -14.1379
  47   2.0000      -0.511457       -13.9175
  48   2.0000      -0.501371       -13.6430
  49   2.0000      -0.498149       -13.5553
  50   2.0000      -0.494070       -13.4443
  51   2.0000      -0.473437       -12.8829
  52   2.0000      -0.470081       -12.7916
  53   2.0000      -0.463366       -12.6088
  54   2.0000      -0.458986       -12.4896
  55   2.0000      -0.455026       -12.3819
  56   2.0000      -0.450197       -12.2505
  57   2.0000      -0.440835       -11.9957
  58   2.0000      -0.429283       -11.6814
  59   2.0000      -0.423714       -11.5298
  60   2.0000      -0.422926       -11.5084
  61   2.0000      -0.419912       -11.4264
  62   2.0000      -0.412311       -11.2196
  63   2.0000      -0.350908        -9.5487
  64   2.0000      -0.332852        -9.0574
  65   2.0000      -0.331014        -9.0073
  66   2.0000      -0.281819        -7.6687
  67   0.0000       0.022519         0.6128
  68   0.0000       0.076156         2.0723
  69   0.0000       0.106595         2.9006
  70   0.0000       0.120483         3.2785
  71   0.0000       0.140318         3.8183

MULLIKEN ATOMIC CHARGES
-----------------------
   0 S :    0.102162
   1 C :   -0.129432
   2 C :   -0.067706
   3 C :    0.006494
   4 C :   -0.169749
   5 H :    0.013084
   6 C :    0.070191
   7 H :    0.017445
   8 H :    0.032880
   9 C :   -0.056706
  10 H :    0.035047
  11 H :    0.028322
  12 C :   -0.093050
  13 H :    0.042481
  14 H :    0.043179
  15 H :    0.042100
  16 S :    0.120602
  17 C :   -0.108409
  18 C :   -0.061935
  19 C :   -0.069603
  20 C :   -0.112349
  21 H :    0.029457
  22 C :    0.055259
  23 H :    0.038800
  24 H :    0.033458
  25 C :   -0.090189
  26 H :    0.029852
  27 H :    0.047648
  28 C :   -0.021246
  29 H :    0.025804
  30 H :    0.025966
  31 H :    0.019290
  32 H :    0.047348
  33 H :    0.073505
Sum of atomic charges:   -0.0000000

LOEWDIN ATOMIC CHARGES
----------------------
   0 S :    0.381962
   1 C :   -0.186614
   2 C :   -0.066448
   3 C :   -0.067769
   4 C :   -0.181384
   5 H :    0.032792
   6 C :   -0.022958
   7 H :    0.026532
   8 H :    0.030053
   9 C :   -0.023003
  10 H :    0.022046
  11 H :    0.021068
  12 C :   -0.077435
  13 H :    0.031300
  14 H :    0.028536
  15 H :    0.022963
  16 S :    0.439809
  17 C :   -0.206247
  18 C :   -0.076726
  19 C :   -0.055987
  20 C :   -0.215569
  21 H :    0.033790
  22 C :   -0.042305
  23 H :    0.038343
  24 H :    0.025681
  25 C :   -0.040421
  26 H :    0.020945
  27 H :    0.038509
  28 C :   -0.058954
  29 H :    0.025510
  30 H :    0.024187
  31 H :    0.015163
  32 H :    0.023452
  33 H :    0.039180

  Mayer bond orders larger than 0.100000
B(  0-S ,  1-C ) :   1.1480 B(  0-S ,  4-C ) :   1.1440 B(  1-C ,  2-C ) :   1.5786
B(  1-C ,  4-C ) :   0.1046 B(  1-C , 32-H ) :   0.9697 B(  2-C ,  3-C ) :   1.2509
B(  2-C ,  6-C ) :   1.0335 B(  3-C ,  4-C ) :   1.5637 B(  3-C ,  5-H ) :   0.9827
B(  4-C , 20-C ) :   1.0468 B(  6-C ,  7-H ) :   0.9452 B(  6-C ,  8-H ) :   0.9413
B(  6-C ,  9-C ) :   1.0384 B(  9-C , 10-H ) :   0.9647 B(  9-C , 11-H ) :   0.9644
B(  9-C , 12-C ) :   1.0536 B( 12-C , 13-H ) :   0.9789 B( 12-C , 14-H ) :   0.9796
B( 12-C , 15-H ) :   0.9778 B( 16-S , 17-C ) :   1.1812 B( 16-S , 20-C ) :   1.1568
B( 17-C , 18-C ) :   1.5842 B( 17-C , 33-H ) :   0.9600 B( 18-C , 19-C ) :   1.2727
B( 18-C , 21-H ) :   0.9867 B( 19-C , 20-C ) :   1.5540 B( 19-C , 22-C ) :   1.0362
B( 22-C , 23-H ) :   0.9272 B( 22-C , 24-H ) :   0.9330 B( 22-C , 25-C ) :   1.0543
B( 25-C , 26-H ) :   0.9618 B( 25-C , 27-H ) :   0.9540 B( 25-C , 28-C ) :   1.0873
B( 28-C , 29-H ) :   0.9731 B( 28-C , 30-H ) :   0.9750 B( 28-C , 31-H ) :   0.9724

Dispersion correction           -0.013380234
FINAL SINGLE POINT ENERGY     -1339.870266815166

DIPOLE MOMENT
-------------
                                X             Y             Z
Electronic contribution:    -19.58674      20.12154       7.56260
Nuclear contribution   :     19.85940     -20.73905      -7.95780
                        -----------------------------------------
Total Dipole Moment    :      0.27266      -0.61752      -0.39520
                        -----------------------------------------
Magnitude (a.u.)       :      0.78221
Magnitude (Debye)      :      1.98822

Rotational constants in cm-1:     0.017277     0.007872     0.006090
Rotational constants in MHz :   517.966221   235.983745   182.564459

                             ****ORCA TERMINATED NORMALLY****
TOTAL RUN TIME: 0 days 0 hours 0 minutes 28 seconds 717 msec
