                         Program Version 4.2.1 -  RELEASE  -
|  1> ! wB97X-D3 SP def2-SVP
|  2> %pal
|  3> nprocs 16
|  4> end
|  5>
|  6> * xyz 0 1
|  7> S 	 -20.243 	 -3.93198 	 79.1936
|  8> C 	 -20.4448 	 -5.44545 	 78.2037
|  9> C 	 -20.5979 	 -6.49856 	 79.0437
| 10> C 	 -20.5301 	 -6.19078 	 80.4466
| 11> C 	 -20.3627 	 -4.85278 	 80.6981
| 12> H 	 -20.539 	 -6.88746 	 81.2521
| 13> C 	 -20.9767 	 -7.85383 	 78.5282
| 14> H 	 -21.0625 	 -8.50937 	 79.4448
| 15> H 	 -20.1675 	 -8.40632 	 78.0365
| 16> C 	 -22.3718 	 -7.84823 	 77.8391
| 17> H 	 -22.4421 	 -7.21855 	 76.9533
| 18> H 	 -22.7057 	 -8.80666 	 77.4886
| 19> C 	 -23.6232 	 -7.41088 	 78.7112
| 20> H 	 -23.8576 	 -8.06503 	 79.5444
| 21> H 	 -23.2722 	 -6.4262 	 79.1076
| 22> H 	 -24.4995 	 -7.3336 	 78.1389
| 23> S 	 -21.4604 	 -3.26826 	 82.7108
| 24> C 	 -20.4147 	 -2.69072 	 83.998
| 25> C 	 -19.1879 	 -3.32949 	 83.937
| 26> C 	 -19.056 	 -4.29287 	 82.88
| 27> C 	 -20.1788 	 -4.2744 	 82.0609
| 28> H 	 -18.4883 	 -2.99969 	 84.671
| 29> C 	 -17.744 	 -5.06494 	 82.6493
| 30> H 	 -17.9335 	 -6.08311 	 82.3551
| 31> H 	 -17.2154 	 -5.16797 	 83.6251
| 32> C 	 -16.884 	 -4.32805 	 81.6923
| 33> H 	 -16.2227 	 -3.69778 	 82.2949
| 34> H 	 -17.3589 	 -3.60414 	 80.9818
| 35> C 	 -15.9886 	 -5.27379 	 80.8527
| 36> H 	 -15.3232 	 -5.86919 	 81.438
| 37> H 	 -15.4252 	 -4.7528 	 80.0789
| 38> H 	 -16.6339 	 -6.04343 	 80.2739
| 39> H 	 -20.5264 	 -5.42275 	 77.1025
| 40> H 	 -20.6826 	 -1.91038 	 84.6652
| 41> *
| 42>
| 43>                          ****END OF INPUT****

CARTESIAN COORDINATES (ANGSTROEM)
---------------------------------
  S    -20.243000   -3.931980   79.193600
  C    -20.444800   -5.445450   78.203700
  C    -20.597900   -6.498560   79.043700
  C    -20.530100   -6.190780   80.446600
  C    -20.362700   -4.852780   80.698100
  H    -20.539000   -6.887460   81.252100
  C    -20.976700   -7.853830   78.528200
  H    -21.062500   -8.509370   79.444800
  H    -20.167500   -8.406320   78.036500
  C    -22.371800   -7.848230   77.839100
  H    -22.442100   -7.218550   76.953300
  H    -22.705700   -8.806660   77.488600
  C    -23.623200   -7.410880   78.711200
  H    -23.857600   -8.065030   79.544400
  H    -23.272200   -6.426200   79.107600
  H    -24.499500   -7.333600   78.138900
  S    -21.460400   -3.268260   82.710800
  C    -20.414700   -2.690720   83.998000
  C    -19.187900   -3.329490   83.937000
  C    -19.056000   -4.292870   82.880000
  C    -20.178800   -4.274400   82.060900
  H    -18.488300   -2.999690   84.671000
  C    -17.744000   -5.064940   82.649300
  H    -17.933500   -6.083110   82.355100
  H    -17.215400   -5.167970   83.625100
  C    -16.884000   -4.328050   81.692300
  H    -16.222700   -3.697780   82.294900
  H    -17.358900   -3.604140   80.981800
  C    -15.988600   -5.273790   80.852700
  H    -15.323200   -5.869190   81.438000
  H    -15.425200   -4.752800   80.078900
  H    -16.633900   -6.043430   80.273900
  H    -20.526400   -5.422750   77.102500
  H    -20.682600   -1.910380   84.665200

 Total Charge           Charge          ....    0
 Multiplicity           Mult            ....    1
 Number of Electrons    NEL             ....  134
 Basis Dimension        Dim             ....  322

ORBITAL ENERGIES
----------------

  NO   OCC          E(Eh)            E(eV)
   0   2.0000     -88.965823     -2420.8831
   1   2.0000     -88.963867     -2420.8299
   2   2.0000     -10.332827      -281.1705
   3   2.0000     -10.327607      -281.0285
   4   2.0000     -10.320650      -280.8392
   5   2.0000     -10.315488      -280.6987
   6   2.0000     -10.308477      -280.5079
   7   2.0000     -10.300766      -280.2981
   8   2.0000     -10.298759      -280.2435
   9   2.0000     -10.293727      -280.1066
  10   2.0000     -10.293028      -280.0875
  11   2.0000     -10.291979      -280.0590
  12   2.0000     -10.288613      -279.9674
  13   2.0000     -10.283268      -279.8219
  14   2.0000     -10.277896      -279.6758
  15   2.0000     -10.273391      -279.5532
  16   2.0000      -8.079173      -219.8455
  17   2.0000      -8.078560      -219.8288
  18   2.0000      -6.037898      -164.2996
  19   2.0000      -6.037013      -164.2755
  20   2.0000      -6.033877      -164.1901
  21   2.0000      -6.033023      -164.1669
  22   2.0000      -6.029764      -164.0782
  23   2.0000      -6.029440      -164.0694
  24   2.0000      -1.001462       -27.2512
  25   2.0000      -0.981215       -26.7002
  26   2.0000      -0.911236       -24.7960
  27   2.0000      -0.905790       -24.6478
  28   2.0000      -0.862330       -23.4652
  29   2.0000      -0.844550       -22.9814
  30   2.0000      -0.841036       -22.8858
  31   2.0000      -0.815126       -22.1807
  32   2.0000      -0.780903       -21.2495
  33   2.0000      -0.771739       -21.0001
  34   2.0000      -0.705224       -19.1901
  35   2.0000      -0.699593       -19.0369
  36   2.0000      -0.690662       -18.7939
  37   2.0000      -0.660538       -17.9742
  38   2.0000      -0.642298       -17.4778
  39   2.0000      -0.613490       -16.6939
  40   2.0000      -0.596658       -16.2359
  41   2.0000      -0.574245       -15.6260
  42   2.0000      -0.559702       -15.2303
  43   2.0000      -0.553599       -15.0642
  44   2.0000      -0.535167       -14.5626
  45   2.0000      -0.525835       -14.3087
  46   2.0000      -0.518666       -14.1136
  47   2.0000      -0.508405       -13.8344
  48   2.0000      -0.505985       -13.7685
  49   2.0000      -0.490917       -13.3585
  50   2.0000      -0.489897       -13.3308
  51   2.0000      -0.475140       -12.9292
  52   2.0000      -0.470642       -12.8068
  53   2.0000      -0.465232       -12.6596
  54   2.0000      -0.456667       -12.4265
  55   2.0000      -0.451882       -12.2963
  56   2.0000      -0.442208       -12.0331
  57   2.0000      -0.432904       -11.7799
  58   2.0000      -0.431508       -11.7419
  59   2.0000      -0.421301       -11.4642
  60   2.0000      -0.412102       -11.2139
  61   2.0000      -0.407653       -11.0928
  62   2.0000      -0.403691       -10.9850
  63   2.0000      -0.334754        -9.1091
  64   2.0000      -0.329954        -8.9785
  65   2.0000      -0.329281        -8.9602
  66   2.0000      -0.307968        -8.3802
  67   0.0000       0.036657         0.9975
  68   0.0000       0.058102         1.5810
  69   0.0000       0.112399         3.0585
  70   0.0000       0.117680         3.2022
  71   0.0000       0.128856         3.5064

MULLIKEN ATOMIC CHARGES
-----------------------
   0 S :    0.095946
   1 C :   -0.147923
   2 C :   -0.082702
   3 C :    0.059098
   4 C :   -0.138220
   5 H :    0.006712
   6 C :    0.072165
   7 H :    0.016759
   8 H :    0.046102
   9 C :   -0.074367
  10 H :    0.027311
  11 H :    0.018690
  12 C :   -0.068529
  13 H :    0.030856
  14 H :    0.047894
  15 H :    0.029069
  16 S :    0.108632
  17 C :   -0.092490
  18 C :   -0.037906
  19 C :   -0.015350
  20 C :   -0.209380
  21 H :    0.012251
  22 C :    0.107472
  23 H :    0.018955
  24 H :    0.028892
  25 C :   -0.072112
  26 H :    0.021920
  27 H :    0.048928
  28 C :   -0.071112
  29 H :    0.022742
  30 H :    0.033881
  31 H :    0.037965
  32 H :    0.068138
  33 H :    0.049713
Sum of atomic charges:   -0.0000000

LOEWDIN ATOMIC CHARGES
----------------------
   0 S :    0.368786
   1 C :   -0.171517
   2 C :   -0.071789
   3 C :   -0.058091
   4 C :   -0.183735
   5 H :    0.029260
   6 C :   -0.038924
   7 H :    0.034783
   8 H :    0.036517
   9 C :   -0.037598
  10 H :    0.020599
  11 H :    0.017844
  12 C :   -0.060925
  13 H :    0.020951
  14 H :    0.031539
  15 H :    0.018785
  16 S :    0.402352
  17 C :   -0.177050
  18 C :   -0.071567
  19 C :   -0.044092
  20 C :   -0.204013
  21 H :    0.028452
  22 C :   -0.028387
  23 H :    0.025309
  24 H :    0.037898
  25 C :   -0.046637
  26 H :    0.024586
  27 H :    0.030831
  28 C :   -0.067650
  29 H :    0.015474
  30 H :    0.024565
  31 H :    0.032175
  32 H :    0.037399
  33 H :    0.023871

  Mayer bond orders larger than 0.100000
B(  0-S ,  1-C ) :   1.1110 B(  0-S ,  4-C ) :   1.1417 B(  1-C ,  2-C ) :   1.6310
B(  1-C , 32-H ) :   0.9721 B(  2-C ,  3-C ) :   1.2102 B(  2-C ,  6-C ) :   1.0182
B(  3-C ,  4-C ) :   1.6111 B(  3-C ,  5-H ) :   0.9971 B(  4-C , 20-C ) :   1.0063
B(  6-C ,  7-H ) :   0.9424 B(  6-C ,  8-H ) :   0.9407 B(  6-C ,  9-C ) :   1.0531
B(  9-C , 10-H ) :   0.9628 B(  9-C , 11-H ) :   0.9599 B(  9-C , 12-C ) :   1.0680
B( 12-C , 13-H ) :   0.9783 B( 12-C , 14-H ) :   0.9782 B( 12-C , 15-H ) :   0.9762
B( 16-S , 17-C ) :   1.1513 B( 16-S , 20-C ) :   1.1563 B( 17-C , 18-C ) :   1.6192
B( 17-C , 33-H ) :   0.9725 B( 18-C , 19-C ) :   1.2259 B( 18-C , 21-H ) :   0.9950
B( 19-C , 20-C ) :   1.5989 B( 19-C , 22-C ) :   1.0423 B( 22-C , 23-H ) :   0.9441
B( 22-C , 24-H ) :   0.9285 B( 22-C , 25-C ) :   1.0379 B( 25-C , 26-H ) :   0.9500
B( 25-C , 27-H ) :   0.9659 B( 25-C , 28-C ) :   1.0804 B( 28-C , 29-H ) :   0.9749
B( 28-C , 30-H ) :   0.9760 B( 28-C , 31-H ) :   0.9771

Dispersion correction           -0.015468737
FINAL SINGLE POINT ENERGY     -1339.874668776964

DIPOLE MOMENT
-------------
                                X             Y             Z
Electronic contribution:     -6.99834      16.38325       7.02738
Nuclear contribution   :      7.30915     -16.76634      -6.98701
                        -----------------------------------------
Total Dipole Moment    :      0.31082      -0.38309       0.04037
                        -----------------------------------------
Magnitude (a.u.)       :      0.49497
Magnitude (Debye)      :      1.25811

Rotational constants in cm-1:     0.019666     0.009076     0.007301
Rotational constants in MHz :   589.562090   272.083060   218.876738

                             ****ORCA TERMINATED NORMALLY****
TOTAL RUN TIME: 0 days 0 hours 0 minutes 33 seconds 775 msec
