                         Program Version 4.2.1 -  RELEASE  -
|  1> ! wB97X-D3 SP def2-SVP
|  2> %pal
|  3> nprocs 16
|  4> end
|  5>
|  6> * xyz 0 1
|  7> S 	 54.6873 	 14.1523 	 62.4905
|  8> C 	 56.3407 	 14.3964 	 62.9653
|  9> C 	 57.1511 	 13.9776 	 61.9073
| 10> C 	 56.4293 	 13.4029 	 60.7898
| 11> C 	 55.0885 	 13.3385 	 60.9759
| 12> H 	 56.8978 	 12.9952 	 59.9147
| 13> C 	 58.6308 	 14.2964 	 61.8467
| 14> H 	 58.8102 	 15.2672 	 62.4128
| 15> H 	 58.7573 	 14.6799 	 60.8136
| 16> C 	 59.6346 	 13.2605 	 62.3391
| 17> H 	 60.6183 	 13.6272 	 62.3014
| 18> H 	 59.5384 	 12.9653 	 63.3372
| 19> C 	 59.633 	 11.9908 	 61.3884
| 20> H 	 58.7513 	 11.309 	 61.3993
| 21> H 	 59.8623 	 12.1384 	 60.3069
| 22> H 	 60.4197 	 11.347 	 61.7377
| 23> S 	 52.7258 	 11.9982 	 60.9632
| 24> C 	 52.1439 	 11.2209 	 59.5427
| 25> C 	 52.9293 	 11.5172 	 58.4517
| 26> C 	 54.1961 	 12.1673 	 58.7902
| 27> C 	 54.1489 	 12.6826 	 60.0921
| 28> H 	 52.5304 	 11.2556 	 57.506
| 29> C 	 55.2409 	 12.369 	 57.6974
| 30> H 	 56.0067 	 11.6654 	 58.0166
| 31> H 	 55.7387 	 13.32 	 57.8994
| 32> C 	 54.8781 	 12.0983 	 56.2481
| 33> H 	 54.3634 	 11.1671 	 56.2082
| 34> H 	 55.7727 	 12.0761 	 55.7108
| 35> C 	 53.9516 	 13.0877 	 55.5538
| 36> H 	 53.2246 	 12.4013 	 55.0057
| 37> H 	 54.5006 	 13.6894 	 54.7738
| 38> H 	 53.5319 	 13.8666 	 56.2104
| 39> H 	 56.7496 	 14.8267 	 63.872
| 40> H 	 51.1939 	 10.6703 	 59.4932
| 41> *
| 42>
| 43>                          ****END OF INPUT****

CARTESIAN COORDINATES (ANGSTROEM)
---------------------------------
  S     54.687300   14.152300   62.490500
  C     56.340700   14.396400   62.965300
  C     57.151100   13.977600   61.907300
  C     56.429300   13.402900   60.789800
  C     55.088500   13.338500   60.975900
  H     56.897800   12.995200   59.914700
  C     58.630800   14.296400   61.846700
  H     58.810200   15.267200   62.412800
  H     58.757300   14.679900   60.813600
  C     59.634600   13.260500   62.339100
  H     60.618300   13.627200   62.301400
  H     59.538400   12.965300   63.337200
  C     59.633000   11.990800   61.388400
  H     58.751300   11.309000   61.399300
  H     59.862300   12.138400   60.306900
  H     60.419700   11.347000   61.737700
  S     52.725800   11.998200   60.963200
  C     52.143900   11.220900   59.542700
  C     52.929300   11.517200   58.451700
  C     54.196100   12.167300   58.790200
  C     54.148900   12.682600   60.092100
  H     52.530400   11.255600   57.506000
  C     55.240900   12.369000   57.697400
  H     56.006700   11.665400   58.016600
  H     55.738700   13.320000   57.899400
  C     54.878100   12.098300   56.248100
  H     54.363400   11.167100   56.208200
  H     55.772700   12.076100   55.710800
  C     53.951600   13.087700   55.553800
  H     53.224600   12.401300   55.005700
  H     54.500600   13.689400   54.773800
  H     53.531900   13.866600   56.210400
  H     56.749600   14.826700   63.872000
  H     51.193900   10.670300   59.493200

 Total Charge           Charge          ....    0
 Multiplicity           Mult            ....    1
 Number of Electrons    NEL             ....  134
 Basis Dimension        Dim             ....  322

ORBITAL ENERGIES
----------------

  NO   OCC          E(Eh)            E(eV)
   0   2.0000     -88.964687     -2420.8522
   1   2.0000     -88.960986     -2420.7515
   2   2.0000     -10.332747      -281.1683
   3   2.0000     -10.329111      -281.0694
   4   2.0000     -10.316106      -280.7155
   5   2.0000     -10.314509      -280.6721
   6   2.0000     -10.314405      -280.6692
   7   2.0000     -10.300519      -280.2914
   8   2.0000     -10.296289      -280.1763
   9   2.0000     -10.295306      -280.1495
  10   2.0000     -10.293033      -280.0877
  11   2.0000     -10.289304      -279.9862
  12   2.0000     -10.287254      -279.9304
  13   2.0000     -10.285732      -279.8890
  14   2.0000     -10.282747      -279.8078
  15   2.0000     -10.280011      -279.7333
  16   2.0000      -8.079156      -219.8450
  17   2.0000      -8.075756      -219.7525
  18   2.0000      -6.037891      -164.2994
  19   2.0000      -6.034352      -164.2031
  20   2.0000      -6.033647      -164.1839
  21   2.0000      -6.030260      -164.0917
  22   2.0000      -6.029721      -164.0771
  23   2.0000      -6.026412      -163.9870
  24   2.0000      -1.004917       -27.3452
  25   2.0000      -0.981271       -26.7017
  26   2.0000      -0.916556       -24.9408
  27   2.0000      -0.906292       -24.6615
  28   2.0000      -0.872664       -23.7464
  29   2.0000      -0.850800       -23.1515
  30   2.0000      -0.839601       -22.8467
  31   2.0000      -0.815965       -22.2035
  32   2.0000      -0.786165       -21.3926
  33   2.0000      -0.770241       -20.9593
  34   2.0000      -0.713062       -19.4034
  35   2.0000      -0.707974       -19.2649
  36   2.0000      -0.695850       -18.9350
  37   2.0000      -0.657062       -17.8796
  38   2.0000      -0.636066       -17.3082
  39   2.0000      -0.619195       -16.8492
  40   2.0000      -0.600601       -16.3432
  41   2.0000      -0.568933       -15.4815
  42   2.0000      -0.555754       -15.1228
  43   2.0000      -0.545811       -14.8523
  44   2.0000      -0.544191       -14.8082
  45   2.0000      -0.538481       -14.6528
  46   2.0000      -0.527285       -14.3481
  47   2.0000      -0.512180       -13.9371
  48   2.0000      -0.510044       -13.8790
  49   2.0000      -0.498283       -13.5590
  50   2.0000      -0.491276       -13.3683
  51   2.0000      -0.475079       -12.9275
  52   2.0000      -0.468376       -12.7452
  53   2.0000      -0.463484       -12.6120
  54   2.0000      -0.461553       -12.5595
  55   2.0000      -0.446568       -12.1517
  56   2.0000      -0.440583       -11.9889
  57   2.0000      -0.438480       -11.9316
  58   2.0000      -0.434906       -11.8344
  59   2.0000      -0.425982       -11.5916
  60   2.0000      -0.416886       -11.3440
  61   2.0000      -0.414120       -11.2688
  62   2.0000      -0.403036       -10.9672
  63   2.0000      -0.361948        -9.8491
  64   2.0000      -0.327552        -8.9131
  65   2.0000      -0.323996        -8.8164
  66   2.0000      -0.282568        -7.6891
  67   0.0000       0.023693         0.6447
  68   0.0000       0.080143         2.1808
  69   0.0000       0.105246         2.8639
  70   0.0000       0.115460         3.1418
  71   0.0000       0.134315         3.6549

MULLIKEN ATOMIC CHARGES
-----------------------
   0 S :    0.105822
   1 C :   -0.102867
   2 C :   -0.093817
   3 C :   -0.009267
   4 C :   -0.081502
   5 H :   -0.006510
   6 C :    0.003214
   7 H :    0.025892
   8 H :    0.032253
   9 C :    0.029805
  10 H :    0.016846
  11 H :    0.017939
  12 C :   -0.105339
  13 H :    0.045775
  14 H :    0.032231
  15 H :    0.021137
  16 S :    0.081542
  17 C :   -0.089183
  18 C :   -0.035637
  19 C :   -0.073043
  20 C :   -0.126036
  21 H :    0.003393
  22 C :    0.033594
  23 H :    0.042032
  24 H :    0.033027
  25 C :   -0.010059
  26 H :    0.025187
  27 H :    0.022123
  28 C :   -0.091057
  29 H :    0.044090
  30 H :    0.036222
  31 H :    0.053948
  32 H :    0.051047
  33 H :    0.067196
Sum of atomic charges:    0.0000000

LOEWDIN ATOMIC CHARGES
----------------------
   0 S :    0.398471
   1 C :   -0.201746
   2 C :   -0.063249
   3 C :   -0.071254
   4 C :   -0.187132
   5 H :    0.025789
   6 C :   -0.042891
   7 H :    0.033695
   8 H :    0.035729
   9 C :   -0.025533
  10 H :    0.022223
  11 H :    0.021345
  12 C :   -0.079032
  13 H :    0.028538
  14 H :    0.025897
  15 H :    0.021481
  16 S :    0.390541
  17 C :   -0.191120
  18 C :   -0.076160
  19 C :   -0.044019
  20 C :   -0.178091
  21 H :    0.024143
  22 C :   -0.037400
  23 H :    0.039107
  24 H :    0.030580
  25 C :   -0.039140
  26 H :    0.022273
  27 H :    0.024745
  28 C :   -0.076013
  29 H :    0.036377
  30 H :    0.030448
  31 H :    0.030966
  32 H :    0.034707
  33 H :    0.035723

  Mayer bond orders larger than 0.100000
B(  0-S ,  1-C ) :   1.1253 B(  0-S ,  4-C ) :   1.1309 B(  1-C ,  2-C ) :   1.6156
B(  1-C , 32-H ) :   0.9698 B(  2-C ,  3-C ) :   1.2379 B(  2-C ,  6-C ) :   1.0076
B(  3-C ,  4-C ) :   1.5738 B(  3-C ,  5-H ) :   0.9956 B(  4-C , 20-C ) :   1.0762
B(  6-C ,  7-H ) :   0.9466 B(  6-C ,  8-H ) :   0.9496 B(  6-C ,  9-C ) :   1.0737
B(  9-C , 10-H ) :   0.9520 B(  9-C , 11-H ) :   0.9540 B(  9-C , 12-C ) :   1.0683
B( 12-C , 13-H ) :   0.9767 B( 12-C , 14-H ) :   0.9776 B( 12-C , 15-H ) :   0.9746
B( 16-S , 17-C ) :   1.1627 B( 16-S , 20-C ) :   1.1141 B( 17-C , 18-C ) :   1.6316
B( 17-C , 33-H ) :   0.9586 B( 18-C , 19-C ) :   1.2079 B( 18-C , 21-H ) :   0.9884
B( 19-C , 20-C ) :   1.6110 B( 19-C , 22-C ) :   1.0236 B( 22-C , 23-H ) :   0.9116
B( 22-C , 24-H ) :   0.9370 B( 22-C , 25-C ) :   1.0934 B( 25-C , 26-H ) :   0.9561
B( 25-C , 27-H ) :   0.9467 B( 25-C , 28-C ) :   1.0553 B( 28-C , 29-H ) :   0.9819
B( 28-C , 30-H ) :   0.9784 B( 28-C , 31-H ) :   0.9806

Dispersion correction           -0.014064189
FINAL SINGLE POINT ENERGY     -1339.858331302400

DIPOLE MOMENT
-------------
                                X             Y             Z
Electronic contribution:    -20.38480       2.54515      17.23557
Nuclear contribution   :     20.99115      -2.67687     -17.78745
                        -----------------------------------------
Total Dipole Moment    :      0.60635      -0.13172      -0.55188
                        -----------------------------------------
Magnitude (a.u.)       :      0.83041
Magnitude (Debye)      :      2.11074

Rotational constants in cm-1:     0.018465     0.008485     0.006558
Rotational constants in MHz :   553.574577   254.360691   196.591084

                             ****ORCA TERMINATED NORMALLY****
TOTAL RUN TIME: 0 days 0 hours 0 minutes 30 seconds 54 msec
