                         Program Version 4.2.1 -  RELEASE  -
|  1> ! wB97X-D3 SP def2-SVP
|  2> %pal
|  3> nprocs 16
|  4> end
|  5>
|  6> * xyz 0 1
|  7> S 	 -75.287 	 48.6682 	 137.383
|  8> C 	 -73.9614 	 49.4211 	 138.378
|  9> C 	 -74.4733 	 50.3256 	 139.23
| 10> C 	 -75.9164 	 50.3819 	 139.136
| 11> C 	 -76.5169 	 49.5648 	 138.181
| 12> H 	 -76.446 	 51.0586 	 139.793
| 13> C 	 -73.6598 	 51.3269 	 139.961
| 14> H 	 -73.8654 	 52.3317 	 139.628
| 15> H 	 -72.6504 	 51.1662 	 139.598
| 16> C 	 -73.5524 	 51.3109 	 141.482
| 17> H 	 -74.5242 	 51.3565 	 141.949
| 18> H 	 -73.1747 	 50.3441 	 141.865
| 19> C 	 -72.7805 	 52.4858 	 142.059
| 20> H 	 -73.3623 	 53.375 	 142.028
| 21> H 	 -72.6514 	 52.2926 	 143.166
| 22> H 	 -71.8291 	 52.6221 	 141.631
| 23> S 	 -78.325 	 50.1909 	 136.264
| 24> C 	 -80.0197 	 50.1378 	 136.66
| 25> C 	 -80.2561 	 49.8443 	 137.997
| 26> C 	 -79.0389 	 49.5541 	 138.701
| 27> C 	 -77.9562 	 49.6348 	 137.876
| 28> H 	 -81.1972 	 49.8864 	 138.424
| 29> C 	 -79.1323 	 49.2004 	 140.11
| 30> H 	 -80.1416 	 49.3781 	 140.506
| 31> H 	 -78.6099 	 50.005 	 140.623
| 32> C 	 -78.686 	 47.8565 	 140.678
| 33> H 	 -78.5896 	 47.9485 	 141.79
| 34> H 	 -77.6355 	 47.6968 	 140.407
| 35> C 	 -79.6086 	 46.6455 	 140.343
| 36> H 	 -79.3327 	 45.7594 	 141.006
| 37> H 	 -79.5234 	 46.3975 	 139.316
| 38> H 	 -80.6815 	 46.7929 	 140.535
| 39> H 	 -72.8882 	 49.3589 	 138.244
| 40> H 	 -80.9388 	 50.3037 	 136.006
| 41> *
| 42>
| 43>                          ****END OF INPUT****

CARTESIAN COORDINATES (ANGSTROEM)
---------------------------------
  S    -75.287000   48.668200  137.383000
  C    -73.961400   49.421100  138.378000
  C    -74.473300   50.325600  139.230000
  C    -75.916400   50.381900  139.136000
  C    -76.516900   49.564800  138.181000
  H    -76.446000   51.058600  139.793000
  C    -73.659800   51.326900  139.961000
  H    -73.865400   52.331700  139.628000
  H    -72.650400   51.166200  139.598000
  C    -73.552400   51.310900  141.482000
  H    -74.524200   51.356500  141.949000
  H    -73.174700   50.344100  141.865000
  C    -72.780500   52.485800  142.059000
  H    -73.362300   53.375000  142.028000
  H    -72.651400   52.292600  143.166000
  H    -71.829100   52.622100  141.631000
  S    -78.325000   50.190900  136.264000
  C    -80.019700   50.137800  136.660000
  C    -80.256100   49.844300  137.997000
  C    -79.038900   49.554100  138.701000
  C    -77.956200   49.634800  137.876000
  H    -81.197200   49.886400  138.424000
  C    -79.132300   49.200400  140.110000
  H    -80.141600   49.378100  140.506000
  H    -78.609900   50.005000  140.623000
  C    -78.686000   47.856500  140.678000
  H    -78.589600   47.948500  141.790000
  H    -77.635500   47.696800  140.407000
  C    -79.608600   46.645500  140.343000
  H    -79.332700   45.759400  141.006000
  H    -79.523400   46.397500  139.316000
  H    -80.681500   46.792900  140.535000
  H    -72.888200   49.358900  138.244000
  H    -80.938800   50.303700  136.006000

 Total Charge           Charge          ....    0
 Multiplicity           Mult            ....    1
 Number of Electrons    NEL             ....  134
 Basis Dimension        Dim             ....  322

ORBITAL ENERGIES
----------------

  NO   OCC          E(Eh)            E(eV)
   0   2.0000     -88.969261     -2420.9767
   1   2.0000     -88.967268     -2420.9224
   2   2.0000     -10.330660      -281.1115
   3   2.0000     -10.324795      -280.9520
   4   2.0000     -10.320670      -280.8397
   5   2.0000     -10.315011      -280.6857
   6   2.0000     -10.298398      -280.2337
   7   2.0000     -10.295840      -280.1641
   8   2.0000     -10.291779      -280.0536
   9   2.0000     -10.289432      -279.9897
  10   2.0000     -10.289066      -279.9797
  11   2.0000     -10.287405      -279.9345
  12   2.0000     -10.286342      -279.9056
  13   2.0000     -10.286162      -279.9007
  14   2.0000     -10.278915      -279.7035
  15   2.0000     -10.277076      -279.6535
  16   2.0000      -8.084063      -219.9785
  17   2.0000      -8.081292      -219.9031
  18   2.0000      -6.042597      -164.4274
  19   2.0000      -6.040109      -164.3597
  20   2.0000      -6.038643      -164.3198
  21   2.0000      -6.035835      -164.2434
  22   2.0000      -6.034704      -164.2126
  23   2.0000      -6.031821      -164.1342
  24   2.0000      -1.008586       -27.4450
  25   2.0000      -0.985295       -26.8112
  26   2.0000      -0.917738       -24.9729
  27   2.0000      -0.910167       -24.7669
  28   2.0000      -0.873449       -23.7678
  29   2.0000      -0.850326       -23.1386
  30   2.0000      -0.845554       -23.0087
  31   2.0000      -0.811152       -22.0726
  32   2.0000      -0.786219       -21.3941
  33   2.0000      -0.777327       -21.1521
  34   2.0000      -0.713361       -19.4115
  35   2.0000      -0.703399       -19.1405
  36   2.0000      -0.689300       -18.7568
  37   2.0000      -0.666413       -18.1340
  38   2.0000      -0.634886       -17.2761
  39   2.0000      -0.620395       -16.8818
  40   2.0000      -0.593706       -16.1556
  41   2.0000      -0.575850       -15.6697
  42   2.0000      -0.564946       -15.3730
  43   2.0000      -0.550195       -14.9716
  44   2.0000      -0.538293       -14.6477
  45   2.0000      -0.526501       -14.3268
  46   2.0000      -0.521216       -14.1830
  47   2.0000      -0.507437       -13.8080
  48   2.0000      -0.502640       -13.6775
  49   2.0000      -0.497566       -13.5395
  50   2.0000      -0.487792       -13.2735
  51   2.0000      -0.485486       -13.2107
  52   2.0000      -0.472697       -12.8627
  53   2.0000      -0.464850       -12.6492
  54   2.0000      -0.460064       -12.5190
  55   2.0000      -0.451597       -12.2886
  56   2.0000      -0.446013       -12.1366
  57   2.0000      -0.436750       -11.8846
  58   2.0000      -0.436030       -11.8650
  59   2.0000      -0.421050       -11.4573
  60   2.0000      -0.416241       -11.3265
  61   2.0000      -0.415086       -11.2951
  62   2.0000      -0.412441       -11.2231
  63   2.0000      -0.341855        -9.3023
  64   2.0000      -0.333569        -9.0769
  65   2.0000      -0.327362        -8.9080
  66   2.0000      -0.298296        -8.1170
  67   0.0000       0.033561         0.9132
  68   0.0000       0.071477         1.9450
  69   0.0000       0.107346         2.9210
  70   0.0000       0.116804         3.1784
  71   0.0000       0.129964         3.5365

MULLIKEN ATOMIC CHARGES
-----------------------
   0 S :    0.100959
   1 C :   -0.125170
   2 C :   -0.062831
   3 C :    0.033266
   4 C :   -0.145472
   5 H :    0.002144
   6 C :    0.067345
   7 H :    0.029260
   8 H :   -0.001466
   9 C :   -0.069008
  10 H :    0.015705
  11 H :    0.026037
  12 C :   -0.037970
  13 H :    0.027810
  14 H :    0.037175
  15 H :    0.025857
  16 S :    0.127004
  17 C :   -0.102379
  18 C :   -0.027891
  19 C :   -0.008995
  20 C :   -0.162590
  21 H :   -0.010241
  22 C :    0.064973
  23 H :    0.005531
  24 H :    0.019251
  25 C :   -0.061263
  26 H :    0.025642
  27 H :    0.036027
  28 C :   -0.056047
  29 H :    0.042770
  30 H :    0.039507
  31 H :    0.025727
  32 H :    0.044166
  33 H :    0.075166
Sum of atomic charges:    0.0000000

LOEWDIN ATOMIC CHARGES
----------------------
   0 S :    0.388372
   1 C :   -0.174517
   2 C :   -0.066504
   3 C :   -0.061074
   4 C :   -0.210225
   5 H :    0.023569
   6 C :   -0.033363
   7 H :    0.033016
   8 H :    0.028781
   9 C :   -0.042577
  10 H :    0.019611
  11 H :    0.025242
  12 C :   -0.059069
  13 H :    0.021590
  14 H :    0.037151
  15 H :    0.016289
  16 S :    0.419536
  17 C :   -0.199875
  18 C :   -0.061271
  19 C :   -0.055171
  20 C :   -0.198259
  21 H :    0.018725
  22 C :   -0.042338
  23 H :    0.030870
  24 H :    0.036470
  25 C :   -0.040914
  26 H :    0.028913
  27 H :    0.027409
  28 C :   -0.069148
  29 H :    0.035805
  30 H :    0.021815
  31 H :    0.023924
  32 H :    0.031100
  33 H :    0.046115

  Mayer bond orders larger than 0.100000
B(  0-S ,  1-C ) :   1.1087 B(  0-S ,  4-C ) :   1.1435 B(  1-C ,  2-C ) :   1.6538
B(  1-C , 32-H ) :   0.9586 B(  2-C ,  3-C ) :   1.2313 B(  2-C ,  6-C ) :   1.0298
B(  3-C ,  4-C ) :   1.5707 B(  3-C ,  5-H ) :   0.9943 B(  4-C , 20-C ) :   1.0201
B(  6-C ,  7-H ) :   0.9417 B(  6-C ,  8-H ) :   0.9309 B(  6-C ,  9-C ) :   1.0589
B(  9-C , 10-H ) :   0.9548 B(  9-C , 11-H ) :   0.9540 B(  9-C , 12-C ) :   1.0874
B( 12-C , 13-H ) :   0.9744 B( 12-C , 14-H ) :   0.9719 B( 12-C , 15-H ) :   0.9772
B( 16-S , 17-C ) :   1.1525 B( 16-S , 20-C ) :   1.1388 B( 17-C , 18-C ) :   1.6226
B( 17-C , 33-H ) :   0.9547 B( 18-C , 19-C ) :   1.2290 B( 18-C , 21-H ) :   0.9999
B( 19-C , 20-C ) :   1.6142 B( 19-C , 22-C ) :   1.0540 B( 22-C , 23-H ) :   0.9286
B( 22-C , 24-H ) :   0.9063 B( 22-C , 25-C ) :   1.0866 B( 25-C , 26-H ) :   0.9511
B( 25-C , 27-H ) :   0.9539 B( 25-C , 28-C ) :   1.0638 B( 28-C , 29-H ) :   0.9753
B( 28-C , 30-H ) :   0.9797 B( 28-C , 31-H ) :   0.9753

Dispersion correction           -0.014092635
FINAL SINGLE POINT ENERGY     -1339.872324770524

DIPOLE MOMENT
-------------
                                X             Y             Z
Electronic contribution:     -4.17166      -2.28057     -26.34337
Nuclear contribution   :      4.10902       2.67904      26.97553
                        -----------------------------------------
Total Dipole Moment    :     -0.06263       0.39846       0.63216
                        -----------------------------------------
Magnitude (a.u.)       :      0.74988
Magnitude (Debye)      :      1.90604

Rotational constants in cm-1:     0.018666     0.007951     0.006927
Rotational constants in MHz :   559.597214   238.351224   207.660856

                             ****ORCA TERMINATED NORMALLY****
TOTAL RUN TIME: 0 days 0 hours 0 minutes 34 seconds 600 msec
