                         Program Version 4.2.1 -  RELEASE  -
|  1> ! wB97X-D3 SP def2-SVP
|  2> %pal
|  3> nprocs 16
|  4> end
|  5>
|  6> * xyz 0 1
|  7> S 	 -70.9783 	 57.2536 	 122.654
|  8> C 	 -71.3472 	 58.9475 	 122.206
|  9> C 	 -71.6844 	 59.6746 	 123.301
| 10> C 	 -71.8779 	 58.8177 	 124.473
| 11> C 	 -71.4916 	 57.5083 	 124.299
| 12> H 	 -72.3047 	 59.1296 	 125.391
| 13> C 	 -71.9057 	 61.1612 	 123.476
| 14> H 	 -71.24 	 61.6818 	 122.85
| 15> H 	 -71.607 	 61.4126 	 124.468
| 16> C 	 -73.2987 	 61.6008 	 123.136
| 17> H 	 -73.6031 	 61.2395 	 122.133
| 18> H 	 -74.0403 	 61.2454 	 123.893
| 19> C 	 -73.5302 	 63.1333 	 123.061
| 20> H 	 -72.9066 	 63.73 	 122.424
| 21> H 	 -74.5563 	 63.3804 	 122.67
| 22> H 	 -73.5069 	 63.6069 	 123.996
| 23> S 	 -72.6333 	 55.6683 	 125.978
| 24> C 	 -71.4982 	 54.7532 	 126.881
| 25> C 	 -70.1542 	 55.0364 	 126.776
| 26> C 	 -69.9495 	 56.0326 	 125.801
| 27> C 	 -71.2316 	 56.4932 	 125.277
| 28> H 	 -69.2918 	 54.5412 	 127.236
| 29> C 	 -68.6066 	 56.7209 	 125.52
| 30> H 	 -68.7314 	 57.7734 	 125.402
| 31> H 	 -68.3919 	 56.5142 	 124.469
| 32> C 	 -67.4595 	 56.2784 	 126.448
| 33> H 	 -67.2903 	 55.232 	 126.403
| 34> H 	 -67.686 	 56.4955 	 127.52
| 35> C 	 -66.1104 	 56.9932 	 126.109
| 36> H 	 -66.265 	 58.0122 	 125.914
| 37> H 	 -65.7232 	 56.4301 	 125.184
| 38> H 	 -65.3197 	 56.88 	 126.842
| 39> H 	 -71.1433 	 59.3741 	 121.247
| 40> H 	 -71.911 	 54.0339 	 127.634
| 41> *
| 42>
| 43>                          ****END OF INPUT****

CARTESIAN COORDINATES (ANGSTROEM)
---------------------------------
  S    -70.978300   57.253600  122.654000
  C    -71.347200   58.947500  122.206000
  C    -71.684400   59.674600  123.301000
  C    -71.877900   58.817700  124.473000
  C    -71.491600   57.508300  124.299000
  H    -72.304700   59.129600  125.391000
  C    -71.905700   61.161200  123.476000
  H    -71.240000   61.681800  122.850000
  H    -71.607000   61.412600  124.468000
  C    -73.298700   61.600800  123.136000
  H    -73.603100   61.239500  122.133000
  H    -74.040300   61.245400  123.893000
  C    -73.530200   63.133300  123.061000
  H    -72.906600   63.730000  122.424000
  H    -74.556300   63.380400  122.670000
  H    -73.506900   63.606900  123.996000
  S    -72.633300   55.668300  125.978000
  C    -71.498200   54.753200  126.881000
  C    -70.154200   55.036400  126.776000
  C    -69.949500   56.032600  125.801000
  C    -71.231600   56.493200  125.277000
  H    -69.291800   54.541200  127.236000
  C    -68.606600   56.720900  125.520000
  H    -68.731400   57.773400  125.402000
  H    -68.391900   56.514200  124.469000
  C    -67.459500   56.278400  126.448000
  H    -67.290300   55.232000  126.403000
  H    -67.686000   56.495500  127.520000
  C    -66.110400   56.993200  126.109000
  H    -66.265000   58.012200  125.914000
  H    -65.723200   56.430100  125.184000
  H    -65.319700   56.880000  126.842000
  H    -71.143300   59.374100  121.247000
  H    -71.911000   54.033900  127.634000

 Total Charge           Charge          ....    0
 Multiplicity           Mult            ....    1
 Number of Electrons    NEL             ....  134
 Basis Dimension        Dim             ....  322

ORBITAL ENERGIES
----------------

  NO   OCC          E(Eh)            E(eV)
   0   2.0000     -88.971706     -2421.0432
   1   2.0000     -88.959902     -2420.7220
   2   2.0000     -10.323866      -280.9267
   3   2.0000     -10.322029      -280.8767
   4   2.0000     -10.317004      -280.7399
   5   2.0000     -10.312335      -280.6129
   6   2.0000     -10.309042      -280.5233
   7   2.0000     -10.300503      -280.2909
   8   2.0000     -10.293145      -280.0907
   9   2.0000     -10.292007      -280.0597
  10   2.0000     -10.291982      -280.0591
  11   2.0000     -10.291960      -280.0585
  12   2.0000     -10.289973      -280.0044
  13   2.0000     -10.285785      -279.8904
  14   2.0000     -10.281792      -279.7818
  15   2.0000     -10.274848      -279.5928
  16   2.0000      -8.086527      -220.0456
  17   2.0000      -8.074330      -219.7137
  18   2.0000      -6.044545      -164.4804
  19   2.0000      -6.041258      -164.3910
  20   2.0000      -6.037579      -164.2909
  21   2.0000      -6.033031      -164.1671
  22   2.0000      -6.028829      -164.0528
  23   2.0000      -6.024950      -163.9472
  24   2.0000      -1.002547       -27.2807
  25   2.0000      -0.980354       -26.6768
  26   2.0000      -0.915112       -24.9015
  27   2.0000      -0.907808       -24.7027
  28   2.0000      -0.867770       -23.6132
  29   2.0000      -0.853461       -23.2239
  30   2.0000      -0.840699       -22.8766
  31   2.0000      -0.810081       -22.0434
  32   2.0000      -0.788310       -21.4510
  33   2.0000      -0.769552       -20.9406
  34   2.0000      -0.711030       -19.3481
  35   2.0000      -0.702968       -19.1287
  36   2.0000      -0.694319       -18.8934
  37   2.0000      -0.651885       -17.7387
  38   2.0000      -0.640286       -17.4231
  39   2.0000      -0.617755       -16.8100
  40   2.0000      -0.602463       -16.3938
  41   2.0000      -0.571236       -15.5441
  42   2.0000      -0.563629       -15.3371
  43   2.0000      -0.554633       -15.0923
  44   2.0000      -0.528520       -14.3818
  45   2.0000      -0.524580       -14.2745
  46   2.0000      -0.513033       -13.9603
  47   2.0000      -0.510900       -13.9023
  48   2.0000      -0.507476       -13.8091
  49   2.0000      -0.493698       -13.4342
  50   2.0000      -0.482806       -13.1378
  51   2.0000      -0.479180       -13.0392
  52   2.0000      -0.471679       -12.8350
  53   2.0000      -0.467618       -12.7245
  54   2.0000      -0.460241       -12.5238
  55   2.0000      -0.453730       -12.3466
  56   2.0000      -0.442898       -12.0519
  57   2.0000      -0.438121       -11.9219
  58   2.0000      -0.433653       -11.8003
  59   2.0000      -0.429216       -11.6796
  60   2.0000      -0.423483       -11.5236
  61   2.0000      -0.416860       -11.3433
  62   2.0000      -0.414977       -11.2921
  63   2.0000      -0.339388        -9.2352
  64   2.0000      -0.327349        -8.9076
  65   2.0000      -0.325352        -8.8533
  66   2.0000      -0.292279        -7.9533
  67   0.0000       0.037012         1.0072
  68   0.0000       0.061227         1.6661
  69   0.0000       0.106240         2.8909
  70   0.0000       0.115978         3.1559
  71   0.0000       0.132681         3.6104

MULLIKEN ATOMIC CHARGES
-----------------------
   0 S :    0.092075
   1 C :   -0.116034
   2 C :   -0.100860
   3 C :    0.049039
   4 C :   -0.158091
   5 H :   -0.005297
   6 C :    0.146010
   7 H :    0.000125
   8 H :    0.012645
   9 C :   -0.085373
  10 H :    0.034222
  11 H :    0.037172
  12 C :   -0.044732
  13 H :    0.020064
  14 H :    0.029966
  15 H :    0.016167
  16 S :    0.138722
  17 C :   -0.086548
  18 C :   -0.042628
  19 C :   -0.037150
  20 C :   -0.207668
  21 H :    0.027249
  22 C :    0.107758
  23 H :    0.024973
  24 H :    0.019061
  25 C :   -0.107044
  26 H :    0.033056
  27 H :    0.040597
  28 C :   -0.040152
  29 H :    0.030176
  30 H :    0.037095
  31 H :    0.034756
  32 H :    0.036555
  33 H :    0.064094
Sum of atomic charges:   -0.0000000

LOEWDIN ATOMIC CHARGES
----------------------
   0 S :    0.386903
   1 C :   -0.182307
   2 C :   -0.055752
   3 C :   -0.056753
   4 C :   -0.203767
   5 H :    0.022519
   6 C :   -0.026291
   7 H :    0.024370
   8 H :    0.028643
   9 C :   -0.037875
  10 H :    0.028861
  11 H :    0.030894
  12 C :   -0.070815
  13 H :    0.018319
  14 H :    0.033245
  15 H :    0.014846
  16 S :    0.429199
  17 C :   -0.196809
  18 C :   -0.080351
  19 C :   -0.035918
  20 C :   -0.216439
  21 H :    0.039012
  22 C :   -0.034846
  23 H :    0.032473
  24 H :    0.035534
  25 C :   -0.041225
  26 H :    0.018323
  27 H :    0.027090
  28 C :   -0.060173
  29 H :    0.016812
  30 H :    0.034849
  31 H :    0.024630
  32 H :    0.023447
  33 H :    0.029352

  Mayer bond orders larger than 0.100000
B(  0-S ,  1-C ) :   1.1130 B(  0-S ,  4-C ) :   1.1369 B(  1-C ,  2-C ) :   1.6593
B(  1-C , 32-H ) :   0.9720 B(  2-C ,  3-C ) :   1.2012 B(  2-C ,  6-C ) :   1.0250
B(  3-C ,  4-C ) :   1.6120 B(  3-C ,  5-H ) :   0.9981 B(  4-C , 20-C ) :   1.0321
B(  6-C ,  7-H ) :   0.9298 B(  6-C ,  8-H ) :   0.9328 B(  6-C ,  9-C ) :   1.0725
B(  9-C , 10-H ) :   0.9586 B(  9-C , 11-H ) :   0.9540 B(  9-C , 12-C ) :   1.0809
B( 12-C , 13-H ) :   0.9754 B( 12-C , 14-H ) :   0.9742 B( 12-C , 15-H ) :   0.9751
B( 16-S , 17-C ) :   1.1832 B( 16-S , 20-C ) :   1.1635 B( 17-C , 18-C ) :   1.5641
B( 17-C , 20-C ) :   0.1098 B( 17-C , 33-H ) :   0.9534 B( 18-C , 19-C ) :   1.3106
B( 18-C , 21-H ) :   0.9788 B( 19-C , 20-C ) :   1.5412 B( 19-C , 22-C ) :   1.0219
B( 22-C , 23-H ) :   0.9306 B( 22-C , 24-H ) :   0.9133 B( 22-C , 25-C ) :   1.0697
B( 25-C , 26-H ) :   0.9525 B( 25-C , 27-H ) :   0.9550 B( 25-C , 28-C ) :   1.0782
B( 28-C , 29-H ) :   0.9783 B( 28-C , 30-H ) :   0.9773 B( 28-C , 31-H ) :   0.9758

Dispersion correction           -0.013721403
FINAL SINGLE POINT ENERGY     -1339.867287802732

DIPOLE MOMENT
-------------
                                X             Y             Z
Electronic contribution:    -10.94258     -19.85497      -1.57989
Nuclear contribution   :     11.27213      20.33920       1.83540
                        -----------------------------------------
Total Dipole Moment    :      0.32955       0.48423       0.25552
                        -----------------------------------------
Magnitude (a.u.)       :      0.63904
Magnitude (Debye)      :      1.62430

Rotational constants in cm-1:     0.019128     0.007268     0.006187
Rotational constants in MHz :   573.434402   217.893787   185.467831

                             ****ORCA TERMINATED NORMALLY****
TOTAL RUN TIME: 0 days 0 hours 0 minutes 32 seconds 115 msec
