                         Program Version 4.2.1 -  RELEASE  -
|  1> ! wB97X-D3 SP def2-SVP
|  2> %pal
|  3> nprocs 16
|  4> end
|  5>
|  6> * xyz 0 1
|  7> S 	 39.421 	 17.5062 	 64.8424
|  8> C 	 38.3415 	 18.6591 	 65.5667
|  9> C 	 38.4578 	 18.6206 	 66.9306
| 10> C 	 39.393 	 17.6408 	 67.4138
| 11> C 	 40.0504 	 17.011 	 66.397
| 12> H 	 39.6927 	 17.4483 	 68.4306
| 13> C 	 37.4585 	 19.2964 	 67.8412
| 14> H 	 37.4434 	 18.5347 	 68.697
| 15> H 	 36.4872 	 19.2938 	 67.3889
| 16> C 	 37.8047 	 20.6394 	 68.4389
| 17> H 	 38.5252 	 20.5485 	 69.221
| 18> H 	 38.2437 	 21.3693 	 67.7586
| 19> C 	 36.6377 	 21.3814 	 69.0507
| 20> H 	 36.024 	 21.7977 	 68.2269
| 21> H 	 36.0706 	 20.6943 	 69.6378
| 22> H 	 36.9439 	 22.2719 	 69.5609
| 23> S 	 42.507 	 16.3653 	 67.3823
| 24> C 	 43.1923 	 14.6975 	 67.3181
| 25> C 	 42.2095 	 13.8613 	 66.7937
| 26> C 	 41.0357 	 14.5718 	 66.2683
| 27> C 	 41.0219 	 15.9277 	 66.549
| 28> H 	 42.3659 	 12.7909 	 66.907
| 29> C 	 39.8638 	 13.9211 	 65.5649
| 30> H 	 39.6151 	 14.7407 	 64.9557
| 31> H 	 39.0756 	 13.7091 	 66.2284
| 32> C 	 40.2151 	 12.6566 	 64.803
| 33> H 	 39.2396 	 12.2621 	 64.3886
| 34> H 	 40.6081 	 11.9048 	 65.5107
| 35> C 	 41.0002 	 13.0143 	 63.4931
| 36> H 	 40.4477 	 13.7917 	 62.9731
| 37> H 	 41.0419 	 12.2791 	 62.784
| 38> H 	 41.9726 	 13.3867 	 63.6612
| 39> H 	 37.5726 	 19.2423 	 65.1187
| 40> H 	 44.1539 	 14.4145 	 67.7283
| 41> *
| 42>
| 43>                          ****END OF INPUT****

CARTESIAN COORDINATES (ANGSTROEM)
---------------------------------
  S     39.421000   17.506200   64.842400
  C     38.341500   18.659100   65.566700
  C     38.457800   18.620600   66.930600
  C     39.393000   17.640800   67.413800
  C     40.050400   17.011000   66.397000
  H     39.692700   17.448300   68.430600
  C     37.458500   19.296400   67.841200
  H     37.443400   18.534700   68.697000
  H     36.487200   19.293800   67.388900
  C     37.804700   20.639400   68.438900
  H     38.525200   20.548500   69.221000
  H     38.243700   21.369300   67.758600
  C     36.637700   21.381400   69.050700
  H     36.024000   21.797700   68.226900
  H     36.070600   20.694300   69.637800
  H     36.943900   22.271900   69.560900
  S     42.507000   16.365300   67.382300
  C     43.192300   14.697500   67.318100
  C     42.209500   13.861300   66.793700
  C     41.035700   14.571800   66.268300
  C     41.021900   15.927700   66.549000
  H     42.365900   12.790900   66.907000
  C     39.863800   13.921100   65.564900
  H     39.615100   14.740700   64.955700
  H     39.075600   13.709100   66.228400
  C     40.215100   12.656600   64.803000
  H     39.239600   12.262100   64.388600
  H     40.608100   11.904800   65.510700
  C     41.000200   13.014300   63.493100
  H     40.447700   13.791700   62.973100
  H     41.041900   12.279100   62.784000
  H     41.972600   13.386700   63.661200
  H     37.572600   19.242300   65.118700
  H     44.153900   14.414500   67.728300

 Total Charge           Charge          ....    0
 Multiplicity           Mult            ....    1
 Number of Electrons    NEL             ....  134
 Basis Dimension        Dim             ....  322

ORBITAL ENERGIES
----------------

  NO   OCC          E(Eh)            E(eV)
   0   2.0000     -88.969053     -2420.9710
   1   2.0000     -88.960381     -2420.7350
   2   2.0000     -10.331503      -281.1345
   3   2.0000     -10.327207      -281.0176
   4   2.0000     -10.324806      -280.9523
   5   2.0000     -10.311555      -280.5917
   6   2.0000     -10.306559      -280.4557
   7   2.0000     -10.301865      -280.3280
   8   2.0000     -10.299964      -280.2763
   9   2.0000     -10.295265      -280.1484
  10   2.0000     -10.294236      -280.1204
  11   2.0000     -10.291902      -280.0569
  12   2.0000     -10.278257      -279.6856
  13   2.0000     -10.277208      -279.6571
  14   2.0000     -10.273052      -279.5440
  15   2.0000     -10.264922      -279.3227
  16   2.0000      -8.083505      -219.9633
  17   2.0000      -8.074325      -219.7136
  18   2.0000      -6.042102      -164.4140
  19   2.0000      -6.037961      -164.3013
  20   2.0000      -6.034281      -164.2011
  21   2.0000      -6.033014      -164.1667
  22   2.0000      -6.028838      -164.0530
  23   2.0000      -6.025031      -163.9494
  24   2.0000      -1.008324       -27.4379
  25   2.0000      -0.980627       -26.6842
  26   2.0000      -0.915665       -24.9165
  27   2.0000      -0.908887       -24.7321
  28   2.0000      -0.874546       -23.7976
  29   2.0000      -0.854205       -23.2441
  30   2.0000      -0.838721       -22.8228
  31   2.0000      -0.819746       -22.3064
  32   2.0000      -0.782800       -21.3011
  33   2.0000      -0.773207       -21.0400
  34   2.0000      -0.710135       -19.3237
  35   2.0000      -0.702706       -19.1216
  36   2.0000      -0.696844       -18.9621
  37   2.0000      -0.657177       -17.8827
  38   2.0000      -0.642481       -17.4828
  39   2.0000      -0.619011       -16.8441
  40   2.0000      -0.592997       -16.1363
  41   2.0000      -0.575926       -15.6717
  42   2.0000      -0.563494       -15.3334
  43   2.0000      -0.560853       -15.2616
  44   2.0000      -0.539905       -14.6916
  45   2.0000      -0.532100       -14.4792
  46   2.0000      -0.524804       -14.2806
  47   2.0000      -0.513593       -13.9756
  48   2.0000      -0.506637       -13.7863
  49   2.0000      -0.503221       -13.6933
  50   2.0000      -0.497189       -13.5292
  51   2.0000      -0.478526       -13.0214
  52   2.0000      -0.467533       -12.7222
  53   2.0000      -0.462717       -12.5912
  54   2.0000      -0.458976       -12.4894
  55   2.0000      -0.444427       -12.0935
  56   2.0000      -0.444013       -12.0822
  57   2.0000      -0.438274       -11.9260
  58   2.0000      -0.432753       -11.7758
  59   2.0000      -0.426825       -11.6145
  60   2.0000      -0.424190       -11.5428
  61   2.0000      -0.406346       -11.0572
  62   2.0000      -0.403326       -10.9751
  63   2.0000      -0.345116        -9.3911
  64   2.0000      -0.332000        -9.0342
  65   2.0000      -0.323937        -8.8148
  66   2.0000      -0.300699        -8.1824
  67   0.0000       0.033910         0.9227
  68   0.0000       0.066059         1.7976
  69   0.0000       0.107550         2.9266
  70   0.0000       0.120824         3.2878
  71   0.0000       0.122348         3.3293

MULLIKEN ATOMIC CHARGES
-----------------------
   0 S :    0.114915
   1 C :   -0.098649
   2 C :   -0.074641
   3 C :    0.042797
   4 C :   -0.154442
   5 H :    0.017011
   6 C :    0.032101
   7 H :    0.034504
   8 H :    0.022025
   9 C :   -0.048720
  10 H :    0.016426
  11 H :    0.023112
  12 C :   -0.039034
  13 H :    0.024831
  14 H :    0.026923
  15 H :    0.029394
  16 S :    0.081452
  17 C :   -0.103261
  18 C :   -0.039326
  19 C :   -0.069701
  20 C :   -0.162700
  21 H :    0.031370
  22 C :    0.146178
  23 H :   -0.009007
  24 H :    0.031706
  25 C :   -0.106272
  26 H :    0.032854
  27 H :    0.040224
  28 C :   -0.000751
  29 H :    0.017501
  30 H :    0.009770
  31 H :    0.030926
  32 H :    0.035858
  33 H :    0.064629
Sum of atomic charges:    0.0000000

LOEWDIN ATOMIC CHARGES
----------------------
   0 S :    0.416347
   1 C :   -0.195384
   2 C :   -0.063381
   3 C :   -0.057844
   4 C :   -0.194227
   5 H :    0.032919
   6 C :   -0.033186
   7 H :    0.043090
   8 H :    0.025872
   9 C :   -0.045472
  10 H :    0.019547
  11 H :    0.023627
  12 C :   -0.059059
  13 H :    0.025752
  14 H :    0.018616
  15 H :    0.024910
  16 S :    0.378804
  17 C :   -0.168306
  18 C :   -0.073993
  19 C :   -0.052589
  20 C :   -0.198153
  21 H :    0.033596
  22 C :   -0.028301
  23 H :    0.015304
  24 H :    0.029197
  25 C :   -0.040243
  26 H :    0.031789
  27 H :    0.023919
  28 C :   -0.053646
  29 H :    0.029983
  30 H :    0.012054
  31 H :    0.019835
  32 H :    0.027169
  33 H :    0.031455

  Mayer bond orders larger than 0.100000
B(  0-S ,  1-C ) :   1.1307 B(  0-S ,  4-C ) :   1.1459 B(  1-C ,  2-C ) :   1.6267
B(  1-C , 32-H ) :   0.9722 B(  2-C ,  3-C ) :   1.2319 B(  2-C ,  6-C ) :   1.0133
B(  3-C ,  4-C ) :   1.6018 B(  3-C ,  5-H ) :   0.9894 B(  4-C , 20-C ) :   1.0081
B(  6-C ,  7-H ) :   0.9377 B(  6-C ,  8-H ) :   0.9545 B(  6-C ,  9-C ) :   1.0582
B(  9-C , 10-H ) :   0.9514 B(  9-C , 11-H ) :   0.9591 B(  9-C , 12-C ) :   1.0917
B( 12-C , 13-H ) :   0.9754 B( 12-C , 14-H ) :   0.9742 B( 12-C , 15-H ) :   0.9723
B( 16-S , 17-C ) :   1.1416 B( 16-S , 20-C ) :   1.1335 B( 17-C , 18-C ) :   1.6220
B( 17-C , 33-H ) :   0.9693 B( 18-C , 19-C ) :   1.2036 B( 18-C , 21-H ) :   0.9876
B( 19-C , 20-C ) :   1.6233 B( 19-C , 22-C ) :   1.0141 B( 22-C , 23-H ) :   0.9259
B( 22-C , 24-H ) :   0.9234 B( 22-C , 25-C ) :   1.0942 B( 25-C , 26-H ) :   0.9546
B( 25-C , 27-H ) :   0.9522 B( 25-C , 28-C ) :   1.0642 B( 28-C , 29-H ) :   0.9695
B( 28-C , 30-H ) :   0.9769 B( 28-C , 31-H ) :   0.9783

Dispersion correction           -0.013932138
FINAL SINGLE POINT ENERGY     -1339.864603089749

DIPOLE MOMENT
-------------
                                X             Y             Z
Electronic contribution:     13.71494      -0.60235      -2.19688
Nuclear contribution   :    -14.13232       0.40084       2.43469
                        -----------------------------------------
Total Dipole Moment    :     -0.41738      -0.20151       0.23782
                        -----------------------------------------
Magnitude (a.u.)       :      0.52093
Magnitude (Debye)      :      1.32409

Rotational constants in cm-1:     0.025331     0.006920     0.005979
Rotational constants in MHz :   759.409280   207.458092   179.234937

                             ****ORCA TERMINATED NORMALLY****
TOTAL RUN TIME: 0 days 0 hours 0 minutes 29 seconds 125 msec
