                         Program Version 4.2.1 -  RELEASE  -
|  1> ! wB97X-D3 SP def2-SVP
|  2> %pal
|  3> nprocs 16
|  4> end
|  5>
|  6> * xyz 0 1
|  7> S 	 -34.2902 	 52.5099 	 103.848
|  8> C 	 -35.075 	 51.9018 	 102.411
|  9> C 	 -34.845 	 52.7203 	 101.328
| 10> C 	 -34.3411 	 54.019 	 101.707
| 11> C 	 -34.0168 	 54.0732 	 103.033
| 12> H 	 -34.1441 	 54.8569 	 101.004
| 13> C 	 -35.042 	 52.4267 	 99.8981
| 14> H 	 -35.7447 	 53.1193 	 99.6657
| 15> H 	 -35.6679 	 51.4775 	 99.8392
| 16> C 	 -33.7658 	 52.498 	 99.0818
| 17> H 	 -32.99 	 52.837 	 99.7397
| 18> H 	 -33.5473 	 51.462 	 98.6728
| 19> C 	 -33.8422 	 53.4016 	 97.769
| 20> H 	 -32.8578 	 53.4809 	 97.3101
| 21> H 	 -34.4265 	 53.0667 	 96.9803
| 22> H 	 -34.1039 	 54.3911 	 98.1411
| 23> S 	 -31.8681 	 54.9567 	 104.482
| 24> C 	 -31.6602 	 56.6547 	 104.731
| 25> C 	 -32.6831 	 57.4129 	 104.251
| 26> C 	 -33.6809 	 56.5609 	 103.676
| 27> C 	 -33.421 	 55.2076 	 103.735
| 28> H 	 -32.752 	 58.5215 	 104.283
| 29> C 	 -34.8702 	 57.2018 	 102.983
| 30> H 	 -34.7984 	 57.0668 	 101.909
| 31> H 	 -34.7352 	 58.2615 	 103.226
| 32> C 	 -36.2639 	 56.6757 	 103.355
| 33> H 	 -36.5454 	 57.1508 	 104.308
| 34> H 	 -36.2624 	 55.6223 	 103.571
| 35> C 	 -37.2827 	 57.0711 	 102.257
| 36> H 	 -37.168 	 56.4565 	 101.374
| 37> H 	 -37.2522 	 58.1174 	 101.914
| 38> H 	 -38.2508 	 56.922 	 102.663
| 39> H 	 -35.313 	 50.8224 	 102.283
| 40> H 	 -30.762 	 57.0453 	 105.202
| 41> *
| 42>
| 43>                          ****END OF INPUT****

CARTESIAN COORDINATES (ANGSTROEM)
---------------------------------
  S    -34.290200   52.509900  103.848000
  C    -35.075000   51.901800  102.411000
  C    -34.845000   52.720300  101.328000
  C    -34.341100   54.019000  101.707000
  C    -34.016800   54.073200  103.033000
  H    -34.144100   54.856900  101.004000
  C    -35.042000   52.426700   99.898100
  H    -35.744700   53.119300   99.665700
  H    -35.667900   51.477500   99.839200
  C    -33.765800   52.498000   99.081800
  H    -32.990000   52.837000   99.739700
  H    -33.547300   51.462000   98.672800
  C    -33.842200   53.401600   97.769000
  H    -32.857800   53.480900   97.310100
  H    -34.426500   53.066700   96.980300
  H    -34.103900   54.391100   98.141100
  S    -31.868100   54.956700  104.482000
  C    -31.660200   56.654700  104.731000
  C    -32.683100   57.412900  104.251000
  C    -33.680900   56.560900  103.676000
  C    -33.421000   55.207600  103.735000
  H    -32.752000   58.521500  104.283000
  C    -34.870200   57.201800  102.983000
  H    -34.798400   57.066800  101.909000
  H    -34.735200   58.261500  103.226000
  C    -36.263900   56.675700  103.355000
  H    -36.545400   57.150800  104.308000
  H    -36.262400   55.622300  103.571000
  C    -37.282700   57.071100  102.257000
  H    -37.168000   56.456500  101.374000
  H    -37.252200   58.117400  101.914000
  H    -38.250800   56.922000  102.663000
  H    -35.313000   50.822400  102.283000
  H    -30.762000   57.045300  105.202000

 Total Charge           Charge          ....    0
 Multiplicity           Mult            ....    1
 Number of Electrons    NEL             ....  134
 Basis Dimension        Dim             ....  322

ORBITAL ENERGIES
----------------

  NO   OCC          E(Eh)            E(eV)
   0   2.0000     -88.964716     -2420.8530
   1   2.0000     -88.963747     -2420.8266
   2   2.0000     -10.332889      -281.1722
   3   2.0000     -10.321376      -280.8589
   4   2.0000     -10.316106      -280.7155
   5   2.0000     -10.312969      -280.6301
   6   2.0000     -10.299286      -280.2578
   7   2.0000     -10.299192      -280.2553
   8   2.0000     -10.297043      -280.1968
   9   2.0000     -10.296040      -280.1695
  10   2.0000     -10.294737      -280.1340
  11   2.0000     -10.286553      -279.9113
  12   2.0000     -10.283666      -279.8328
  13   2.0000     -10.280723      -279.7527
  14   2.0000     -10.279058      -279.7074
  15   2.0000     -10.272825      -279.5378
  16   2.0000      -8.079378      -219.8511
  17   2.0000      -8.079172      -219.8454
  18   2.0000      -6.037821      -164.2975
  19   2.0000      -6.037792      -164.2967
  20   2.0000      -6.033938      -164.1918
  21   2.0000      -6.033786      -164.1877
  22   2.0000      -6.030150      -164.0887
  23   2.0000      -6.029604      -164.0739
  24   2.0000      -1.009350       -27.4658
  25   2.0000      -0.987507       -26.8714
  26   2.0000      -0.916189       -24.9308
  27   2.0000      -0.906166       -24.6580
  28   2.0000      -0.870207       -23.6795
  29   2.0000      -0.850448       -23.1419
  30   2.0000      -0.845615       -23.0104
  31   2.0000      -0.817175       -22.2365
  32   2.0000      -0.782596       -21.2955
  33   2.0000      -0.769853       -20.9488
  34   2.0000      -0.712665       -19.3926
  35   2.0000      -0.705486       -19.1973
  36   2.0000      -0.688753       -18.7419
  37   2.0000      -0.665452       -18.1079
  38   2.0000      -0.636571       -17.3220
  39   2.0000      -0.622927       -16.9507
  40   2.0000      -0.597356       -16.2549
  41   2.0000      -0.565929       -15.3997
  42   2.0000      -0.560042       -15.2395
  43   2.0000      -0.556102       -15.1323
  44   2.0000      -0.528896       -14.3920
  45   2.0000      -0.523819       -14.2538
  46   2.0000      -0.517854       -14.0915
  47   2.0000      -0.507170       -13.8008
  48   2.0000      -0.504060       -13.7162
  49   2.0000      -0.502219       -13.6661
  50   2.0000      -0.492484       -13.4012
  51   2.0000      -0.487468       -13.2647
  52   2.0000      -0.470257       -12.7963
  53   2.0000      -0.466176       -12.6853
  54   2.0000      -0.460608       -12.5338
  55   2.0000      -0.454566       -12.3694
  56   2.0000      -0.446832       -12.1589
  57   2.0000      -0.439312       -11.9543
  58   2.0000      -0.431761       -11.7488
  59   2.0000      -0.425296       -11.5729
  60   2.0000      -0.418039       -11.3754
  61   2.0000      -0.413590       -11.2543
  62   2.0000      -0.410473       -11.1695
  63   2.0000      -0.351369        -9.5612
  64   2.0000      -0.330788        -9.0012
  65   2.0000      -0.325724        -8.8634
  66   2.0000      -0.293844        -7.9959
  67   0.0000       0.031828         0.8661
  68   0.0000       0.069011         1.8779
  69   0.0000       0.105991         2.8842
  70   0.0000       0.118694         3.2298
  71   0.0000       0.130092         3.5400

MULLIKEN ATOMIC CHARGES
-----------------------
   0 S :    0.098281
   1 C :   -0.116219
   2 C :   -0.154504
   3 C :    0.001644
   4 C :   -0.150925
   5 H :    0.033519
   6 C :    0.129243
   7 H :    0.003593
   8 H :    0.020637
   9 C :   -0.090964
  10 H :    0.050499
  11 H :    0.044911
  12 C :   -0.041662
  13 H :    0.029463
  14 H :    0.029724
  15 H :    0.025924
  16 S :    0.101579
  17 C :   -0.090038
  18 C :   -0.028908
  19 C :   -0.083486
  20 C :   -0.119170
  21 H :    0.035752
  22 C :    0.068950
  23 H :    0.023880
  24 H :    0.013964
  25 C :   -0.067310
  26 H :    0.024525
  27 H :    0.046524
  28 C :   -0.042909
  29 H :    0.029142
  30 H :    0.031131
  31 H :    0.023701
  32 H :    0.062020
  33 H :    0.057487
Sum of atomic charges:   -0.0000000

LOEWDIN ATOMIC CHARGES
----------------------
   0 S :    0.382471
   1 C :   -0.212640
   2 C :   -0.058662
   3 C :   -0.067457
   4 C :   -0.176568
   5 H :    0.039359
   6 C :   -0.038181
   7 H :    0.019850
   8 H :    0.038296
   9 C :   -0.034516
  10 H :    0.026288
  11 H :    0.035738
  12 C :   -0.058104
  13 H :    0.028704
  14 H :    0.016234
  15 H :    0.020883
  16 S :    0.416939
  17 C :   -0.182807
  18 C :   -0.078676
  19 C :   -0.056774
  20 C :   -0.210952
  21 H :    0.041358
  22 C :   -0.033351
  23 H :    0.025628
  24 H :    0.029061
  25 C :   -0.034886
  26 H :    0.024953
  27 H :    0.025958
  28 C :   -0.062815
  29 H :    0.022400
  30 H :    0.026938
  31 H :    0.021707
  32 H :    0.035071
  33 H :    0.028553

  Mayer bond orders larger than 0.100000
B(  0-S ,  1-C ) :   1.1126 B(  0-S ,  4-C ) :   1.1392 B(  1-C ,  2-C ) :   1.6606
B(  1-C , 32-H ) :   0.9532 B(  2-C ,  3-C ) :   1.1962 B(  2-C ,  6-C ) :   1.0252
B(  3-C ,  4-C ) :   1.6086 B(  3-C ,  5-H ) :   0.9854 B(  4-C , 20-C ) :   1.0182
B(  6-C ,  7-H ) :   0.9355 B(  6-C ,  8-H ) :   0.9306 B(  6-C ,  9-C ) :   1.0252
B(  9-C , 10-H ) :   0.9701 B(  9-C , 11-H ) :   0.9566 B(  9-C , 12-C ) :   1.0709
B( 12-C , 13-H ) :   0.9744 B( 12-C , 14-H ) :   0.9796 B( 12-C , 15-H ) :   0.9795
B( 16-S , 17-C ) :   1.1759 B( 16-S , 20-C ) :   1.1314 B( 17-C , 18-C ) :   1.5929
B( 17-C , 33-H ) :   0.9639 B( 18-C , 19-C ) :   1.2612 B( 18-C , 21-H ) :   0.9846
B( 19-C , 20-C ) :   1.6090 B( 19-C , 22-C ) :   1.0351 B( 22-C , 23-H ) :   0.9382
B( 22-C , 24-H ) :   0.9292 B( 22-C , 25-C ) :   1.0565 B( 25-C , 26-H ) :   0.9544
B( 25-C , 27-H ) :   0.9611 B( 25-C , 28-C ) :   1.0785 B( 28-C , 29-H ) :   0.9746
B( 28-C , 30-H ) :   0.9752 B( 28-C , 31-H ) :   0.9739

Dispersion correction           -0.014823144
FINAL SINGLE POINT ENERGY     -1339.870950620401

DIPOLE MOMENT
-------------
                                X             Y             Z
Electronic contribution:     13.43070      -7.56151      22.69764
Nuclear contribution   :    -13.49147       7.87724     -23.35467
                        -----------------------------------------
Total Dipole Moment    :     -0.06077       0.31573      -0.65703
                        -----------------------------------------
Magnitude (a.u.)       :      0.73148
Magnitude (Debye)      :      1.85928

Rotational constants in cm-1:     0.016465     0.009374     0.008081
Rotational constants in MHz :   493.610421   281.023161   242.268388

                             ****ORCA TERMINATED NORMALLY****
TOTAL RUN TIME: 0 days 0 hours 0 minutes 31 seconds 3 msec
