                         Program Version 4.2.1 -  RELEASE  -
|  1> ! wB97X-D3 SP def2-SVP
|  2> %pal
|  3> nprocs 16
|  4> end
|  5>
|  6> * xyz 0 1
|  7> S 	 4.78116 	 -23.5591 	 86.7176
|  8> C 	 3.426 	 -24.7076 	 86.4521
|  9> C 	 3.26052 	 -24.9279 	 85.1091
| 10> C 	 4.27164 	 -24.3423 	 84.2945
| 11> C 	 5.17263 	 -23.5982 	 84.9693
| 12> H 	 4.12638 	 -24.3578 	 83.2102
| 13> C 	 2.18324 	 -25.7051 	 84.3819
| 14> H 	 1.88191 	 -26.2646 	 85.2088
| 15> H 	 2.6362 	 -26.2835 	 83.5438
| 16> C 	 1.09228 	 -24.8595 	 83.8506
| 17> H 	 0.955395 	 -24.0816 	 84.6358
| 18> H 	 1.46726 	 -24.3017 	 83.0308
| 19> C 	 -0.0998382 	 -25.5784 	 83.331
| 20> H 	 -0.992802 	 -25.032 	 83.2434
| 21> H 	 0.141981 	 -26.0858 	 82.3852
| 22> H 	 -0.380051 	 -26.4374 	 83.9959
| 23> S 	 7.87856 	 -23.3311 	 84.5578
| 24> C 	 8.54608 	 -22.0518 	 83.6085
| 25> C 	 7.55622 	 -21.1407 	 83.3598
| 26> C 	 6.21272 	 -21.5326 	 83.7912
| 27> C 	 6.25686 	 -22.7408 	 84.4231
| 28> H 	 7.84432 	 -20.2333 	 82.8025
| 29> C 	 4.96644 	 -20.7607 	 83.5744
| 30> H 	 4.09304 	 -21.39 	 83.7324
| 31> H 	 4.80343 	 -20.6067 	 82.5122
| 32> C 	 4.83548 	 -19.4833 	 84.4733
| 33> H 	 5.76293 	 -18.9847 	 84.6296
| 34> H 	 4.47704 	 -19.784 	 85.4522
| 35> C 	 3.6626 	 -18.6231 	 83.9399
| 36> H 	 4.03417 	 -17.9903 	 83.0966
| 37> H 	 3.31971 	 -17.8919 	 84.7167
| 38> H 	 2.7733 	 -19.2047 	 83.702
| 39> H 	 2.84764 	 -25.0829 	 87.2753
| 40> H 	 9.60526 	 -21.885 	 83.3661
| 41> *
| 42>
| 43>                          ****END OF INPUT****

CARTESIAN COORDINATES (ANGSTROEM)
---------------------------------
  S      4.781160  -23.559100   86.717600
  C      3.426000  -24.707600   86.452100
  C      3.260520  -24.927900   85.109100
  C      4.271640  -24.342300   84.294500
  C      5.172630  -23.598200   84.969300
  H      4.126380  -24.357800   83.210200
  C      2.183240  -25.705100   84.381900
  H      1.881910  -26.264600   85.208800
  H      2.636200  -26.283500   83.543800
  C      1.092280  -24.859500   83.850600
  H      0.955395  -24.081600   84.635800
  H      1.467260  -24.301700   83.030800
  C     -0.099838  -25.578400   83.331000
  H     -0.992802  -25.032000   83.243400
  H      0.141981  -26.085800   82.385200
  H     -0.380051  -26.437400   83.995900
  S      7.878560  -23.331100   84.557800
  C      8.546080  -22.051800   83.608500
  C      7.556220  -21.140700   83.359800
  C      6.212720  -21.532600   83.791200
  C      6.256860  -22.740800   84.423100
  H      7.844320  -20.233300   82.802500
  C      4.966440  -20.760700   83.574400
  H      4.093040  -21.390000   83.732400
  H      4.803430  -20.606700   82.512200
  C      4.835480  -19.483300   84.473300
  H      5.762930  -18.984700   84.629600
  H      4.477040  -19.784000   85.452200
  C      3.662600  -18.623100   83.939900
  H      4.034170  -17.990300   83.096600
  H      3.319710  -17.891900   84.716700
  H      2.773300  -19.204700   83.702000
  H      2.847640  -25.082900   87.275300
  H      9.605260  -21.885000   83.366100

 Total Charge           Charge          ....    0
 Multiplicity           Mult            ....    1
 Number of Electrons    NEL             ....  134
 Basis Dimension        Dim             ....  322

ORBITAL ENERGIES
----------------

  NO   OCC          E(Eh)            E(eV)
   0   2.0000     -88.964670     -2420.8517
   1   2.0000     -88.959171     -2420.7021
   2   2.0000     -10.332546      -281.1629
   3   2.0000     -10.321930      -280.8740
   4   2.0000     -10.319409      -280.8054
   5   2.0000     -10.315767      -280.7063
   6   2.0000     -10.302032      -280.3325
   7   2.0000     -10.298384      -280.2333
   8   2.0000     -10.295022      -280.1418
   9   2.0000     -10.291324      -280.0412
  10   2.0000     -10.287218      -279.9294
  11   2.0000     -10.285566      -279.8845
  12   2.0000     -10.285124      -279.8724
  13   2.0000     -10.282856      -279.8107
  14   2.0000     -10.280225      -279.7391
  15   2.0000     -10.277857      -279.6747
  16   2.0000      -8.078282      -219.8212
  17   2.0000      -8.074932      -219.7301
  18   2.0000      -6.036984      -164.2747
  19   2.0000      -6.033478      -164.1793
  20   2.0000      -6.033037      -164.1673
  21   2.0000      -6.029193      -164.0627
  22   2.0000      -6.028805      -164.0521
  23   2.0000      -6.025677      -163.9670
  24   2.0000      -1.006707       -27.3939
  25   2.0000      -0.985481       -26.8163
  26   2.0000      -0.924284       -25.1511
  27   2.0000      -0.906564       -24.6689
  28   2.0000      -0.870206       -23.6795
  29   2.0000      -0.850128       -23.1332
  30   2.0000      -0.845108       -22.9966
  31   2.0000      -0.819318       -22.2948
  32   2.0000      -0.782399       -21.2902
  33   2.0000      -0.769844       -20.9485
  34   2.0000      -0.707109       -19.2414
  35   2.0000      -0.702325       -19.1112
  36   2.0000      -0.698711       -19.0129
  37   2.0000      -0.655678       -17.8419
  38   2.0000      -0.642278       -17.4773
  39   2.0000      -0.627428       -17.0732
  40   2.0000      -0.598948       -16.2982
  41   2.0000      -0.582911       -15.8618
  42   2.0000      -0.559105       -15.2140
  43   2.0000      -0.554734       -15.0951
  44   2.0000      -0.528397       -14.3784
  45   2.0000      -0.524717       -14.2783
  46   2.0000      -0.519298       -14.1308
  47   2.0000      -0.515333       -14.0229
  48   2.0000      -0.511839       -13.9278
  49   2.0000      -0.502205       -13.6657
  50   2.0000      -0.498663       -13.5693
  51   2.0000      -0.481312       -13.0972
  52   2.0000      -0.468569       -12.7504
  53   2.0000      -0.462819       -12.5939
  54   2.0000      -0.458399       -12.4737
  55   2.0000      -0.449715       -12.2374
  56   2.0000      -0.445487       -12.1223
  57   2.0000      -0.434733       -11.8297
  58   2.0000      -0.433930       -11.8078
  59   2.0000      -0.419158       -11.4059
  60   2.0000      -0.417263       -11.3543
  61   2.0000      -0.412539       -11.2258
  62   2.0000      -0.406212       -11.0536
  63   2.0000      -0.336286        -9.1508
  64   2.0000      -0.328218        -8.9313
  65   2.0000      -0.323017        -8.7897
  66   2.0000      -0.315613        -8.5883
  67   0.0000       0.046109         1.2547
  68   0.0000       0.059970         1.6319
  69   0.0000       0.108397         2.9496
  70   0.0000       0.123667         3.3652
  71   0.0000       0.131653         3.5825

MULLIKEN ATOMIC CHARGES
-----------------------
   0 S :    0.091989
   1 C :   -0.136520
   2 C :   -0.122939
   3 C :    0.058042
   4 C :   -0.144723
   5 H :    0.021233
   6 C :    0.097514
   7 H :    0.000609
   8 H :    0.034377
   9 C :   -0.059934
  10 H :    0.028103
  11 H :    0.008388
  12 C :   -0.009414
  13 H :    0.031347
  14 H :    0.027068
  15 H :    0.019257
  16 S :    0.107754
  17 C :   -0.097777
  18 C :   -0.054178
  19 C :   -0.007033
  20 C :   -0.183488
  21 H :    0.024882
  22 C :    0.070071
  23 H :    0.010862
  24 H :    0.023045
  25 C :   -0.046678
  26 H :    0.031288
  27 H :    0.026966
  28 C :   -0.078654
  29 H :    0.041967
  30 H :    0.034858
  31 H :    0.037474
  32 H :    0.046134
  33 H :    0.068107
Sum of atomic charges:   -0.0000000

LOEWDIN ATOMIC CHARGES
----------------------
   0 S :    0.366289
   1 C :   -0.179433
   2 C :   -0.061291
   3 C :   -0.061143
   4 C :   -0.174514
   5 H :    0.035885
   6 C :   -0.026230
   7 H :    0.022414
   8 H :    0.034741
   9 C :   -0.049355
  10 H :    0.029499
  11 H :    0.018369
  12 C :   -0.062429
  13 H :    0.022372
  14 H :    0.029576
  15 H :    0.027857
  16 S :    0.417306
  17 C :   -0.196791
  18 C :   -0.078164
  19 C :   -0.056097
  20 C :   -0.208755
  21 H :    0.032915
  22 C :   -0.037691
  23 H :    0.031994
  24 H :    0.030318
  25 C :   -0.029270
  26 H :    0.019651
  27 H :    0.026271
  28 C :   -0.071130
  29 H :    0.027920
  30 H :    0.028152
  31 H :    0.025479
  32 H :    0.025897
  33 H :    0.039389

  Mayer bond orders larger than 0.100000
B(  0-S ,  1-C ) :   1.1157 B(  0-S ,  4-C ) :   1.1389 B(  1-C ,  2-C ) :   1.6356
B(  1-C , 32-H ) :   0.9737 B(  2-C ,  3-C ) :   1.2206 B(  2-C ,  6-C ) :   1.0133
B(  3-C ,  4-C ) :   1.6225 B(  3-C ,  5-H ) :   0.9912 B(  4-C , 20-C ) :   0.9763
B(  6-C ,  7-H ) :   0.9263 B(  6-C ,  8-H ) :   0.9378 B(  6-C ,  9-C ) :   1.0802
B(  9-C , 10-H ) :   0.9494 B(  9-C , 11-H ) :   0.9463 B(  9-C , 12-C ) :   1.0859
B( 12-C , 13-H ) :   0.9734 B( 12-C , 14-H ) :   0.9678 B( 12-C , 15-H ) :   0.9740
B( 16-S , 17-C ) :   1.1503 B( 16-S , 20-C ) :   1.1533 B( 17-C , 18-C ) :   1.6321
B( 17-C , 33-H ) :   0.9659 B( 18-C , 19-C ) :   1.2006 B( 18-C , 21-H ) :   0.9874
B( 19-C , 20-C ) :   1.6298 B( 19-C , 22-C ) :   1.0596 B( 22-C , 23-H ) :   0.9172
B( 22-C , 24-H ) :   0.9377 B( 22-C , 25-C ) :   1.0435 B( 25-C , 26-H ) :   0.9691
B( 25-C , 27-H ) :   0.9530 B( 25-C , 28-C ) :   1.0734 B( 28-C , 29-H ) :   0.9784
B( 28-C , 30-H ) :   0.9763 B( 28-C , 31-H ) :   0.9721

Dispersion correction           -0.014102465
FINAL SINGLE POINT ENERGY     -1339.873118443432

DIPOLE MOMENT
-------------
                                X             Y             Z
Electronic contribution:     24.92791      -7.20488      10.88508
Nuclear contribution   :    -25.45738       7.42371     -11.29578
                        -----------------------------------------
Total Dipole Moment    :     -0.52948       0.21883      -0.41070
                        -----------------------------------------
Magnitude (a.u.)       :      0.70492
Magnitude (Debye)      :      1.79175

Rotational constants in cm-1:     0.017537     0.008372     0.006898
Rotational constants in MHz :   525.736513   250.981132   206.794513

                             ****ORCA TERMINATED NORMALLY****
TOTAL RUN TIME: 0 days 0 hours 0 minutes 33 seconds 389 msec
