                         Program Version 4.2.1 -  RELEASE  -
|  1> ! wB97X-D3 SP def2-SVP
|  2> %pal
|  3> nprocs 16
|  4> end
|  5>
|  6> * xyz 0 1
|  7> S 	 -46.3372 	 -1.65383 	 98.5979
|  8> C 	 -47.0604 	 -3.02804 	 97.777
|  9> C 	 -47.5609 	 -2.6941 	 96.5424
| 10> C 	 -47.2704 	 -1.29145 	 96.2465
| 11> C 	 -46.7786 	 -0.600651 	 97.3127
| 12> H 	 -47.577 	 -0.787342 	 95.3173
| 13> C 	 -48.2961 	 -3.57185 	 95.5619
| 14> H 	 -49.336 	 -3.59887 	 95.8829
| 15> H 	 -47.8744 	 -4.55601 	 95.6709
| 16> C 	 -48.3292 	 -3.14867 	 94.0982
| 17> H 	 -48.7492 	 -3.92738 	 93.4689
| 18> H 	 -48.9746 	 -2.24751 	 93.8767
| 19> C 	 -46.9277 	 -3.05982 	 93.4964
| 20> H 	 -46.2732 	 -2.3185 	 93.9429
| 21> H 	 -46.3583 	 -4.01859 	 93.6915
| 22> H 	 -46.8893 	 -2.97559 	 92.4094
| 23> S 	 -45.3939 	 1.40836 	 98.5668
| 24> C 	 -45.368 	 2.95094 	 97.8829
| 25> C 	 -46.1829 	 3.02738 	 96.7837
| 26> C 	 -46.8697 	 1.83704 	 96.4294
| 27> C 	 -46.5635 	 0.849583 	 97.3334
| 28> H 	 -46.2233 	 3.9332 	 96.1344
| 29> C 	 -47.7783 	 1.789 	 95.2411
| 30> H 	 -48.3854 	 2.70183 	 95.2055
| 31> H 	 -48.5362 	 1.02315 	 95.4267
| 32> C 	 -47.1906 	 1.52795 	 93.9155
| 33> H 	 -46.6658 	 0.593978 	 93.9572
| 34> H 	 -46.4834 	 2.33598 	 93.751
| 35> C 	 -48.1896 	 1.52645 	 92.7591
| 36> H 	 -47.7674 	 1.18998 	 91.8293
| 37> H 	 -48.462 	 2.51611 	 92.5393
| 38> H 	 -49.028 	 0.848228 	 92.9029
| 39> H 	 -46.9204 	 -4.07607 	 98.0466
| 40> H 	 -44.8114 	 3.78486 	 98.1553
| 41> *
| 42>
| 43>                          ****END OF INPUT****

CARTESIAN COORDINATES (ANGSTROEM)
---------------------------------
  S    -46.337200   -1.653830   98.597900
  C    -47.060400   -3.028040   97.777000
  C    -47.560900   -2.694100   96.542400
  C    -47.270400   -1.291450   96.246500
  C    -46.778600   -0.600651   97.312700
  H    -47.577000   -0.787342   95.317300
  C    -48.296100   -3.571850   95.561900
  H    -49.336000   -3.598870   95.882900
  H    -47.874400   -4.556010   95.670900
  C    -48.329200   -3.148670   94.098200
  H    -48.749200   -3.927380   93.468900
  H    -48.974600   -2.247510   93.876700
  C    -46.927700   -3.059820   93.496400
  H    -46.273200   -2.318500   93.942900
  H    -46.358300   -4.018590   93.691500
  H    -46.889300   -2.975590   92.409400
  S    -45.393900    1.408360   98.566800
  C    -45.368000    2.950940   97.882900
  C    -46.182900    3.027380   96.783700
  C    -46.869700    1.837040   96.429400
  C    -46.563500    0.849583   97.333400
  H    -46.223300    3.933200   96.134400
  C    -47.778300    1.789000   95.241100
  H    -48.385400    2.701830   95.205500
  H    -48.536200    1.023150   95.426700
  C    -47.190600    1.527950   93.915500
  H    -46.665800    0.593978   93.957200
  H    -46.483400    2.335980   93.751000
  C    -48.189600    1.526450   92.759100
  H    -47.767400    1.189980   91.829300
  H    -48.462000    2.516110   92.539300
  H    -49.028000    0.848228   92.902900
  H    -46.920400   -4.076070   98.046600
  H    -44.811400    3.784860   98.155300

 Total Charge           Charge          ....    0
 Multiplicity           Mult            ....    1
 Number of Electrons    NEL             ....  134
 Basis Dimension        Dim             ....  322

ORBITAL ENERGIES
----------------

  NO   OCC          E(Eh)            E(eV)
   0   2.0000     -88.966207     -2420.8936
   1   2.0000     -88.965137     -2420.8644
   2   2.0000     -10.329199      -281.0718
   3   2.0000     -10.326003      -280.9848
   4   2.0000     -10.310865      -280.5729
   5   2.0000     -10.308414      -280.5062
   6   2.0000     -10.301828      -280.3270
   7   2.0000     -10.301246      -280.3112
   8   2.0000     -10.294787      -280.1354
   9   2.0000     -10.293637      -280.1041
  10   2.0000     -10.290891      -280.0294
  11   2.0000     -10.289957      -280.0040
  12   2.0000     -10.289199      -279.9833
  13   2.0000     -10.282938      -279.8130
  14   2.0000     -10.279263      -279.7130
  15   2.0000     -10.275552      -279.6120
  16   2.0000      -8.081725      -219.9149
  17   2.0000      -8.080306      -219.8763
  18   2.0000      -6.040239      -164.3632
  19   2.0000      -6.038991      -164.3293
  20   2.0000      -6.036178      -164.2527
  21   2.0000      -6.034918      -164.2185
  22   2.0000      -6.032387      -164.1496
  23   2.0000      -6.030698      -164.1036
  24   2.0000      -1.012427       -27.5495
  25   2.0000      -0.988817       -26.9071
  26   2.0000      -0.925095       -25.1731
  27   2.0000      -0.917056       -24.9544
  28   2.0000      -0.871586       -23.7170
  29   2.0000      -0.860445       -23.4139
  30   2.0000      -0.841024       -22.8854
  31   2.0000      -0.814685       -22.1687
  32   2.0000      -0.792138       -21.5552
  33   2.0000      -0.779291       -21.2056
  34   2.0000      -0.711573       -19.3629
  35   2.0000      -0.702022       -19.1030
  36   2.0000      -0.696189       -18.9443
  37   2.0000      -0.663929       -18.0664
  38   2.0000      -0.633560       -17.2400
  39   2.0000      -0.625774       -17.0282
  40   2.0000      -0.605117       -16.4661
  41   2.0000      -0.579656       -15.7732
  42   2.0000      -0.562548       -15.3077
  43   2.0000      -0.556985       -15.1563
  44   2.0000      -0.541109       -14.7243
  45   2.0000      -0.524984       -14.2855
  46   2.0000      -0.522037       -14.2054
  47   2.0000      -0.512923       -13.9573
  48   2.0000      -0.508467       -13.8361
  49   2.0000      -0.498002       -13.5513
  50   2.0000      -0.495314       -13.4782
  51   2.0000      -0.488282       -13.2868
  52   2.0000      -0.471959       -12.8427
  53   2.0000      -0.468499       -12.7485
  54   2.0000      -0.458228       -12.4690
  55   2.0000      -0.453735       -12.3468
  56   2.0000      -0.443914       -12.0795
  57   2.0000      -0.441228       -12.0064
  58   2.0000      -0.437414       -11.9026
  59   2.0000      -0.430289       -11.7088
  60   2.0000      -0.420851       -11.4519
  61   2.0000      -0.416820       -11.3423
  62   2.0000      -0.412011       -11.2114
  63   2.0000      -0.360895        -9.8205
  64   2.0000      -0.336509        -9.1569
  65   2.0000      -0.325883        -8.8677
  66   2.0000      -0.283375        -7.7110
  67   0.0000       0.024230         0.6593
  68   0.0000       0.089282         2.4295
  69   0.0000       0.095860         2.6085
  70   0.0000       0.118269         3.2183
  71   0.0000       0.120780         3.2866

MULLIKEN ATOMIC CHARGES
-----------------------
   0 S :    0.103096
   1 C :   -0.125166
   2 C :   -0.113282
   3 C :   -0.034778
   4 C :   -0.072772
   5 H :   -0.004376
   6 C :    0.107488
   7 H :    0.048135
   8 H :    0.018863
   9 C :   -0.090432
  10 H :    0.031311
  11 H :    0.043702
  12 C :   -0.085446
  13 H :    0.041770
  14 H :    0.025457
  15 H :    0.035705
  16 S :    0.097787
  17 C :   -0.035901
  18 C :   -0.060507
  19 C :   -0.048899
  20 C :   -0.112820
  21 H :    0.022947
  22 C :    0.032419
  23 H :    0.019657
  24 H :    0.017306
  25 C :   -0.049990
  26 H :    0.026928
  27 H :    0.017722
  28 C :    0.000083
  29 H :    0.021565
  30 H :    0.019360
  31 H :    0.025601
  32 H :    0.048541
  33 H :    0.028929
Sum of atomic charges:   -0.0000000

LOEWDIN ATOMIC CHARGES
----------------------
   0 S :    0.403255
   1 C :   -0.205052
   2 C :   -0.055907
   3 C :   -0.077058
   4 C :   -0.194574
   5 H :    0.029248
   6 C :   -0.029931
   7 H :    0.041136
   8 H :    0.030251
   9 C :   -0.050479
  10 H :    0.031703
  11 H :    0.028666
  12 C :   -0.075313
  13 H :    0.020414
  14 H :    0.031886
  15 H :    0.024646
  16 S :    0.411328
  17 C :   -0.193535
  18 C :   -0.075339
  19 C :   -0.055146
  20 C :   -0.171205
  21 H :    0.033742
  22 C :   -0.038118
  23 H :    0.032749
  24 H :    0.027022
  25 C :   -0.038116
  26 H :    0.019870
  27 H :    0.025265
  28 C :   -0.055791
  29 H :    0.027446
  30 H :    0.020332
  31 H :    0.024339
  32 H :    0.031128
  33 H :    0.021139

  Mayer bond orders larger than 0.100000
B(  0-S ,  1-C ) :   1.1128 B(  0-S ,  4-C ) :   1.1391 B(  1-C ,  2-C ) :   1.6534
B(  1-C , 32-H ) :   0.9635 B(  2-C ,  3-C ) :   1.2313 B(  2-C ,  6-C ) :   1.0098
B(  3-C ,  4-C ) :   1.5891 B(  3-C ,  5-H ) :   0.9730 B(  4-C , 20-C ) :   1.0658
B(  6-C ,  7-H ) :   0.9279 B(  6-C ,  8-H ) :   0.9352 B(  6-C ,  9-C ) :   1.0969
B(  9-C , 10-H ) :   0.9495 B(  9-C , 11-H ) :   0.9453 B(  9-C , 12-C ) :   1.0678
B( 12-C , 13-H ) :   0.9749 B( 12-C , 14-H ) :   0.9690 B( 12-C , 15-H ) :   0.9761
B( 16-S , 17-C ) :   1.1593 B( 16-S , 20-C ) :   1.1258 B( 17-C , 18-C ) :   1.6085
B( 17-C , 33-H ) :   0.9722 B( 18-C , 19-C ) :   1.2552 B( 18-C , 21-H ) :   0.9800
B( 19-C , 20-C ) :   1.6123 B( 19-C , 22-C ) :   1.0341 B( 22-C , 23-H ) :   0.9279
B( 22-C , 24-H ) :   0.9265 B( 22-C , 25-C ) :   1.0757 B( 25-C , 26-H ) :   0.9457
B( 25-C , 27-H ) :   0.9461 B( 25-C , 28-C ) :   1.0913 B( 28-C , 29-H ) :   0.9703
B( 28-C , 30-H ) :   0.9726 B( 28-C , 31-H ) :   0.9719

Dispersion correction           -0.015300011
FINAL SINGLE POINT ENERGY     -1339.885281658899

DIPOLE MOMENT
-------------
                                X             Y             Z
Electronic contribution:     10.92004       4.65909      30.76715
Nuclear contribution   :    -11.15283      -4.66454     -31.61223
                        -----------------------------------------
Total Dipole Moment    :     -0.23279      -0.00546      -0.84508
                        -----------------------------------------
Magnitude (a.u.)       :      0.87657
Magnitude (Debye)      :      2.22807

Rotational constants in cm-1:     0.016683     0.011510     0.007196
Rotational constants in MHz :   500.157594   345.054146   215.727667

                             ****ORCA TERMINATED NORMALLY****
TOTAL RUN TIME: 0 days 0 hours 0 minutes 31 seconds 35 msec
