                         Program Version 4.2.1 -  RELEASE  -
|  1> ! wB97X-D3 SP def2-SVP
|  2> %pal
|  3> nprocs 16
|  4> end
|  5>
|  6> * xyz 0 1
|  7> S 	 15.4203 	 10.2842 	 90.6989
|  8> C 	 16.8915 	 9.66563 	 90.1017
|  9> C 	 16.6481 	 8.62871 	 89.1883
| 10> C 	 15.2892 	 8.22207 	 89.0859
| 11> C 	 14.4843 	 9.07789 	 89.8458
| 12> H 	 14.8962 	 7.36043 	 88.5183
| 13> C 	 17.7822 	 7.90477 	 88.3812
| 14> H 	 18.706 	 8.50143 	 88.3119
| 15> H 	 17.497 	 7.82503 	 87.3148
| 16> C 	 18.0545 	 6.53828 	 88.9381
| 17> H 	 18.4975 	 6.47894 	 89.9129
| 18> H 	 17.0313 	 6.10721 	 89.0331
| 19> C 	 18.7988 	 5.56874 	 87.9591
| 20> H 	 19.7913 	 5.97336 	 87.7928
| 21> H 	 18.8407 	 4.65344 	 88.4652
| 22> H 	 18.4161 	 5.54152 	 86.955
| 23> S 	 12.2482 	 10.5972 	 89.6469
| 24> C 	 10.6747 	 9.74785 	 89.6672
| 25> C 	 10.7779 	 8.41401 	 90.0003
| 26> C 	 12.1741 	 8.02692 	 90.1825
| 27> C 	 13.015 	 9.03905 	 89.8967
| 28> H 	 9.93289 	 7.90862 	 90.2306
| 29> C 	 12.5537 	 6.63633 	 90.4866
| 30> H 	 13.6007 	 6.47631 	 90.4944
| 31> H 	 12.2515 	 6.15921 	 89.6175
| 32> C 	 11.924 	 5.94152 	 91.6953
| 33> H 	 10.8431 	 6.15593 	 91.7524
| 34> H 	 12.3358 	 6.36084 	 92.6173
| 35> C 	 12.0044 	 4.45754 	 91.6648
| 36> H 	 13.0162 	 4.02826 	 91.6514
| 37> H 	 11.3252 	 4.08286 	 90.881
| 38> H 	 11.6095 	 4.13507 	 92.6186
| 39> H 	 17.9499 	 9.96299 	 90.3446
| 40> H 	 9.74974 	 10.3713 	 89.7776
| 41> *
| 42>
| 43>                          ****END OF INPUT****

CARTESIAN COORDINATES (ANGSTROEM)
---------------------------------
  S     15.420300   10.284200   90.698900
  C     16.891500    9.665630   90.101700
  C     16.648100    8.628710   89.188300
  C     15.289200    8.222070   89.085900
  C     14.484300    9.077890   89.845800
  H     14.896200    7.360430   88.518300
  C     17.782200    7.904770   88.381200
  H     18.706000    8.501430   88.311900
  H     17.497000    7.825030   87.314800
  C     18.054500    6.538280   88.938100
  H     18.497500    6.478940   89.912900
  H     17.031300    6.107210   89.033100
  C     18.798800    5.568740   87.959100
  H     19.791300    5.973360   87.792800
  H     18.840700    4.653440   88.465200
  H     18.416100    5.541520   86.955000
  S     12.248200   10.597200   89.646900
  C     10.674700    9.747850   89.667200
  C     10.777900    8.414010   90.000300
  C     12.174100    8.026920   90.182500
  C     13.015000    9.039050   89.896700
  H      9.932890    7.908620   90.230600
  C     12.553700    6.636330   90.486600
  H     13.600700    6.476310   90.494400
  H     12.251500    6.159210   89.617500
  C     11.924000    5.941520   91.695300
  H     10.843100    6.155930   91.752400
  H     12.335800    6.360840   92.617300
  C     12.004400    4.457540   91.664800
  H     13.016200    4.028260   91.651400
  H     11.325200    4.082860   90.881000
  H     11.609500    4.135070   92.618600
  H     17.949900    9.962990   90.344600
  H      9.749740   10.371300   89.777600

 Total Charge           Charge          ....    0
 Multiplicity           Mult            ....    1
 Number of Electrons    NEL             ....  134
 Basis Dimension        Dim             ....  322

ORBITAL ENERGIES
----------------

  NO   OCC          E(Eh)            E(eV)
   0   2.0000     -88.970365     -2421.0067
   1   2.0000     -88.960537     -2420.7393
   2   2.0000     -10.329666      -281.0845
   3   2.0000     -10.320918      -280.8464
   4   2.0000     -10.320507      -280.8353
   5   2.0000     -10.315326      -280.6943
   6   2.0000     -10.302854      -280.3549
   7   2.0000     -10.299940      -280.2756
   8   2.0000     -10.298115      -280.2260
   9   2.0000     -10.293562      -280.1021
  10   2.0000     -10.291455      -280.0447
  11   2.0000     -10.284645      -279.8594
  12   2.0000     -10.283888      -279.8388
  13   2.0000     -10.277962      -279.6776
  14   2.0000     -10.277357      -279.6611
  15   2.0000     -10.272309      -279.5237
  16   2.0000      -8.085379      -220.0143
  17   2.0000      -8.075245      -219.7386
  18   2.0000      -6.043826      -164.4609
  19   2.0000      -6.039727      -164.3493
  20   2.0000      -6.036314      -164.2565
  21   2.0000      -6.033837      -164.1891
  22   2.0000      -6.030058      -164.0862
  23   2.0000      -6.025618      -163.9654
  24   2.0000      -1.007657       -27.4197
  25   2.0000      -0.983772       -26.7698
  26   2.0000      -0.917478       -24.9659
  27   2.0000      -0.908584       -24.7238
  28   2.0000      -0.867802       -23.6141
  29   2.0000      -0.858874       -23.3711
  30   2.0000      -0.847673       -23.0664
  31   2.0000      -0.814686       -22.1687
  32   2.0000      -0.784320       -21.3424
  33   2.0000      -0.771286       -20.9878
  34   2.0000      -0.704230       -19.1631
  35   2.0000      -0.696390       -18.9497
  36   2.0000      -0.690213       -18.7816
  37   2.0000      -0.666222       -18.1288
  38   2.0000      -0.637579       -17.3494
  39   2.0000      -0.621234       -16.9046
  40   2.0000      -0.600031       -16.3277
  41   2.0000      -0.575193       -15.6518
  42   2.0000      -0.566174       -15.4064
  43   2.0000      -0.556237       -15.1360
  44   2.0000      -0.533631       -14.5208
  45   2.0000      -0.529040       -14.3959
  46   2.0000      -0.524856       -14.2821
  47   2.0000      -0.511463       -13.9176
  48   2.0000      -0.500498       -13.6192
  49   2.0000      -0.497833       -13.5467
  50   2.0000      -0.486207       -13.2304
  51   2.0000      -0.483389       -13.1537
  52   2.0000      -0.469718       -12.7817
  53   2.0000      -0.461606       -12.5609
  54   2.0000      -0.459718       -12.5096
  55   2.0000      -0.456052       -12.4098
  56   2.0000      -0.449889       -12.2421
  57   2.0000      -0.443324       -12.0635
  58   2.0000      -0.433070       -11.7844
  59   2.0000      -0.424238       -11.5441
  60   2.0000      -0.419330       -11.4105
  61   2.0000      -0.413281       -11.2459
  62   2.0000      -0.408429       -11.1139
  63   2.0000      -0.348484        -9.4827
  64   2.0000      -0.332242        -9.0408
  65   2.0000      -0.326589        -8.8869
  66   2.0000      -0.290486        -7.9045
  67   0.0000       0.035002         0.9525
  68   0.0000       0.069167         1.8821
  69   0.0000       0.107676         2.9300
  70   0.0000       0.122526         3.3341
  71   0.0000       0.130664         3.5556

MULLIKEN ATOMIC CHARGES
-----------------------
   0 S :    0.132477
   1 C :   -0.124887
   2 C :   -0.104938
   3 C :    0.019969
   4 C :   -0.159873
   5 H :    0.036266
   6 C :    0.060968
   7 H :    0.017272
   8 H :    0.028237
   9 C :   -0.098180
  10 H :    0.030209
  11 H :    0.020023
  12 C :   -0.011807
  13 H :    0.018173
  14 H :    0.032290
  15 H :    0.025447
  16 S :    0.083900
  17 C :   -0.106415
  18 C :    0.008925
  19 C :   -0.027015
  20 C :   -0.161972
  21 H :   -0.016796
  22 C :    0.123983
  23 H :    0.006629
  24 H :    0.005418
  25 C :   -0.091158
  26 H :    0.019526
  27 H :    0.031342
  28 C :   -0.037065
  29 H :    0.035936
  30 H :    0.037732
  31 H :    0.023687
  32 H :    0.066002
  33 H :    0.075695
Sum of atomic charges:   -0.0000000

LOEWDIN ATOMIC CHARGES
----------------------
   0 S :    0.431413
   1 C :   -0.230844
   2 C :   -0.061632
   3 C :   -0.067350
   4 C :   -0.193539
   5 H :    0.039549
   6 C :   -0.035780
   7 H :    0.024859
   8 H :    0.033004
   9 C :   -0.042270
  10 H :    0.022639
  11 H :    0.023957
  12 C :   -0.058208
  13 H :    0.022079
  14 H :    0.021200
  15 H :    0.022502
  16 S :    0.371639
  17 C :   -0.171472
  18 C :   -0.052196
  19 C :   -0.050194
  20 C :   -0.192594
  21 H :    0.013560
  22 C :   -0.031521
  23 H :    0.025825
  24 H :    0.027033
  25 C :   -0.039379
  26 H :    0.024320
  27 H :    0.025227
  28 C :   -0.064285
  29 H :    0.025935
  30 H :    0.029304
  31 H :    0.027610
  32 H :    0.044247
  33 H :    0.035360

  Mayer bond orders larger than 0.100000
B(  0-S ,  1-C ) :   1.1428 B(  0-S ,  4-C ) :   1.1764 B(  1-C ,  2-C ) :   1.5993
B(  1-C ,  4-C ) :   0.1010 B(  1-C , 32-H ) :   0.9604 B(  2-C ,  3-C ) :   1.2633
B(  2-C ,  6-C ) :   1.0205 B(  3-C ,  4-C ) :   1.5387 B(  3-C ,  5-H ) :   0.9877
B(  4-C , 20-C ) :   1.0256 B(  6-C ,  7-H ) :   0.9431 B(  6-C ,  8-H ) :   0.9448
B(  6-C ,  9-C ) :   1.0561 B(  9-C , 10-H ) :   0.9564 B(  9-C , 11-H ) :   0.9594
B(  9-C , 12-C ) :   1.0781 B( 12-C , 13-H ) :   0.9739 B( 12-C , 14-H ) :   0.9755
B( 12-C , 15-H ) :   0.9750 B( 16-S , 17-C ) :   1.1296 B( 16-S , 20-C ) :   1.1144
B( 17-C , 18-C ) :   1.6608 B( 17-C , 33-H ) :   0.9573 B( 18-C , 19-C ) :   1.1701
B( 18-C , 21-H ) :   1.0035 B( 19-C , 20-C ) :   1.6642 B( 19-C , 22-C ) :   1.0481
B( 22-C , 23-H ) :   0.9209 B( 22-C , 24-H ) :   0.9229 B( 22-C , 25-C ) :   1.0595
B( 25-C , 26-H ) :   0.9555 B( 25-C , 27-H ) :   0.9530 B( 25-C , 28-C ) :   1.0952
B( 28-C , 29-H ) :   0.9728 B( 28-C , 30-H ) :   0.9730 B( 28-C , 31-H ) :   0.9693

Dispersion correction           -0.013573934
FINAL SINGLE POINT ENERGY     -1339.869141144451

DIPOLE MOMENT
-------------
                                X             Y             Z
Electronic contribution:     -9.01751      29.20202       1.71291
Nuclear contribution   :      9.06847     -29.88368      -1.63878
                        -----------------------------------------
Total Dipole Moment    :      0.05096      -0.68166       0.07413
                        -----------------------------------------
Magnitude (a.u.)       :      0.68757
Magnitude (Debye)      :      1.74767

Rotational constants in cm-1:     0.016563     0.008766     0.006395
Rotational constants in MHz :   496.556846   262.789032   191.710556

                             ****ORCA TERMINATED NORMALLY****
TOTAL RUN TIME: 0 days 0 hours 0 minutes 33 seconds 529 msec
