                         Program Version 4.2.1 -  RELEASE  -
|  1> ! wB97X-D3 SP def2-SVP
|  2> %pal
|  3> nprocs 16
|  4> end
|  5>
|  6> * xyz 0 1
|  7> S 	 -7.3463 	 66.0274 	 51.4453
|  8> C 	 -8.67486 	 64.8658 	 51.2553
|  9> C 	 -8.7582 	 64.1498 	 52.4538
| 10> C 	 -7.69757 	 64.3535 	 53.3456
| 11> C 	 -6.73523 	 65.249 	 52.8913
| 12> H 	 -7.73827 	 63.8578 	 54.3059
| 13> C 	 -9.81714 	 63.1135 	 52.8814
| 14> H 	 -10.7408 	 63.2047 	 52.2418
| 15> H 	 -10.2352 	 63.2844 	 53.8945
| 16> C 	 -9.29363 	 61.6905 	 52.7389
| 17> H 	 -8.95185 	 61.6565 	 51.7123
| 18> H 	 -8.47937 	 61.5357 	 53.4698
| 19> C 	 -10.3737 	 60.6661 	 52.994
| 20> H 	 -11.3328 	 60.9136 	 52.5617
| 21> H 	 -10.3124 	 59.6395 	 52.6895
| 22> H 	 -10.591 	 60.6256 	 54.0723
| 23> S 	 -4.13957 	 66.1416 	 52.5682
| 24> C 	 -3.16096 	 66.3742 	 53.9781
| 25> C 	 -3.8373 	 66.1013 	 55.1709
| 26> C 	 -5.08841 	 65.5577 	 54.9197
| 27> C 	 -5.43895 	 65.5502 	 53.5444
| 28> H 	 -3.44914 	 66.4511 	 56.1244
| 29> C 	 -5.85596 	 65.1481 	 56.145
| 30> H 	 -5.21272 	 65.1629 	 57.0097
| 31> H 	 -6.12105 	 64.121 	 56.0809
| 32> C 	 -6.99002 	 66.0571 	 56.4528
| 33> H 	 -7.88928 	 65.7547 	 55.8397
| 34> H 	 -6.8894 	 67.1747 	 56.3368
| 35> C 	 -7.46424 	 65.8808 	 57.9309
| 36> H 	 -8.21016 	 66.6388 	 58.0878
| 37> H 	 -6.69303 	 65.9848 	 58.7295
| 38> H 	 -7.98299 	 64.9585 	 58.0441
| 39> H 	 -9.4467 	 64.9172 	 50.5187
| 40> H 	 -2.19052 	 66.7836 	 54.0159
| 41> *
| 42>
| 43>                          ****END OF INPUT****

CARTESIAN COORDINATES (ANGSTROEM)
---------------------------------
  S     -7.346300   66.027400   51.445300
  C     -8.674860   64.865800   51.255300
  C     -8.758200   64.149800   52.453800
  C     -7.697570   64.353500   53.345600
  C     -6.735230   65.249000   52.891300
  H     -7.738270   63.857800   54.305900
  C     -9.817140   63.113500   52.881400
  H    -10.740800   63.204700   52.241800
  H    -10.235200   63.284400   53.894500
  C     -9.293630   61.690500   52.738900
  H     -8.951850   61.656500   51.712300
  H     -8.479370   61.535700   53.469800
  C    -10.373700   60.666100   52.994000
  H    -11.332800   60.913600   52.561700
  H    -10.312400   59.639500   52.689500
  H    -10.591000   60.625600   54.072300
  S     -4.139570   66.141600   52.568200
  C     -3.160960   66.374200   53.978100
  C     -3.837300   66.101300   55.170900
  C     -5.088410   65.557700   54.919700
  C     -5.438950   65.550200   53.544400
  H     -3.449140   66.451100   56.124400
  C     -5.855960   65.148100   56.145000
  H     -5.212720   65.162900   57.009700
  H     -6.121050   64.121000   56.080900
  C     -6.990020   66.057100   56.452800
  H     -7.889280   65.754700   55.839700
  H     -6.889400   67.174700   56.336800
  C     -7.464240   65.880800   57.930900
  H     -8.210160   66.638800   58.087800
  H     -6.693030   65.984800   58.729500
  H     -7.982990   64.958500   58.044100
  H     -9.446700   64.917200   50.518700
  H     -2.190520   66.783600   54.015900

 Total Charge           Charge          ....    0
 Multiplicity           Mult            ....    1
 Number of Electrons    NEL             ....  134
 Basis Dimension        Dim             ....  322

ORBITAL ENERGIES
----------------

  NO   OCC          E(Eh)            E(eV)
   0   2.0000     -88.973500     -2421.0920
   1   2.0000     -88.968411     -2420.9535
   2   2.0000     -10.336641      -281.2743
   3   2.0000     -10.331722      -281.1404
   4   2.0000     -10.316330      -280.7216
   5   2.0000     -10.313531      -280.6454
   6   2.0000     -10.302004      -280.3318
   7   2.0000     -10.300810      -280.2993
   8   2.0000     -10.296863      -280.1919
   9   2.0000     -10.291349      -280.0418
  10   2.0000     -10.290199      -280.0105
  11   2.0000     -10.288283      -279.9584
  12   2.0000     -10.286135      -279.9000
  13   2.0000     -10.285982      -279.8958
  14   2.0000     -10.275404      -279.6080
  15   2.0000     -10.273629      -279.5597
  16   2.0000      -8.088304      -220.0939
  17   2.0000      -8.082411      -219.9336
  18   2.0000      -6.046654      -164.5378
  19   2.0000      -6.042726      -164.4309
  20   2.0000      -6.041024      -164.3846
  21   2.0000      -6.039314      -164.3381
  22   2.0000      -6.037065      -164.2769
  23   2.0000      -6.033051      -164.1677
  24   2.0000      -1.008762       -27.4498
  25   2.0000      -0.987072       -26.8596
  26   2.0000      -0.918280       -24.9877
  27   2.0000      -0.913079       -24.8462
  28   2.0000      -0.868231       -23.6258
  29   2.0000      -0.854349       -23.2480
  30   2.0000      -0.847056       -23.0496
  31   2.0000      -0.811826       -22.0909
  32   2.0000      -0.783419       -21.3179
  33   2.0000      -0.772682       -21.0258
  34   2.0000      -0.707805       -19.2604
  35   2.0000      -0.699073       -19.0227
  36   2.0000      -0.690975       -18.8024
  37   2.0000      -0.666053       -18.1242
  38   2.0000      -0.636738       -17.3265
  39   2.0000      -0.629305       -17.1243
  40   2.0000      -0.602475       -16.3942
  41   2.0000      -0.574249       -15.6261
  42   2.0000      -0.566826       -15.4241
  43   2.0000      -0.560044       -15.2396
  44   2.0000      -0.533952       -14.5296
  45   2.0000      -0.518799       -14.1172
  46   2.0000      -0.516241       -14.0476
  47   2.0000      -0.509633       -13.8678
  48   2.0000      -0.507850       -13.8193
  49   2.0000      -0.499636       -13.5958
  50   2.0000      -0.494852       -13.4656
  51   2.0000      -0.483228       -13.1493
  52   2.0000      -0.474191       -12.9034
  53   2.0000      -0.464961       -12.6522
  54   2.0000      -0.459248       -12.4968
  55   2.0000      -0.452312       -12.3080
  56   2.0000      -0.443730       -12.0745
  57   2.0000      -0.438982       -11.9453
  58   2.0000      -0.426980       -11.6187
  59   2.0000      -0.423409       -11.5215
  60   2.0000      -0.421066       -11.4578
  61   2.0000      -0.417085       -11.3495
  62   2.0000      -0.409346       -11.1389
  63   2.0000      -0.354365        -9.6428
  64   2.0000      -0.337220        -9.1762
  65   2.0000      -0.330339        -8.9890
  66   2.0000      -0.280156        -7.6234
  67   0.0000       0.017341         0.4719
  68   0.0000       0.076949         2.0939
  69   0.0000       0.101527         2.7627
  70   0.0000       0.121693         3.3114
  71   0.0000       0.134133         3.6499

MULLIKEN ATOMIC CHARGES
-----------------------
   0 S :    0.099795
   1 C :   -0.116294
   2 C :   -0.070545
   3 C :    0.001765
   4 C :   -0.095915
   5 H :    0.004733
   6 C :   -0.005311
   7 H :    0.018963
   8 H :    0.032764
   9 C :   -0.044001
  10 H :    0.033776
  11 H :    0.037117
  12 C :   -0.029835
  13 H :    0.008471
  14 H :    0.030126
  15 H :    0.018844
  16 S :    0.133629
  17 C :   -0.076532
  18 C :   -0.049847
  19 C :   -0.038935
  20 C :   -0.144575
  21 H :    0.028246
  22 C :    0.111381
  23 H :    0.000474
  24 H :    0.026165
  25 C :   -0.117088
  26 H :    0.039124
  27 H :    0.048608
  28 C :   -0.050279
  29 H :    0.025028
  30 H :    0.038319
  31 H :    0.019197
  32 H :    0.044307
  33 H :    0.038323
Sum of atomic charges:   -0.0000000

LOEWDIN ATOMIC CHARGES
----------------------
   0 S :    0.396289
   1 C :   -0.197392
   2 C :   -0.058262
   3 C :   -0.075118
   4 C :   -0.179829
   5 H :    0.028132
   6 C :   -0.036179
   7 H :    0.028512
   8 H :    0.028866
   9 C :   -0.038754
  10 H :    0.027197
  11 H :    0.027113
  12 C :   -0.073712
  13 H :    0.021202
  14 H :    0.024947
  15 H :    0.026866
  16 S :    0.440727
  17 C :   -0.187729
  18 C :   -0.068429
  19 C :   -0.048169
  20 C :   -0.211040
  21 H :    0.036280
  22 C :   -0.031948
  23 H :    0.027764
  24 H :    0.028949
  25 C :   -0.044466
  26 H :    0.030882
  27 H :    0.033624
  28 C :   -0.067456
  29 H :    0.023690
  30 H :    0.024753
  31 H :    0.017311
  32 H :    0.025594
  33 H :    0.019784

  Mayer bond orders larger than 0.100000
B(  0-S ,  1-C ) :   1.1219 B(  0-S ,  4-C ) :   1.1647 B(  1-C ,  2-C ) :   1.5763
B(  1-C ,  4-C ) :   0.1059 B(  1-C , 32-H ) :   0.9744 B(  2-C ,  3-C ) :   1.2908
B(  2-C ,  6-C ) :   1.0276 B(  3-C ,  4-C ) :   1.5091 B(  3-C ,  5-H ) :   0.9916
B(  4-C , 20-C ) :   1.0736 B(  6-C ,  7-H ) :   0.9439 B(  6-C ,  8-H ) :   0.9463
B(  6-C ,  9-C ) :   1.0556 B(  9-C , 10-H ) :   0.9539 B(  9-C , 11-H ) :   0.9569
B(  9-C , 12-C ) :   1.0794 B( 12-C , 13-H ) :   0.9706 B( 12-C , 14-H ) :   0.9758
B( 12-C , 15-H ) :   0.9712 B( 16-S , 17-C ) :   1.1817 B( 16-S , 20-C ) :   1.1554
B( 17-C , 18-C ) :   1.5626 B( 17-C , 20-C ) :   0.1073 B( 17-C , 33-H ) :   0.9686
B( 18-C , 19-C ) :   1.3190 B( 18-C , 21-H ) :   0.9855 B( 19-C , 20-C ) :   1.5184
B( 19-C , 22-C ) :   1.0395 B( 22-C , 23-H ) :   0.9367 B( 22-C , 24-H ) :   0.9164
B( 22-C , 25-C ) :   1.0599 B( 25-C , 26-H ) :   0.9463 B( 25-C , 27-H ) :   0.9643
B( 25-C , 28-C ) :   1.0823 B( 28-C , 29-H ) :   0.9763 B( 28-C , 30-H ) :   0.9754
B( 28-C , 31-H ) :   0.9743

Dispersion correction           -0.014049284
FINAL SINGLE POINT ENERGY     -1339.866279256730

DIPOLE MOMENT
-------------
                                X             Y             Z
Electronic contribution:     18.58976      15.43920     -19.46844
Nuclear contribution   :    -18.86537     -15.59333      20.09360
                        -----------------------------------------
Total Dipole Moment    :     -0.27561      -0.15412       0.62516
                        -----------------------------------------
Magnitude (a.u.)       :      0.70038
Magnitude (Debye)      :      1.78023

Rotational constants in cm-1:     0.017243     0.008894     0.006803
Rotational constants in MHz :   516.925458   266.621044   203.951564

                             ****ORCA TERMINATED NORMALLY****
TOTAL RUN TIME: 0 days 0 hours 0 minutes 34 seconds 905 msec
