                         Program Version 4.2.1 -  RELEASE  -
|  1> ! wB97X-D3 SP def2-SVP
|  2> %pal
|  3> nprocs 16
|  4> end
|  5>
|  6> * xyz 0 1
|  7> S 	 -6.545 	 -13.2392 	 82.8024
|  8> C 	 -5.47376 	 -13.3019 	 81.4439
|  9> C 	 -4.2414 	 -12.7245 	 81.7633
| 10> C 	 -4.29189 	 -12.0196 	 83.0274
| 11> C 	 -5.517 	 -12.1972 	 83.7436
| 12> H 	 -3.48521 	 -11.4668 	 83.5268
| 13> C 	 -3.01158 	 -12.6736 	 80.8401
| 14> H 	 -3.21177 	 -13.1168 	 79.8661
| 15> H 	 -2.34586 	 -13.2435 	 81.3892
| 16> C 	 -2.36481 	 -11.3408 	 80.6302
| 17> H 	 -3.12102 	 -10.5434 	 80.5613
| 18> H 	 -1.93814 	 -11.0775 	 81.5444
| 19> C 	 -1.3327 	 -11.2862 	 79.4884
| 20> H 	 -0.744654 	 -12.1885 	 79.4991
| 21> H 	 -1.83219 	 -11.2819 	 78.5438
| 22> H 	 -0.567157 	 -10.457 	 79.5955
| 23> S 	 -4.6379 	 -12.8538 	 86.1924
| 24> C 	 -4.84493 	 -11.6959 	 87.4948
| 25> C 	 -5.52914 	 -10.6039 	 87.0963
| 26> C 	 -5.84759 	 -10.6641 	 85.7288
| 27> C 	 -5.5682 	 -11.8672 	 85.1366
| 28> H 	 -5.74004 	 -9.79455 	 87.7494
| 29> C 	 -6.63429 	 -9.53145 	 85.2057
| 30> H 	 -7.23342 	 -9.04296 	 86.0717
| 31> H 	 -7.42386 	 -9.9238 	 84.5291
| 32> C 	 -5.75917 	 -8.52666 	 84.4113
| 33> H 	 -5.22981 	 -9.14812 	 83.6886
| 34> H 	 -4.94281 	 -8.02789 	 85.0359
| 35> C 	 -6.58278 	 -7.66228 	 83.517
| 36> H 	 -7.0836 	 -8.21897 	 82.763
| 37> H 	 -5.93025 	 -6.94274 	 83.1044
| 38> H 	 -7.37948 	 -7.24825 	 84.084
| 39> H 	 -5.68335 	 -13.7843 	 80.4918
| 40> H 	 -4.3244 	 -11.7651 	 88.4103
| 41> *
| 42>
| 43>                          ****END OF INPUT****

CARTESIAN COORDINATES (ANGSTROEM)
---------------------------------
  S     -6.545000  -13.239200   82.802400
  C     -5.473760  -13.301900   81.443900
  C     -4.241400  -12.724500   81.763300
  C     -4.291890  -12.019600   83.027400
  C     -5.517000  -12.197200   83.743600
  H     -3.485210  -11.466800   83.526800
  C     -3.011580  -12.673600   80.840100
  H     -3.211770  -13.116800   79.866100
  H     -2.345860  -13.243500   81.389200
  C     -2.364810  -11.340800   80.630200
  H     -3.121020  -10.543400   80.561300
  H     -1.938140  -11.077500   81.544400
  C     -1.332700  -11.286200   79.488400
  H     -0.744654  -12.188500   79.499100
  H     -1.832190  -11.281900   78.543800
  H     -0.567157  -10.457000   79.595500
  S     -4.637900  -12.853800   86.192400
  C     -4.844930  -11.695900   87.494800
  C     -5.529140  -10.603900   87.096300
  C     -5.847590  -10.664100   85.728800
  C     -5.568200  -11.867200   85.136600
  H     -5.740040   -9.794550   87.749400
  C     -6.634290   -9.531450   85.205700
  H     -7.233420   -9.042960   86.071700
  H     -7.423860   -9.923800   84.529100
  C     -5.759170   -8.526660   84.411300
  H     -5.229810   -9.148120   83.688600
  H     -4.942810   -8.027890   85.035900
  C     -6.582780   -7.662280   83.517000
  H     -7.083600   -8.218970   82.763000
  H     -5.930250   -6.942740   83.104400
  H     -7.379480   -7.248250   84.084000
  H     -5.683350  -13.784300   80.491800
  H     -4.324400  -11.765100   88.410300

 Total Charge           Charge          ....    0
 Multiplicity           Mult            ....    1
 Number of Electrons    NEL             ....  134
 Basis Dimension        Dim             ....  322

ORBITAL ENERGIES
----------------

  NO   OCC          E(Eh)            E(eV)
   0   2.0000     -88.968485     -2420.9555
   1   2.0000     -88.961637     -2420.7692
   2   2.0000     -10.328582      -281.0550
   3   2.0000     -10.317552      -280.7549
   4   2.0000     -10.316776      -280.7337
   5   2.0000     -10.310133      -280.5530
   6   2.0000     -10.306746      -280.4608
   7   2.0000     -10.300194      -280.2825
   8   2.0000     -10.292404      -280.0705
   9   2.0000     -10.292170      -280.0642
  10   2.0000     -10.286042      -279.8974
  11   2.0000     -10.283658      -279.8326
  12   2.0000     -10.283080      -279.8168
  13   2.0000     -10.282086      -279.7898
  14   2.0000     -10.278737      -279.6987
  15   2.0000     -10.262252      -279.2501
  16   2.0000      -8.083133      -219.9532
  17   2.0000      -8.077286      -219.7941
  18   2.0000      -6.041558      -164.3991
  19   2.0000      -6.037423      -164.2866
  20   2.0000      -6.035757      -164.2413
  21   2.0000      -6.034218      -164.1994
  22   2.0000      -6.031614      -164.1286
  23   2.0000      -6.028065      -164.0320
  24   2.0000      -1.013058       -27.5667
  25   2.0000      -0.986008       -26.8306
  26   2.0000      -0.917479       -24.9659
  27   2.0000      -0.911707       -24.8088
  28   2.0000      -0.877662       -23.8824
  29   2.0000      -0.856753       -23.3134
  30   2.0000      -0.846210       -23.0265
  31   2.0000      -0.811965       -22.0947
  32   2.0000      -0.783185       -21.3115
  33   2.0000      -0.769113       -20.9286
  34   2.0000      -0.712459       -19.3870
  35   2.0000      -0.699856       -19.0440
  36   2.0000      -0.687923       -18.7193
  37   2.0000      -0.668608       -18.1938
  38   2.0000      -0.642273       -17.4771
  39   2.0000      -0.614381       -16.7182
  40   2.0000      -0.599160       -16.3040
  41   2.0000      -0.573892       -15.6164
  42   2.0000      -0.569649       -15.5009
  43   2.0000      -0.557954       -15.1827
  44   2.0000      -0.534887       -14.5550
  45   2.0000      -0.523230       -14.2378
  46   2.0000      -0.518155       -14.0997
  47   2.0000      -0.511079       -13.9072
  48   2.0000      -0.508435       -13.8352
  49   2.0000      -0.498935       -13.5767
  50   2.0000      -0.495923       -13.4948
  51   2.0000      -0.483235       -13.1495
  52   2.0000      -0.474694       -12.9171
  53   2.0000      -0.474308       -12.9066
  54   2.0000      -0.459007       -12.4902
  55   2.0000      -0.447905       -12.1881
  56   2.0000      -0.441751       -12.0207
  57   2.0000      -0.435896       -11.8613
  58   2.0000      -0.433246       -11.7892
  59   2.0000      -0.427255       -11.6262
  60   2.0000      -0.417749       -11.3675
  61   2.0000      -0.411645       -11.2014
  62   2.0000      -0.405176       -11.0254
  63   2.0000      -0.340794        -9.2735
  64   2.0000      -0.325252        -8.8506
  65   2.0000      -0.314296        -8.5524
  66   2.0000      -0.312498        -8.5035
  67   0.0000       0.043683         1.1887
  68   0.0000       0.050474         1.3735
  69   0.0000       0.115713         3.1487
  70   0.0000       0.123481         3.3601
  71   0.0000       0.135937         3.6990

MULLIKEN ATOMIC CHARGES
-----------------------
   0 S :    0.121683
   1 C :   -0.125945
   2 C :   -0.100291
   3 C :   -0.000398
   4 C :   -0.162776
   5 H :    0.033567
   6 C :    0.114588
   7 H :    0.014956
   8 H :    0.020191
   9 C :   -0.072132
  10 H :    0.025806
  11 H :    0.004384
  12 C :   -0.039269
  13 H :    0.019456
  14 H :    0.034850
  15 H :    0.046166
  16 S :    0.107713
  17 C :   -0.071218
  18 C :   -0.013281
  19 C :   -0.019700
  20 C :   -0.158199
  21 H :    0.006417
  22 C :    0.003772
  23 H :    0.038507
  24 H :    0.028290
  25 C :   -0.102942
  26 H :    0.024858
  27 H :    0.039260
  28 C :    0.028696
  29 H :    0.022780
  30 H :    0.026322
  31 H :    0.009710
  32 H :    0.053859
  33 H :    0.040322
Sum of atomic charges:   -0.0000000

LOEWDIN ATOMIC CHARGES
----------------------
   0 S :    0.426631
   1 C :   -0.209228
   2 C :   -0.057952
   3 C :   -0.061768
   4 C :   -0.217506
   5 H :    0.032282
   6 C :   -0.024182
   7 H :    0.026748
   8 H :    0.027605
   9 C :   -0.044604
  10 H :    0.024701
  11 H :    0.013126
  12 C :   -0.061633
  13 H :    0.022351
  14 H :    0.023210
  15 H :    0.036903
  16 S :    0.420146
  17 C :   -0.168731
  18 C :   -0.067532
  19 C :   -0.055381
  20 C :   -0.217779
  21 H :    0.029040
  22 C :   -0.038568
  23 H :    0.035950
  24 H :    0.033149
  25 C :   -0.046376
  26 H :    0.025599
  27 H :    0.029356
  28 C :   -0.053722
  29 H :    0.024323
  30 H :    0.023514
  31 H :    0.017540
  32 H :    0.032351
  33 H :    0.020438

  Mayer bond orders larger than 0.100000
B(  0-S ,  1-C ) :   1.1597 B(  0-S ,  4-C ) :   1.1618 B(  1-C ,  2-C ) :   1.5756
B(  1-C ,  4-C ) :   0.1003 B(  1-C , 32-H ) :   0.9698 B(  2-C ,  3-C ) :   1.2605
B(  2-C ,  6-C ) :   1.0181 B(  3-C ,  4-C ) :   1.5272 B(  3-C ,  5-H ) :   0.9890
B(  4-C , 20-C ) :   1.0286 B(  6-C ,  7-H ) :   0.9523 B(  6-C ,  8-H ) :   0.9190
B(  6-C ,  9-C ) :   1.0697 B(  9-C , 10-H ) :   0.9614 B(  9-C , 11-H ) :   0.9429
B(  9-C , 12-C ) :   1.0796 B( 12-C , 13-H ) :   0.9735 B( 12-C , 14-H ) :   0.9765
B( 12-C , 15-H ) :   0.9751 B( 16-S , 17-C ) :   1.1656 B( 16-S , 20-C ) :   1.1373
B( 17-C , 18-C ) :   1.5988 B( 17-C , 33-H ) :   0.9695 B( 18-C , 19-C ) :   1.2549
B( 18-C , 21-H ) :   0.9991 B( 19-C , 20-C ) :   1.6016 B( 19-C , 22-C ) :   1.0414
B( 22-C , 23-H ) :   0.9400 B( 22-C , 24-H ) :   0.9404 B( 22-C , 25-C ) :   1.0476
B( 25-C , 26-H ) :   0.9542 B( 25-C , 27-H ) :   0.9556 B( 25-C , 28-C ) :   1.0818
B( 28-C , 29-H ) :   0.9725 B( 28-C , 30-H ) :   0.9703 B( 28-C , 31-H ) :   0.9699

Dispersion correction           -0.014303490
FINAL SINGLE POINT ENERGY     -1339.860230062943

DIPOLE MOMENT
-------------
                                X             Y             Z
Electronic contribution:     -9.96163     -19.57601      15.52838
Nuclear contribution   :     10.41701      19.96646     -15.70154
                        -----------------------------------------
Total Dipole Moment    :      0.45538       0.39045      -0.17317
                        -----------------------------------------
Magnitude (a.u.)       :      0.62434
Magnitude (Debye)      :      1.58696

Rotational constants in cm-1:     0.016839     0.008652     0.007558
Rotational constants in MHz :   504.819887   259.392321   226.568938

                             ****ORCA TERMINATED NORMALLY****
TOTAL RUN TIME: 0 days 0 hours 0 minutes 29 seconds 834 msec
