                         Program Version 4.2.1 -  RELEASE  -
|  1> ! wB97X-D3 SP def2-SVP
|  2> %pal
|  3> nprocs 16
|  4> end
|  5>
|  6> * xyz 0 1
|  7> S 	 -49.2994 	 66.0965 	 125.816
|  8> C 	 -48.2924 	 64.6068 	 125.592
|  9> C 	 -47.3375 	 64.4402 	 126.622
| 10> C 	 -47.5637 	 65.4413 	 127.66
| 11> C 	 -48.4669 	 66.443 	 127.346
| 12> H 	 -47.1791 	 65.4725 	 128.653
| 13> C 	 -46.4547 	 63.1737 	 126.769
| 14> H 	 -45.7122 	 63.0549 	 125.924
| 15> H 	 -47.1372 	 62.2494 	 126.679
| 16> C 	 -45.7298 	 63.034 	 128.175
| 17> H 	 -45.102 	 63.8982 	 128.339
| 18> H 	 -46.4844 	 63.0201 	 128.996
| 19> C 	 -44.9121 	 61.7863 	 128.184
| 20> H 	 -45.627 	 61.0072 	 128.053
| 21> H 	 -44.0981 	 61.754 	 127.482
| 22> H 	 -44.4405 	 61.7821 	 129.138
| 23> S 	 -48.8081 	 69.195 	 127.34
| 24> C 	 -49.6655 	 69.9085 	 128.592
| 25> C 	 -49.9056 	 69.0189 	 129.599
| 26> C 	 -49.4916 	 67.6547 	 129.358
| 27> C 	 -48.9172 	 67.5524 	 128.137
| 28> H 	 -50.5067 	 69.3429 	 130.416
| 29> C 	 -49.751 	 66.5858 	 130.438
| 30> H 	 -49.8484 	 67.1516 	 131.331
| 31> H 	 -48.8453 	 66.0033 	 130.487
| 32> C 	 -50.9655 	 65.6191 	 130.145
| 33> H 	 -50.794 	 65.2352 	 129.125
| 34> H 	 -51.821 	 66.2204 	 130.12
| 35> C 	 -51.1583 	 64.4049 	 131.146
| 36> H 	 -50.9916 	 64.7619 	 132.134
| 37> H 	 -50.5711 	 63.5357 	 130.963
| 38> H 	 -52.1872 	 64.1366 	 131.019
| 39> H 	 -48.4804 	 63.8002 	 124.852
| 40> H 	 -49.9688 	 70.9169 	 128.528
| 41> *
| 42>
| 43>                          ****END OF INPUT****

CARTESIAN COORDINATES (ANGSTROEM)
---------------------------------
  S    -49.299400   66.096500  125.816000
  C    -48.292400   64.606800  125.592000
  C    -47.337500   64.440200  126.622000
  C    -47.563700   65.441300  127.660000
  C    -48.466900   66.443000  127.346000
  H    -47.179100   65.472500  128.653000
  C    -46.454700   63.173700  126.769000
  H    -45.712200   63.054900  125.924000
  H    -47.137200   62.249400  126.679000
  C    -45.729800   63.034000  128.175000
  H    -45.102000   63.898200  128.339000
  H    -46.484400   63.020100  128.996000
  C    -44.912100   61.786300  128.184000
  H    -45.627000   61.007200  128.053000
  H    -44.098100   61.754000  127.482000
  H    -44.440500   61.782100  129.138000
  S    -48.808100   69.195000  127.340000
  C    -49.665500   69.908500  128.592000
  C    -49.905600   69.018900  129.599000
  C    -49.491600   67.654700  129.358000
  C    -48.917200   67.552400  128.137000
  H    -50.506700   69.342900  130.416000
  C    -49.751000   66.585800  130.438000
  H    -49.848400   67.151600  131.331000
  H    -48.845300   66.003300  130.487000
  C    -50.965500   65.619100  130.145000
  H    -50.794000   65.235200  129.125000
  H    -51.821000   66.220400  130.120000
  C    -51.158300   64.404900  131.146000
  H    -50.991600   64.761900  132.134000
  H    -50.571100   63.535700  130.963000
  H    -52.187200   64.136600  131.019000
  H    -48.480400   63.800200  124.852000
  H    -49.968800   70.916900  128.528000

 Total Charge           Charge          ....    0
 Multiplicity           Mult            ....    1
 Number of Electrons    NEL             ....  134
 Basis Dimension        Dim             ....  322

ORBITAL ENERGIES
----------------

  NO   OCC          E(Eh)            E(eV)
   0   2.0000     -88.966980     -2420.9146
   1   2.0000     -88.958155     -2420.6745
   2   2.0000     -10.327986      -281.0388
   3   2.0000     -10.324288      -280.9382
   4   2.0000     -10.323238      -280.9096
   5   2.0000     -10.312961      -280.6299
   6   2.0000     -10.310030      -280.5502
   7   2.0000     -10.307237      -280.4742
   8   2.0000     -10.303691      -280.3777
   9   2.0000     -10.297384      -280.2061
  10   2.0000     -10.292774      -280.0806
  11   2.0000     -10.291248      -280.0391
  12   2.0000     -10.287374      -279.9337
  13   2.0000     -10.286178      -279.9011
  14   2.0000     -10.274926      -279.5949
  15   2.0000     -10.271971      -279.5145
  16   2.0000      -8.080062      -219.8697
  17   2.0000      -8.073838      -219.7003
  18   2.0000      -6.038701      -164.3214
  19   2.0000      -6.034821      -164.2158
  20   2.0000      -6.032294      -164.1471
  21   2.0000      -6.030748      -164.1050
  22   2.0000      -6.028224      -164.0363
  23   2.0000      -6.024568      -163.9368
  24   2.0000      -1.002837       -27.2886
  25   2.0000      -0.974465       -26.5165
  26   2.0000      -0.910122       -24.7657
  27   2.0000      -0.902380       -24.5550
  28   2.0000      -0.871223       -23.7072
  29   2.0000      -0.851475       -23.1698
  30   2.0000      -0.839843       -22.8533
  31   2.0000      -0.809944       -22.0397
  32   2.0000      -0.787300       -21.4235
  33   2.0000      -0.769547       -20.9404
  34   2.0000      -0.712464       -19.3871
  35   2.0000      -0.701347       -19.0846
  36   2.0000      -0.685935       -18.6652
  37   2.0000      -0.662786       -18.0353
  38   2.0000      -0.640766       -17.4361
  39   2.0000      -0.612621       -16.6703
  40   2.0000      -0.595510       -16.2047
  41   2.0000      -0.575573       -15.6621
  42   2.0000      -0.564834       -15.3699
  43   2.0000      -0.559497       -15.2247
  44   2.0000      -0.528120       -14.3709
  45   2.0000      -0.524979       -14.2854
  46   2.0000      -0.512811       -13.9543
  47   2.0000      -0.505047       -13.7430
  48   2.0000      -0.500674       -13.6240
  49   2.0000      -0.497643       -13.5416
  50   2.0000      -0.495003       -13.4697
  51   2.0000      -0.484029       -13.1711
  52   2.0000      -0.477618       -12.9967
  53   2.0000      -0.471285       -12.8243
  54   2.0000      -0.455940       -12.4068
  55   2.0000      -0.448870       -12.2144
  56   2.0000      -0.438584       -11.9345
  57   2.0000      -0.434643       -11.8272
  58   2.0000      -0.433561       -11.7978
  59   2.0000      -0.429503       -11.6874
  60   2.0000      -0.428683       -11.6651
  61   2.0000      -0.414147       -11.2695
  62   2.0000      -0.410829       -11.1792
  63   2.0000      -0.341445        -9.2912
  64   2.0000      -0.332599        -9.0505
  65   2.0000      -0.323844        -8.8123
  66   2.0000      -0.292691        -7.9645
  67   0.0000       0.032075         0.8728
  68   0.0000       0.061684         1.6785
  69   0.0000       0.107230         2.9179
  70   0.0000       0.114992         3.1291
  71   0.0000       0.126765         3.4494

MULLIKEN ATOMIC CHARGES
-----------------------
   0 S :    0.108765
   1 C :   -0.137992
   2 C :   -0.041587
   3 C :    0.020703
   4 C :   -0.143401
   5 H :    0.005227
   6 C :   -0.029654
   7 H :    0.052338
   8 H :    0.046009
   9 C :   -0.121463
  10 H :    0.035272
  11 H :    0.038960
  12 C :    0.022453
  13 H :    0.023264
  14 H :    0.029012
  15 H :    0.022983
  16 S :    0.095938
  17 C :   -0.069240
  18 C :   -0.042781
  19 C :   -0.020131
  20 C :   -0.207536
  21 H :    0.004212
  22 C :    0.115053
  23 H :    0.010929
  24 H :    0.014916
  25 C :   -0.079943
  26 H :    0.042437
  27 H :    0.018859
  28 C :   -0.011289
  29 H :    0.023048
  30 H :    0.033512
  31 H :    0.030549
  32 H :    0.063937
  33 H :    0.046640
Sum of atomic charges:    0.0000000

LOEWDIN ATOMIC CHARGES
----------------------
   0 S :    0.376867
   1 C :   -0.186367
   2 C :   -0.061934
   3 C :   -0.059838
   4 C :   -0.189687
   5 H :    0.026042
   6 C :   -0.042412
   7 H :    0.037706
   8 H :    0.038461
   9 C :   -0.042456
  10 H :    0.020071
  11 H :    0.027398
  12 C :   -0.054537
  13 H :    0.022895
  14 H :    0.024301
  15 H :    0.026031
  16 S :    0.396350
  17 C :   -0.192616
  18 C :   -0.079664
  19 C :   -0.047423
  20 C :   -0.182690
  21 H :    0.023393
  22 C :   -0.021219
  23 H :    0.023441
  24 H :    0.026252
  25 C :   -0.027584
  26 H :    0.030179
  27 H :    0.015179
  28 C :   -0.056102
  29 H :    0.020327
  30 H :    0.022462
  31 H :    0.028229
  32 H :    0.035558
  33 H :    0.023385

  Mayer bond orders larger than 0.100000
B(  0-S ,  1-C ) :   1.1321 B(  0-S ,  4-C ) :   1.1230 B(  1-C ,  2-C ) :   1.6281
B(  1-C ,  4-C ) :   0.1035 B(  1-C , 32-H ) :   0.9654 B(  2-C ,  3-C ) :   1.2128
B(  2-C ,  6-C ) :   0.9999 B(  3-C ,  4-C ) :   1.6089 B(  3-C ,  5-H ) :   0.9940
B(  4-C , 20-C ) :   1.0435 B(  6-C ,  7-H ) :   0.9448 B(  6-C ,  8-H ) :   0.9475
B(  6-C ,  9-C ) :   1.0759 B(  9-C , 10-H ) :   0.9525 B(  9-C , 11-H ) :   0.9506
B(  9-C , 12-C ) :   1.0881 B( 12-C , 13-H ) :   0.9735 B( 12-C , 14-H ) :   0.9732
B( 12-C , 15-H ) :   0.9675 B( 16-S , 17-C ) :   1.1631 B( 16-S , 20-C ) :   1.1222
B( 17-C , 18-C ) :   1.6160 B( 17-C , 33-H ) :   0.9721 B( 18-C , 19-C ) :   1.2122
B( 18-C , 21-H ) :   0.9924 B( 19-C , 20-C ) :   1.6405 B( 19-C , 22-C ) :   1.0269
B( 22-C , 23-H ) :   0.9287 B( 22-C , 24-H ) :   0.9352 B( 22-C , 25-C ) :   1.0601
B( 25-C , 26-H ) :   0.9597 B( 25-C , 27-H ) :   0.9610 B( 25-C , 28-C ) :   1.0699
B( 28-C , 29-H ) :   0.9774 B( 28-C , 30-H ) :   0.9788 B( 28-C , 31-H ) :   0.9767

Dispersion correction           -0.013910698
FINAL SINGLE POINT ENERGY     -1339.866153933935

DIPOLE MOMENT
-------------
                                X             Y             Z
Electronic contribution:     -4.91358      24.58056     -16.86334
Nuclear contribution   :      4.89465     -25.15382      17.43394
                        -----------------------------------------
Total Dipole Moment    :     -0.01893      -0.57326       0.57060
                        -----------------------------------------
Magnitude (a.u.)       :      0.80906
Magnitude (Debye)      :      2.05645

Rotational constants in cm-1:     0.017053     0.008535     0.006875
Rotational constants in MHz :   511.230505   255.858795   206.093778

                             ****ORCA TERMINATED NORMALLY****
TOTAL RUN TIME: 0 days 0 hours 0 minutes 32 seconds 591 msec
