                         Program Version 4.2.1 -  RELEASE  -
|  1> ! wB97X-D3 SP def2-SVP
|  2> %pal
|  3> nprocs 16
|  4> end
|  5>
|  6> * xyz 0 1
|  7> S 	 -42.0783 	 29.7694 	 75.2222
|  8> C 	 -42.21 	 30.882 	 73.9033
|  9> C 	 -42.4387 	 32.2315 	 74.257
| 10> C 	 -42.694 	 32.3122 	 75.6744
| 11> C 	 -42.6631 	 31.0832 	 76.2862
| 12> H 	 -42.8325 	 33.2304 	 76.2347
| 13> C 	 -42.5586 	 33.3984 	 73.345
| 14> H 	 -43.2175 	 34.2507 	 73.6762
| 15> H 	 -43.1737 	 32.9732 	 72.5156
| 16> C 	 -41.3102 	 34.0573 	 72.8937
| 17> H 	 -41.6256 	 34.9375 	 72.3139
| 18> H 	 -40.7795 	 34.4719 	 73.7615
| 19> C 	 -40.4127 	 33.1927 	 72.0576
| 20> H 	 -40.7778 	 32.8774 	 71.106
| 21> H 	 -39.4865 	 33.7158 	 71.8619
| 22> H 	 -40.1268 	 32.3472 	 72.6979
| 23> S 	 -42.2379 	 32.0855 	 78.7975
| 24> C 	 -42.8601 	 31.2213 	 80.1627
| 25> C 	 -43.2469 	 29.9512 	 79.8143
| 26> C 	 -43.3701 	 29.7556 	 78.4113
| 27> C 	 -42.8451 	 30.8485 	 77.7024
| 28> H 	 -43.6175 	 29.3006 	 80.5802
| 29> C 	 -44.105 	 28.5479 	 77.7292
| 30> H 	 -44.2112 	 28.7808 	 76.6564
| 31> H 	 -45.1165 	 28.6696 	 78.1141
| 32> C 	 -43.3512 	 27.2093 	 77.7558
| 33> H 	 -43.2115 	 26.7214 	 78.7832
| 34> H 	 -42.3604 	 27.5034 	 77.3203
| 35> C 	 -43.9766 	 26.3277 	 76.7764
| 36> H 	 -44.2168 	 26.7471 	 75.7719
| 37> H 	 -44.8918 	 25.9916 	 77.2541
| 38> H 	 -43.3153 	 25.4505 	 76.6841
| 39> H 	 -42.1735 	 30.6492 	 72.8683
| 40> H 	 -42.7423 	 31.5396 	 81.1801
| 41> *
| 42>
| 43>                          ****END OF INPUT****

CARTESIAN COORDINATES (ANGSTROEM)
---------------------------------
  S    -42.078300   29.769400   75.222200
  C    -42.210000   30.882000   73.903300
  C    -42.438700   32.231500   74.257000
  C    -42.694000   32.312200   75.674400
  C    -42.663100   31.083200   76.286200
  H    -42.832500   33.230400   76.234700
  C    -42.558600   33.398400   73.345000
  H    -43.217500   34.250700   73.676200
  H    -43.173700   32.973200   72.515600
  C    -41.310200   34.057300   72.893700
  H    -41.625600   34.937500   72.313900
  H    -40.779500   34.471900   73.761500
  C    -40.412700   33.192700   72.057600
  H    -40.777800   32.877400   71.106000
  H    -39.486500   33.715800   71.861900
  H    -40.126800   32.347200   72.697900
  S    -42.237900   32.085500   78.797500
  C    -42.860100   31.221300   80.162700
  C    -43.246900   29.951200   79.814300
  C    -43.370100   29.755600   78.411300
  C    -42.845100   30.848500   77.702400
  H    -43.617500   29.300600   80.580200
  C    -44.105000   28.547900   77.729200
  H    -44.211200   28.780800   76.656400
  H    -45.116500   28.669600   78.114100
  C    -43.351200   27.209300   77.755800
  H    -43.211500   26.721400   78.783200
  H    -42.360400   27.503400   77.320300
  C    -43.976600   26.327700   76.776400
  H    -44.216800   26.747100   75.771900
  H    -44.891800   25.991600   77.254100
  H    -43.315300   25.450500   76.684100
  H    -42.173500   30.649200   72.868300
  H    -42.742300   31.539600   81.180100

 Total Charge           Charge          ....    0
 Multiplicity           Mult            ....    1
 Number of Electrons    NEL             ....  134
 Basis Dimension        Dim             ....  322

ORBITAL ENERGIES
----------------

  NO   OCC          E(Eh)            E(eV)
   0   2.0000     -88.973528     -2421.0928
   1   2.0000     -88.963205     -2420.8119
   2   2.0000     -10.328135      -281.0428
   3   2.0000     -10.322523      -280.8901
   4   2.0000     -10.312579      -280.6195
   5   2.0000     -10.312171      -280.6084
   6   2.0000     -10.303136      -280.3626
   7   2.0000     -10.302969      -280.3580
   8   2.0000     -10.293209      -280.0925
   9   2.0000     -10.292135      -280.0632
  10   2.0000     -10.291902      -280.0569
  11   2.0000     -10.290141      -280.0090
  12   2.0000     -10.289476      -279.9909
  13   2.0000     -10.282385      -279.7979
  14   2.0000     -10.273289      -279.5504
  15   2.0000     -10.268866      -279.4300
  16   2.0000      -8.087122      -220.0618
  17   2.0000      -8.078113      -219.8166
  18   2.0000      -6.045670      -164.5111
  19   2.0000      -6.042021      -164.4118
  20   2.0000      -6.037710      -164.2945
  21   2.0000      -6.036543      -164.2627
  22   2.0000      -6.032681      -164.1576
  23   2.0000      -6.028882      -164.0542
  24   2.0000      -1.004614       -27.3369
  25   2.0000      -0.981839       -26.7172
  26   2.0000      -0.920769       -25.0554
  27   2.0000      -0.914090       -24.8737
  28   2.0000      -0.868940       -23.6451
  29   2.0000      -0.856622       -23.3099
  30   2.0000      -0.848443       -23.0873
  31   2.0000      -0.810682       -22.0598
  32   2.0000      -0.784337       -21.3429
  33   2.0000      -0.769240       -20.9321
  34   2.0000      -0.705186       -19.1891
  35   2.0000      -0.694355       -18.8943
  36   2.0000      -0.687341       -18.7035
  37   2.0000      -0.661683       -18.0053
  38   2.0000      -0.633066       -17.2266
  39   2.0000      -0.616763       -16.7830
  40   2.0000      -0.595413       -16.2020
  41   2.0000      -0.572702       -15.5840
  42   2.0000      -0.571732       -15.5576
  43   2.0000      -0.546418       -14.8688
  44   2.0000      -0.544150       -14.8071
  45   2.0000      -0.531190       -14.4544
  46   2.0000      -0.520342       -14.1592
  47   2.0000      -0.514183       -13.9916
  48   2.0000      -0.500422       -13.6172
  49   2.0000      -0.492831       -13.4106
  50   2.0000      -0.488702       -13.2983
  51   2.0000      -0.480024       -13.0621
  52   2.0000      -0.474773       -12.9192
  53   2.0000      -0.462778       -12.5928
  54   2.0000      -0.459798       -12.5117
  55   2.0000      -0.451802       -12.2941
  56   2.0000      -0.440297       -11.9811
  57   2.0000      -0.438871       -11.9423
  58   2.0000      -0.431607       -11.7446
  59   2.0000      -0.419424       -11.4131
  60   2.0000      -0.415868       -11.3164
  61   2.0000      -0.412103       -11.2139
  62   2.0000      -0.405764       -11.0414
  63   2.0000      -0.349582        -9.5126
  64   2.0000      -0.331717        -9.0265
  65   2.0000      -0.329828        -8.9751
  66   2.0000      -0.282858        -7.6970
  67   0.0000       0.022194         0.6039
  68   0.0000       0.079194         2.1550
  69   0.0000       0.095618         2.6019
  70   0.0000       0.111188         3.0256
  71   0.0000       0.130449         3.5497

MULLIKEN ATOMIC CHARGES
-----------------------
   0 S :    0.114805
   1 C :   -0.085153
   2 C :   -0.089312
   3 C :   -0.004236
   4 C :   -0.124056
   5 H :    0.020324
   6 C :    0.012865
   7 H :    0.034365
   8 H :    0.030753
   9 C :   -0.051079
  10 H :    0.025021
  11 H :    0.027686
  12 C :   -0.031297
  13 H :    0.022813
  14 H :    0.023627
  15 H :    0.036301
  16 S :    0.097472
  17 C :   -0.086443
  18 C :   -0.023929
  19 C :   -0.059073
  20 C :   -0.143087
  21 H :    0.011484
  22 C :    0.039303
  23 H :    0.016178
  24 H :    0.037609
  25 C :   -0.079684
  26 H :    0.052162
  27 H :    0.028342
  28 C :   -0.033419
  29 H :    0.043954
  30 H :    0.021105
  31 H :    0.033425
  32 H :    0.028862
  33 H :    0.052312
Sum of atomic charges:   -0.0000000

LOEWDIN ATOMIC CHARGES
----------------------
   0 S :    0.410973
   1 C :   -0.200485
   2 C :   -0.056891
   3 C :   -0.060906
   4 C :   -0.178106
   5 H :    0.029990
   6 C :   -0.048187
   7 H :    0.039523
   8 H :    0.037344
   9 C :   -0.043934
  10 H :    0.025518
  11 H :    0.028443
  12 C :   -0.066021
  13 H :    0.019314
  14 H :    0.026231
  15 H :    0.029017
  16 S :    0.407808
  17 C :   -0.185824
  18 C :   -0.070979
  19 C :   -0.056872
  20 C :   -0.199035
  21 H :    0.028177
  22 C :   -0.036183
  23 H :    0.022592
  24 H :    0.030943
  25 C :   -0.049385
  26 H :    0.034538
  27 H :    0.024741
  28 C :   -0.068544
  29 H :    0.030509
  30 H :    0.023919
  31 H :    0.028010
  32 H :    0.017763
  33 H :    0.025999

  Mayer bond orders larger than 0.100000
B(  0-S ,  1-C ) :   1.1350 B(  0-S ,  4-C ) :   1.1215 B(  1-C ,  2-C ) :   1.6124
B(  1-C , 32-H ) :   0.9616 B(  2-C ,  3-C ) :   1.2338 B(  2-C ,  6-C ) :   1.0133
B(  3-C ,  4-C ) :   1.5716 B(  3-C ,  5-H ) :   0.9920 B(  4-C , 20-C ) :   1.0822
B(  6-C ,  7-H ) :   0.9460 B(  6-C ,  8-H ) :   0.9377 B(  6-C ,  9-C ) :   1.0818
B(  9-C , 10-H ) :   0.9488 B(  9-C , 11-H ) :   0.9476 B(  9-C , 12-C ) :   1.0941
B( 12-C , 13-H ) :   0.9740 B( 12-C , 14-H ) :   0.9686 B( 12-C , 15-H ) :   0.9678
B( 16-S , 17-C ) :   1.1555 B( 16-S , 20-C ) :   1.1374 B( 17-C , 18-C ) :   1.6110
B( 17-C , 33-H ) :   0.9686 B( 18-C , 19-C ) :   1.2498 B( 18-C , 21-H ) :   0.9899
B( 19-C , 20-C ) :   1.5648 B( 19-C , 22-C ) :   1.0278 B( 22-C , 23-H ) :   0.9363
B( 22-C , 24-H ) :   0.9351 B( 22-C , 25-C ) :   1.0464 B( 25-C , 26-H ) :   0.9511
B( 25-C , 27-H ) :   0.9472 B( 25-C , 28-C ) :   1.0997 B( 28-C , 29-H ) :   0.9687
B( 28-C , 30-H ) :   0.9685 B( 28-C , 31-H ) :   0.9705

Dispersion correction           -0.014419744
FINAL SINGLE POINT ENERGY     -1339.872818399586

DIPOLE MOMENT
-------------
                                X             Y             Z
Electronic contribution:      1.37316       4.13688      14.02320
Nuclear contribution   :     -1.54134      -4.10279     -14.14824
                        -----------------------------------------
Total Dipole Moment    :     -0.16818       0.03409      -0.12504
                        -----------------------------------------
Magnitude (a.u.)       :      0.21233
Magnitude (Debye)      :      0.53969

Rotational constants in cm-1:     0.021425     0.008363     0.006348
Rotational constants in MHz :   642.295050   250.702552   190.314054

                             ****ORCA TERMINATED NORMALLY****
TOTAL RUN TIME: 0 days 0 hours 0 minutes 28 seconds 79 msec
