                         Program Version 4.2.1 -  RELEASE  -
|  1> ! wB97X-D3 SP def2-SVP
|  2> %pal
|  3> nprocs 16
|  4> end
|  5>
|  6> * xyz 0 1
|  7> S 	 -105.506 	 42.7556 	 131.483
|  8> C 	 -105.009 	 43.2592 	 133.103
|  9> C 	 -106.093 	 43.3149 	 133.987
| 10> C 	 -107.332 	 42.8984 	 133.385
| 11> C 	 -107.184 	 42.474 	 132.086
| 12> H 	 -108.302 	 42.7753 	 133.842
| 13> C 	 -106.065 	 43.7772 	 135.43
| 14> H 	 -106.767 	 44.6399 	 135.4
| 15> H 	 -105.107 	 44.2712 	 135.673
| 16> C 	 -106.483 	 42.8269 	 136.529
| 17> H 	 -106.545 	 43.2039 	 137.581
| 18> H 	 -107.5 	 42.5753 	 136.24
| 19> C 	 -105.645 	 41.519 	 136.526
| 20> H 	 -106.111 	 40.9592 	 137.258
| 21> H 	 -105.816 	 40.897 	 135.636
| 22> H 	 -104.625 	 41.5884 	 136.815
| 23> S 	 -108.124 	 42.5819 	 129.516
| 24> C 	 -109.365 	 41.4298 	 128.998
| 25> C 	 -109.899 	 40.7419 	 130.079
| 26> C 	 -109.345 	 41.0632 	 131.378
| 27> C 	 -108.258 	 41.9552 	 131.196
| 28> H 	 -110.527 	 39.904 	 129.927
| 29> C 	 -109.632 	 40.3855 	 132.689
| 30> H 	 -108.636 	 40.3428 	 133.174
| 31> H 	 -109.814 	 39.3989 	 132.356
| 32> C 	 -110.739 	 41.0934 	 133.488
| 33> H 	 -111.594 	 41.0344 	 132.832
| 34> H 	 -110.48 	 42.132 	 133.591
| 35> C 	 -111.001 	 40.4943 	 134.89
| 36> H 	 -111.819 	 41.0867 	 135.25
| 37> H 	 -110.037 	 40.686 	 135.38
| 38> H 	 -111.155 	 39.4028 	 134.865
| 39> H 	 -104.01 	 43.5791 	 133.459
| 40> H 	 -109.801 	 41.2127 	 128.007
| 41> *
| 42>
| 43>                          ****END OF INPUT****

CARTESIAN COORDINATES (ANGSTROEM)
---------------------------------
  S    -105.506000   42.755600  131.483000
  C    -105.009000   43.259200  133.103000
  C    -106.093000   43.314900  133.987000
  C    -107.332000   42.898400  133.385000
  C    -107.184000   42.474000  132.086000
  H    -108.302000   42.775300  133.842000
  C    -106.065000   43.777200  135.430000
  H    -106.767000   44.639900  135.400000
  H    -105.107000   44.271200  135.673000
  C    -106.483000   42.826900  136.529000
  H    -106.545000   43.203900  137.581000
  H    -107.500000   42.575300  136.240000
  C    -105.645000   41.519000  136.526000
  H    -106.111000   40.959200  137.258000
  H    -105.816000   40.897000  135.636000
  H    -104.625000   41.588400  136.815000
  S    -108.124000   42.581900  129.516000
  C    -109.365000   41.429800  128.998000
  C    -109.899000   40.741900  130.079000
  C    -109.345000   41.063200  131.378000
  C    -108.258000   41.955200  131.196000
  H    -110.527000   39.904000  129.927000
  C    -109.632000   40.385500  132.689000
  H    -108.636000   40.342800  133.174000
  H    -109.814000   39.398900  132.356000
  C    -110.739000   41.093400  133.488000
  H    -111.594000   41.034400  132.832000
  H    -110.480000   42.132000  133.591000
  C    -111.001000   40.494300  134.890000
  H    -111.819000   41.086700  135.250000
  H    -110.037000   40.686000  135.380000
  H    -111.155000   39.402800  134.865000
  H    -104.010000   43.579100  133.459000
  H    -109.801000   41.212700  128.007000

 Total Charge           Charge          ....    0
 Multiplicity           Mult            ....    1
 Number of Electrons    NEL             ....  134
 Basis Dimension        Dim             ....  322

ORBITAL ENERGIES
----------------

  NO   OCC          E(Eh)            E(eV)
   0   2.0000     -88.970724     -2421.0165
   1   2.0000     -88.967975     -2420.9417
   2   2.0000     -10.336438      -281.2688
   3   2.0000     -10.334384      -281.2129
   4   2.0000     -10.320313      -280.8300
   5   2.0000     -10.320311      -280.8299
   6   2.0000     -10.308648      -280.5126
   7   2.0000     -10.306676      -280.4589
   8   2.0000     -10.296158      -280.1727
   9   2.0000     -10.294092      -280.1165
  10   2.0000     -10.293489      -280.1001
  11   2.0000     -10.292554      -280.0746
  12   2.0000     -10.291202      -280.0379
  13   2.0000     -10.289085      -279.9802
  14   2.0000     -10.284281      -279.8495
  15   2.0000     -10.267581      -279.3951
  16   2.0000      -8.083865      -219.9731
  17   2.0000      -8.081370      -219.9053
  18   2.0000      -6.042595      -164.4274
  19   2.0000      -6.040075      -164.3588
  20   2.0000      -6.038715      -164.3218
  21   2.0000      -6.036086      -164.2503
  22   2.0000      -6.034348      -164.2030
  23   2.0000      -6.031979      -164.1385
  24   2.0000      -0.997194       -27.1350
  25   2.0000      -0.974930       -26.5292
  26   2.0000      -0.914259       -24.8783
  27   2.0000      -0.910603       -24.7788
  28   2.0000      -0.863649       -23.5011
  29   2.0000      -0.854970       -23.2649
  30   2.0000      -0.845385       -23.0041
  31   2.0000      -0.815280       -22.1849
  32   2.0000      -0.784809       -21.3557
  33   2.0000      -0.772028       -21.0079
  34   2.0000      -0.708418       -19.2770
  35   2.0000      -0.700295       -19.0560
  36   2.0000      -0.693135       -18.8612
  37   2.0000      -0.661316       -17.9953
  38   2.0000      -0.637000       -17.3336
  39   2.0000      -0.620057       -16.8726
  40   2.0000      -0.586262       -15.9530
  41   2.0000      -0.571965       -15.5640
  42   2.0000      -0.560650       -15.2561
  43   2.0000      -0.548923       -14.9370
  44   2.0000      -0.544121       -14.8063
  45   2.0000      -0.540205       -14.6997
  46   2.0000      -0.515959       -14.0400
  47   2.0000      -0.510040       -13.8789
  48   2.0000      -0.506588       -13.7850
  49   2.0000      -0.497104       -13.5269
  50   2.0000      -0.489709       -13.3257
  51   2.0000      -0.481911       -13.1135
  52   2.0000      -0.466080       -12.6827
  53   2.0000      -0.463358       -12.6086
  54   2.0000      -0.457646       -12.4532
  55   2.0000      -0.449781       -12.2392
  56   2.0000      -0.445439       -12.1210
  57   2.0000      -0.441695       -12.0191
  58   2.0000      -0.433051       -11.7839
  59   2.0000      -0.425448       -11.5770
  60   2.0000      -0.421503       -11.4697
  61   2.0000      -0.418240       -11.3809
  62   2.0000      -0.413258       -11.2453
  63   2.0000      -0.350982        -9.5507
  64   2.0000      -0.331410        -9.0181
  65   2.0000      -0.330010        -8.9800
  66   2.0000      -0.285906        -7.7799
  67   0.0000       0.021237         0.5779
  68   0.0000       0.070379         1.9151
  69   0.0000       0.102880         2.7995
  70   0.0000       0.113508         3.0887
  71   0.0000       0.123143         3.3509

MULLIKEN ATOMIC CHARGES
-----------------------
   0 S :    0.109287
   1 C :   -0.116166
   2 C :   -0.094505
   3 C :    0.021244
   4 C :   -0.123533
   5 H :   -0.001627
   6 C :    0.063500
   7 H :    0.037851
   8 H :    0.014366
   9 C :   -0.085869
  10 H :    0.044617
  11 H :    0.014919
  12 C :   -0.017659
  13 H :    0.003608
  14 H :    0.040956
  15 H :    0.031402
  16 S :    0.096353
  17 C :   -0.085270
  18 C :   -0.037853
  19 C :   -0.059605
  20 C :   -0.170647
  21 H :    0.007586
  22 C :    0.067661
  23 H :    0.032838
  24 H :    0.010553
  25 C :   -0.088808
  26 H :    0.024053
  27 H :    0.031937
  28 C :   -0.007418
  29 H :    0.045831
  30 H :    0.030235
  31 H :    0.041182
  32 H :    0.054960
  33 H :    0.064019
Sum of atomic charges:   -0.0000000

LOEWDIN ATOMIC CHARGES
----------------------
   0 S :    0.376351
   1 C :   -0.199759
   2 C :   -0.058589
   3 C :   -0.065491
   4 C :   -0.173473
   5 H :    0.029143
   6 C :   -0.041820
   7 H :    0.037787
   8 H :    0.025865
   9 C :   -0.041392
  10 H :    0.033631
  11 H :    0.020214
  12 C :   -0.062156
  13 H :    0.017106
  14 H :    0.032136
  15 H :    0.021344
  16 S :    0.377126
  17 C :   -0.190586
  18 C :   -0.070723
  19 C :   -0.051089
  20 C :   -0.175649
  21 H :    0.023666
  22 C :   -0.034057
  23 H :    0.034234
  24 H :    0.025464
  25 C :   -0.035324
  26 H :    0.022280
  27 H :    0.020519
  28 C :   -0.059039
  29 H :    0.028314
  30 H :    0.027496
  31 H :    0.029241
  32 H :    0.037605
  33 H :    0.039626

  Mayer bond orders larger than 0.100000
B(  0-S ,  1-C ) :   1.1168 B(  0-S ,  4-C ) :   1.1268 B(  1-C ,  2-C ) :   1.6377
B(  1-C , 32-H ) :   0.9585 B(  2-C ,  3-C ) :   1.2030 B(  2-C ,  6-C ) :   1.0187
B(  3-C ,  4-C ) :   1.5943 B(  3-C ,  5-H ) :   0.9906 B(  4-C , 20-C ) :   1.0484
B(  6-C ,  7-H ) :   0.9388 B(  6-C ,  8-H ) :   0.9421 B(  6-C ,  9-C ) :   1.0664
B(  9-C , 10-H ) :   0.9576 B(  9-C , 11-H ) :   0.9512 B(  9-C , 12-C ) :   1.0838
B( 12-C , 13-H ) :   0.9691 B( 12-C , 14-H ) :   0.9697 B( 12-C , 15-H ) :   0.9770
B( 16-S , 17-C ) :   1.1227 B( 16-S , 20-C ) :   1.1346 B( 17-C , 18-C ) :   1.6464
B( 17-C , 33-H ) :   0.9608 B( 18-C , 19-C ) :   1.2289 B( 18-C , 21-H ) :   0.9844
B( 19-C , 20-C ) :   1.5862 B( 19-C , 22-C ) :   1.0278 B( 22-C , 23-H ) :   0.9360
B( 22-C , 24-H ) :   0.9302 B( 22-C , 25-C ) :   1.0472 B( 25-C , 26-H ) :   0.9524
B( 25-C , 27-H ) :   0.9553 B( 25-C , 28-C ) :   1.0715 B( 28-C , 29-H ) :   0.9747
B( 28-C , 30-H ) :   0.9745 B( 28-C , 31-H ) :   0.9746

Dispersion correction           -0.014911046
FINAL SINGLE POINT ENERGY     -1339.866262243114

DIPOLE MOMENT
-------------
                                X             Y             Z
Electronic contribution:      8.79763       7.50612     -29.12039
Nuclear contribution   :     -9.17865      -7.79406      29.76488
                        -----------------------------------------
Total Dipole Moment    :     -0.38102      -0.28794       0.64449
                        -----------------------------------------
Magnitude (a.u.)       :      0.80216
Magnitude (Debye)      :      2.03892

Rotational constants in cm-1:     0.017069     0.010325     0.006872
Rotational constants in MHz :   511.709025   309.542639   206.003922

                             ****ORCA TERMINATED NORMALLY****
TOTAL RUN TIME: 0 days 0 hours 0 minutes 33 seconds 519 msec
