                         Program Version 4.2.1 -  RELEASE  -
|  1> ! wB97X-D3 SP def2-SVP
|  2> %pal
|  3> nprocs 16
|  4> end
|  5>
|  6> * xyz 0 1
|  7> S 	 -100.367 	 51.8964 	 123.089
|  8> C 	 -99.925 	 50.9391 	 121.744
|  9> C 	 -99.6968 	 51.65 	 120.643
| 10> C 	 -99.7613 	 53.0809 	 120.953
| 11> C 	 -100.113 	 53.3962 	 122.239
| 12> H 	 -99.5935 	 53.9014 	 120.303
| 13> C 	 -99.2621 	 51.0702 	 119.352
| 14> H 	 -100.186 	 50.9041 	 118.914
| 15> H 	 -98.6624 	 50.2018 	 119.511
| 16> C 	 -98.4903 	 52.1053 	 118.475
| 17> H 	 -99.1819 	 52.7932 	 118.052
| 18> H 	 -97.678 	 52.5794 	 118.977
| 19> C 	 -97.7639 	 51.3751 	 117.29
| 20> H 	 -96.8333 	 51.7418 	 116.925
| 21> H 	 -97.5784 	 50.399 	 117.629
| 22> H 	 -98.4939 	 51.0689 	 116.47
| 23> S 	 -99.1232 	 55.4122 	 123.809
| 24> C 	 -100.012 	 56.9138 	 123.942
| 25> C 	 -101.197 	 56.8718 	 123.255
| 26> C 	 -101.402 	 55.6411 	 122.569
| 27> C 	 -100.382 	 54.7236 	 122.769
| 28> H 	 -101.912 	 57.7503 	 123.185
| 29> C 	 -102.625 	 55.4342 	 121.768
| 30> H 	 -102.241 	 54.8571 	 120.93
| 31> H 	 -102.948 	 56.3794 	 121.445
| 32> C 	 -103.831 	 54.7506 	 122.42
| 33> H 	 -103.477 	 53.8102 	 122.83
| 34> H 	 -104.646 	 54.6028 	 121.688
| 35> C 	 -104.411 	 55.5436 	 123.576
| 36> H 	 -103.606 	 55.9942 	 124.153
| 37> H 	 -105.051 	 54.9114 	 124.141
| 38> H 	 -104.993 	 56.3349 	 123.313
| 39> H 	 -99.9243 	 49.8849 	 121.821
| 40> H 	 -99.7487 	 57.7889 	 124.533
| 41> *
| 42>
| 43>                          ****END OF INPUT****

CARTESIAN COORDINATES (ANGSTROEM)
---------------------------------
  S    -100.367000   51.896400  123.089000
  C    -99.925000   50.939100  121.744000
  C    -99.696800   51.650000  120.643000
  C    -99.761300   53.080900  120.953000
  C    -100.113000   53.396200  122.239000
  H    -99.593500   53.901400  120.303000
  C    -99.262100   51.070200  119.352000
  H    -100.186000   50.904100  118.914000
  H    -98.662400   50.201800  119.511000
  C    -98.490300   52.105300  118.475000
  H    -99.181900   52.793200  118.052000
  H    -97.678000   52.579400  118.977000
  C    -97.763900   51.375100  117.290000
  H    -96.833300   51.741800  116.925000
  H    -97.578400   50.399000  117.629000
  H    -98.493900   51.068900  116.470000
  S    -99.123200   55.412200  123.809000
  C    -100.012000   56.913800  123.942000
  C    -101.197000   56.871800  123.255000
  C    -101.402000   55.641100  122.569000
  C    -100.382000   54.723600  122.769000
  H    -101.912000   57.750300  123.185000
  C    -102.625000   55.434200  121.768000
  H    -102.241000   54.857100  120.930000
  H    -102.948000   56.379400  121.445000
  C    -103.831000   54.750600  122.420000
  H    -103.477000   53.810200  122.830000
  H    -104.646000   54.602800  121.688000
  C    -104.411000   55.543600  123.576000
  H    -103.606000   55.994200  124.153000
  H    -105.051000   54.911400  124.141000
  H    -104.993000   56.334900  123.313000
  H    -99.924300   49.884900  121.821000
  H    -99.748700   57.788900  124.533000

 Total Charge           Charge          ....    0
 Multiplicity           Mult            ....    1
 Number of Electrons    NEL             ....  134
 Basis Dimension        Dim             ....  322

ORBITAL ENERGIES
----------------

  NO   OCC          E(Eh)            E(eV)
   0   2.0000     -88.965150     -2420.8648
   1   2.0000     -88.958586     -2420.6862
   2   2.0000     -10.325965      -280.9838
   3   2.0000     -10.324313      -280.9388
   4   2.0000     -10.317806      -280.7618
   5   2.0000     -10.302266      -280.3389
   6   2.0000     -10.299993      -280.2771
   7   2.0000     -10.295464      -280.1538
   8   2.0000     -10.295456      -280.1536
   9   2.0000     -10.291278      -280.0399
  10   2.0000     -10.286675      -279.9146
  11   2.0000     -10.286611      -279.9129
  12   2.0000     -10.281312      -279.7687
  13   2.0000     -10.278946      -279.7043
  14   2.0000     -10.275504      -279.6107
  15   2.0000     -10.259281      -279.1692
  16   2.0000      -8.079610      -219.8574
  17   2.0000      -8.074571      -219.7202
  18   2.0000      -6.038169      -164.3069
  19   2.0000      -6.034096      -164.1961
  20   2.0000      -6.033063      -164.1680
  21   2.0000      -6.030393      -164.0953
  22   2.0000      -6.028859      -164.0536
  23   2.0000      -6.025313      -163.9571
  24   2.0000      -1.009961       -27.4824
  25   2.0000      -0.988999       -26.9120
  26   2.0000      -0.917452       -24.9651
  27   2.0000      -0.913194       -24.8493
  28   2.0000      -0.874808       -23.8047
  29   2.0000      -0.851295       -23.1649
  30   2.0000      -0.845491       -23.0070
  31   2.0000      -0.818994       -22.2860
  32   2.0000      -0.785134       -21.3646
  33   2.0000      -0.774127       -21.0651
  34   2.0000      -0.718982       -19.5645
  35   2.0000      -0.702540       -19.1171
  36   2.0000      -0.687545       -18.7091
  37   2.0000      -0.661482       -17.9998
  38   2.0000      -0.651300       -17.7228
  39   2.0000      -0.615582       -16.7508
  40   2.0000      -0.591616       -16.0987
  41   2.0000      -0.584708       -15.9107
  42   2.0000      -0.568621       -15.4730
  43   2.0000      -0.554149       -15.0792
  44   2.0000      -0.550781       -14.9875
  45   2.0000      -0.530354       -14.4317
  46   2.0000      -0.519106       -14.1256
  47   2.0000      -0.515725       -14.0336
  48   2.0000      -0.507712       -13.8155
  49   2.0000      -0.496270       -13.5042
  50   2.0000      -0.487513       -13.2659
  51   2.0000      -0.479607       -13.0508
  52   2.0000      -0.473271       -12.8784
  53   2.0000      -0.464372       -12.6362
  54   2.0000      -0.460149       -12.5213
  55   2.0000      -0.451680       -12.2908
  56   2.0000      -0.444875       -12.1057
  57   2.0000      -0.437270       -11.8987
  58   2.0000      -0.432128       -11.7588
  59   2.0000      -0.426310       -11.6005
  60   2.0000      -0.421395       -11.4667
  61   2.0000      -0.413516       -11.2523
  62   2.0000      -0.411731       -11.2038
  63   2.0000      -0.335479        -9.1289
  64   2.0000      -0.328781        -8.9466
  65   2.0000      -0.325168        -8.8483
  66   2.0000      -0.309272        -8.4157
  67   0.0000       0.043522         1.1843
  68   0.0000       0.063009         1.7146
  69   0.0000       0.118276         3.2185
  70   0.0000       0.128918         3.5080
  71   0.0000       0.133470         3.6319

MULLIKEN ATOMIC CHARGES
-----------------------
   0 S :    0.108360
   1 C :   -0.128567
   2 C :   -0.092768
   3 C :    0.047263
   4 C :   -0.160612
   5 H :   -0.003029
   6 C :    0.130336
   7 H :    0.025055
   8 H :    0.028849
   9 C :   -0.095422
  10 H :    0.035609
  11 H :    0.038512
  12 C :   -0.021689
  13 H :    0.037184
  14 H :   -0.005657
  15 H :    0.024907
  16 S :    0.112038
  17 C :   -0.083798
  18 C :   -0.065161
  19 C :   -0.052410
  20 C :   -0.193991
  21 H :    0.042730
  22 C :    0.122812
  23 H :    0.020370
  24 H :   -0.006629
  25 C :   -0.046069
  26 H :    0.025068
  27 H :    0.034858
  28 C :   -0.014820
  29 H :    0.028276
  30 H :    0.024652
  31 H :   -0.003518
  32 H :    0.029777
  33 H :    0.057483
Sum of atomic charges:    0.0000000

LOEWDIN ATOMIC CHARGES
----------------------
   0 S :    0.414110
   1 C :   -0.196373
   2 C :   -0.066203
   3 C :   -0.054998
   4 C :   -0.208817
   5 H :    0.024265
   6 C :   -0.018479
   7 H :    0.032014
   8 H :    0.029572
   9 C :   -0.028933
  10 H :    0.021501
  11 H :    0.024265
  12 C :   -0.069626
  13 H :    0.022017
  14 H :    0.014574
  15 H :    0.032608
  16 S :    0.403850
  17 C :   -0.184082
  18 C :   -0.084945
  19 C :   -0.052063
  20 C :   -0.198415
  21 H :    0.042165
  22 C :   -0.030153
  23 H :    0.034364
  24 H :    0.020053
  25 C :   -0.029241
  26 H :    0.022796
  27 H :    0.027946
  28 C :   -0.059213
  29 H :    0.027645
  30 H :    0.025181
  31 H :    0.008640
  32 H :    0.020682
  33 H :    0.033294

  Mayer bond orders larger than 0.100000
B(  0-S ,  1-C ) :   1.1425 B(  0-S ,  4-C ) :   1.1433 B(  1-C ,  2-C ) :   1.6447
B(  1-C , 32-H ) :   0.9781 B(  2-C ,  3-C ) :   1.2067 B(  2-C ,  6-C ) :   1.0022
B(  3-C ,  4-C ) :   1.6006 B(  3-C ,  5-H ) :   1.0026 B(  4-C , 20-C ) :   1.0111
B(  6-C ,  7-H ) :   0.9084 B(  6-C ,  8-H ) :   0.9497 B(  6-C ,  9-C ) :   1.1021
B(  9-C , 10-H ) :   0.9468 B(  9-C , 11-H ) :   0.9641 B(  9-C , 12-C ) :   1.0755
B( 12-C , 13-H ) :   0.9785 B( 12-C , 14-H ) :   0.9713 B( 12-C , 15-H ) :   0.9700
B( 16-S , 17-C ) :   1.1593 B( 16-S , 20-C ) :   1.1372 B( 17-C , 18-C ) :   1.6147
B( 17-C , 20-C ) :   0.1001 B( 17-C , 33-H ) :   0.9629 B( 18-C , 19-C ) :   1.2421
B( 18-C , 21-H ) :   0.9736 B( 19-C , 20-C ) :   1.6092 B( 19-C , 22-C ) :   1.0487
B( 22-C , 23-H ) :   0.9181 B( 22-C , 24-H ) :   0.9215 B( 22-C , 25-C ) :   1.0827
B( 25-C , 26-H ) :   0.9551 B( 25-C , 27-H ) :   0.9545 B( 25-C , 28-C ) :   1.0803
B( 28-C , 29-H ) :   0.9726 B( 28-C , 30-H ) :   0.9708 B( 28-C , 31-H ) :   0.9702

Dispersion correction           -0.014399835
FINAL SINGLE POINT ENERGY     -1339.865376722586

DIPOLE MOMENT
-------------
                                X             Y             Z
Electronic contribution:      8.31881       1.80890      18.55552
Nuclear contribution   :     -8.53500      -1.77511     -19.10926
                        -----------------------------------------
Total Dipole Moment    :     -0.21619       0.03379      -0.55374
                        -----------------------------------------
Magnitude (a.u.)       :      0.59541
Magnitude (Debye)      :      1.51340

Rotational constants in cm-1:     0.020632     0.007530     0.007096
Rotational constants in MHz :   618.518074   225.731055   212.722242

                             ****ORCA TERMINATED NORMALLY****
TOTAL RUN TIME: 0 days 0 hours 0 minutes 35 seconds 662 msec
