                         Program Version 4.2.1 -  RELEASE  -
|  1> ! wB97X-D3 SP def2-SVP
|  2> %pal
|  3> nprocs 16
|  4> end
|  5>
|  6> * xyz 0 1
|  7> S 	 33.6255 	 0.97176 	 72.1076
|  8> C 	 33.4515 	 2.4749 	 71.2561
|  9> C 	 32.5292 	 3.23075 	 71.9103
| 10> C 	 31.8505 	 2.56242 	 72.9637
| 11> C 	 32.302 	 1.29053 	 73.2455
| 12> H 	 31.1177 	 3.02925 	 73.6627
| 13> C 	 32.1637 	 4.6595 	 71.5523
| 14> H 	 31.6737 	 5.12175 	 72.4048
| 15> H 	 31.3688 	 4.67568 	 70.7492
| 16> C 	 33.3096 	 5.67946 	 71.3273
| 17> H 	 33.6776 	 5.68332 	 70.3301
| 18> H 	 32.7721 	 6.61236 	 71.3538
| 19> C 	 34.3418 	 5.58442 	 72.416
| 20> H 	 34.949 	 4.67421 	 72.2819
| 21> H 	 35.0541 	 6.33138 	 72.1941
| 22> H 	 33.8943 	 5.7978 	 73.4455
| 23> S 	 30.0864 	 0.0360934 	 74.1425
| 24> C 	 30.2944 	 -0.828383 	 75.6876
| 25> C 	 31.6233 	 -1.12881 	 75.9862
| 26> C 	 32.5442 	 -0.366109 	 75.161
| 27> C 	 31.8323 	 0.376917 	 74.1912
| 28> H 	 31.8627 	 -1.72191 	 76.8292
| 29> C 	 34.0291 	 -0.354473 	 75.3587
| 30> H 	 34.4099 	 0.330657 	 74.7384
| 31> H 	 34.6047 	 -1.23956 	 75.1254
| 32> C 	 34.5534 	 -0.0185837 	 76.7861
| 33> H 	 35.6178 	 -0.270164 	 76.7456
| 34> H 	 34.0518 	 -0.612748 	 77.5636
| 35> C 	 34.4368 	 1.50572 	 77.0702
| 36> H 	 34.997 	 1.61002 	 77.9621
| 37> H 	 33.4663 	 1.86036 	 77.2089
| 38> H 	 35.0029 	 2.13692 	 76.3872
| 39> H 	 33.9751 	 2.82147 	 70.3602
| 40> H 	 29.6305 	 -1.37699 	 76.3378
| 41> *
| 42>
| 43>                          ****END OF INPUT****

CARTESIAN COORDINATES (ANGSTROEM)
---------------------------------
  S     33.625500    0.971760   72.107600
  C     33.451500    2.474900   71.256100
  C     32.529200    3.230750   71.910300
  C     31.850500    2.562420   72.963700
  C     32.302000    1.290530   73.245500
  H     31.117700    3.029250   73.662700
  C     32.163700    4.659500   71.552300
  H     31.673700    5.121750   72.404800
  H     31.368800    4.675680   70.749200
  C     33.309600    5.679460   71.327300
  H     33.677600    5.683320   70.330100
  H     32.772100    6.612360   71.353800
  C     34.341800    5.584420   72.416000
  H     34.949000    4.674210   72.281900
  H     35.054100    6.331380   72.194100
  H     33.894300    5.797800   73.445500
  S     30.086400    0.036093   74.142500
  C     30.294400   -0.828383   75.687600
  C     31.623300   -1.128810   75.986200
  C     32.544200   -0.366109   75.161000
  C     31.832300    0.376917   74.191200
  H     31.862700   -1.721910   76.829200
  C     34.029100   -0.354473   75.358700
  H     34.409900    0.330657   74.738400
  H     34.604700   -1.239560   75.125400
  C     34.553400   -0.018584   76.786100
  H     35.617800   -0.270164   76.745600
  H     34.051800   -0.612748   77.563600
  C     34.436800    1.505720   77.070200
  H     34.997000    1.610020   77.962100
  H     33.466300    1.860360   77.208900
  H     35.002900    2.136920   76.387200
  H     33.975100    2.821470   70.360200
  H     29.630500   -1.376990   76.337800

 Total Charge           Charge          ....    0
 Multiplicity           Mult            ....    1
 Number of Electrons    NEL             ....  134
 Basis Dimension        Dim             ....  322

ORBITAL ENERGIES
----------------

  NO   OCC          E(Eh)            E(eV)
   0   2.0000     -88.973625     -2421.0954
   1   2.0000     -88.962478     -2420.7921
   2   2.0000     -10.326696      -281.0037
   3   2.0000     -10.324695      -280.9492
   4   2.0000     -10.318009      -280.7673
   5   2.0000     -10.311655      -280.5944
   6   2.0000     -10.307863      -280.4912
   7   2.0000     -10.294439      -280.1259
   8   2.0000     -10.294076      -280.1161
   9   2.0000     -10.292560      -280.0748
  10   2.0000     -10.290034      -280.0061
  11   2.0000     -10.288153      -279.9549
  12   2.0000     -10.280335      -279.7421
  13   2.0000     -10.277174      -279.6561
  14   2.0000     -10.276357      -279.6339
  15   2.0000     -10.263975      -279.2969
  16   2.0000      -8.086708      -220.0505
  17   2.0000      -8.076775      -219.7802
  18   2.0000      -6.045388      -164.5034
  19   2.0000      -6.041750      -164.4044
  20   2.0000      -6.037062      -164.2768
  21   2.0000      -6.035322      -164.2295
  22   2.0000      -6.031234      -164.1182
  23   2.0000      -6.027589      -164.0190
  24   2.0000      -1.006210       -27.3804
  25   2.0000      -0.979052       -26.6413
  26   2.0000      -0.912409       -24.8279
  27   2.0000      -0.907633       -24.6980
  28   2.0000      -0.875463       -23.8225
  29   2.0000      -0.848782       -23.0965
  30   2.0000      -0.841727       -22.9046
  31   2.0000      -0.813614       -22.1396
  32   2.0000      -0.785599       -21.3772
  33   2.0000      -0.773243       -21.0410
  34   2.0000      -0.712982       -19.4012
  35   2.0000      -0.701598       -19.0914
  36   2.0000      -0.695884       -18.9360
  37   2.0000      -0.657449       -17.8901
  38   2.0000      -0.634227       -17.2582
  39   2.0000      -0.607567       -16.5327
  40   2.0000      -0.596027       -16.2187
  41   2.0000      -0.577352       -15.7106
  42   2.0000      -0.557467       -15.1695
  43   2.0000      -0.546756       -14.8780
  44   2.0000      -0.544366       -14.8129
  45   2.0000      -0.536953       -14.6112
  46   2.0000      -0.518184       -14.1005
  47   2.0000      -0.508729       -13.8432
  48   2.0000      -0.504928       -13.7398
  49   2.0000      -0.498462       -13.5638
  50   2.0000      -0.485849       -13.2206
  51   2.0000      -0.475743       -12.9456
  52   2.0000      -0.471722       -12.8362
  53   2.0000      -0.462532       -12.5861
  54   2.0000      -0.460716       -12.5367
  55   2.0000      -0.452502       -12.3132
  56   2.0000      -0.437962       -11.9175
  57   2.0000      -0.433463       -11.7951
  58   2.0000      -0.429276       -11.6812
  59   2.0000      -0.426592       -11.6082
  60   2.0000      -0.417713       -11.3666
  61   2.0000      -0.414035       -11.2665
  62   2.0000      -0.406238       -11.0543
  63   2.0000      -0.346329        -9.4241
  64   2.0000      -0.333515        -9.0754
  65   2.0000      -0.324924        -8.8416
  66   2.0000      -0.286492        -7.7959
  67   0.0000       0.023226         0.6320
  68   0.0000       0.069403         1.8885
  69   0.0000       0.095101         2.5878
  70   0.0000       0.112783         3.0690
  71   0.0000       0.130846         3.5605

MULLIKEN ATOMIC CHARGES
-----------------------
   0 S :    0.102372
   1 C :   -0.121172
   2 C :   -0.088955
   3 C :    0.002920
   4 C :   -0.163786
   5 H :    0.029180
   6 C :    0.030931
   7 H :    0.010899
   8 H :    0.050298
   9 C :   -0.064409
  10 H :    0.014404
  11 H :    0.017379
  12 C :   -0.026499
  13 H :    0.041547
  14 H :    0.016329
  15 H :    0.048798
  16 S :    0.133993
  17 C :   -0.071947
  18 C :   -0.047624
  19 C :   -0.012452
  20 C :   -0.156005
  21 H :    0.012029
  22 C :    0.140459
  23 H :   -0.037404
  24 H :    0.031457
  25 C :   -0.117632
  26 H :    0.027842
  27 H :    0.035278
  28 C :   -0.014166
  29 H :    0.013601
  30 H :    0.035165
  31 H :    0.026675
  32 H :    0.054879
  33 H :    0.045616
Sum of atomic charges:    0.0000000

LOEWDIN ATOMIC CHARGES
----------------------
   0 S :    0.404987
   1 C :   -0.201811
   2 C :   -0.074702
   3 C :   -0.068347
   4 C :   -0.194017
   5 H :    0.037818
   6 C :   -0.039189
   7 H :    0.026674
   8 H :    0.037767
   9 C :   -0.043866
  10 H :    0.014615
  11 H :    0.024817
  12 C :   -0.065968
  13 H :    0.031775
  14 H :    0.020661
  15 H :    0.038481
  16 S :    0.397336
  17 C :   -0.182265
  18 C :   -0.058997
  19 C :   -0.039855
  20 C :   -0.190634
  21 H :    0.024618
  22 C :   -0.033199
  23 H :    0.002335
  24 H :    0.036426
  25 C :   -0.029020
  26 H :    0.025878
  27 H :    0.021824
  28 C :   -0.058664
  29 H :    0.021820
  30 H :    0.018243
  31 H :    0.027133
  32 H :    0.037448
  33 H :    0.029882

  Mayer bond orders larger than 0.100000
B(  0-S ,  1-C ) :   1.1382 B(  0-S ,  4-C ) :   1.1269 B(  1-C ,  2-C ) :   1.5994
B(  1-C , 32-H ) :   0.9697 B(  2-C ,  3-C ) :   1.2613 B(  2-C ,  6-C ) :   1.0163
B(  3-C ,  4-C ) :   1.5535 B(  3-C ,  5-H ) :   0.9877 B(  4-C , 20-C ) :   1.1063
B(  6-C ,  7-H ) :   0.9480 B(  6-C ,  8-H ) :   0.9387 B(  6-C ,  9-C ) :   1.0640
B(  9-C , 10-H ) :   0.9511 B(  9-C , 11-H ) :   0.9562 B(  9-C , 12-C ) :   1.0895
B( 12-C , 13-H ) :   0.9651 B( 12-C , 14-H ) :   0.9671 B( 12-C , 15-H ) :   0.9726
B( 16-S , 17-C ) :   1.1215 B( 16-S , 20-C ) :   1.1214 B( 17-C , 18-C ) :   1.6599
B( 17-C , 33-H ) :   0.9611 B( 18-C , 19-C ) :   1.2062 B( 18-C , 21-H ) :   0.9868
B( 19-C , 20-C ) :   1.5703 B( 19-C , 22-C ) :   1.0580 B( 22-C , 23-H ) :   0.9061
B( 22-C , 24-H ) :   0.9318 B( 22-C , 25-C ) :   1.0733 B( 25-C , 26-H ) :   0.9558
B( 25-C , 27-H ) :   0.9596 B( 25-C , 28-C ) :   1.0782 B( 28-C , 29-H ) :   0.9722
B( 28-C , 30-H ) :   0.9803 B( 28-C , 31-H ) :   0.9719

Dispersion correction           -0.014792194
FINAL SINGLE POINT ENERGY     -1339.850739350854

DIPOLE MOMENT
-------------
                                X             Y             Z
Electronic contribution:    -14.01638     -17.08876      -7.67234
Nuclear contribution   :     14.27955      17.46044       7.90267
                        -----------------------------------------
Total Dipole Moment    :      0.26317       0.37167       0.23033
                        -----------------------------------------
Magnitude (a.u.)       :      0.51034
Magnitude (Debye)      :      1.29719

Rotational constants in cm-1:     0.020558     0.008572     0.007269
Rotational constants in MHz :   616.308310   256.982004   217.924065

                             ****ORCA TERMINATED NORMALLY****
TOTAL RUN TIME: 0 days 0 hours 0 minutes 29 seconds 83 msec
