                         Program Version 4.2.1 -  RELEASE  -
|  1> ! wB97X-D3 SP def2-SVP
|  2> %pal
|  3> nprocs 16
|  4> end
|  5>
|  6> * xyz 0 1
|  7> S 	 31.4776 	 10.7147 	 70.9463
|  8> C 	 30.1923 	 11.5057 	 70.1318
|  9> C 	 29.9072 	 10.8406 	 68.9307
| 10> C 	 30.9084 	 9.89662 	 68.5577
| 11> C 	 31.7848 	 9.61792 	 69.5947
| 12> H 	 30.8388 	 9.33461 	 67.6204
| 13> C 	 28.7668 	 11.3189 	 68.0248
| 14> H 	 29.211 	 11.9889 	 67.2802
| 15> H 	 28.1311 	 12.0147 	 68.5955
| 16> C 	 27.895 	 10.1609 	 67.3749
| 17> H 	 28.586 	 9.47151 	 66.8875
| 18> H 	 27.4487 	 9.5544 	 68.1217
| 19> C 	 26.745 	 10.7727 	 66.5324
| 20> H 	 26.3588 	 10.0466 	 65.7981
| 21> H 	 25.9096 	 11.0343 	 67.119
| 22> H 	 27.1342 	 11.6822 	 65.9268
| 23> S 	 34.5624 	 9.57251 	 69.5622
| 24> C 	 35.2718 	 8.00874 	 69.6309
| 25> C 	 34.4483 	 7.06922 	 69.0897
| 26> C 	 33.0915 	 7.51469 	 68.9981
| 27> C 	 32.9934 	 8.78342 	 69.5267
| 28> H 	 34.8006 	 6.0676 	 68.8798
| 29> C 	 31.9605 	 6.62644 	 68.5208
| 30> H 	 31.1641 	 7.2111 	 68.2649
| 31> H 	 31.5373 	 6.14582 	 69.4768
| 32> C 	 32.2399 	 5.55991 	 67.4215
| 33> H 	 33.0505 	 4.92599 	 67.7011
| 34> H 	 32.5444 	 6.13985 	 66.5474
| 35> C 	 30.9866 	 4.73725 	 67.0661
| 36> H 	 30.467 	 4.25664 	 67.9018
| 37> H 	 31.2406 	 3.9289 	 66.4181
| 38> H 	 30.2226 	 5.4624 	 66.6008
| 39> H 	 29.6074 	 12.3108 	 70.5029
| 40> H 	 36.3123 	 7.86717 	 69.7675
| 41> *
| 42>
| 43>                          ****END OF INPUT****

CARTESIAN COORDINATES (ANGSTROEM)
---------------------------------
  S     31.477600   10.714700   70.946300
  C     30.192300   11.505700   70.131800
  C     29.907200   10.840600   68.930700
  C     30.908400    9.896620   68.557700
  C     31.784800    9.617920   69.594700
  H     30.838800    9.334610   67.620400
  C     28.766800   11.318900   68.024800
  H     29.211000   11.988900   67.280200
  H     28.131100   12.014700   68.595500
  C     27.895000   10.160900   67.374900
  H     28.586000    9.471510   66.887500
  H     27.448700    9.554400   68.121700
  C     26.745000   10.772700   66.532400
  H     26.358800   10.046600   65.798100
  H     25.909600   11.034300   67.119000
  H     27.134200   11.682200   65.926800
  S     34.562400    9.572510   69.562200
  C     35.271800    8.008740   69.630900
  C     34.448300    7.069220   69.089700
  C     33.091500    7.514690   68.998100
  C     32.993400    8.783420   69.526700
  H     34.800600    6.067600   68.879800
  C     31.960500    6.626440   68.520800
  H     31.164100    7.211100   68.264900
  H     31.537300    6.145820   69.476800
  C     32.239900    5.559910   67.421500
  H     33.050500    4.925990   67.701100
  H     32.544400    6.139850   66.547400
  C     30.986600    4.737250   67.066100
  H     30.467000    4.256640   67.901800
  H     31.240600    3.928900   66.418100
  H     30.222600    5.462400   66.600800
  H     29.607400   12.310800   70.502900
  H     36.312300    7.867170   69.767500

 Total Charge           Charge          ....    0
 Multiplicity           Mult            ....    1
 Number of Electrons    NEL             ....  134
 Basis Dimension        Dim             ....  322

ORBITAL ENERGIES
----------------

  NO   OCC          E(Eh)            E(eV)
   0   2.0000     -88.964935     -2420.8590
   1   2.0000     -88.959829     -2420.7200
   2   2.0000     -10.327796      -281.0336
   3   2.0000     -10.319901      -280.8188
   4   2.0000     -10.309704      -280.5413
   5   2.0000     -10.306903      -280.4651
   6   2.0000     -10.301559      -280.3197
   7   2.0000     -10.299104      -280.2529
   8   2.0000     -10.295750      -280.1616
   9   2.0000     -10.295732      -280.1611
  10   2.0000     -10.291961      -280.0585
  11   2.0000     -10.290963      -280.0313
  12   2.0000     -10.290495      -280.0186
  13   2.0000     -10.288801      -279.9725
  14   2.0000     -10.286765      -279.9171
  15   2.0000     -10.286149      -279.9004
  16   2.0000      -8.079761      -219.8615
  17   2.0000      -8.075565      -219.7473
  18   2.0000      -6.038143      -164.3062
  19   2.0000      -6.034103      -164.1963
  20   2.0000      -6.034008      -164.1937
  21   2.0000      -6.030795      -164.1063
  22   2.0000      -6.030528      -164.0990
  23   2.0000      -6.025720      -163.9682
  24   2.0000      -1.008314       -27.4376
  25   2.0000      -0.986579       -26.8462
  26   2.0000      -0.908483       -24.7211
  27   2.0000      -0.901750       -24.5379
  28   2.0000      -0.867972       -23.6187
  29   2.0000      -0.851994       -23.1839
  30   2.0000      -0.844979       -22.9930
  31   2.0000      -0.813524       -22.1371
  32   2.0000      -0.782082       -21.2815
  33   2.0000      -0.765973       -20.8432
  34   2.0000      -0.712301       -19.3827
  35   2.0000      -0.707238       -19.2449
  36   2.0000      -0.692501       -18.8439
  37   2.0000      -0.651805       -17.7365
  38   2.0000      -0.639406       -17.3991
  39   2.0000      -0.620910       -16.8958
  40   2.0000      -0.602330       -16.3902
  41   2.0000      -0.565390       -15.3850
  42   2.0000      -0.564772       -15.3682
  43   2.0000      -0.556008       -15.1298
  44   2.0000      -0.529442       -14.4068
  45   2.0000      -0.520520       -14.1641
  46   2.0000      -0.515115       -14.0170
  47   2.0000      -0.507732       -13.8161
  48   2.0000      -0.503271       -13.6947
  49   2.0000      -0.494262       -13.4495
  50   2.0000      -0.489172       -13.3111
  51   2.0000      -0.482187       -13.1210
  52   2.0000      -0.474545       -12.9130
  53   2.0000      -0.466243       -12.6871
  54   2.0000      -0.458655       -12.4806
  55   2.0000      -0.452375       -12.3097
  56   2.0000      -0.448436       -12.2026
  57   2.0000      -0.439185       -11.9508
  58   2.0000      -0.433833       -11.8052
  59   2.0000      -0.431712       -11.7475
  60   2.0000      -0.426297       -11.6001
  61   2.0000      -0.421992       -11.4830
  62   2.0000      -0.407868       -11.0987
  63   2.0000      -0.343201        -9.3390
  64   2.0000      -0.324074        -8.8185
  65   2.0000      -0.322110        -8.7651
  66   2.0000      -0.292246        -7.9524
  67   0.0000       0.025713         0.6997
  68   0.0000       0.070144         1.9087
  69   0.0000       0.101021         2.7489
  70   0.0000       0.120848         3.2884
  71   0.0000       0.128007         3.4832

MULLIKEN ATOMIC CHARGES
-----------------------
   0 S :    0.121310
   1 C :   -0.110515
   2 C :   -0.103509
   3 C :    0.036807
   4 C :   -0.191320
   5 H :    0.028769
   6 C :    0.033645
   7 H :    0.042980
   8 H :    0.013340
   9 C :   -0.063621
  10 H :    0.025585
  11 H :    0.025160
  12 C :   -0.061789
  13 H :    0.035858
  14 H :    0.035132
  15 H :    0.043309
  16 S :    0.110259
  17 C :   -0.059628
  18 C :   -0.046805
  19 C :   -0.026362
  20 C :   -0.140582
  21 H :    0.014756
  22 C :    0.095424
  23 H :   -0.033233
  24 H :    0.044043
  25 C :   -0.065805
  26 H :    0.030708
  27 H :    0.036259
  28 C :   -0.058257
  29 H :    0.033198
  30 H :    0.035356
  31 H :    0.041397
  32 H :    0.039854
  33 H :    0.038279
Sum of atomic charges:    0.0000000

LOEWDIN ATOMIC CHARGES
----------------------
   0 S :    0.420418
   1 C :   -0.205794
   2 C :   -0.067060
   3 C :   -0.062197
   4 C :   -0.196154
   5 H :    0.032573
   6 C :   -0.033828
   7 H :    0.032664
   8 H :    0.026490
   9 C :   -0.037552
  10 H :    0.019931
  11 H :    0.021986
  12 C :   -0.067789
  13 H :    0.028797
  14 H :    0.020360
  15 H :    0.034782
  16 S :    0.407152
  17 C :   -0.180017
  18 C :   -0.070276
  19 C :   -0.047970
  20 C :   -0.201782
  21 H :    0.028510
  22 C :   -0.032409
  23 H :    0.009120
  24 H :    0.046761
  25 C :   -0.033973
  26 H :    0.017805
  27 H :    0.029109
  28 C :   -0.066524
  29 H :    0.025689
  30 H :    0.023814
  31 H :    0.034944
  32 H :    0.023393
  33 H :    0.019027

  Mayer bond orders larger than 0.100000
B(  0-S ,  1-C ) :   1.1612 B(  0-S ,  4-C ) :   1.1617 B(  1-C ,  2-C ) :   1.5748
B(  1-C , 32-H ) :   0.9729 B(  2-C ,  3-C ) :   1.2720 B(  2-C ,  6-C ) :   1.0270
B(  3-C ,  4-C ) :   1.5517 B(  3-C ,  5-H ) :   0.9773 B(  4-C , 20-C ) :   1.0367
B(  6-C ,  7-H ) :   0.9423 B(  6-C ,  8-H ) :   0.9470 B(  6-C ,  9-C ) :   1.0448
B(  9-C , 10-H ) :   0.9618 B(  9-C , 11-H ) :   0.9586 B(  9-C , 12-C ) :   1.0732
B( 12-C , 13-H ) :   0.9744 B( 12-C , 14-H ) :   0.9773 B( 12-C , 15-H ) :   0.9765
B( 16-S , 17-C ) :   1.1491 B( 16-S , 20-C ) :   1.1476 B( 17-C , 18-C ) :   1.6193
B( 17-C , 33-H ) :   0.9729 B( 18-C , 19-C ) :   1.2162 B( 18-C , 21-H ) :   0.9960
B( 19-C , 20-C ) :   1.5948 B( 19-C , 22-C ) :   1.0458 B( 22-C , 23-H ) :   0.9208
B( 22-C , 24-H ) :   0.9228 B( 22-C , 25-C ) :   1.0590 B( 25-C , 26-H ) :   0.9525
B( 25-C , 27-H ) :   0.9571 B( 25-C , 28-C ) :   1.0874 B( 28-C , 29-H ) :   0.9753
B( 28-C , 30-H ) :   0.9743 B( 28-C , 31-H ) :   0.9744

Dispersion correction           -0.013596957
FINAL SINGLE POINT ENERGY     -1339.862690538441

DIPOLE MOMENT
-------------
                                X             Y             Z
Electronic contribution:     22.66683      12.65493      19.26616
Nuclear contribution   :    -23.09192     -13.02841     -19.81339
                        -----------------------------------------
Total Dipole Moment    :     -0.42509      -0.37348      -0.54723
                        -----------------------------------------
Magnitude (a.u.)       :      0.78718
Magnitude (Debye)      :      2.00085

Rotational constants in cm-1:     0.015862     0.009144     0.006228
Rotational constants in MHz :   475.528273   274.141523   186.712983

                             ****ORCA TERMINATED NORMALLY****
TOTAL RUN TIME: 0 days 0 hours 0 minutes 29 seconds 537 msec
