                         Program Version 4.2.1 -  RELEASE  -
|  1> ! wB97X-D3 SP def2-SVP
|  2> %pal
|  3> nprocs 16
|  4> end
|  5>
|  6> * xyz 0 1
|  7> S 	 19.8792 	 0.917801 	 85.4094
|  8> C 	 19.8114 	 2.58139 	 85.0412
|  9> C 	 19.2068 	 3.29124 	 86.0085
| 10> C 	 18.6934 	 2.45578 	 87.0311
| 11> C 	 18.8421 	 1.1289 	 86.7709
| 12> H 	 18.1486 	 2.68441 	 87.9084
| 13> C 	 19.2823 	 4.78245 	 86.1553
| 14> H 	 20.1644 	 5.03559 	 85.4889
| 15> H 	 19.5617 	 5.05323 	 87.1907
| 16> C 	 17.9984 	 5.42281 	 85.654
| 17> H 	 17.8459 	 5.19366 	 84.5459
| 18> H 	 17.0956 	 5.03621 	 86.1714
| 19> C 	 17.8883 	 6.97264 	 85.7754
| 20> H 	 17.1961 	 7.23162 	 85.0207
| 21> H 	 17.5537 	 7.35378 	 86.7439
| 22> H 	 18.8126 	 7.47922 	 85.5679
| 23> S 	 19.6043 	 -0.272237 	 89.0336
| 24> C 	 18.4822 	 -1.32873 	 89.7909
| 25> C 	 17.3141 	 -1.40361 	 89.0939
| 26> C 	 17.2615 	 -0.582641 	 87.9019
| 27> C 	 18.4849 	 0.0499925 	 87.6968
| 28> H 	 16.4851 	 -2.03188 	 89.3602
| 29> C 	 15.9564 	 -0.595786 	 87.0364
| 30> H 	 16.0135 	 -1.43306 	 86.3383
| 31> H 	 16.0115 	 0.31196 	 86.3474
| 32> C 	 14.6537 	 -0.635259 	 87.8255
| 33> H 	 14.7302 	 -0.0589616 	 88.8288
| 34> H 	 14.3743 	 -1.63751 	 88.1069
| 35> C 	 13.5117 	 -0.117497 	 86.9764
| 36> H 	 13.5464 	 0.837182 	 86.536
| 37> H 	 12.6802 	 -0.179086 	 87.6081
| 38> H 	 13.351 	 -0.755938 	 86.0831
| 39> H 	 20.3924 	 2.93848 	 84.1665
| 40> H 	 18.6279 	 -1.80395 	 90.6993
| 41> *
| 42>
| 43>                          ****END OF INPUT****

CARTESIAN COORDINATES (ANGSTROEM)
---------------------------------
  S     19.879200    0.917801   85.409400
  C     19.811400    2.581390   85.041200
  C     19.206800    3.291240   86.008500
  C     18.693400    2.455780   87.031100
  C     18.842100    1.128900   86.770900
  H     18.148600    2.684410   87.908400
  C     19.282300    4.782450   86.155300
  H     20.164400    5.035590   85.488900
  H     19.561700    5.053230   87.190700
  C     17.998400    5.422810   85.654000
  H     17.845900    5.193660   84.545900
  H     17.095600    5.036210   86.171400
  C     17.888300    6.972640   85.775400
  H     17.196100    7.231620   85.020700
  H     17.553700    7.353780   86.743900
  H     18.812600    7.479220   85.567900
  S     19.604300   -0.272237   89.033600
  C     18.482200   -1.328730   89.790900
  C     17.314100   -1.403610   89.093900
  C     17.261500   -0.582641   87.901900
  C     18.484900    0.049993   87.696800
  H     16.485100   -2.031880   89.360200
  C     15.956400   -0.595786   87.036400
  H     16.013500   -1.433060   86.338300
  H     16.011500    0.311960   86.347400
  C     14.653700   -0.635259   87.825500
  H     14.730200   -0.058962   88.828800
  H     14.374300   -1.637510   88.106900
  C     13.511700   -0.117497   86.976400
  H     13.546400    0.837182   86.536000
  H     12.680200   -0.179086   87.608100
  H     13.351000   -0.755938   86.083100
  H     20.392400    2.938480   84.166500
  H     18.627900   -1.803950   90.699300

 Total Charge           Charge          ....    0
 Multiplicity           Mult            ....    1
 Number of Electrons    NEL             ....  134
 Basis Dimension        Dim             ....  322

ORBITAL ENERGIES
----------------

  NO   OCC          E(Eh)            E(eV)
   0   2.0000     -88.962330     -2420.7881
   1   2.0000     -88.958593     -2420.6864
   2   2.0000     -10.324209      -280.9360
   3   2.0000     -10.317974      -280.7663
   4   2.0000     -10.308380      -280.5053
   5   2.0000     -10.307571      -280.4833
   6   2.0000     -10.305409      -280.4244
   7   2.0000     -10.299053      -280.2515
   8   2.0000     -10.294669      -280.1322
   9   2.0000     -10.293086      -280.0891
  10   2.0000     -10.292441      -280.0716
  11   2.0000     -10.291766      -280.0532
  12   2.0000     -10.287154      -279.9277
  13   2.0000     -10.283800      -279.8364
  14   2.0000     -10.271518      -279.5022
  15   2.0000     -10.270521      -279.4751
  16   2.0000      -8.077427      -219.7980
  17   2.0000      -8.075148      -219.7359
  18   2.0000      -6.035927      -164.2459
  19   2.0000      -6.033415      -164.1776
  20   2.0000      -6.031870      -164.1355
  21   2.0000      -6.029453      -164.0698
  22   2.0000      -6.028194      -164.0355
  23   2.0000      -6.026003      -163.9759
  24   2.0000      -1.012644       -27.5554
  25   2.0000      -0.987738       -26.8777
  26   2.0000      -0.910236       -24.7688
  27   2.0000      -0.909403       -24.7461
  28   2.0000      -0.870238       -23.6804
  29   2.0000      -0.849734       -23.1224
  30   2.0000      -0.848741       -23.0954
  31   2.0000      -0.814692       -22.1689
  32   2.0000      -0.783080       -21.3087
  33   2.0000      -0.772213       -21.0130
  34   2.0000      -0.703115       -19.1327
  35   2.0000      -0.698300       -19.0017
  36   2.0000      -0.691007       -18.8033
  37   2.0000      -0.653420       -17.7805
  38   2.0000      -0.651571       -17.7302
  39   2.0000      -0.614056       -16.7093
  40   2.0000      -0.599757       -16.3202
  41   2.0000      -0.569784       -15.5046
  42   2.0000      -0.563474       -15.3329
  43   2.0000      -0.551421       -15.0049
  44   2.0000      -0.534482       -14.5440
  45   2.0000      -0.531780       -14.4705
  46   2.0000      -0.514400       -13.9975
  47   2.0000      -0.511851       -13.9282
  48   2.0000      -0.503412       -13.6985
  49   2.0000      -0.500116       -13.6088
  50   2.0000      -0.489919       -13.3314
  51   2.0000      -0.479651       -13.0520
  52   2.0000      -0.471874       -12.8403
  53   2.0000      -0.465215       -12.6591
  54   2.0000      -0.460774       -12.5383
  55   2.0000      -0.445085       -12.1114
  56   2.0000      -0.441656       -12.0181
  57   2.0000      -0.440335       -11.9821
  58   2.0000      -0.436196       -11.8695
  59   2.0000      -0.419426       -11.4132
  60   2.0000      -0.418400       -11.3852
  61   2.0000      -0.414501       -11.2791
  62   2.0000      -0.411414       -11.1951
  63   2.0000      -0.334986        -9.1154
  64   2.0000      -0.324571        -8.8320
  65   2.0000      -0.320544        -8.7224
  66   2.0000      -0.314484        -8.5575
  67   0.0000       0.054999         1.4966
  68   0.0000       0.056505         1.5376
  69   0.0000       0.114914         3.1270
  70   0.0000       0.130008         3.5377
  71   0.0000       0.132077         3.5940

MULLIKEN ATOMIC CHARGES
-----------------------
   0 S :    0.108468
   1 C :   -0.143375
   2 C :   -0.061902
   3 C :    0.046495
   4 C :   -0.183155
   5 H :   -0.002412
   6 C :    0.075737
   7 H :    0.025722
   8 H :    0.038430
   9 C :   -0.127316
  10 H :    0.036953
  11 H :    0.035403
  12 C :   -0.006754
  13 H :    0.023505
  14 H :    0.032384
  15 H :    0.018047
  16 S :    0.112059
  17 C :   -0.046471
  18 C :   -0.032769
  19 C :   -0.028257
  20 C :   -0.190190
  21 H :    0.009289
  22 C :    0.066012
  23 H :    0.043704
  24 H :    0.039249
  25 C :   -0.117859
  26 H :    0.051406
  27 H :    0.030099
  28 C :   -0.010231
  29 H :    0.024565
  30 H :    0.018331
  31 H :    0.024448
  32 H :    0.060353
  33 H :    0.030033
Sum of atomic charges:   -0.0000000

LOEWDIN ATOMIC CHARGES
----------------------
   0 S :    0.427246
   1 C :   -0.208263
   2 C :   -0.073443
   3 C :   -0.052141
   4 C :   -0.211692
   5 H :    0.027610
   6 C :   -0.034177
   7 H :    0.035958
   8 H :    0.034378
   9 C :   -0.046510
  10 H :    0.032248
  11 H :    0.027209
  12 C :   -0.065009
  13 H :    0.022934
  14 H :    0.023734
  15 H :    0.019841
  16 S :    0.409234
  17 C :   -0.180796
  18 C :   -0.074613
  19 C :   -0.047625
  20 C :   -0.204242
  21 H :    0.026363
  22 C :   -0.033950
  23 H :    0.036167
  24 H :    0.037934
  25 C :   -0.047306
  26 H :    0.035185
  27 H :    0.022719
  28 C :   -0.058105
  29 H :    0.018485
  30 H :    0.020319
  31 H :    0.029651
  32 H :    0.033472
  33 H :    0.017185

  Mayer bond orders larger than 0.100000
B(  0-S ,  1-C ) :   1.1606 B(  0-S ,  4-C ) :   1.1625 B(  1-C ,  2-C ) :   1.6124
B(  1-C , 32-H ) :   0.9645 B(  2-C ,  3-C ) :   1.2258 B(  2-C ,  6-C ) :   1.0118
B(  3-C ,  4-C ) :   1.5979 B(  3-C ,  5-H ) :   1.0102 B(  4-C , 20-C ) :   0.9926
B(  6-C ,  7-H ) :   0.9389 B(  6-C ,  8-H ) :   0.9461 B(  6-C ,  9-C ) :   1.0601
B(  9-C , 10-H ) :   0.9594 B(  9-C , 11-H ) :   0.9597 B(  9-C , 12-C ) :   1.0738
B( 12-C , 13-H ) :   0.9767 B( 12-C , 14-H ) :   0.9770 B( 12-C , 15-H ) :   0.9739
B( 16-S , 17-C ) :   1.1548 B( 16-S , 20-C ) :   1.1439 B( 17-C , 18-C ) :   1.6105
B( 17-C , 33-H ) :   0.9738 B( 18-C , 19-C ) :   1.2404 B( 18-C , 21-H ) :   0.9893
B( 19-C , 20-C ) :   1.6292 B( 19-C , 22-C ) :   1.0254 B( 22-C , 23-H ) :   0.9317
B( 22-C , 24-H ) :   0.9465 B( 22-C , 25-C ) :   1.0525 B( 25-C , 26-H ) :   0.9633
B( 25-C , 27-H ) :   0.9416 B( 25-C , 28-C ) :   1.0889 B( 28-C , 29-H ) :   0.9772
B( 28-C , 30-H ) :   0.9719 B( 28-C , 31-H ) :   0.9688

Dispersion correction           -0.013403058
FINAL SINGLE POINT ENERGY     -1339.876685008633

DIPOLE MOMENT
-------------
                                X             Y             Z
Electronic contribution:     22.00525     -16.47203       4.51861
Nuclear contribution   :    -22.51794      16.72429      -4.44096
                        -----------------------------------------
Total Dipole Moment    :     -0.51269       0.25226       0.07765
                        -----------------------------------------
Magnitude (a.u.)       :      0.57664
Magnitude (Debye)      :      1.46571

Rotational constants in cm-1:     0.016765     0.008032     0.006472
Rotational constants in MHz :   502.593831   240.798228   194.034027

                             ****ORCA TERMINATED NORMALLY****
TOTAL RUN TIME: 0 days 0 hours 0 minutes 33 seconds 957 msec
