                         Program Version 4.2.1 -  RELEASE  -
|  1> ! wB97X-D3 SP def2-SVP
|  2> %pal
|  3> nprocs 16
|  4> end
|  5>
|  6> * xyz 0 1
|  7> S 	 -40.8168 	 49.0439 	 104.998
|  8> C 	 -40.8985 	 48.301 	 106.559
|  9> C 	 -41.8193 	 47.2715 	 106.583
| 10> C 	 -42.6446 	 47.2287 	 105.497
| 11> C 	 -42.313 	 48.2302 	 104.565
| 12> H 	 -43.4502 	 46.5483 	 105.393
| 13> C 	 -42.1516 	 46.4136 	 107.818
| 14> H 	 -42.7237 	 45.5975 	 107.41
| 15> H 	 -42.706 	 47.0247 	 108.553
| 16> C 	 -40.9869 	 45.7126 	 108.611
| 17> H 	 -40.3531 	 46.3859 	 109.164
| 18> H 	 -41.4595 	 45.0551 	 109.384
| 19> C 	 -40.1897 	 44.8562 	 107.707
| 20> H 	 -39.3922 	 44.2651 	 108.016
| 21> H 	 -40.8651 	 44.2234 	 107.248
| 22> H 	 -39.9009 	 45.4057 	 106.864
| 23> S 	 -42.0391 	 48.8513 	 101.948
| 24> C 	 -43.4274 	 49.2914 	 100.918
| 25> C 	 -44.581 	 49.2971 	 101.677
| 26> C 	 -44.359 	 48.867 	 103.046
| 27> C 	 -43.0307 	 48.5632 	 103.368
| 28> H 	 -45.4986 	 49.668 	 101.306
| 29> C 	 -45.5001 	 48.8623 	 104.023
| 30> H 	 -45.7996 	 49.9392 	 104.241
| 31> H 	 -45.0434 	 48.4624 	 104.983
| 32> C 	 -46.7787 	 48.1003 	 103.637
| 33> H 	 -47.0657 	 48.4341 	 102.629
| 34> H 	 -47.6369 	 48.2982 	 104.326
| 35> C 	 -46.5433 	 46.5496 	 103.704
| 36> H 	 -45.7906 	 46.2024 	 102.989
| 37> H 	 -47.5361 	 46.1504 	 103.412
| 38> H 	 -46.2655 	 46.2479 	 104.743
| 39> H 	 -40.2366 	 48.4793 	 107.426
| 40> H 	 -43.3985 	 49.6227 	 99.936
| 41> *
| 42>
| 43>                          ****END OF INPUT****

CARTESIAN COORDINATES (ANGSTROEM)
---------------------------------
  S    -40.816800   49.043900  104.998000
  C    -40.898500   48.301000  106.559000
  C    -41.819300   47.271500  106.583000
  C    -42.644600   47.228700  105.497000
  C    -42.313000   48.230200  104.565000
  H    -43.450200   46.548300  105.393000
  C    -42.151600   46.413600  107.818000
  H    -42.723700   45.597500  107.410000
  H    -42.706000   47.024700  108.553000
  C    -40.986900   45.712600  108.611000
  H    -40.353100   46.385900  109.164000
  H    -41.459500   45.055100  109.384000
  C    -40.189700   44.856200  107.707000
  H    -39.392200   44.265100  108.016000
  H    -40.865100   44.223400  107.248000
  H    -39.900900   45.405700  106.864000
  S    -42.039100   48.851300  101.948000
  C    -43.427400   49.291400  100.918000
  C    -44.581000   49.297100  101.677000
  C    -44.359000   48.867000  103.046000
  C    -43.030700   48.563200  103.368000
  H    -45.498600   49.668000  101.306000
  C    -45.500100   48.862300  104.023000
  H    -45.799600   49.939200  104.241000
  H    -45.043400   48.462400  104.983000
  C    -46.778700   48.100300  103.637000
  H    -47.065700   48.434100  102.629000
  H    -47.636900   48.298200  104.326000
  C    -46.543300   46.549600  103.704000
  H    -45.790600   46.202400  102.989000
  H    -47.536100   46.150400  103.412000
  H    -46.265500   46.247900  104.743000
  H    -40.236600   48.479300  107.426000
  H    -43.398500   49.622700   99.936000

 Total Charge           Charge          ....    0
 Multiplicity           Mult            ....    1
 Number of Electrons    NEL             ....  134
 Basis Dimension        Dim             ....  322

ORBITAL ENERGIES
----------------

  NO   OCC          E(Eh)            E(eV)
   0   2.0000     -88.974999     -2421.1328
   1   2.0000     -88.962399     -2420.7899
   2   2.0000     -10.333359      -281.1850
   3   2.0000     -10.328490      -281.0525
   4   2.0000     -10.317471      -280.7527
   5   2.0000     -10.314339      -280.6674
   6   2.0000     -10.305534      -280.4278
   7   2.0000     -10.296813      -280.1905
   8   2.0000     -10.295614      -280.1579
   9   2.0000     -10.294672      -280.1323
  10   2.0000     -10.294506      -280.1278
  11   2.0000     -10.293549      -280.1017
  12   2.0000     -10.291759      -280.0530
  13   2.0000     -10.286858      -279.9196
  14   2.0000     -10.283548      -279.8296
  15   2.0000     -10.253027      -278.9991
  16   2.0000      -8.089533      -220.1274
  17   2.0000      -8.076804      -219.7810
  18   2.0000      -6.047914      -164.5721
  19   2.0000      -6.044171      -164.4702
  20   2.0000      -6.040326      -164.3656
  21   2.0000      -6.035550      -164.2357
  22   2.0000      -6.031296      -164.1199
  23   2.0000      -6.027397      -164.0138
  24   2.0000      -1.011526       -27.5250
  25   2.0000      -0.983916       -26.7737
  26   2.0000      -0.915471       -24.9112
  27   2.0000      -0.902921       -24.5697
  28   2.0000      -0.874547       -23.7976
  29   2.0000      -0.861860       -23.4524
  30   2.0000      -0.840264       -22.8647
  31   2.0000      -0.814474       -22.1630
  32   2.0000      -0.782669       -21.2975
  33   2.0000      -0.767193       -20.8764
  34   2.0000      -0.712164       -19.3790
  35   2.0000      -0.706965       -19.2375
  36   2.0000      -0.694904       -18.9093
  37   2.0000      -0.661558       -18.0019
  38   2.0000      -0.639900       -17.4126
  39   2.0000      -0.617828       -16.8120
  40   2.0000      -0.592251       -16.1160
  41   2.0000      -0.575740       -15.6667
  42   2.0000      -0.563379       -15.3303
  43   2.0000      -0.547574       -14.9002
  44   2.0000      -0.546546       -14.8723
  45   2.0000      -0.533800       -14.5254
  46   2.0000      -0.521324       -14.1859
  47   2.0000      -0.511388       -13.9156
  48   2.0000      -0.504443       -13.7266
  49   2.0000      -0.501967       -13.6592
  50   2.0000      -0.492048       -13.3893
  51   2.0000      -0.483314       -13.1516
  52   2.0000      -0.475108       -12.9283
  53   2.0000      -0.461055       -12.5459
  54   2.0000      -0.460278       -12.5248
  55   2.0000      -0.446956       -12.1623
  56   2.0000      -0.444615       -12.0986
  57   2.0000      -0.439940       -11.9714
  58   2.0000      -0.429967       -11.7000
  59   2.0000      -0.424389       -11.5482
  60   2.0000      -0.418594       -11.3905
  61   2.0000      -0.412992       -11.2381
  62   2.0000      -0.411272       -11.1913
  63   2.0000      -0.351907        -9.5759
  64   2.0000      -0.341335        -9.2882
  65   2.0000      -0.325540        -8.8584
  66   2.0000      -0.283670        -7.7191
  67   0.0000       0.020289         0.5521
  68   0.0000       0.063699         1.7333
  69   0.0000       0.103905         2.8274
  70   0.0000       0.118044         3.2121
  71   0.0000       0.129234         3.5166

MULLIKEN ATOMIC CHARGES
-----------------------
   0 S :    0.141092
   1 C :   -0.124113
   2 C :   -0.086911
   3 C :    0.040456
   4 C :   -0.148749
   5 H :   -0.001999
   6 C :    0.034510
   7 H :    0.018232
   8 H :    0.056442
   9 C :   -0.073813
  10 H :    0.021462
  11 H :    0.031309
  12 C :    0.029862
  13 H :    0.023520
  14 H :   -0.015541
  15 H :    0.010643
  16 S :    0.073186
  17 C :   -0.055543
  18 C :   -0.020071
  19 C :   -0.047730
  20 C :   -0.139456
  21 H :    0.010833
  22 C :    0.023982
  23 H :    0.047577
  24 H :    0.022451
  25 C :   -0.081940
  26 H :    0.027562
  27 H :    0.039440
  28 C :   -0.078410
  29 H :    0.051208
  30 H :    0.038649
  31 H :    0.039723
  32 H :    0.056821
  33 H :    0.035314
Sum of atomic charges:   -0.0000000

LOEWDIN ATOMIC CHARGES
----------------------
   0 S :    0.428555
   1 C :   -0.207952
   2 C :   -0.074202
   3 C :   -0.054274
   4 C :   -0.188319
   5 H :    0.027871
   6 C :   -0.022672
   7 H :    0.026408
   8 H :    0.039337
   9 C :   -0.038448
  10 H :    0.014441
  11 H :    0.029261
  12 C :   -0.062394
  13 H :    0.019208
  14 H :    0.018018
  15 H :    0.022388
  16 S :    0.381183
  17 C :   -0.160823
  18 C :   -0.062383
  19 C :   -0.061415
  20 C :   -0.195446
  21 H :    0.025004
  22 C :   -0.046784
  23 H :    0.039066
  24 H :    0.031422
  25 C :   -0.042844
  26 H :    0.020268
  27 H :    0.029820
  28 C :   -0.068960
  29 H :    0.026712
  30 H :    0.028750
  31 H :    0.025912
  32 H :    0.035385
  33 H :    0.017909

  Mayer bond orders larger than 0.100000
B(  0-S ,  1-C ) :   1.1497 B(  0-S ,  4-C ) :   1.1670 B(  1-C ,  2-C ) :   1.5622
B(  1-C ,  4-C ) :   0.1121 B(  1-C , 32-H ) :   0.9666 B(  2-C ,  3-C ) :   1.3012
B(  2-C ,  6-C ) :   1.0068 B(  3-C ,  4-C ) :   1.5006 B(  3-C ,  5-H ) :   1.0034
B(  4-C , 20-C ) :   1.0759 B(  6-C ,  7-H ) :   0.9447 B(  6-C ,  8-H ) :   0.9443
B(  6-C ,  9-C ) :   1.0723 B(  9-C , 10-H ) :   0.9565 B(  9-C , 11-H ) :   0.9571
B(  9-C , 12-C ) :   1.0741 B( 12-C , 13-H ) :   0.9732 B( 12-C , 14-H ) :   0.9618
B( 12-C , 15-H ) :   0.9643 B( 16-S , 17-C ) :   1.1377 B( 16-S , 20-C ) :   1.1214
B( 17-C , 18-C ) :   1.6193 B( 17-C , 33-H ) :   0.9754 B( 18-C , 19-C ) :   1.2239
B( 18-C , 21-H ) :   0.9929 B( 19-C , 20-C ) :   1.5865 B( 19-C , 22-C ) :   1.0479
B( 22-C , 23-H ) :   0.9314 B( 22-C , 24-H ) :   0.9394 B( 22-C , 25-C ) :   1.0631
B( 25-C , 26-H ) :   0.9549 B( 25-C , 27-H ) :   0.9572 B( 25-C , 28-C ) :   1.0675
B( 28-C , 29-H ) :   0.9782 B( 28-C , 30-H ) :   0.9755 B( 28-C , 31-H ) :   0.9734

Dispersion correction           -0.014550920
FINAL SINGLE POINT ENERGY     -1339.866116845192

DIPOLE MOMENT
-------------
                                X             Y             Z
Electronic contribution:     13.45004      16.08583     -15.18872
Nuclear contribution   :    -13.94415     -16.20078      15.49806
                        -----------------------------------------
Total Dipole Moment    :     -0.49411      -0.11495       0.30934
                        -----------------------------------------
Magnitude (a.u.)       :      0.59418
Magnitude (Debye)      :      1.51029

Rotational constants in cm-1:     0.020746     0.008402     0.006600
Rotational constants in MHz :   621.962359   251.881809   197.854519

                             ****ORCA TERMINATED NORMALLY****
TOTAL RUN TIME: 0 days 0 hours 0 minutes 30 seconds 627 msec
