                         Program Version 4.2.1 -  RELEASE  -
|  1> ! wB97X-D3 SP def2-SVP
|  2> %pal
|  3> nprocs 16
|  4> end
|  5>
|  6> * xyz 0 1
|  7> S 	 -32.1298 	 63.3115 	 121.49
|  8> C 	 -33.8713 	 63.1427 	 121.37
|  9> C 	 -34.3094 	 62.8334 	 120.108
| 10> C 	 -33.2138 	 62.9442 	 119.181
| 11> C 	 -31.9167 	 63.2694 	 119.7
| 12> H 	 -33.2642 	 62.7277 	 118.159
| 13> C 	 -35.6797 	 62.3984 	 119.728
| 14> H 	 -35.9651 	 63.0009 	 118.852
| 15> H 	 -36.4253 	 62.6416 	 120.486
| 16> C 	 -35.9323 	 60.9673 	 119.189
| 17> H 	 -37.0156 	 60.7718 	 119.057
| 18> H 	 -35.6034 	 60.7942 	 118.139
| 19> C 	 -35.4247 	 59.8567 	 120.077
| 20> H 	 -35.8732 	 58.8648 	 119.704
| 21> H 	 -34.3286 	 59.813 	 119.957
| 22> H 	 -35.7119 	 59.9591 	 121.116
| 23> S 	 -30.1982 	 61.8002 	 118.114
| 24> C 	 -28.7097 	 62.5878 	 117.523
| 25> C 	 -28.6739 	 63.9337 	 117.906
| 26> C 	 -29.8561 	 64.3224 	 118.593
| 27> C 	 -30.6692 	 63.2799 	 118.907
| 28> H 	 -27.8229 	 64.5749 	 117.582
| 29> C 	 -30.1907 	 65.8235 	 118.841
| 30> H 	 -29.2518 	 66.388 	 119.043
| 31> H 	 -30.6889 	 65.7648 	 119.781
| 32> C 	 -30.9262 	 66.5034 	 117.704
| 33> H 	 -31.9083 	 66.0008 	 117.581
| 34> H 	 -30.3596 	 66.4271 	 116.784
| 35> C 	 -31.3985 	 67.9843 	 117.944
| 36> H 	 -30.6018 	 68.5563 	 118.441
| 37> H 	 -32.1636 	 68.0683 	 118.643
| 38> H 	 -31.8505 	 68.3756 	 116.991
| 39> H 	 -34.4821 	 62.9829 	 122.257
| 40> H 	 -27.8936 	 62.1055 	 116.983
| 41> *
| 42>
| 43>                          ****END OF INPUT****

CARTESIAN COORDINATES (ANGSTROEM)
---------------------------------
  S    -32.129800   63.311500  121.490000
  C    -33.871300   63.142700  121.370000
  C    -34.309400   62.833400  120.108000
  C    -33.213800   62.944200  119.181000
  C    -31.916700   63.269400  119.700000
  H    -33.264200   62.727700  118.159000
  C    -35.679700   62.398400  119.728000
  H    -35.965100   63.000900  118.852000
  H    -36.425300   62.641600  120.486000
  C    -35.932300   60.967300  119.189000
  H    -37.015600   60.771800  119.057000
  H    -35.603400   60.794200  118.139000
  C    -35.424700   59.856700  120.077000
  H    -35.873200   58.864800  119.704000
  H    -34.328600   59.813000  119.957000
  H    -35.711900   59.959100  121.116000
  S    -30.198200   61.800200  118.114000
  C    -28.709700   62.587800  117.523000
  C    -28.673900   63.933700  117.906000
  C    -29.856100   64.322400  118.593000
  C    -30.669200   63.279900  118.907000
  H    -27.822900   64.574900  117.582000
  C    -30.190700   65.823500  118.841000
  H    -29.251800   66.388000  119.043000
  H    -30.688900   65.764800  119.781000
  C    -30.926200   66.503400  117.704000
  H    -31.908300   66.000800  117.581000
  H    -30.359600   66.427100  116.784000
  C    -31.398500   67.984300  117.944000
  H    -30.601800   68.556300  118.441000
  H    -32.163600   68.068300  118.643000
  H    -31.850500   68.375600  116.991000
  H    -34.482100   62.982900  122.257000
  H    -27.893600   62.105500  116.983000

 Total Charge           Charge          ....    0
 Multiplicity           Mult            ....    1
 Number of Electrons    NEL             ....  134
 Basis Dimension        Dim             ....  322

ORBITAL ENERGIES
----------------

  NO   OCC          E(Eh)            E(eV)
   0   2.0000     -88.969325     -2420.9784
   1   2.0000     -88.968772     -2420.9634
   2   2.0000     -10.339107      -281.3414
   3   2.0000     -10.326728      -281.0046
   4   2.0000     -10.324139      -280.9341
   5   2.0000     -10.316411      -280.7238
   6   2.0000     -10.303705      -280.3781
   7   2.0000     -10.302310      -280.3401
   8   2.0000     -10.299426      -280.2616
   9   2.0000     -10.296358      -280.1782
  10   2.0000     -10.295815      -280.1634
  11   2.0000     -10.291406      -280.0434
  12   2.0000     -10.290294      -280.0131
  13   2.0000     -10.285965      -279.8953
  14   2.0000     -10.279287      -279.7136
  15   2.0000     -10.276892      -279.6484
  16   2.0000      -8.083473      -219.9625
  17   2.0000      -8.082117      -219.9256
  18   2.0000      -6.041988      -164.4109
  19   2.0000      -6.040755      -164.3773
  20   2.0000      -6.038142      -164.3062
  21   2.0000      -6.036821      -164.2703
  22   2.0000      -6.034166      -164.1980
  23   2.0000      -6.032801      -164.1609
  24   2.0000      -1.002071       -27.2677
  25   2.0000      -0.980818       -26.6894
  26   2.0000      -0.910394       -24.7731
  27   2.0000      -0.901910       -24.5422
  28   2.0000      -0.867562       -23.6076
  29   2.0000      -0.848389       -23.0858
  30   2.0000      -0.844493       -22.9798
  31   2.0000      -0.811003       -22.0685
  32   2.0000      -0.783355       -21.3162
  33   2.0000      -0.773712       -21.0538
  34   2.0000      -0.705206       -19.1896
  35   2.0000      -0.695607       -18.9284
  36   2.0000      -0.690410       -18.7870
  37   2.0000      -0.663957       -18.0672
  38   2.0000      -0.639826       -17.4105
  39   2.0000      -0.614526       -16.7221
  40   2.0000      -0.587952       -15.9990
  41   2.0000      -0.567249       -15.4356
  42   2.0000      -0.559535       -15.2257
  43   2.0000      -0.547316       -14.8932
  44   2.0000      -0.545451       -14.8425
  45   2.0000      -0.526954       -14.3391
  46   2.0000      -0.516296       -14.0491
  47   2.0000      -0.512594       -13.9484
  48   2.0000      -0.508538       -13.8380
  49   2.0000      -0.494386       -13.4529
  50   2.0000      -0.485167       -13.2021
  51   2.0000      -0.477906       -13.0045
  52   2.0000      -0.474804       -12.9201
  53   2.0000      -0.464223       -12.6322
  54   2.0000      -0.460565       -12.5326
  55   2.0000      -0.442832       -12.0501
  56   2.0000      -0.441589       -12.0162
  57   2.0000      -0.438186       -11.9237
  58   2.0000      -0.426674       -11.6104
  59   2.0000      -0.424025       -11.5383
  60   2.0000      -0.418747       -11.3947
  61   2.0000      -0.413332       -11.2473
  62   2.0000      -0.405305       -11.0289
  63   2.0000      -0.336602        -9.1594
  64   2.0000      -0.333124        -9.0648
  65   2.0000      -0.326421        -8.8824
  66   2.0000      -0.302489        -8.2311
  67   0.0000       0.032974         0.8973
  68   0.0000       0.052774         1.4361
  69   0.0000       0.103689         2.8215
  70   0.0000       0.116342         3.1658
  71   0.0000       0.123342         3.3563

MULLIKEN ATOMIC CHARGES
-----------------------
   0 S :    0.107809
   1 C :   -0.127256
   2 C :   -0.062834
   3 C :    0.028535
   4 C :   -0.151668
   5 H :   -0.010257
   6 C :    0.075717
   7 H :    0.033751
   8 H :    0.026142
   9 C :   -0.101207
  10 H :    0.028493
  11 H :    0.029938
  12 C :   -0.066887
  13 H :    0.037249
  14 H :    0.049395
  15 H :    0.031673
  16 S :    0.118410
  17 C :   -0.110291
  18 C :   -0.041357
  19 C :   -0.047435
  20 C :   -0.182524
  21 H :    0.038494
  22 C :    0.095901
  23 H :    0.019038
  24 H :    0.016602
  25 C :   -0.069783
  26 H :    0.033301
  27 H :    0.031702
  28 C :   -0.036094
  29 H :    0.025877
  30 H :    0.014164
  31 H :    0.046987
  32 H :    0.054899
  33 H :    0.063516
Sum of atomic charges:    0.0000000

LOEWDIN ATOMIC CHARGES
----------------------
   0 S :    0.387610
   1 C :   -0.190991
   2 C :   -0.069517
   3 C :   -0.050927
   4 C :   -0.186932
   5 H :    0.015967
   6 C :   -0.036924
   7 H :    0.040548
   8 H :    0.032860
   9 C :   -0.051256
  10 H :    0.028046
  11 H :    0.026175
  12 C :   -0.072186
  13 H :    0.033730
  14 H :    0.029323
  15 H :    0.021054
  16 S :    0.402025
  17 C :   -0.176550
  18 C :   -0.073359
  19 C :   -0.052653
  20 C :   -0.207211
  21 H :    0.040778
  22 C :   -0.028524
  23 H :    0.029377
  24 H :    0.024155
  25 C :   -0.040726
  26 H :    0.030999
  27 H :    0.023243
  28 C :   -0.065936
  29 H :    0.024186
  30 H :    0.014724
  31 H :    0.036838
  32 H :    0.029910
  33 H :    0.032146

  Mayer bond orders larger than 0.100000
B(  0-S ,  1-C ) :   1.1511 B(  0-S ,  4-C ) :   1.1276 B(  1-C ,  2-C ) :   1.6001
B(  1-C , 32-H ) :   0.9594 B(  2-C ,  3-C ) :   1.2350 B(  2-C ,  6-C ) :   1.0394
B(  3-C ,  4-C ) :   1.5652 B(  3-C ,  5-H ) :   1.0007 B(  4-C , 20-C ) :   1.0465
B(  6-C ,  7-H ) :   0.9308 B(  6-C ,  8-H ) :   0.9423 B(  6-C ,  9-C ) :   1.0704
B(  9-C , 10-H ) :   0.9550 B(  9-C , 11-H ) :   0.9532 B(  9-C , 12-C ) :   1.0793
B( 12-C , 13-H ) :   0.9733 B( 12-C , 14-H ) :   0.9732 B( 12-C , 15-H ) :   0.9763
B( 16-S , 17-C ) :   1.1484 B( 16-S , 20-C ) :   1.1317 B( 17-C , 18-C ) :   1.6161
B( 17-C , 33-H ) :   0.9656 B( 18-C , 19-C ) :   1.2411 B( 18-C , 21-H ) :   0.9827
B( 19-C , 20-C ) :   1.6207 B( 19-C , 22-C ) :   1.0314 B( 22-C , 23-H ) :   0.9331
B( 22-C , 24-H ) :   0.9237 B( 22-C , 25-C ) :   1.0732 B( 25-C , 26-H ) :   0.9542
B( 25-C , 27-H ) :   0.9580 B( 25-C , 28-C ) :   1.0756 B( 28-C , 29-H ) :   0.9740
B( 28-C , 30-H ) :   0.9764 B( 28-C , 31-H ) :   0.9743

Dispersion correction           -0.014447483
FINAL SINGLE POINT ENERGY     -1339.870755098348

DIPOLE MOMENT
-------------
                                X             Y             Z
Electronic contribution:     14.35803      -7.57372       5.93541
Nuclear contribution   :    -14.65281       7.63253      -6.25208
                        -----------------------------------------
Total Dipole Moment    :     -0.29478       0.05881      -0.31667
                        -----------------------------------------
Magnitude (a.u.)       :      0.43661
Magnitude (Debye)      :      1.10978

Rotational constants in cm-1:     0.018673     0.008324     0.007019
Rotational constants in MHz :   559.808098   249.539246   210.419729

                             ****ORCA TERMINATED NORMALLY****
TOTAL RUN TIME: 0 days 0 hours 0 minutes 29 seconds 565 msec
