                         Program Version 4.2.1 -  RELEASE  -
|  1> ! wB97X-D3 SP def2-SVP
|  2> %pal
|  3> nprocs 16
|  4> end
|  5>
|  6> * xyz 0 1
|  7> S 	 -0.599796 	 14.8907 	 83.2799
|  8> C 	 -1.00329 	 13.8068 	 81.9785
|  9> C 	 -0.886047 	 12.5183 	 82.4351
| 10> C 	 -0.157731 	 12.3355 	 83.6553
| 11> C 	 0.170257 	 13.5616 	 84.2282
| 12> H 	 0.150639 	 11.3748 	 84.1574
| 13> C 	 -1.31331 	 11.3636 	 81.5879
| 14> H 	 -0.46805 	 10.6687 	 81.4998
| 15> H 	 -1.4391 	 11.846 	 80.6092
| 16> C 	 -2.5783 	 10.6454 	 82.133
| 17> H 	 -3.33959 	 11.3927 	 82.3914
| 18> H 	 -2.89303 	 10.0638 	 81.2934
| 19> C 	 -2.49447 	 9.6401 	 83.3151
| 20> H 	 -1.99814 	 8.70914 	 82.9835
| 21> H 	 -1.83387 	 9.9854 	 84.1154
| 22> H 	 -3.51629 	 9.40834 	 83.6083
| 23> S 	 0.00326736 	 13.2615 	 87.0164
| 24> C 	 1.30699 	 13.8358 	 87.991
| 25> C 	 2.315 	 14.4388 	 87.2744
| 26> C 	 2.09037 	 14.2483 	 85.835
| 27> C 	 0.830638 	 13.7877 	 85.5092
| 28> H 	 3.18648 	 14.773 	 87.7853
| 29> C 	 3.22293 	 14.4804 	 84.8305
| 30> H 	 3.67868 	 15.437 	 85.0665
| 31> H 	 2.94642 	 14.6255 	 83.7493
| 32> C 	 4.37283 	 13.3714 	 84.8568
| 33> H 	 4.58305 	 13.2481 	 85.913
| 34> H 	 5.29746 	 13.7183 	 84.3881
| 35> C 	 4.05101 	 12.0205 	 84.1884
| 36> H 	 3.28006 	 11.5674 	 84.6935
| 37> H 	 4.97343 	 11.3965 	 84.3035
| 38> H 	 3.7296 	 12.2418 	 83.174
| 39> H 	 -1.53977 	 14.0976 	 81.1222
| 40> H 	 1.36082 	 13.8945 	 89.0977
| 41> *
| 42>
| 43>                          ****END OF INPUT****

CARTESIAN COORDINATES (ANGSTROEM)
---------------------------------
  S     -0.599796   14.890700   83.279900
  C     -1.003290   13.806800   81.978500
  C     -0.886047   12.518300   82.435100
  C     -0.157731   12.335500   83.655300
  C      0.170257   13.561600   84.228200
  H      0.150639   11.374800   84.157400
  C     -1.313310   11.363600   81.587900
  H     -0.468050   10.668700   81.499800
  H     -1.439100   11.846000   80.609200
  C     -2.578300   10.645400   82.133000
  H     -3.339590   11.392700   82.391400
  H     -2.893030   10.063800   81.293400
  C     -2.494470    9.640100   83.315100
  H     -1.998140    8.709140   82.983500
  H     -1.833870    9.985400   84.115400
  H     -3.516290    9.408340   83.608300
  S      0.003267   13.261500   87.016400
  C      1.306990   13.835800   87.991000
  C      2.315000   14.438800   87.274400
  C      2.090370   14.248300   85.835000
  C      0.830638   13.787700   85.509200
  H      3.186480   14.773000   87.785300
  C      3.222930   14.480400   84.830500
  H      3.678680   15.437000   85.066500
  H      2.946420   14.625500   83.749300
  C      4.372830   13.371400   84.856800
  H      4.583050   13.248100   85.913000
  H      5.297460   13.718300   84.388100
  C      4.051010   12.020500   84.188400
  H      3.280060   11.567400   84.693500
  H      4.973430   11.396500   84.303500
  H      3.729600   12.241800   83.174000
  H     -1.539770   14.097600   81.122200
  H      1.360820   13.894500   89.097700

 Total Charge           Charge          ....    0
 Multiplicity           Mult            ....    1
 Number of Electrons    NEL             ....  134
 Basis Dimension        Dim             ....  322

ORBITAL ENERGIES
----------------

  NO   OCC          E(Eh)            E(eV)
   0   2.0000     -88.965839     -2420.8835
   1   2.0000     -88.962897     -2420.8035
   2   2.0000     -10.334757      -281.2230
   3   2.0000     -10.328351      -281.0487
   4   2.0000     -10.320888      -280.8456
   5   2.0000     -10.311899      -280.6010
   6   2.0000     -10.309429      -280.5338
   7   2.0000     -10.301988      -280.3314
   8   2.0000     -10.296799      -280.1901
   9   2.0000     -10.295744      -280.1614
  10   2.0000     -10.294812      -280.1361
  11   2.0000     -10.289932      -280.0033
  12   2.0000     -10.285806      -279.8910
  13   2.0000     -10.285287      -279.8769
  14   2.0000     -10.281691      -279.7790
  15   2.0000     -10.270068      -279.4628
  16   2.0000      -8.080308      -219.8764
  17   2.0000      -8.077035      -219.7873
  18   2.0000      -6.038935      -164.3278
  19   2.0000      -6.035620      -164.2376
  20   2.0000      -6.034872      -164.2172
  21   2.0000      -6.031705      -164.1310
  22   2.0000      -6.030922      -164.1097
  23   2.0000      -6.027646      -164.0206
  24   2.0000      -1.001138       -27.2424
  25   2.0000      -0.982470       -26.7344
  26   2.0000      -0.906757       -24.6741
  27   2.0000      -0.897217       -24.4145
  28   2.0000      -0.870251       -23.6807
  29   2.0000      -0.846000       -23.0208
  30   2.0000      -0.842973       -22.9385
  31   2.0000      -0.818933       -22.2843
  32   2.0000      -0.782047       -21.2806
  33   2.0000      -0.768099       -20.9010
  34   2.0000      -0.706677       -19.2297
  35   2.0000      -0.696023       -18.9398
  36   2.0000      -0.688221       -18.7274
  37   2.0000      -0.657457       -17.8903
  38   2.0000      -0.640626       -17.4323
  39   2.0000      -0.612850       -16.6765
  40   2.0000      -0.592510       -16.1230
  41   2.0000      -0.574404       -15.6303
  42   2.0000      -0.548784       -14.9332
  43   2.0000      -0.545756       -14.8508
  44   2.0000      -0.540579       -14.7099
  45   2.0000      -0.534747       -14.5512
  46   2.0000      -0.520773       -14.1710
  47   2.0000      -0.512594       -13.9484
  48   2.0000      -0.508626       -13.8404
  49   2.0000      -0.493471       -13.4280
  50   2.0000      -0.483919       -13.1681
  51   2.0000      -0.481527       -13.1030
  52   2.0000      -0.472441       -12.8558
  53   2.0000      -0.462557       -12.5868
  54   2.0000      -0.458003       -12.4629
  55   2.0000      -0.447219       -12.1695
  56   2.0000      -0.440736       -11.9930
  57   2.0000      -0.431117       -11.7313
  58   2.0000      -0.429410       -11.6848
  59   2.0000      -0.422413       -11.4945
  60   2.0000      -0.419556       -11.4167
  61   2.0000      -0.411973       -11.2104
  62   2.0000      -0.407098       -11.0777
  63   2.0000      -0.336583        -9.1589
  64   2.0000      -0.330425        -8.9913
  65   2.0000      -0.322527        -8.7764
  66   2.0000      -0.305794        -8.3211
  67   0.0000       0.032849         0.8939
  68   0.0000       0.057203         1.5566
  69   0.0000       0.107407         2.9227
  70   0.0000       0.113231         3.0812
  71   0.0000       0.131907         3.5894

MULLIKEN ATOMIC CHARGES
-----------------------
   0 S :    0.103259
   1 C :   -0.097227
   2 C :   -0.109672
   3 C :    0.023114
   4 C :   -0.159475
   5 H :    0.046532
   6 C :    0.055023
   7 H :    0.029628
   8 H :    0.015553
   9 C :   -0.070090
  10 H :    0.033874
  11 H :    0.027363
  12 C :   -0.047454
  13 H :    0.026162
  14 H :    0.032216
  15 H :    0.045119
  16 S :    0.111014
  17 C :   -0.095594
  18 C :   -0.025857
  19 C :   -0.023993
  20 C :   -0.175402
  21 H :    0.018598
  22 C :    0.043657
  23 H :    0.022230
  24 H :    0.036116
  25 C :   -0.098379
  26 H :    0.017562
  27 H :    0.029437
  28 C :   -0.014419
  29 H :    0.014774
  30 H :    0.044057
  31 H :    0.033467
  32 H :    0.039683
  33 H :    0.069124
Sum of atomic charges:    0.0000000

LOEWDIN ATOMIC CHARGES
----------------------
   0 S :    0.386290
   1 C :   -0.195066
   2 C :   -0.066580
   3 C :   -0.064620
   4 C :   -0.177143
   5 H :    0.043918
   6 C :   -0.033989
   7 H :    0.029810
   8 H :    0.031998
   9 C :   -0.039841
  10 H :    0.026249
  11 H :    0.022823
  12 C :   -0.064620
  13 H :    0.025298
  14 H :    0.022635
  15 H :    0.031347
  16 S :    0.392861
  17 C :   -0.189373
  18 C :   -0.074006
  19 C :   -0.042204
  20 C :   -0.199085
  21 H :    0.028888
  22 C :   -0.037624
  23 H :    0.029515
  24 H :    0.033070
  25 C :   -0.037002
  26 H :    0.016707
  27 H :    0.022698
  28 C :   -0.057147
  29 H :    0.010727
  30 H :    0.035474
  31 H :    0.026701
  32 H :    0.021445
  33 H :    0.039847

  Mayer bond orders larger than 0.100000
B(  0-S ,  1-C ) :   1.1289 B(  0-S ,  4-C ) :   1.1427 B(  1-C ,  2-C ) :   1.6206
B(  1-C , 32-H ) :   0.9700 B(  2-C ,  3-C ) :   1.2135 B(  2-C ,  6-C ) :   1.0337
B(  3-C ,  4-C ) :   1.5831 B(  3-C ,  5-H ) :   0.9821 B(  4-C , 20-C ) :   1.0516
B(  6-C ,  7-H ) :   0.9448 B(  6-C ,  8-H ) :   0.9408 B(  6-C ,  9-C ) :   1.0537
B(  9-C , 10-H ) :   0.9595 B(  9-C , 11-H ) :   0.9566 B(  9-C , 12-C ) :   1.0750
B( 12-C , 13-H ) :   0.9751 B( 12-C , 14-H ) :   0.9753 B( 12-C , 15-H ) :   0.9732
B( 16-S , 17-C ) :   1.1581 B( 16-S , 20-C ) :   1.1006 B( 17-C , 18-C ) :   1.6500
B( 17-C , 33-H ) :   0.9554 B( 18-C , 19-C ) :   1.2009 B( 18-C , 21-H ) :   0.9883
B( 19-C , 20-C ) :   1.6353 B( 19-C , 22-C ) :   1.0468 B( 22-C , 23-H ) :   0.9326
B( 22-C , 24-H ) :   0.9432 B( 22-C , 25-C ) :   1.0616 B( 25-C , 26-H ) :   0.9574
B( 25-C , 27-H ) :   0.9603 B( 25-C , 28-C ) :   1.0738 B( 28-C , 29-H ) :   0.9781
B( 28-C , 30-H ) :   0.9723 B( 28-C , 31-H ) :   0.9742

Dispersion correction           -0.015084096
FINAL SINGLE POINT ENERGY     -1339.871343706477

DIPOLE MOMENT
-------------
                                X             Y             Z
Electronic contribution:     -7.10119      16.30577       9.77930
Nuclear contribution   :      7.35477     -16.66524      -9.87933
                        -----------------------------------------
Total Dipole Moment    :      0.25358      -0.35947      -0.10003
                        -----------------------------------------
Magnitude (a.u.)       :      0.45114
Magnitude (Debye)      :      1.14672

Rotational constants in cm-1:     0.019068     0.008367     0.007884
Rotational constants in MHz :   571.629474   250.834519   236.364275

                             ****ORCA TERMINATED NORMALLY****
TOTAL RUN TIME: 0 days 0 hours 0 minutes 33 seconds 715 msec
