                         Program Version 4.2.1 -  RELEASE  -
|  1> ! wB97X-D3 SP def2-SVP
|  2> %pal
|  3> nprocs 16
|  4> end
|  5>
|  6> * xyz 0 1
|  7> S 	 -2.0879 	 -14.7686 	 82.4245
|  8> C 	 -3.51161 	 -15.8203 	 82.1381
|  9> C 	 -3.41758 	 -16.9564 	 82.8704
| 10> C 	 -2.13948 	 -17.0762 	 83.5415
| 11> C 	 -1.31066 	 -16.0332 	 83.3222
| 12> H 	 -1.7287 	 -17.9322 	 83.9712
| 13> C 	 -4.53927 	 -17.9445 	 82.9553
| 14> H 	 -5.37033 	 -17.4036 	 83.2663
| 15> H 	 -4.30801 	 -18.702 	 83.6736
| 16> C 	 -4.95009 	 -18.5823 	 81.6011
| 17> H 	 -5.79301 	 -19.3529 	 81.7561
| 18> H 	 -5.23542 	 -17.7989 	 80.9458
| 19> C 	 -3.68826 	 -19.3447 	 81.0504
| 20> H 	 -3.96322 	 -19.8592 	 80.1149
| 21> H 	 -2.76424 	 -18.715 	 80.8774
| 22> H 	 -3.342 	 -20.0871 	 81.7786
| 23> S 	 0.322209 	 -15.2294 	 85.3833
| 24> C 	 2.06628 	 -15.2013 	 85.2076
| 25> C 	 2.36651 	 -15.464 	 83.9268
| 26> C 	 1.25406 	 -15.9455 	 83.1293
| 27> C 	 0.0238995 	 -15.8933 	 83.7948
| 28> H 	 3.41865 	 -15.4407 	 83.6498
| 29> C 	 1.42025 	 -16.3655 	 81.7075
| 30> H 	 2.24546 	 -15.7155 	 81.311
| 31> H 	 0.544564 	 -16.1155 	 81.1606
| 32> C 	 1.65438 	 -17.8803 	 81.4156
| 33> H 	 2.54835 	 -18.1042 	 82.015
| 34> H 	 1.83303 	 -18.1055 	 80.3458
| 35> C 	 0.58374 	 -18.8118 	 81.8712
| 36> H 	 0.525457 	 -18.7369 	 82.994
| 37> H 	 0.789727 	 -19.831 	 81.6244
| 38> H 	 -0.38914 	 -18.4847 	 81.5032
| 39> H 	 -4.38222 	 -15.5258 	 81.5351
| 40> H 	 2.77533 	 -14.9939 	 85.9814
| 41> *
| 42>
| 43>                          ****END OF INPUT****

CARTESIAN COORDINATES (ANGSTROEM)
---------------------------------
  S     -2.087900  -14.768600   82.424500
  C     -3.511610  -15.820300   82.138100
  C     -3.417580  -16.956400   82.870400
  C     -2.139480  -17.076200   83.541500
  C     -1.310660  -16.033200   83.322200
  H     -1.728700  -17.932200   83.971200
  C     -4.539270  -17.944500   82.955300
  H     -5.370330  -17.403600   83.266300
  H     -4.308010  -18.702000   83.673600
  C     -4.950090  -18.582300   81.601100
  H     -5.793010  -19.352900   81.756100
  H     -5.235420  -17.798900   80.945800
  C     -3.688260  -19.344700   81.050400
  H     -3.963220  -19.859200   80.114900
  H     -2.764240  -18.715000   80.877400
  H     -3.342000  -20.087100   81.778600
  S      0.322209  -15.229400   85.383300
  C      2.066280  -15.201300   85.207600
  C      2.366510  -15.464000   83.926800
  C      1.254060  -15.945500   83.129300
  C      0.023900  -15.893300   83.794800
  H      3.418650  -15.440700   83.649800
  C      1.420250  -16.365500   81.707500
  H      2.245460  -15.715500   81.311000
  H      0.544564  -16.115500   81.160600
  C      1.654380  -17.880300   81.415600
  H      2.548350  -18.104200   82.015000
  H      1.833030  -18.105500   80.345800
  C      0.583740  -18.811800   81.871200
  H      0.525457  -18.736900   82.994000
  H      0.789727  -19.831000   81.624400
  H     -0.389140  -18.484700   81.503200
  H     -4.382220  -15.525800   81.535100
  H      2.775330  -14.993900   85.981400

 Total Charge           Charge          ....    0
 Multiplicity           Mult            ....    1
 Number of Electrons    NEL             ....  134
 Basis Dimension        Dim             ....  322

ORBITAL ENERGIES
----------------

  NO   OCC          E(Eh)            E(eV)
   0   2.0000     -88.964885     -2420.8576
   1   2.0000     -88.959859     -2420.7208
   2   2.0000     -10.323744      -280.9234
   3   2.0000     -10.323444      -280.9152
   4   2.0000     -10.315818      -280.7077
   5   2.0000     -10.314697      -280.6772
   6   2.0000     -10.305206      -280.4189
   7   2.0000     -10.300827      -280.2997
   8   2.0000     -10.296480      -280.1815
   9   2.0000     -10.292210      -280.0653
  10   2.0000     -10.289758      -279.9985
  11   2.0000     -10.286657      -279.9142
  12   2.0000     -10.283638      -279.8320
  13   2.0000     -10.283586      -279.8306
  14   2.0000     -10.282404      -279.7984
  15   2.0000     -10.271485      -279.5013
  16   2.0000      -8.079277      -219.8483
  17   2.0000      -8.074945      -219.7304
  18   2.0000      -6.037880      -164.2991
  19   2.0000      -6.033864      -164.1898
  20   2.0000      -6.033492      -164.1797
  21   2.0000      -6.029909      -164.0822
  22   2.0000      -6.029300      -164.0656
  23   2.0000      -6.025713      -163.9680
  24   2.0000      -1.011093       -27.5132
  25   2.0000      -0.986822       -26.8528
  26   2.0000      -0.916639       -24.9430
  27   2.0000      -0.908098       -24.7106
  28   2.0000      -0.873426       -23.7671
  29   2.0000      -0.847333       -23.0571
  30   2.0000      -0.841949       -22.9106
  31   2.0000      -0.821600       -22.3569
  32   2.0000      -0.782401       -21.2902
  33   2.0000      -0.770599       -20.9691
  34   2.0000      -0.710085       -19.3224
  35   2.0000      -0.703819       -19.1519
  36   2.0000      -0.688545       -18.7363
  37   2.0000      -0.656646       -17.8682
  38   2.0000      -0.645743       -17.5716
  39   2.0000      -0.613742       -16.7008
  40   2.0000      -0.595981       -16.2175
  41   2.0000      -0.581180       -15.8147
  42   2.0000      -0.556707       -15.1488
  43   2.0000      -0.553208       -15.0536
  44   2.0000      -0.547564       -14.9000
  45   2.0000      -0.537516       -14.6265
  46   2.0000      -0.518667       -14.1136
  47   2.0000      -0.518138       -14.0993
  48   2.0000      -0.504148       -13.7186
  49   2.0000      -0.498946       -13.5770
  50   2.0000      -0.492200       -13.3934
  51   2.0000      -0.479101       -13.0370
  52   2.0000      -0.468025       -12.7356
  53   2.0000      -0.465583       -12.6692
  54   2.0000      -0.460722       -12.5369
  55   2.0000      -0.441916       -12.0252
  56   2.0000      -0.439690       -11.9646
  57   2.0000      -0.437880       -11.9153
  58   2.0000      -0.430981       -11.7276
  59   2.0000      -0.426674       -11.6104
  60   2.0000      -0.418983       -11.4011
  61   2.0000      -0.411096       -11.1865
  62   2.0000      -0.407640       -11.0924
  63   2.0000      -0.334479        -9.1016
  64   2.0000      -0.331613        -9.0236
  65   2.0000      -0.321265        -8.7421
  66   2.0000      -0.313580        -8.5329
  67   0.0000       0.039376         1.0715
  68   0.0000       0.057140         1.5549
  69   0.0000       0.109411         2.9772
  70   0.0000       0.116130         3.1601
  71   0.0000       0.131112         3.5677

MULLIKEN ATOMIC CHARGES
-----------------------
   0 S :    0.117341
   1 C :   -0.154028
   2 C :   -0.092077
   3 C :    0.073532
   4 C :   -0.173150
   5 H :   -0.010386
   6 C :    0.121605
   7 H :    0.020228
   8 H :    0.013780
   9 C :   -0.084294
  10 H :    0.051827
  11 H :    0.025989
  12 C :   -0.099510
  13 H :    0.039146
  14 H :    0.063662
  15 H :    0.027672
  16 S :    0.100483
  17 C :   -0.086141
  18 C :   -0.027471
  19 C :   -0.053772
  20 C :   -0.164683
  21 H :    0.022014
  22 C :    0.076891
  23 H :    0.032947
  24 H :    0.010652
  25 C :   -0.064567
  26 H :    0.018740
  27 H :    0.037670
  28 C :   -0.051068
  29 H :    0.032188
  30 H :    0.033785
  31 H :    0.029188
  32 H :    0.057420
  33 H :    0.054386
Sum of atomic charges:    0.0000000

LOEWDIN ATOMIC CHARGES
----------------------
   0 S :    0.394332
   1 C :   -0.183396
   2 C :   -0.058744
   3 C :   -0.047822
   4 C :   -0.198893
   5 H :    0.022773
   6 C :   -0.026293
   7 H :    0.025769
   8 H :    0.025976
   9 C :   -0.031874
  10 H :    0.036294
  11 H :    0.014736
  12 C :   -0.076337
  13 H :    0.025003
  14 H :    0.031607
  15 H :    0.023054
  16 S :    0.402671
  17 C :   -0.175133
  18 C :   -0.077125
  19 C :   -0.052962
  20 C :   -0.208504
  21 H :    0.033380
  22 C :   -0.035454
  23 H :    0.039014
  24 H :    0.019664
  25 C :   -0.040518
  26 H :    0.021964
  27 H :    0.027132
  28 C :   -0.066149
  29 H :    0.028088
  30 H :    0.023898
  31 H :    0.020364
  32 H :    0.032314
  33 H :    0.031174

  Mayer bond orders larger than 0.100000
B(  0-S ,  1-C ) :   1.1170 B(  0-S ,  4-C ) :   1.1359 B(  1-C ,  2-C ) :   1.6415
B(  1-C , 32-H ) :   0.9691 B(  2-C ,  3-C ) :   1.1949 B(  2-C ,  6-C ) :   1.0158
B(  3-C ,  4-C ) :   1.6155 B(  3-C ,  5-H ) :   1.0021 B(  4-C , 20-C ) :   1.0429
B(  6-C ,  7-H ) :   0.9309 B(  6-C ,  8-H ) :   0.9428 B(  6-C ,  9-C ) :   1.0764
B(  9-C , 10-H ) :   0.9573 B(  9-C , 11-H ) :   0.9555 B(  9-C , 12-C ) :   1.0648
B( 12-C , 13-H ) :   0.9742 B( 12-C , 14-H ) :   0.9693 B( 12-C , 15-H ) :   0.9774
B( 16-S , 17-C ) :   1.1513 B( 16-S , 20-C ) :   1.1424 B( 17-C , 18-C ) :   1.6231
B( 17-C , 33-H ) :   0.9700 B( 18-C , 19-C ) :   1.2329 B( 18-C , 21-H ) :   0.9880
B( 19-C , 20-C ) :   1.5760 B( 19-C , 22-C ) :   1.0529 B( 22-C , 23-H ) :   0.9358
B( 22-C , 24-H ) :   0.9243 B( 22-C , 25-C ) :   1.0633 B( 25-C , 26-H ) :   0.9542
B( 25-C , 27-H ) :   0.9559 B( 25-C , 28-C ) :   1.0925 B( 28-C , 29-H ) :   0.9662
B( 28-C , 30-H ) :   0.9676 B( 28-C , 31-H ) :   0.9694

Dispersion correction           -0.016696829
FINAL SINGLE POINT ENERGY     -1339.881522751067

DIPOLE MOMENT
-------------
                                X             Y             Z
Electronic contribution:      4.35123      21.82709      14.39538
Nuclear contribution   :     -4.36028     -22.26143     -14.63595
                        -----------------------------------------
Total Dipole Moment    :     -0.00905      -0.43434      -0.24057
                        -----------------------------------------
Magnitude (a.u.)       :      0.49659
Magnitude (Debye)      :      1.26223

Rotational constants in cm-1:     0.022120     0.009298     0.007739
Rotational constants in MHz :   663.132480   278.743259   232.014396

                             ****ORCA TERMINATED NORMALLY****
TOTAL RUN TIME: 0 days 0 hours 0 minutes 35 seconds 667 msec
