                         Program Version 4.2.1 -  RELEASE  -
|  1> ! wB97X-D3 SP def2-SVP
|  2> %pal
|  3> nprocs 16
|  4> end
|  5>
|  6> * xyz 0 1
|  7> S 	 -51.2433 	 10.5215 	 92.5746
|  8> C 	 -51.1685 	 12.1565 	 93.0171
|  9> C 	 -50.5027 	 12.9651 	 92.1351
| 10> C 	 -49.9051 	 12.1784 	 91.0984
| 11> C 	 -50.2473 	 10.8337 	 91.1541
| 12> H 	 -49.2786 	 12.6496 	 90.3586
| 13> C 	 -50.5024 	 14.4562 	 92.1093
| 14> H 	 -51.4704 	 14.9293 	 92.2435
| 15> H 	 -50.2138 	 14.899 	 91.1971
| 16> C 	 -49.7064 	 15.0779 	 93.2606
| 17> H 	 -49.9679 	 16.1004 	 93.2221
| 18> H 	 -50.0436 	 14.7657 	 94.2449
| 19> C 	 -48.1661 	 14.9254 	 93.131
| 20> H 	 -47.9459 	 13.935 	 93.5581
| 21> H 	 -47.7857 	 14.8106 	 92.1312
| 22> H 	 -47.5393 	 15.5705 	 93.7581
| 23> S 	 -49.1811 	 8.48794 	 90.778
| 24> C 	 -49.5364 	 7.56804 	 89.3842
| 25> C 	 -50.1716 	 8.41539 	 88.4687
| 26> C 	 -50.3864 	 9.76991 	 88.8528
| 27> C 	 -49.8868 	 9.89496 	 90.1444
| 28> H 	 -50.6652 	 8.01349 	 87.57
| 29> C 	 -51.374 	 10.6363 	 88.0289
| 30> H 	 -51.6322 	 10.1102 	 87.1846
| 31> H 	 -50.718 	 11.4512 	 87.6261
| 32> C 	 -52.6293 	 11.2011 	 88.7049
| 33> H 	 -52.2662 	 11.6141 	 89.617
| 34> H 	 -53.2094 	 10.3389 	 89.0028
| 35> C 	 -53.3987 	 12.1195 	 87.7963
| 36> H 	 -53.6969 	 11.766 	 86.829
| 37> H 	 -52.9164 	 13.066 	 87.7595
| 38> H 	 -54.4008 	 12.3141 	 88.226
| 39> H 	 -51.7524 	 12.5275 	 93.8002
| 40> H 	 -49.4629 	 6.50173 	 89.2432
| 41> *
| 42>
| 43>                          ****END OF INPUT****

CARTESIAN COORDINATES (ANGSTROEM)
---------------------------------
  S    -51.243300   10.521500   92.574600
  C    -51.168500   12.156500   93.017100
  C    -50.502700   12.965100   92.135100
  C    -49.905100   12.178400   91.098400
  C    -50.247300   10.833700   91.154100
  H    -49.278600   12.649600   90.358600
  C    -50.502400   14.456200   92.109300
  H    -51.470400   14.929300   92.243500
  H    -50.213800   14.899000   91.197100
  C    -49.706400   15.077900   93.260600
  H    -49.967900   16.100400   93.222100
  H    -50.043600   14.765700   94.244900
  C    -48.166100   14.925400   93.131000
  H    -47.945900   13.935000   93.558100
  H    -47.785700   14.810600   92.131200
  H    -47.539300   15.570500   93.758100
  S    -49.181100    8.487940   90.778000
  C    -49.536400    7.568040   89.384200
  C    -50.171600    8.415390   88.468700
  C    -50.386400    9.769910   88.852800
  C    -49.886800    9.894960   90.144400
  H    -50.665200    8.013490   87.570000
  C    -51.374000   10.636300   88.028900
  H    -51.632200   10.110200   87.184600
  H    -50.718000   11.451200   87.626100
  C    -52.629300   11.201100   88.704900
  H    -52.266200   11.614100   89.617000
  H    -53.209400   10.338900   89.002800
  C    -53.398700   12.119500   87.796300
  H    -53.696900   11.766000   86.829000
  H    -52.916400   13.066000   87.759500
  H    -54.400800   12.314100   88.226000
  H    -51.752400   12.527500   93.800200
  H    -49.462900    6.501730   89.243200

 Total Charge           Charge          ....    0
 Multiplicity           Mult            ....    1
 Number of Electrons    NEL             ....  134
 Basis Dimension        Dim             ....  322

ORBITAL ENERGIES
----------------

  NO   OCC          E(Eh)            E(eV)
   0   2.0000     -88.969182     -2420.9745
   1   2.0000     -88.964075     -2420.8356
   2   2.0000     -10.323556      -280.9182
   3   2.0000     -10.316440      -280.7246
   4   2.0000     -10.312027      -280.6045
   5   2.0000     -10.304031      -280.3869
   6   2.0000     -10.303254      -280.3658
   7   2.0000     -10.295174      -280.1459
   8   2.0000     -10.291334      -280.0414
   9   2.0000     -10.290178      -280.0100
  10   2.0000     -10.288872      -279.9744
  11   2.0000     -10.287138      -279.9273
  12   2.0000     -10.282243      -279.7941
  13   2.0000     -10.277783      -279.6727
  14   2.0000     -10.274049      -279.5711
  15   2.0000     -10.273577      -279.5582
  16   2.0000      -8.084357      -219.9865
  17   2.0000      -8.080512      -219.8819
  18   2.0000      -6.042772      -164.4322
  19   2.0000      -6.038823      -164.3247
  20   2.0000      -6.038772      -164.3233
  21   2.0000      -6.035214      -164.2265
  22   2.0000      -6.034599      -164.2098
  23   2.0000      -6.031543      -164.1266
  24   2.0000      -1.015822       -27.6419
  25   2.0000      -0.990556       -26.9544
  26   2.0000      -0.914540       -24.8859
  27   2.0000      -0.911058       -24.7911
  28   2.0000      -0.871721       -23.7207
  29   2.0000      -0.856268       -23.3002
  30   2.0000      -0.847840       -23.0709
  31   2.0000      -0.809147       -22.0180
  32   2.0000      -0.786010       -21.3884
  33   2.0000      -0.777067       -21.1451
  34   2.0000      -0.711776       -19.3684
  35   2.0000      -0.705904       -19.2086
  36   2.0000      -0.693128       -18.8610
  37   2.0000      -0.664080       -18.0705
  38   2.0000      -0.645113       -17.5544
  39   2.0000      -0.618980       -16.8433
  40   2.0000      -0.595524       -16.2050
  41   2.0000      -0.573933       -15.6175
  42   2.0000      -0.570122       -15.5138
  43   2.0000      -0.546820       -14.8797
  44   2.0000      -0.537064       -14.6143
  45   2.0000      -0.520490       -14.1632
  46   2.0000      -0.515422       -14.0253
  47   2.0000      -0.513048       -13.9608
  48   2.0000      -0.505853       -13.7649
  49   2.0000      -0.500061       -13.6073
  50   2.0000      -0.490056       -13.3351
  51   2.0000      -0.485074       -13.1995
  52   2.0000      -0.474147       -12.9022
  53   2.0000      -0.469751       -12.7826
  54   2.0000      -0.462270       -12.5790
  55   2.0000      -0.450862       -12.2686
  56   2.0000      -0.443476       -12.0676
  57   2.0000      -0.439876       -11.9696
  58   2.0000      -0.429154       -11.6779
  59   2.0000      -0.425180       -11.5697
  60   2.0000      -0.422994       -11.5103
  61   2.0000      -0.413976       -11.2649
  62   2.0000      -0.410695       -11.1756
  63   2.0000      -0.341102        -9.2818
  64   2.0000      -0.334044        -9.0898
  65   2.0000      -0.324242        -8.8231
  66   2.0000      -0.292096        -7.9483
  67   0.0000       0.031843         0.8665
  68   0.0000       0.068247         1.8571
  69   0.0000       0.116166         3.1610
  70   0.0000       0.126642         3.4461
  71   0.0000       0.129603         3.5267

MULLIKEN ATOMIC CHARGES
-----------------------
   0 S :    0.141523
   1 C :   -0.105814
   2 C :   -0.053660
   3 C :    0.018946
   4 C :   -0.161603
   5 H :    0.007215
   6 C :    0.080326
   7 H :    0.023290
   8 H :    0.004967
   9 C :   -0.063784
  10 H :    0.011137
  11 H :    0.023666
  12 C :   -0.051626
  13 H :    0.026491
  14 H :    0.024431
  15 H :    0.037693
  16 S :    0.122314
  17 C :   -0.089959
  18 C :   -0.070842
  19 C :   -0.013559
  20 C :   -0.198517
  21 H :    0.021085
  22 C :    0.091779
  23 H :   -0.014904
  24 H :    0.027677
  25 C :   -0.037000
  26 H :    0.034095
  27 H :    0.022927
  28 C :   -0.015347
  29 H :    0.023947
  30 H :    0.027701
  31 H :    0.024755
  32 H :    0.023886
  33 H :    0.056763
Sum of atomic charges:   -0.0000000

LOEWDIN ATOMIC CHARGES
----------------------
   0 S :    0.429610
   1 C :   -0.202115
   2 C :   -0.064566
   3 C :   -0.055883
   4 C :   -0.206796
   5 H :    0.029038
   6 C :   -0.028313
   7 H :    0.035865
   8 H :    0.024035
   9 C :   -0.031692
  10 H :    0.013930
  11 H :    0.021861
  12 C :   -0.074472
  13 H :    0.030558
  14 H :    0.020994
  15 H :    0.027602
  16 S :    0.454861
  17 C :   -0.212277
  18 C :   -0.073738
  19 C :   -0.051129
  20 C :   -0.221734
  21 H :    0.028230
  22 C :   -0.021125
  23 H :    0.013334
  24 H :    0.036187
  25 C :   -0.035497
  26 H :    0.024648
  27 H :    0.024451
  28 C :   -0.061331
  29 H :    0.023349
  30 H :    0.023839
  31 H :    0.032379
  32 H :    0.014642
  33 H :    0.031254

  Mayer bond orders larger than 0.100000
B(  0-S ,  1-C ) :   1.1574 B(  0-S ,  4-C ) :   1.1446 B(  1-C ,  2-C ) :   1.5986
B(  1-C , 32-H ) :   0.9676 B(  2-C ,  3-C ) :   1.2542 B(  2-C ,  6-C ) :   1.0272
B(  3-C ,  4-C ) :   1.5499 B(  3-C ,  5-H ) :   1.0029 B(  4-C , 20-C ) :   1.0478
B(  6-C ,  7-H ) :   0.9372 B(  6-C ,  8-H ) :   0.9419 B(  6-C ,  9-C ) :   1.0824
B(  9-C , 10-H ) :   0.9588 B(  9-C , 11-H ) :   0.9606 B(  9-C , 12-C ) :   1.0580
B( 12-C , 13-H ) :   0.9726 B( 12-C , 14-H ) :   0.9787 B( 12-C , 15-H ) :   0.9775
B( 16-S , 17-C ) :   1.1621 B( 16-S , 20-C ) :   1.1847 B( 17-C , 18-C ) :   1.5784
B( 17-C , 33-H ) :   0.9725 B( 18-C , 19-C ) :   1.2930 B( 18-C , 21-H ) :   0.9768
B( 19-C , 20-C ) :   1.5369 B( 19-C , 22-C ) :   1.0299 B( 22-C , 23-H ) :   0.9328
B( 22-C , 24-H ) :   0.9267 B( 22-C , 25-C ) :   1.0565 B( 25-C , 26-H ) :   0.9522
B( 25-C , 27-H ) :   0.9529 B( 25-C , 28-C ) :   1.0916 B( 28-C , 29-H ) :   0.9730
B( 28-C , 30-H ) :   0.9737 B( 28-C , 31-H ) :   0.9690

Dispersion correction           -0.015049422
FINAL SINGLE POINT ENERGY     -1339.862547526240

DIPOLE MOMENT
-------------
                                X             Y             Z
Electronic contribution:      5.51141     -23.31675       6.37280
Nuclear contribution   :     -5.97996      23.73024      -6.61066
                        -----------------------------------------
Total Dipole Moment    :     -0.46855       0.41349      -0.23786
                        -----------------------------------------
Magnitude (a.u.)       :      0.66865
Magnitude (Debye)      :      1.69956

Rotational constants in cm-1:     0.019036     0.009119     0.007369
Rotational constants in MHz :   570.685079   273.377524   220.904121

                             ****ORCA TERMINATED NORMALLY****
TOTAL RUN TIME: 0 days 0 hours 0 minutes 30 seconds 497 msec
