                         Program Version 4.2.1 -  RELEASE  -
|  1> ! wB97X-D3 SP def2-SVP
|  2> %pal
|  3> nprocs 16
|  4> end
|  5>
|  6> * xyz 0 1
|  7> S 	 -92.8675 	 42.8944 	 121.256
|  8> C 	 -91.9778 	 44.3585 	 121.141
|  9> C 	 -92.3273 	 45.0166 	 120.015
| 10> C 	 -92.9579 	 44.227 	 119.03
| 11> C 	 -93.3781 	 43.0034 	 119.599
| 12> H 	 -93.2439 	 44.519 	 118.035
| 13> C 	 -91.9733 	 46.4751 	 119.637
| 14> H 	 -92.7725 	 46.7268 	 118.921
| 15> H 	 -91.1096 	 46.5386 	 118.998
| 16> C 	 -91.9585 	 47.5928 	 120.761
| 17> H 	 -92.6362 	 47.3007 	 121.546
| 18> H 	 -90.9184 	 47.5054 	 121.08
| 19> C 	 -92.3162 	 48.9357 	 120.183
| 20> H 	 -93.2808 	 48.8919 	 119.702
| 21> H 	 -92.3672 	 49.7948 	 120.857
| 22> H 	 -91.4961 	 49.1991 	 119.472
| 23> S 	 -94.2318 	 41.7933 	 117.208
| 24> C 	 -95.674 	 40.7406 	 117.288
| 25> C 	 -96.183 	 40.6743 	 118.544
| 26> C 	 -95.424 	 41.3562 	 119.541
| 27> C 	 -94.3391 	 42.0917 	 118.979
| 28> H 	 -97.098 	 40.1139 	 118.604
| 29> C 	 -95.8764 	 41.4389 	 120.944
| 30> H 	 -95.044 	 41.1672 	 121.628
| 31> H 	 -96.5664 	 40.6326 	 121.218
| 32> C 	 -96.4129 	 42.8506 	 121.292
| 33> H 	 -95.6803 	 43.6488 	 121.22
| 34> H 	 -96.7172 	 42.8224 	 122.365
| 35> C 	 -97.5651 	 43.2076 	 120.364
| 36> H 	 -98.14 	 44.0718 	 120.732
| 37> H 	 -98.2257 	 42.3556 	 120.236
| 38> H 	 -97.1199 	 43.5261 	 119.434
| 39> H 	 -91.4482 	 44.9023 	 121.961
| 40> H 	 -96.033 	 40.1899 	 116.483
| 41> *
| 42>
| 43>                          ****END OF INPUT****

CARTESIAN COORDINATES (ANGSTROEM)
---------------------------------
  S    -92.867500   42.894400  121.256000
  C    -91.977800   44.358500  121.141000
  C    -92.327300   45.016600  120.015000
  C    -92.957900   44.227000  119.030000
  C    -93.378100   43.003400  119.599000
  H    -93.243900   44.519000  118.035000
  C    -91.973300   46.475100  119.637000
  H    -92.772500   46.726800  118.921000
  H    -91.109600   46.538600  118.998000
  C    -91.958500   47.592800  120.761000
  H    -92.636200   47.300700  121.546000
  H    -90.918400   47.505400  121.080000
  C    -92.316200   48.935700  120.183000
  H    -93.280800   48.891900  119.702000
  H    -92.367200   49.794800  120.857000
  H    -91.496100   49.199100  119.472000
  S    -94.231800   41.793300  117.208000
  C    -95.674000   40.740600  117.288000
  C    -96.183000   40.674300  118.544000
  C    -95.424000   41.356200  119.541000
  C    -94.339100   42.091700  118.979000
  H    -97.098000   40.113900  118.604000
  C    -95.876400   41.438900  120.944000
  H    -95.044000   41.167200  121.628000
  H    -96.566400   40.632600  121.218000
  C    -96.412900   42.850600  121.292000
  H    -95.680300   43.648800  121.220000
  H    -96.717200   42.822400  122.365000
  C    -97.565100   43.207600  120.364000
  H    -98.140000   44.071800  120.732000
  H    -98.225700   42.355600  120.236000
  H    -97.119900   43.526100  119.434000
  H    -91.448200   44.902300  121.961000
  H    -96.033000   40.189900  116.483000

 Total Charge           Charge          ....    0
 Multiplicity           Mult            ....    1
 Number of Electrons    NEL             ....  134
 Basis Dimension        Dim             ....  322

ORBITAL ENERGIES
----------------

  NO   OCC          E(Eh)            E(eV)
   0   2.0000     -88.970182     -2421.0017
   1   2.0000     -88.966528     -2420.9023
   2   2.0000     -10.335508      -281.2435
   3   2.0000     -10.334137      -281.2062
   4   2.0000     -10.312527      -280.6181
   5   2.0000     -10.310349      -280.5589
   6   2.0000     -10.305426      -280.4249
   7   2.0000     -10.298396      -280.2336
   8   2.0000     -10.294646      -280.1316
   9   2.0000     -10.292338      -280.0687
  10   2.0000     -10.291230      -280.0386
  11   2.0000     -10.290714      -280.0246
  12   2.0000     -10.289185      -279.9830
  13   2.0000     -10.283151      -279.8188
  14   2.0000     -10.281678      -279.7787
  15   2.0000     -10.268887      -279.4306
  16   2.0000      -8.084864      -220.0003
  17   2.0000      -8.079742      -219.8610
  18   2.0000      -6.043401      -164.4493
  19   2.0000      -6.039407      -164.3406
  20   2.0000      -6.038391      -164.3130
  21   2.0000      -6.035556      -164.2358
  22   2.0000      -6.034523      -164.2077
  23   2.0000      -6.030410      -164.0958
  24   2.0000      -1.009426       -27.4679
  25   2.0000      -0.982336       -26.7307
  26   2.0000      -0.910230       -24.7686
  27   2.0000      -0.907459       -24.6932
  28   2.0000      -0.871881       -23.7251
  29   2.0000      -0.856245       -23.2996
  30   2.0000      -0.841432       -22.8965
  31   2.0000      -0.813499       -22.1364
  32   2.0000      -0.780787       -21.2463
  33   2.0000      -0.770704       -20.9719
  34   2.0000      -0.713094       -19.4043
  35   2.0000      -0.704146       -19.1608
  36   2.0000      -0.685750       -18.6602
  37   2.0000      -0.662494       -18.0274
  38   2.0000      -0.638505       -17.3746
  39   2.0000      -0.609215       -16.5776
  40   2.0000      -0.594780       -16.1848
  41   2.0000      -0.575099       -15.6492
  42   2.0000      -0.567988       -15.4557
  43   2.0000      -0.553530       -15.0623
  44   2.0000      -0.545789       -14.8517
  45   2.0000      -0.522182       -14.2093
  46   2.0000      -0.516196       -14.0464
  47   2.0000      -0.509969       -13.8770
  48   2.0000      -0.509177       -13.8554
  49   2.0000      -0.495897       -13.4940
  50   2.0000      -0.485682       -13.2161
  51   2.0000      -0.478977       -13.0336
  52   2.0000      -0.474858       -12.9216
  53   2.0000      -0.468583       -12.7508
  54   2.0000      -0.462378       -12.5820
  55   2.0000      -0.450003       -12.2452
  56   2.0000      -0.437537       -11.9060
  57   2.0000      -0.433147       -11.7865
  58   2.0000      -0.431535       -11.7427
  59   2.0000      -0.426433       -11.6038
  60   2.0000      -0.416998       -11.3471
  61   2.0000      -0.413336       -11.2474
  62   2.0000      -0.408319       -11.1109
  63   2.0000      -0.359116        -9.7720
  64   2.0000      -0.331426        -9.0186
  65   2.0000      -0.330890        -9.0040
  66   2.0000      -0.280525        -7.6335
  67   0.0000       0.018599         0.5061
  68   0.0000       0.080974         2.2034
  69   0.0000       0.101461         2.7609
  70   0.0000       0.122081         3.3220
  71   0.0000       0.133381         3.6295

MULLIKEN ATOMIC CHARGES
-----------------------
   0 S :    0.109072
   1 C :   -0.114696
   2 C :   -0.088576
   3 C :    0.004512
   4 C :   -0.121425
   5 H :    0.014585
   6 C :    0.011541
   7 H :    0.013244
   8 H :    0.038415
   9 C :   -0.053820
  10 H :    0.032308
  11 H :    0.037150
  12 C :   -0.057831
  13 H :    0.036006
  14 H :    0.035246
  15 H :    0.034667
  16 S :    0.086159
  17 C :   -0.074238
  18 C :   -0.025656
  19 C :   -0.041735
  20 C :   -0.138713
  21 H :    0.015177
  22 C :    0.032508
  23 H :    0.034408
  24 H :    0.023039
  25 C :   -0.069085
  26 H :    0.039684
  27 H :    0.029564
  28 C :   -0.040850
  29 H :    0.032569
  30 H :    0.025902
  31 H :    0.041840
  32 H :    0.065992
  33 H :    0.033037
Sum of atomic charges:   -0.0000000

LOEWDIN ATOMIC CHARGES
----------------------
   0 S :    0.441491
   1 C :   -0.223295
   2 C :   -0.065852
   3 C :   -0.062802
   4 C :   -0.190601
   5 H :    0.027619
   6 C :   -0.033003
   7 H :    0.027194
   8 H :    0.029076
   9 C :   -0.041164
  10 H :    0.020842
  11 H :    0.026012
  12 C :   -0.066781
  13 H :    0.024980
  14 H :    0.026335
  15 H :    0.031867
  16 S :    0.369382
  17 C :   -0.162024
  18 C :   -0.067479
  19 C :   -0.059407
  20 C :   -0.175884
  21 H :    0.033738
  22 C :   -0.047575
  23 H :    0.028378
  24 H :    0.033256
  25 C :   -0.038329
  26 H :    0.019468
  27 H :    0.024294
  28 C :   -0.063475
  29 H :    0.027118
  30 H :    0.020430
  31 H :    0.027297
  32 H :    0.041777
  33 H :    0.017117

  Mayer bond orders larger than 0.100000
B(  0-S ,  1-C ) :   1.1229 B(  0-S ,  4-C ) :   1.1707 B(  1-C ,  2-C ) :   1.6212
B(  1-C , 32-H ) :   0.9594 B(  2-C ,  3-C ) :   1.2735 B(  2-C ,  6-C ) :   1.0015
B(  3-C ,  4-C ) :   1.5107 B(  3-C ,  5-H ) :   0.9936 B(  4-C , 20-C ) :   1.0783
B(  6-C ,  7-H ) :   0.9484 B(  6-C ,  8-H ) :   0.9439 B(  6-C ,  9-C ) :   1.0384
B(  9-C , 10-H ) :   0.9634 B(  9-C , 11-H ) :   0.9545 B(  9-C , 12-C ) :   1.0902
B( 12-C , 13-H ) :   0.9747 B( 12-C , 14-H ) :   0.9742 B( 12-C , 15-H ) :   0.9743
B( 16-S , 17-C ) :   1.1280 B( 16-S , 20-C ) :   1.1323 B( 17-C , 18-C ) :   1.6437
B( 17-C , 33-H ) :   0.9724 B( 18-C , 19-C ) :   1.2173 B( 18-C , 21-H ) :   0.9929
B( 19-C , 20-C ) :   1.5538 B( 19-C , 22-C ) :   1.0562 B( 22-C , 23-H ) :   0.9255
B( 22-C , 24-H ) :   0.9328 B( 22-C , 25-C ) :   1.0668 B( 25-C , 26-H ) :   0.9572
B( 25-C , 27-H ) :   0.9569 B( 25-C , 28-C ) :   1.0696 B( 28-C , 29-H ) :   0.9727
B( 28-C , 30-H ) :   0.9778 B( 28-C , 31-H ) :   0.9709

Dispersion correction           -0.015200395
FINAL SINGLE POINT ENERGY     -1339.874556948069

DIPOLE MOMENT
-------------
                                X             Y             Z
Electronic contribution:      6.62009     -20.44941      -7.54729
Nuclear contribution   :     -6.93299      20.85050       7.68793
                        -----------------------------------------
Total Dipole Moment    :     -0.31289       0.40109       0.14064
                        -----------------------------------------
Magnitude (a.u.)       :      0.52778
Magnitude (Debye)      :      1.34151

Rotational constants in cm-1:     0.022232     0.007846     0.007234
Rotational constants in MHz :   666.490604   235.223171   216.862735

                             ****ORCA TERMINATED NORMALLY****
TOTAL RUN TIME: 0 days 0 hours 0 minutes 37 seconds 489 msec
