                         Program Version 4.2.1 -  RELEASE  -
|  1> ! wB97X-D3 SP def2-SVP
|  2> %pal
|  3> nprocs 16
|  4> end
|  5>
|  6> * xyz 0 1
|  7> S 	 29.976 	 -9.37783 	 81.9648
|  8> C 	 31.2193 	 -8.22592 	 81.6136
|  9> C 	 30.7109 	 -6.9481 	 81.4506
| 10> C 	 29.2748 	 -6.96 	 81.5237
| 11> C 	 28.6954 	 -8.13751 	 81.8831
| 12> H 	 28.7187 	 -6.03578 	 81.3153
| 13> C 	 31.5638 	 -5.8121 	 80.8851
| 14> H 	 31.2036 	 -5.4884 	 79.8538
| 15> H 	 32.6091 	 -6.18647 	 80.6892
| 16> C 	 31.8614 	 -4.57205 	 81.7811
| 17> H 	 32.2045 	 -4.76956 	 82.7526
| 18> H 	 32.6731 	 -3.87574 	 81.3952
| 19> C 	 30.5836 	 -3.69365 	 81.9904
| 20> H 	 29.7696 	 -4.04523 	 82.6102
| 21> H 	 30.8955 	 -2.83699 	 82.5688
| 22> H 	 30.1124 	 -3.36115 	 81.1119
| 23> S 	 26.7756 	 -10.2103 	 82.0869
| 24> C 	 25.1311 	 -9.81169 	 82.1135
| 25> C 	 24.9677 	 -8.47252 	 82.3739
| 26> C 	 26.1226 	 -7.74204 	 82.4845
| 27> C 	 27.2535 	 -8.49596 	 82.1375
| 28> H 	 23.9874 	 -8.08959 	 82.5386
| 29> C 	 26.0623 	 -6.22724 	 82.7661
| 30> H 	 25.0375 	 -5.90849 	 82.9746
| 31> H 	 26.3651 	 -5.64478 	 81.9109
| 32> C 	 26.7767 	 -5.6601 	 84.0178
| 33> H 	 26.5169 	 -4.63493 	 84.2686
| 34> H 	 27.8487 	 -5.86209 	 83.8358
| 35> C 	 26.5023 	 -6.43034 	 85.3155
| 36> H 	 26.9893 	 -7.41036 	 85.1761
| 37> H 	 25.527 	 -6.69283 	 85.5541
| 38> H 	 27.0613 	 -6.01533 	 86.2008
| 39> H 	 32.2154 	 -8.42712 	 81.6694
| 40> H 	 24.3127 	 -10.4659 	 81.938
| 41> *
| 42>
| 43>                          ****END OF INPUT****

CARTESIAN COORDINATES (ANGSTROEM)
---------------------------------
  S     29.976000   -9.377830   81.964800
  C     31.219300   -8.225920   81.613600
  C     30.710900   -6.948100   81.450600
  C     29.274800   -6.960000   81.523700
  C     28.695400   -8.137510   81.883100
  H     28.718700   -6.035780   81.315300
  C     31.563800   -5.812100   80.885100
  H     31.203600   -5.488400   79.853800
  H     32.609100   -6.186470   80.689200
  C     31.861400   -4.572050   81.781100
  H     32.204500   -4.769560   82.752600
  H     32.673100   -3.875740   81.395200
  C     30.583600   -3.693650   81.990400
  H     29.769600   -4.045230   82.610200
  H     30.895500   -2.836990   82.568800
  H     30.112400   -3.361150   81.111900
  S     26.775600  -10.210300   82.086900
  C     25.131100   -9.811690   82.113500
  C     24.967700   -8.472520   82.373900
  C     26.122600   -7.742040   82.484500
  C     27.253500   -8.495960   82.137500
  H     23.987400   -8.089590   82.538600
  C     26.062300   -6.227240   82.766100
  H     25.037500   -5.908490   82.974600
  H     26.365100   -5.644780   81.910900
  C     26.776700   -5.660100   84.017800
  H     26.516900   -4.634930   84.268600
  H     27.848700   -5.862090   83.835800
  C     26.502300   -6.430340   85.315500
  H     26.989300   -7.410360   85.176100
  H     25.527000   -6.692830   85.554100
  H     27.061300   -6.015330   86.200800
  H     32.215400   -8.427120   81.669400
  H     24.312700  -10.465900   81.938000

 Total Charge           Charge          ....    0
 Multiplicity           Mult            ....    1
 Number of Electrons    NEL             ....  134
 Basis Dimension        Dim             ....  322

ORBITAL ENERGIES
----------------

  NO   OCC          E(Eh)            E(eV)
   0   2.0000     -88.970256     -2421.0037
   1   2.0000     -88.966008     -2420.8881
   2   2.0000     -10.339405      -281.3495
   3   2.0000     -10.338379      -281.3216
   4   2.0000     -10.312737      -280.6238
   5   2.0000     -10.310256      -280.5563
   6   2.0000     -10.306276      -280.4480
   7   2.0000     -10.306118      -280.4437
   8   2.0000     -10.304232      -280.3924
   9   2.0000     -10.296577      -280.1841
  10   2.0000     -10.294879      -280.1379
  11   2.0000     -10.292630      -280.0767
  12   2.0000     -10.286169      -279.9009
  13   2.0000     -10.285696      -279.8880
  14   2.0000     -10.269340      -279.4429
  15   2.0000     -10.267967      -279.4056
  16   2.0000      -8.085446      -220.0162
  17   2.0000      -8.080792      -219.8895
  18   2.0000      -6.043836      -164.4611
  19   2.0000      -6.039897      -164.3539
  20   2.0000      -6.039479      -164.3426
  21   2.0000      -6.036305      -164.2562
  22   2.0000      -6.035272      -164.2281
  23   2.0000      -6.031394      -164.1226
  24   2.0000      -1.011183       -27.5157
  25   2.0000      -0.991191       -26.9717
  26   2.0000      -0.908190       -24.7131
  27   2.0000      -0.903004       -24.5720
  28   2.0000      -0.867710       -23.6116
  29   2.0000      -0.855164       -23.2702
  30   2.0000      -0.844022       -22.9670
  31   2.0000      -0.818817       -22.2812
  32   2.0000      -0.786349       -21.3976
  33   2.0000      -0.775333       -21.0979
  34   2.0000      -0.709153       -19.2970
  35   2.0000      -0.704114       -19.1599
  36   2.0000      -0.687439       -18.7062
  37   2.0000      -0.664886       -18.0925
  38   2.0000      -0.644969       -17.5505
  39   2.0000      -0.623825       -16.9752
  40   2.0000      -0.598533       -16.2869
  41   2.0000      -0.571732       -15.5576
  42   2.0000      -0.562335       -15.3019
  43   2.0000      -0.547049       -14.8860
  44   2.0000      -0.538842       -14.6626
  45   2.0000      -0.535316       -14.5667
  46   2.0000      -0.514244       -13.9933
  47   2.0000      -0.511138       -13.9088
  48   2.0000      -0.508352       -13.8330
  49   2.0000      -0.499544       -13.5933
  50   2.0000      -0.488216       -13.2850
  51   2.0000      -0.483379       -13.1534
  52   2.0000      -0.479389       -13.0448
  53   2.0000      -0.468795       -12.7566
  54   2.0000      -0.461183       -12.5494
  55   2.0000      -0.446944       -12.1620
  56   2.0000      -0.442411       -12.0386
  57   2.0000      -0.438597       -11.9348
  58   2.0000      -0.427849       -11.6424
  59   2.0000      -0.421856       -11.4793
  60   2.0000      -0.415895       -11.3171
  61   2.0000      -0.407654       -11.0928
  62   2.0000      -0.406235       -11.0542
  63   2.0000      -0.362493        -9.8639
  64   2.0000      -0.340592        -9.2680
  65   2.0000      -0.330642        -8.9972
  66   2.0000      -0.283734        -7.7208
  67   0.0000       0.017350         0.4721
  68   0.0000       0.078096         2.1251
  69   0.0000       0.097118         2.6427
  70   0.0000       0.117407         3.1948
  71   0.0000       0.130761         3.5582

MULLIKEN ATOMIC CHARGES
-----------------------
   0 S :    0.091434
   1 C :   -0.069555
   2 C :   -0.068833
   3 C :   -0.004279
   4 C :   -0.091448
   5 H :    0.013207
   6 C :    0.002179
   7 H :    0.054772
   8 H :    0.027469
   9 C :   -0.050134
  10 H :    0.016987
  11 H :    0.039697
  12 C :   -0.064220
  13 H :    0.030011
  14 H :    0.020079
  15 H :    0.016180
  16 S :    0.112121
  17 C :   -0.064205
  18 C :   -0.041194
  19 C :   -0.020294
  20 C :   -0.144048
  21 H :    0.003228
  22 C :    0.055481
  23 H :    0.012264
  24 H :    0.043039
  25 C :   -0.091489
  26 H :    0.040353
  27 H :    0.045532
  28 C :   -0.061424
  29 H :    0.028499
  30 H :    0.013769
  31 H :    0.040173
  32 H :    0.017010
  33 H :    0.047637
Sum of atomic charges:    0.0000000

LOEWDIN ATOMIC CHARGES
----------------------
   0 S :    0.391219
   1 C :   -0.174753
   2 C :   -0.065668
   3 C :   -0.070200
   4 C :   -0.174707
   5 H :    0.033129
   6 C :   -0.037723
   7 H :    0.041116
   8 H :    0.035029
   9 C :   -0.038306
  10 H :    0.017785
  11 H :    0.034164
  12 C :   -0.074169
  13 H :    0.023426
  14 H :    0.025722
  15 H :    0.013441
  16 S :    0.424689
  17 C :   -0.194373
  18 C :   -0.072410
  19 C :   -0.057671
  20 C :   -0.183600
  21 H :    0.027634
  22 C :   -0.029391
  23 H :    0.029454
  24 H :    0.029536
  25 C :   -0.043113
  26 H :    0.024750
  27 H :    0.027421
  28 C :   -0.072007
  29 H :    0.029284
  30 H :    0.009194
  31 H :    0.033418
  32 H :    0.009824
  33 H :    0.027858

  Mayer bond orders larger than 0.100000
B(  0-S ,  1-C ) :   1.1466 B(  0-S ,  4-C ) :   1.1324 B(  1-C ,  2-C ) :   1.6173
B(  1-C , 32-H ) :   0.9748 B(  2-C ,  3-C ) :   1.2397 B(  2-C ,  6-C ) :   1.0166
B(  3-C ,  4-C ) :   1.5881 B(  3-C ,  5-H ) :   0.9875 B(  4-C , 20-C ) :   1.0538
B(  6-C ,  7-H ) :   0.9510 B(  6-C ,  8-H ) :   0.9467 B(  6-C ,  9-C ) :   1.0614
B(  9-C , 10-H ) :   0.9549 B(  9-C , 11-H ) :   0.9592 B(  9-C , 12-C ) :   1.0745
B( 12-C , 13-H ) :   0.9740 B( 12-C , 14-H ) :   0.9713 B( 12-C , 15-H ) :   0.9773
B( 16-S , 17-C ) :   1.1779 B( 16-S , 20-C ) :   1.1589 B( 17-C , 18-C ) :   1.5618
B( 17-C , 20-C ) :   0.1117 B( 17-C , 33-H ) :   0.9719 B( 18-C , 19-C ) :   1.3038
B( 18-C , 21-H ) :   0.9961 B( 19-C , 20-C ) :   1.5245 B( 19-C , 22-C ) :   1.0227
B( 22-C , 23-H ) :   0.9379 B( 22-C , 24-H ) :   0.9420 B( 22-C , 25-C ) :   1.0669
B( 25-C , 26-H ) :   0.9632 B( 25-C , 27-H ) :   0.9521 B( 25-C , 28-C ) :   1.0755
B( 28-C , 29-H ) :   0.9683 B( 28-C , 30-H ) :   0.9790 B( 28-C , 31-H ) :   0.9739

Dispersion correction           -0.015161120
FINAL SINGLE POINT ENERGY     -1339.860226660788

DIPOLE MOMENT
-------------
                                X             Y             Z
Electronic contribution:     -3.37214     -28.60272      -7.15420
Nuclear contribution   :      3.29048      29.17305       7.14875
                        -----------------------------------------
Total Dipole Moment    :     -0.08166       0.57034      -0.00546
                        -----------------------------------------
Magnitude (a.u.)       :      0.57618
Magnitude (Debye)      :      1.46454

Rotational constants in cm-1:     0.019154     0.009619     0.007100
Rotational constants in MHz :   574.211502   288.359844   212.848659

                             ****ORCA TERMINATED NORMALLY****
TOTAL RUN TIME: 0 days 0 hours 0 minutes 31 seconds 972 msec
