                         Program Version 4.2.1 -  RELEASE  -
|  1> ! wB97X-D3 SP def2-SVP
|  2> %pal
|  3> nprocs 16
|  4> end
|  5>
|  6> * xyz 0 1
|  7> S 	 -63.1558 	 35.3598 	 115.333
|  8> C 	 -62.9783 	 34.8387 	 117.068
|  9> C 	 -62.8694 	 35.8874 	 117.885
| 10> C 	 -62.9286 	 37.1355 	 117.183
| 11> C 	 -63.1613 	 37.0383 	 115.805
| 12> H 	 -62.7726 	 38.1078 	 117.57
| 13> C 	 -62.7132 	 35.8415 	 119.433
| 14> H 	 -62.2506 	 36.7677 	 119.848
| 15> H 	 -61.9349 	 35.1081 	 119.709
| 16> C 	 -63.8577 	 35.5496 	 120.339
| 17> H 	 -63.7393 	 35.9198 	 121.355
| 18> H 	 -64.7441 	 36.0132 	 119.907
| 19> C 	 -64.1499 	 34.076 	 120.292
| 20> H 	 -64.9832 	 33.9762 	 120.912
| 21> H 	 -64.4755 	 33.8189 	 119.269
| 22> H 	 -63.3693 	 33.467 	 120.583
| 23> S 	 -61.9945 	 38.0115 	 113.501
| 24> C 	 -62.2033 	 39.6932 	 113.096
| 25> C 	 -63.195 	 40.2552 	 113.891
| 26> C 	 -63.803 	 39.3552 	 114.818
| 27> C 	 -63.1454 	 38.1304 	 114.807
| 28> H 	 -63.4473 	 41.306 	 113.695
| 29> C 	 -64.9731 	 39.7326 	 115.69
| 30> H 	 -65.0027 	 39.0142 	 116.504
| 31> H 	 -65.9181 	 39.6377 	 115.123
| 32> C 	 -64.9945 	 41.1816 	 116.211
| 33> H 	 -65.7315 	 41.4667 	 116.968
| 34> H 	 -65.1109 	 41.902 	 115.399
| 35> C 	 -63.6394 	 41.5414 	 116.889
| 36> H 	 -63.6263 	 40.8945 	 117.789
| 37> H 	 -63.6506 	 42.526 	 117.046
| 38> H 	 -62.745 	 41.3299 	 116.256
| 39> H 	 -62.8878 	 33.8475 	 117.521
| 40> H 	 -61.6759 	 40.2403 	 112.327
| 41> *
| 42>
| 43>                          ****END OF INPUT****

CARTESIAN COORDINATES (ANGSTROEM)
---------------------------------
  S    -63.155800   35.359800  115.333000
  C    -62.978300   34.838700  117.068000
  C    -62.869400   35.887400  117.885000
  C    -62.928600   37.135500  117.183000
  C    -63.161300   37.038300  115.805000
  H    -62.772600   38.107800  117.570000
  C    -62.713200   35.841500  119.433000
  H    -62.250600   36.767700  119.848000
  H    -61.934900   35.108100  119.709000
  C    -63.857700   35.549600  120.339000
  H    -63.739300   35.919800  121.355000
  H    -64.744100   36.013200  119.907000
  C    -64.149900   34.076000  120.292000
  H    -64.983200   33.976200  120.912000
  H    -64.475500   33.818900  119.269000
  H    -63.369300   33.467000  120.583000
  S    -61.994500   38.011500  113.501000
  C    -62.203300   39.693200  113.096000
  C    -63.195000   40.255200  113.891000
  C    -63.803000   39.355200  114.818000
  C    -63.145400   38.130400  114.807000
  H    -63.447300   41.306000  113.695000
  C    -64.973100   39.732600  115.690000
  H    -65.002700   39.014200  116.504000
  H    -65.918100   39.637700  115.123000
  C    -64.994500   41.181600  116.211000
  H    -65.731500   41.466700  116.968000
  H    -65.110900   41.902000  115.399000
  C    -63.639400   41.541400  116.889000
  H    -63.626300   40.894500  117.789000
  H    -63.650600   42.526000  117.046000
  H    -62.745000   41.329900  116.256000
  H    -62.887800   33.847500  117.521000
  H    -61.675900   40.240300  112.327000

 Total Charge           Charge          ....    0
 Multiplicity           Mult            ....    1
 Number of Electrons    NEL             ....  134
 Basis Dimension        Dim             ....  322

ORBITAL ENERGIES
----------------

  NO   OCC          E(Eh)            E(eV)
   0   2.0000     -88.968403     -2420.9533
   1   2.0000     -88.967490     -2420.9285
   2   2.0000     -10.334382      -281.2128
   3   2.0000     -10.330328      -281.1025
   4   2.0000     -10.319710      -280.8136
   5   2.0000     -10.316312      -280.7211
   6   2.0000     -10.307474      -280.4806
   7   2.0000     -10.302806      -280.3536
   8   2.0000     -10.297259      -280.2027
   9   2.0000     -10.293747      -280.1071
  10   2.0000     -10.293528      -280.1011
  11   2.0000     -10.293325      -280.0956
  12   2.0000     -10.288228      -279.9569
  13   2.0000     -10.280109      -279.7360
  14   2.0000     -10.268185      -279.4115
  15   2.0000     -10.263849      -279.2935
  16   2.0000      -8.082510      -219.9363
  17   2.0000      -8.082117      -219.9256
  18   2.0000      -6.041010      -164.3842
  19   2.0000      -6.040890      -164.3810
  20   2.0000      -6.036918      -164.2729
  21   2.0000      -6.036831      -164.2705
  22   2.0000      -6.033309      -164.1747
  23   2.0000      -6.032572      -164.1546
  24   2.0000      -1.007069       -27.4037
  25   2.0000      -0.984246       -26.7827
  26   2.0000      -0.920884       -25.0585
  27   2.0000      -0.911091       -24.7920
  28   2.0000      -0.873224       -23.7616
  29   2.0000      -0.850372       -23.1398
  30   2.0000      -0.841003       -22.8849
  31   2.0000      -0.814024       -22.1507
  32   2.0000      -0.788466       -21.4552
  33   2.0000      -0.780401       -21.2358
  34   2.0000      -0.707932       -19.2638
  35   2.0000      -0.696224       -18.9452
  36   2.0000      -0.695207       -18.9175
  37   2.0000      -0.656916       -17.8756
  38   2.0000      -0.639798       -17.4098
  39   2.0000      -0.617308       -16.7978
  40   2.0000      -0.597733       -16.2651
  41   2.0000      -0.581373       -15.8200
  42   2.0000      -0.560981       -15.2651
  43   2.0000      -0.553721       -15.0675
  44   2.0000      -0.542795       -14.7702
  45   2.0000      -0.539807       -14.6889
  46   2.0000      -0.522292       -14.2123
  47   2.0000      -0.517921       -14.0933
  48   2.0000      -0.501371       -13.6430
  49   2.0000      -0.498067       -13.5531
  50   2.0000      -0.490972       -13.3600
  51   2.0000      -0.484137       -13.1740
  52   2.0000      -0.473337       -12.8802
  53   2.0000      -0.471493       -12.8300
  54   2.0000      -0.457152       -12.4397
  55   2.0000      -0.447863       -12.1870
  56   2.0000      -0.443936       -12.0801
  57   2.0000      -0.436573       -11.8798
  58   2.0000      -0.430913       -11.7257
  59   2.0000      -0.422459       -11.4957
  60   2.0000      -0.417341       -11.3564
  61   2.0000      -0.415033       -11.2936
  62   2.0000      -0.408957       -11.1283
  63   2.0000      -0.348641        -9.4870
  64   2.0000      -0.334038        -9.0896
  65   2.0000      -0.331399        -9.0178
  66   2.0000      -0.294300        -8.0083
  67   0.0000       0.028571         0.7774
  68   0.0000       0.068376         1.8606
  69   0.0000       0.101510         2.7622
  70   0.0000       0.121817         3.3148
  71   0.0000       0.134293         3.6543

MULLIKEN ATOMIC CHARGES
-----------------------
   0 S :    0.097434
   1 C :   -0.118713
   2 C :   -0.057715
   3 C :    0.049347
   4 C :   -0.164569
   5 H :   -0.007570
   6 C :    0.031566
   7 H :    0.021479
   8 H :    0.020253
   9 C :   -0.047760
  10 H :    0.032858
  11 H :    0.023129
  12 C :   -0.019417
  13 H :    0.014886
  14 H :    0.028770
  15 H :    0.014741
  16 S :    0.117374
  17 C :   -0.092951
  18 C :   -0.055138
  19 C :   -0.057394
  20 C :   -0.145066
  21 H :    0.028057
  22 C :    0.122962
  23 H :    0.020183
  24 H :    0.049679
  25 C :   -0.123363
  26 H :    0.039127
  27 H :    0.024742
  28 C :   -0.040078
  29 H :    0.034367
  30 H :    0.006264
  31 H :    0.047019
  32 H :    0.048141
  33 H :    0.057356
Sum of atomic charges:    0.0000000

LOEWDIN ATOMIC CHARGES
----------------------
   0 S :    0.378677
   1 C :   -0.178514
   2 C :   -0.062955
   3 C :   -0.058487
   4 C :   -0.189741
   5 H :    0.022889
   6 C :   -0.037604
   7 H :    0.033066
   8 H :    0.029404
   9 C :   -0.040323
  10 H :    0.025638
  11 H :    0.027174
  12 C :   -0.054337
  13 H :    0.019572
  14 H :    0.029187
  15 H :    0.010272
  16 S :    0.414625
  17 C :   -0.187386
  18 C :   -0.074249
  19 C :   -0.054138
  20 C :   -0.201580
  21 H :    0.034289
  22 C :   -0.030293
  23 H :    0.028999
  24 H :    0.041980
  25 C :   -0.042435
  26 H :    0.029656
  27 H :    0.017526
  28 C :   -0.058804
  29 H :    0.026697
  30 H :    0.004146
  31 H :    0.030186
  32 H :    0.035307
  33 H :    0.031552

  Mayer bond orders larger than 0.100000
B(  0-S ,  1-C ) :   1.1032 B(  0-S ,  4-C ) :   1.1414 B(  1-C ,  2-C ) :   1.6795
B(  1-C , 32-H ) :   0.9553 B(  2-C ,  3-C ) :   1.2167 B(  2-C ,  6-C ) :   1.0077
B(  3-C ,  4-C ) :   1.5893 B(  3-C ,  5-H ) :   0.9994 B(  4-C , 20-C ) :   1.0179
B(  6-C ,  7-H ) :   0.9432 B(  6-C ,  8-H ) :   0.9428 B(  6-C ,  9-C ) :   1.0749
B(  9-C , 10-H ) :   0.9540 B(  9-C , 11-H ) :   0.9490 B(  9-C , 12-C ) :   1.0879
B( 12-C , 13-H ) :   0.9694 B( 12-C , 14-H ) :   0.9696 B( 12-C , 15-H ) :   0.9777
B( 16-S , 17-C ) :   1.1559 B( 16-S , 20-C ) :   1.1498 B( 17-C , 18-C ) :   1.6086
B( 17-C , 33-H ) :   0.9684 B( 18-C , 19-C ) :   1.2345 B( 18-C , 21-H ) :   0.9857
B( 19-C , 20-C ) :   1.5865 B( 19-C , 22-C ) :   1.0381 B( 22-C , 23-H ) :   0.9311
B( 22-C , 24-H ) :   0.9301 B( 22-C , 25-C ) :   1.0661 B( 25-C , 26-H ) :   0.9598
B( 25-C , 27-H ) :   0.9515 B( 25-C , 28-C ) :   1.0787 B( 28-C , 29-H ) :   0.9776
B( 28-C , 30-H ) :   0.9737 B( 28-C , 31-H ) :   0.9693

Dispersion correction           -0.014619209
FINAL SINGLE POINT ENERGY     -1339.862189572392

DIPOLE MOMENT
-------------
                                X             Y             Z
Electronic contribution:      8.62209      -7.81491     -24.72624
Nuclear contribution   :     -8.76126       8.31655      25.24217
                        -----------------------------------------
Total Dipole Moment    :     -0.13917       0.50164       0.51593
                        -----------------------------------------
Magnitude (a.u.)       :      0.73294
Magnitude (Debye)      :      1.86297

Rotational constants in cm-1:     0.020780     0.008370     0.006459
Rotational constants in MHz :   622.983542   250.925136   193.647695

                             ****ORCA TERMINATED NORMALLY****
TOTAL RUN TIME: 0 days 0 hours 0 minutes 31 seconds 213 msec
