                         Program Version 4.2.1 -  RELEASE  -
|  1> ! wB97X-D3 SP def2-SVP
|  2> %pal
|  3> nprocs 16
|  4> end
|  5>
|  6> * xyz 0 1
|  7> S 	 -17.2221 	 52.973 	 60.2363
|  8> C 	 -17.9327 	 51.4022 	 59.8443
|  9> C 	 -17.6691 	 50.475 	 60.8451
| 10> C 	 -17.0512 	 51.1148 	 61.9661
| 11> C 	 -16.7662 	 52.4129 	 61.8247
| 12> H 	 -16.8226 	 50.6101 	 62.8775
| 13> C 	 -17.8311 	 49.0047 	 60.7563
| 14> H 	 -18.6798 	 48.7506 	 60.1494
| 15> H 	 -18.1252 	 48.6185 	 61.6984
| 16> C 	 -16.5357 	 48.2526 	 60.3022
| 17> H 	 -16.0806 	 48.6958 	 59.3936
| 18> H 	 -15.8279 	 48.3425 	 61.1134
| 19> C 	 -16.7294 	 46.7442 	 59.8516
| 20> H 	 -17.5399 	 46.5173 	 59.1729
| 21> H 	 -15.8538 	 46.3755 	 59.3676
| 22> H 	 -16.9418 	 46.1522 	 60.7511
| 23> S 	 -14.9541 	 54.5226 	 62.2943
| 24> C 	 -14.8137 	 55.1805 	 63.995
| 25> C 	 -15.7514 	 54.6364 	 64.8152
| 26> C 	 -16.4533 	 53.5051 	 64.2154
| 27> C 	 -16.1025 	 53.2715 	 62.8194
| 28> H 	 -15.865 	 55.1551 	 65.8118
| 29> C 	 -17.5251 	 52.6177 	 64.9264
| 30> H 	 -18.2737 	 52.2931 	 64.0859
| 31> H 	 -18.1666 	 53.2156 	 65.6239
| 32> C 	 -16.825 	 51.4088 	 65.6641
| 33> H 	 -16.048 	 50.9589 	 65.0589
| 34> H 	 -17.5831 	 50.6617 	 65.7102
| 35> C 	 -16.1671 	 51.8149 	 67.0047
| 36> H 	 -16.3572 	 52.8791 	 67.291
| 37> H 	 -15.1018 	 51.6706 	 66.9237
| 38> H 	 -16.4293 	 51.2579 	 67.9204
| 39> H 	 -18.3526 	 51.1733 	 58.9044
| 40> H 	 -14.3212 	 56.1656 	 64.2758
| 41> *
| 42>
| 43>                          ****END OF INPUT****

CARTESIAN COORDINATES (ANGSTROEM)
---------------------------------
  S    -17.222100   52.973000   60.236300
  C    -17.932700   51.402200   59.844300
  C    -17.669100   50.475000   60.845100
  C    -17.051200   51.114800   61.966100
  C    -16.766200   52.412900   61.824700
  H    -16.822600   50.610100   62.877500
  C    -17.831100   49.004700   60.756300
  H    -18.679800   48.750600   60.149400
  H    -18.125200   48.618500   61.698400
  C    -16.535700   48.252600   60.302200
  H    -16.080600   48.695800   59.393600
  H    -15.827900   48.342500   61.113400
  C    -16.729400   46.744200   59.851600
  H    -17.539900   46.517300   59.172900
  H    -15.853800   46.375500   59.367600
  H    -16.941800   46.152200   60.751100
  S    -14.954100   54.522600   62.294300
  C    -14.813700   55.180500   63.995000
  C    -15.751400   54.636400   64.815200
  C    -16.453300   53.505100   64.215400
  C    -16.102500   53.271500   62.819400
  H    -15.865000   55.155100   65.811800
  C    -17.525100   52.617700   64.926400
  H    -18.273700   52.293100   64.085900
  H    -18.166600   53.215600   65.623900
  C    -16.825000   51.408800   65.664100
  H    -16.048000   50.958900   65.058900
  H    -17.583100   50.661700   65.710200
  C    -16.167100   51.814900   67.004700
  H    -16.357200   52.879100   67.291000
  H    -15.101800   51.670600   66.923700
  H    -16.429300   51.257900   67.920400
  H    -18.352600   51.173300   58.904400
  H    -14.321200   56.165600   64.275800

 Total Charge           Charge          ....    0
 Multiplicity           Mult            ....    1
 Number of Electrons    NEL             ....  134
 Basis Dimension        Dim             ....  322

ORBITAL ENERGIES
----------------

  NO   OCC          E(Eh)            E(eV)
   0   2.0000     -88.966669     -2420.9062
   1   2.0000     -88.966022     -2420.8885
   2   2.0000     -10.338204      -281.3168
   3   2.0000     -10.328138      -281.0429
   4   2.0000     -10.325399      -280.9684
   5   2.0000     -10.318249      -280.7738
   6   2.0000     -10.314362      -280.6681
   7   2.0000     -10.307313      -280.4762
   8   2.0000     -10.304698      -280.4051
   9   2.0000     -10.301242      -280.3111
  10   2.0000     -10.294176      -280.1188
  11   2.0000     -10.289841      -280.0008
  12   2.0000     -10.289201      -279.9834
  13   2.0000     -10.286903      -279.9209
  14   2.0000     -10.281317      -279.7689
  15   2.0000     -10.279732      -279.7257
  16   2.0000      -8.080653      -219.8857
  17   2.0000      -8.079631      -219.8579
  18   2.0000      -6.039241      -164.3361
  19   2.0000      -6.038306      -164.3107
  20   2.0000      -6.035253      -164.2276
  21   2.0000      -6.034544      -164.2083
  22   2.0000      -6.031254      -164.1188
  23   2.0000      -6.030152      -164.0888
  24   2.0000      -1.004455       -27.3326
  25   2.0000      -0.972960       -26.4756
  26   2.0000      -0.909348       -24.7446
  27   2.0000      -0.896732       -24.4013
  28   2.0000      -0.867875       -23.6161
  29   2.0000      -0.848333       -23.0843
  30   2.0000      -0.836342       -22.7580
  31   2.0000      -0.818325       -22.2677
  32   2.0000      -0.783397       -21.3173
  33   2.0000      -0.765460       -20.8292
  34   2.0000      -0.709954       -19.3188
  35   2.0000      -0.705100       -19.1868
  36   2.0000      -0.691070       -18.8050
  37   2.0000      -0.654609       -17.8128
  38   2.0000      -0.639797       -17.4098
  39   2.0000      -0.624108       -16.9828
  40   2.0000      -0.584300       -15.8996
  41   2.0000      -0.570724       -15.5302
  42   2.0000      -0.556675       -15.1479
  43   2.0000      -0.541726       -14.7411
  44   2.0000      -0.535325       -14.5669
  45   2.0000      -0.524114       -14.2619
  46   2.0000      -0.517557       -14.0834
  47   2.0000      -0.513275       -13.9669
  48   2.0000      -0.503025       -13.6880
  49   2.0000      -0.497746       -13.5443
  50   2.0000      -0.494693       -13.4613
  51   2.0000      -0.474273       -12.9056
  52   2.0000      -0.468316       -12.7435
  53   2.0000      -0.462830       -12.5942
  54   2.0000      -0.454681       -12.3725
  55   2.0000      -0.444970       -12.1083
  56   2.0000      -0.440325       -11.9818
  57   2.0000      -0.436473       -11.8770
  58   2.0000      -0.433746       -11.8028
  59   2.0000      -0.432317       -11.7639
  60   2.0000      -0.423300       -11.5186
  61   2.0000      -0.414576       -11.2812
  62   2.0000      -0.409205       -11.1350
  63   2.0000      -0.354340        -9.6421
  64   2.0000      -0.332435        -9.0460
  65   2.0000      -0.326825        -8.8934
  66   2.0000      -0.288205        -7.8425
  67   0.0000       0.023186         0.6309
  68   0.0000       0.067619         1.8400
  69   0.0000       0.102264         2.7827
  70   0.0000       0.123767         3.3679
  71   0.0000       0.130233         3.5438

MULLIKEN ATOMIC CHARGES
-----------------------
   0 S :    0.103771
   1 C :   -0.107055
   2 C :   -0.079086
   3 C :    0.004716
   4 C :   -0.103634
   5 H :   -0.014373
   6 C :    0.113281
   7 H :    0.008694
   8 H :    0.006174
   9 C :   -0.083941
  10 H :    0.037759
  11 H :    0.032387
  12 C :   -0.049732
  13 H :    0.030078
  14 H :    0.033632
  15 H :    0.028596
  16 S :    0.078991
  17 C :   -0.122240
  18 C :   -0.043651
  19 C :   -0.043509
  20 C :   -0.133192
  21 H :    0.053149
  22 C :   -0.038811
  23 H :    0.062301
  24 H :    0.042316
  25 C :   -0.046665
  26 H :    0.042467
  27 H :    0.025296
  28 C :   -0.051990
  29 H :    0.031433
  30 H :    0.033289
  31 H :    0.035699
  32 H :    0.031332
  33 H :    0.082517
Sum of atomic charges:    0.0000000

LOEWDIN ATOMIC CHARGES
----------------------
   0 S :    0.396237
   1 C :   -0.178321
   2 C :   -0.057062
   3 C :   -0.063763
   4 C :   -0.190976
   5 H :    0.025983
   6 C :   -0.030892
   7 H :    0.027620
   8 H :    0.024928
   9 C :   -0.031075
  10 H :    0.027753
  11 H :    0.023072
  12 C :   -0.066790
  13 H :    0.023639
  14 H :    0.024042
  15 H :    0.024341
  16 S :    0.359135
  17 C :   -0.181124
  18 C :   -0.081620
  19 C :   -0.050181
  20 C :   -0.188287
  21 H :    0.048331
  22 C :   -0.041555
  23 H :    0.043680
  24 H :    0.031671
  25 C :   -0.040030
  26 H :    0.024111
  27 H :    0.019293
  28 C :   -0.072089
  29 H :    0.027420
  30 H :    0.027623
  31 H :    0.029575
  32 H :    0.018833
  33 H :    0.046477

  Mayer bond orders larger than 0.100000
B(  0-S ,  1-C ) :   1.1319 B(  0-S ,  4-C ) :   1.1310 B(  1-C ,  2-C ) :   1.6097
B(  1-C , 32-H ) :   0.9759 B(  2-C ,  3-C ) :   1.2227 B(  2-C ,  6-C ) :   1.0528
B(  3-C ,  4-C ) :   1.5837 B(  3-C ,  5-H ) :   1.0054 B(  4-C , 20-C ) :   1.0583
B(  6-C ,  7-H ) :   0.9346 B(  6-C ,  8-H ) :   0.9288 B(  6-C ,  9-C ) :   1.0458
B(  9-C , 10-H ) :   0.9650 B(  9-C , 11-H ) :   0.9586 B(  9-C , 12-C ) :   1.0714
B( 12-C , 13-H ) :   0.9778 B( 12-C , 14-H ) :   0.9780 B( 12-C , 15-H ) :   0.9773
B( 16-S , 17-C ) :   1.1230 B( 16-S , 20-C ) :   1.1287 B( 17-C , 18-C ) :   1.6642
B( 17-C , 33-H ) :   0.9515 B( 18-C , 19-C ) :   1.2286 B( 18-C , 21-H ) :   0.9738
B( 19-C , 20-C ) :   1.5662 B( 19-C , 22-C ) :   1.0350 B( 22-C , 23-H ) :   0.9389
B( 22-C , 24-H ) :   0.9493 B( 22-C , 25-C ) :   1.0518 B( 25-C , 26-H ) :   0.9601
B( 25-C , 27-H ) :   0.9623 B( 25-C , 28-C ) :   1.0452 B( 28-C , 29-H ) :   0.9798
B( 28-C , 30-H ) :   0.9802 B( 28-C , 31-H ) :   0.9757

Dispersion correction           -0.014412655
FINAL SINGLE POINT ENERGY     -1339.862894274092

DIPOLE MOMENT
-------------
                                X             Y             Z
Electronic contribution:      3.68292      25.24299     -11.57554
Nuclear contribution   :     -3.92762     -25.73373      11.98790
                        -----------------------------------------
Total Dipole Moment    :     -0.24470      -0.49074       0.41236
                        -----------------------------------------
Magnitude (a.u.)       :      0.68611
Magnitude (Debye)      :      1.74394

Rotational constants in cm-1:     0.018965     0.008257     0.006439
Rotational constants in MHz :   568.554907   247.523919   193.036490

                             ****ORCA TERMINATED NORMALLY****
TOTAL RUN TIME: 0 days 0 hours 0 minutes 33 seconds 113 msec
