                         Program Version 4.2.1 -  RELEASE  -
|  1> ! wB97X-D3 SP def2-SVP
|  2> %pal
|  3> nprocs 16
|  4> end
|  5>
|  6> * xyz 0 1
|  7> S 	 -112.206 	 54.4282 	 109.025
|  8> C 	 -111.248 	 55.2444 	 107.789
|  9> C 	 -109.975 	 54.6355 	 107.698
| 10> C 	 -109.759 	 53.7355 	 108.697
| 11> C 	 -110.825 	 53.4931 	 109.52
| 12> H 	 -108.855 	 53.221 	 108.932
| 13> C 	 -108.917 	 54.9234 	 106.791
| 14> H 	 -109.336 	 54.65 	 105.785
| 15> H 	 -108.048 	 54.3313 	 106.991
| 16> C 	 -108.431 	 56.3916 	 106.73
| 17> H 	 -107.701 	 56.5512 	 105.994
| 18> H 	 -109.266 	 56.9862 	 106.38
| 19> C 	 -107.91 	 56.9758 	 108.083
| 20> H 	 -107.491 	 57.9898 	 107.986
| 21> H 	 -108.686 	 57.1283 	 108.788
| 22> H 	 -107.074 	 56.4415 	 108.548
| 23> S 	 -111.239 	 53.4826 	 112.208
| 24> C 	 -111.446 	 51.9888 	 113.055
| 25> C 	 -111.154 	 50.9406 	 112.197
| 26> C 	 -110.831 	 51.3539 	 110.876
| 27> C 	 -110.854 	 52.7108 	 110.713
| 28> H 	 -111.2 	 49.9203 	 112.605
| 29> C 	 -110.57 	 50.3917 	 109.832
| 30> H 	 -110.114 	 49.5011 	 110.371
| 31> H 	 -109.891 	 50.8526 	 109.105
| 32> C 	 -111.788 	 49.7481 	 109.049
| 33> H 	 -112.582 	 49.4293 	 109.833
| 34> H 	 -111.487 	 48.8419 	 108.579
| 35> C 	 -112.572 	 50.7 	 108.052
| 36> H 	 -113.369 	 50.2073 	 107.532
| 37> H 	 -111.877 	 50.9992 	 107.304
| 38> H 	 -113.018 	 51.5282 	 108.547
| 39> H 	 -111.553 	 55.8912 	 106.963
| 40> H 	 -111.548 	 51.927 	 114.128
| 41> *
| 42>
| 43>                          ****END OF INPUT****

CARTESIAN COORDINATES (ANGSTROEM)
---------------------------------
  S    -112.206000   54.428200  109.025000
  C    -111.248000   55.244400  107.789000
  C    -109.975000   54.635500  107.698000
  C    -109.759000   53.735500  108.697000
  C    -110.825000   53.493100  109.520000
  H    -108.855000   53.221000  108.932000
  C    -108.917000   54.923400  106.791000
  H    -109.336000   54.650000  105.785000
  H    -108.048000   54.331300  106.991000
  C    -108.431000   56.391600  106.730000
  H    -107.701000   56.551200  105.994000
  H    -109.266000   56.986200  106.380000
  C    -107.910000   56.975800  108.083000
  H    -107.491000   57.989800  107.986000
  H    -108.686000   57.128300  108.788000
  H    -107.074000   56.441500  108.548000
  S    -111.239000   53.482600  112.208000
  C    -111.446000   51.988800  113.055000
  C    -111.154000   50.940600  112.197000
  C    -110.831000   51.353900  110.876000
  C    -110.854000   52.710800  110.713000
  H    -111.200000   49.920300  112.605000
  C    -110.570000   50.391700  109.832000
  H    -110.114000   49.501100  110.371000
  H    -109.891000   50.852600  109.105000
  C    -111.788000   49.748100  109.049000
  H    -112.582000   49.429300  109.833000
  H    -111.487000   48.841900  108.579000
  C    -112.572000   50.700000  108.052000
  H    -113.369000   50.207300  107.532000
  H    -111.877000   50.999200  107.304000
  H    -113.018000   51.528200  108.547000
  H    -111.553000   55.891200  106.963000
  H    -111.548000   51.927000  114.128000

 Total Charge           Charge          ....    0
 Multiplicity           Mult            ....    1
 Number of Electrons    NEL             ....  134
 Basis Dimension        Dim             ....  322

ORBITAL ENERGIES
----------------

  NO   OCC          E(Eh)            E(eV)
   0   2.0000     -88.971274     -2421.0315
   1   2.0000     -88.961837     -2420.7746
   2   2.0000     -10.321765      -280.8695
   3   2.0000     -10.317025      -280.7405
   4   2.0000     -10.315847      -280.7085
   5   2.0000     -10.314680      -280.6767
   6   2.0000     -10.294997      -280.1411
   7   2.0000     -10.293676      -280.1052
   8   2.0000     -10.292851      -280.0827
   9   2.0000     -10.291597      -280.0486
  10   2.0000     -10.290252      -280.0120
  11   2.0000     -10.287175      -279.9283
  12   2.0000     -10.285673      -279.8874
  13   2.0000     -10.281488      -279.7735
  14   2.0000     -10.274129      -279.5733
  15   2.0000     -10.266047      -279.3533
  16   2.0000      -8.085000      -220.0040
  17   2.0000      -8.077543      -219.8011
  18   2.0000      -6.043449      -164.4506
  19   2.0000      -6.039505      -164.3433
  20   2.0000      -6.036013      -164.2483
  21   2.0000      -6.035948      -164.2465
  22   2.0000      -6.031754      -164.1324
  23   2.0000      -6.028502      -164.0439
  24   2.0000      -1.016082       -27.6490
  25   2.0000      -0.991846       -26.9895
  26   2.0000      -0.919340       -25.0165
  27   2.0000      -0.904176       -24.6039
  28   2.0000      -0.868711       -23.6388
  29   2.0000      -0.853784       -23.2326
  30   2.0000      -0.844588       -22.9824
  31   2.0000      -0.814844       -22.1730
  32   2.0000      -0.784268       -21.3410
  33   2.0000      -0.771631       -20.9972
  34   2.0000      -0.715681       -19.4747
  35   2.0000      -0.707779       -19.2596
  36   2.0000      -0.695781       -18.9332
  37   2.0000      -0.662754       -18.0344
  38   2.0000      -0.640370       -17.4254
  39   2.0000      -0.615225       -16.7411
  40   2.0000      -0.591812       -16.1040
  41   2.0000      -0.579273       -15.7628
  42   2.0000      -0.553261       -15.0550
  43   2.0000      -0.551383       -15.0039
  44   2.0000      -0.544710       -14.8223
  45   2.0000      -0.533830       -14.5263
  46   2.0000      -0.514638       -14.0040
  47   2.0000      -0.508733       -13.8433
  48   2.0000      -0.503004       -13.6874
  49   2.0000      -0.497090       -13.5265
  50   2.0000      -0.493791       -13.4367
  51   2.0000      -0.478012       -13.0074
  52   2.0000      -0.471023       -12.8172
  53   2.0000      -0.467386       -12.7182
  54   2.0000      -0.460485       -12.5304
  55   2.0000      -0.444535       -12.0964
  56   2.0000      -0.441810       -12.0223
  57   2.0000      -0.435940       -11.8625
  58   2.0000      -0.433931       -11.8079
  59   2.0000      -0.427037       -11.6203
  60   2.0000      -0.418803       -11.3962
  61   2.0000      -0.416369       -11.3300
  62   2.0000      -0.410167       -11.1612
  63   2.0000      -0.344207        -9.3664
  64   2.0000      -0.330682        -8.9983
  65   2.0000      -0.326735        -8.8909
  66   2.0000      -0.292796        -7.9674
  67   0.0000       0.031579         0.8593
  68   0.0000       0.060016         1.6331
  69   0.0000       0.111431         3.0322
  70   0.0000       0.117756         3.2043
  71   0.0000       0.142865         3.8876

MULLIKEN ATOMIC CHARGES
-----------------------
   0 S :    0.137015
   1 C :   -0.123990
   2 C :   -0.064302
   3 C :    0.029455
   4 C :   -0.176137
   5 H :   -0.001239
   6 C :    0.063217
   7 H :    0.041606
   8 H :    0.015945
   9 C :   -0.041592
  10 H :    0.017204
  11 H :    0.014917
  12 C :   -0.059787
  13 H :    0.025658
  14 H :    0.036722
  15 H :    0.029720
  16 S :    0.111976
  17 C :   -0.100855
  18 C :   -0.048852
  19 C :   -0.001334
  20 C :   -0.175104
  21 H :    0.026306
  22 C :    0.054932
  23 H :    0.032723
  24 H :    0.021670
  25 C :   -0.093207
  26 H :    0.028937
  27 H :    0.027957
  28 C :   -0.014828
  29 H :    0.024065
  30 H :    0.023098
  31 H :    0.027562
  32 H :    0.049018
  33 H :    0.061523
Sum of atomic charges:    0.0000000

LOEWDIN ATOMIC CHARGES
----------------------
   0 S :    0.428559
   1 C :   -0.209732
   2 C :   -0.067362
   3 C :   -0.060659
   4 C :   -0.194181
   5 H :    0.028972
   6 C :   -0.033009
   7 H :    0.044175
   8 H :    0.026894
   9 C :   -0.029579
  10 H :    0.016843
  11 H :    0.020957
  12 C :   -0.069684
  13 H :    0.029550
  14 H :    0.022283
  15 H :    0.025122
  16 S :    0.425991
  17 C :   -0.189835
  18 C :   -0.073461
  19 C :   -0.064505
  20 C :   -0.215361
  21 H :    0.035172
  22 C :   -0.039009
  23 H :    0.042981
  24 H :    0.029737
  25 C :   -0.034584
  26 H :    0.028568
  27 H :    0.016299
  28 C :   -0.061435
  29 H :    0.023770
  30 H :    0.020031
  31 H :    0.015619
  32 H :    0.030748
  33 H :    0.030124

  Mayer bond orders larger than 0.100000
B(  0-S ,  1-C ) :   1.1461 B(  0-S ,  4-C ) :   1.1684 B(  1-C ,  2-C ) :   1.5465
B(  1-C ,  4-C ) :   0.1149 B(  1-C , 32-H ) :   0.9634 B(  2-C ,  3-C ) :   1.2804
B(  2-C ,  6-C ) :   1.0389 B(  3-C ,  4-C ) :   1.5522 B(  3-C ,  5-H ) :   0.9981
B(  4-C , 20-C ) :   1.0335 B(  6-C ,  7-H ) :   0.9191 B(  6-C ,  8-H ) :   0.9449
B(  6-C ,  9-C ) :   1.0816 B(  9-C , 10-H ) :   0.9584 B(  9-C , 11-H ) :   0.9519
B(  9-C , 12-C ) :   1.0706 B( 12-C , 13-H ) :   0.9732 B( 12-C , 14-H ) :   0.9756
B( 12-C , 15-H ) :   0.9773 B( 16-S , 17-C ) :   1.1723 B( 16-S , 20-C ) :   1.1523
B( 17-C , 18-C ) :   1.5834 B( 17-C , 33-H ) :   0.9684 B( 18-C , 19-C ) :   1.2524
B( 18-C , 21-H ) :   0.9893 B( 19-C , 20-C ) :   1.5627 B( 19-C , 22-C ) :   1.0692
B( 22-C , 23-H ) :   0.9227 B( 22-C , 24-H ) :   0.9273 B( 22-C , 25-C ) :   1.0665
B( 25-C , 26-H ) :   0.9569 B( 25-C , 27-H ) :   0.9606 B( 25-C , 28-C ) :   1.0705
B( 28-C , 29-H ) :   0.9735 B( 28-C , 30-H ) :   0.9769 B( 28-C , 31-H ) :   0.9745

Dispersion correction           -0.015788742
FINAL SINGLE POINT ENERGY     -1339.872266195105

DIPOLE MOMENT
-------------
                                X             Y             Z
Electronic contribution:     -9.54622       2.81163      15.88713
Nuclear contribution   :      9.89660      -3.08095     -16.18768
                        -----------------------------------------
Total Dipole Moment    :      0.35038      -0.26932      -0.30055
                        -----------------------------------------
Magnitude (a.u.)       :      0.53445
Magnitude (Debye)      :      1.35846

Rotational constants in cm-1:     0.021664     0.008921     0.007714
Rotational constants in MHz :   649.483395   267.439845   231.270753

                             ****ORCA TERMINATED NORMALLY****
TOTAL RUN TIME: 0 days 0 hours 0 minutes 34 seconds 975 msec
