                         Program Version 4.2.1 -  RELEASE  -
|  1> ! wB97X-D3 SP def2-SVP
|  2> %pal
|  3> nprocs 16
|  4> end
|  5>
|  6> * xyz 0 1
|  7> S 	 29.2872 	 28.7434 	 54.1296
|  8> C 	 30.2601 	 28.6109 	 52.6471
|  9> C 	 31.6012 	 28.4056 	 53.0055
| 10> C 	 31.8512 	 28.4573 	 54.4271
| 11> C 	 30.7092 	 28.7588 	 55.0988
| 12> H 	 32.8691 	 28.3708 	 54.9473
| 13> C 	 32.6277 	 28.258 	 51.9449
| 14> H 	 32.266 	 27.823 	 50.9872
| 15> H 	 33.2833 	 27.4549 	 52.3407
| 16> C 	 33.4557 	 29.5057 	 51.6947
| 17> H 	 32.8501 	 30.3634 	 51.4198
| 18> H 	 33.9502 	 29.8128 	 52.632
| 19> C 	 34.4174 	 29.224 	 50.572
| 20> H 	 33.9962 	 29.3064 	 49.565
| 21> H 	 35.3235 	 29.9728 	 50.6302
| 22> H 	 34.8871 	 28.2389 	 50.5622
| 23> S 	 29.1445 	 28.5251 	 57.3402
| 24> C 	 29.7517 	 29.0459 	 58.8693
| 25> C 	 30.9996 	 29.584 	 58.7492
| 26> C 	 31.5056 	 29.6325 	 57.4345
| 27> C 	 30.655 	 28.9398 	 56.549
| 28> H 	 31.249 	 30.1462 	 59.5871
| 29> C 	 32.8429 	 30.272 	 57.0656
| 30> H 	 33.5055 	 29.3951 	 56.9597
| 31> H 	 33.3243 	 30.8719 	 57.8498
| 32> C 	 32.9773 	 31.1471 	 55.7956
| 33> H 	 32.7607 	 32.1214 	 56.0269
| 34> H 	 32.3116 	 30.9192 	 55.006
| 35> C 	 34.4421 	 30.9315 	 55.2201
| 36> H 	 34.4164 	 29.9145 	 54.9408
| 37> H 	 35.2832 	 31.1195 	 55.8582
| 38> H 	 34.5216 	 31.6146 	 54.4066
| 39> H 	 29.9251 	 28.6431 	 51.6625
| 40> H 	 29.1454 	 29.0282 	 59.7744
| 41> *
| 42>
| 43>                          ****END OF INPUT****

CARTESIAN COORDINATES (ANGSTROEM)
---------------------------------
  S     29.287200   28.743400   54.129600
  C     30.260100   28.610900   52.647100
  C     31.601200   28.405600   53.005500
  C     31.851200   28.457300   54.427100
  C     30.709200   28.758800   55.098800
  H     32.869100   28.370800   54.947300
  C     32.627700   28.258000   51.944900
  H     32.266000   27.823000   50.987200
  H     33.283300   27.454900   52.340700
  C     33.455700   29.505700   51.694700
  H     32.850100   30.363400   51.419800
  H     33.950200   29.812800   52.632000
  C     34.417400   29.224000   50.572000
  H     33.996200   29.306400   49.565000
  H     35.323500   29.972800   50.630200
  H     34.887100   28.238900   50.562200
  S     29.144500   28.525100   57.340200
  C     29.751700   29.045900   58.869300
  C     30.999600   29.584000   58.749200
  C     31.505600   29.632500   57.434500
  C     30.655000   28.939800   56.549000
  H     31.249000   30.146200   59.587100
  C     32.842900   30.272000   57.065600
  H     33.505500   29.395100   56.959700
  H     33.324300   30.871900   57.849800
  C     32.977300   31.147100   55.795600
  H     32.760700   32.121400   56.026900
  H     32.311600   30.919200   55.006000
  C     34.442100   30.931500   55.220100
  H     34.416400   29.914500   54.940800
  H     35.283200   31.119500   55.858200
  H     34.521600   31.614600   54.406600
  H     29.925100   28.643100   51.662500
  H     29.145400   29.028200   59.774400

 Total Charge           Charge          ....    0
 Multiplicity           Mult            ....    1
 Number of Electrons    NEL             ....  134
 Basis Dimension        Dim             ....  322

ORBITAL ENERGIES
----------------

  NO   OCC          E(Eh)            E(eV)
   0   2.0000     -88.966787     -2420.9094
   1   2.0000     -88.963896     -2420.8307
   2   2.0000     -10.327483      -281.0251
   3   2.0000     -10.327093      -281.0145
   4   2.0000     -10.313698      -280.6500
   5   2.0000     -10.310991      -280.5763
   6   2.0000     -10.308353      -280.5046
   7   2.0000     -10.302265      -280.3389
   8   2.0000     -10.299148      -280.2541
   9   2.0000     -10.296802      -280.1902
  10   2.0000     -10.290712      -280.0245
  11   2.0000     -10.285285      -279.8768
  12   2.0000     -10.284613      -279.8586
  13   2.0000     -10.284280      -279.8495
  14   2.0000     -10.277540      -279.6661
  15   2.0000     -10.275888      -279.6211
  16   2.0000      -8.081524      -219.9094
  17   2.0000      -8.079231      -219.8471
  18   2.0000      -6.040149      -164.3608
  19   2.0000      -6.037636      -164.2924
  20   2.0000      -6.036135      -164.2516
  21   2.0000      -6.033645      -164.1838
  22   2.0000      -6.032059      -164.1407
  23   2.0000      -6.030110      -164.0876
  24   2.0000      -1.010549       -27.4984
  25   2.0000      -0.986077       -26.8325
  26   2.0000      -0.918246       -24.9867
  27   2.0000      -0.908494       -24.7214
  28   2.0000      -0.870445       -23.6860
  29   2.0000      -0.854084       -23.2408
  30   2.0000      -0.846519       -23.0349
  31   2.0000      -0.818629       -22.2760
  32   2.0000      -0.780963       -21.2511
  33   2.0000      -0.767984       -20.8979
  34   2.0000      -0.717501       -19.5242
  35   2.0000      -0.702773       -19.1234
  36   2.0000      -0.696804       -18.9610
  37   2.0000      -0.662967       -18.0402
  38   2.0000      -0.638533       -17.3754
  39   2.0000      -0.621599       -16.9146
  40   2.0000      -0.599455       -16.3120
  41   2.0000      -0.571918       -15.5627
  42   2.0000      -0.568277       -15.4636
  43   2.0000      -0.559303       -15.2194
  44   2.0000      -0.527466       -14.3531
  45   2.0000      -0.521317       -14.1858
  46   2.0000      -0.520437       -14.1618
  47   2.0000      -0.512475       -13.9451
  48   2.0000      -0.507258       -13.8032
  49   2.0000      -0.501131       -13.6365
  50   2.0000      -0.493988       -13.4421
  51   2.0000      -0.485714       -13.2170
  52   2.0000      -0.472812       -12.8659
  53   2.0000      -0.465315       -12.6619
  54   2.0000      -0.460317       -12.5259
  55   2.0000      -0.451869       -12.2960
  56   2.0000      -0.447538       -12.1781
  57   2.0000      -0.443137       -12.0584
  58   2.0000      -0.440026       -11.9737
  59   2.0000      -0.424929       -11.5629
  60   2.0000      -0.420862       -11.4522
  61   2.0000      -0.411994       -11.2109
  62   2.0000      -0.403540       -10.9809
  63   2.0000      -0.353855        -9.6289
  64   2.0000      -0.334314        -9.0972
  65   2.0000      -0.327403        -8.9091
  66   2.0000      -0.283551        -7.7158
  67   0.0000       0.023718         0.6454
  68   0.0000       0.079469         2.1625
  69   0.0000       0.099911         2.7187
  70   0.0000       0.124193         3.3795
  71   0.0000       0.130383         3.5479

MULLIKEN ATOMIC CHARGES
-----------------------
   0 S :    0.103552
   1 C :   -0.087007
   2 C :   -0.082257
   3 C :   -0.027105
   4 C :   -0.107951
   5 H :    0.041522
   6 C :    0.022933
   7 H :    0.025090
   8 H :    0.027947
   9 C :   -0.033350
  10 H :    0.027267
  11 H :    0.017947
  12 C :   -0.076873
  13 H :    0.036632
  14 H :    0.040466
  15 H :    0.027273
  16 S :    0.093436
  17 C :   -0.106785
  18 C :   -0.002903
  19 C :   -0.014687
  20 C :   -0.148677
  21 H :    0.000416
  22 C :    0.012836
  23 H :    0.039954
  24 H :    0.028320
  25 C :   -0.037719
  26 H :    0.011161
  27 H :    0.040152
  28 C :   -0.038641
  29 H :    0.017165
  30 H :    0.032654
  31 H :    0.033660
  32 H :    0.020727
  33 H :    0.062842
Sum of atomic charges:    0.0000000

LOEWDIN ATOMIC CHARGES
----------------------
   0 S :    0.399169
   1 C :   -0.185836
   2 C :   -0.054898
   3 C :   -0.077768
   4 C :   -0.194630
   5 H :    0.045926
   6 C :   -0.041071
   7 H :    0.031160
   8 H :    0.035164
   9 C :   -0.043917
  10 H :    0.026221
  11 H :    0.027137
  12 C :   -0.075103
  13 H :    0.025425
  14 H :    0.036163
  15 H :    0.022175
  16 S :    0.408228
  17 C :   -0.186068
  18 C :   -0.075280
  19 C :   -0.052671
  20 C :   -0.193247
  21 H :    0.024872
  22 C :   -0.034595
  23 H :    0.032742
  24 H :    0.035687
  25 C :   -0.023407
  26 H :    0.010862
  27 H :    0.022347
  28 C :   -0.050254
  29 H :    0.011912
  30 H :    0.022256
  31 H :    0.023222
  32 H :    0.016232
  33 H :    0.031846

  Mayer bond orders larger than 0.100000
B(  0-S ,  1-C ) :   1.1064 B(  0-S ,  4-C ) :   1.1549 B(  1-C ,  2-C ) :   1.6137
B(  1-C , 32-H ) :   0.9831 B(  2-C ,  3-C ) :   1.2172 B(  2-C ,  6-C ) :   1.0383
B(  3-C ,  4-C ) :   1.5638 B(  3-C ,  5-H ) :   0.9795 B(  4-C , 20-C ) :   1.0661
B(  6-C ,  7-H ) :   0.9461 B(  6-C ,  8-H ) :   0.9284 B(  6-C ,  9-C ) :   1.0666
B(  9-C , 10-H ) :   0.9511 B(  9-C , 11-H ) :   0.9461 B(  9-C , 12-C ) :   1.0780
B( 12-C , 13-H ) :   0.9752 B( 12-C , 14-H ) :   0.9732 B( 12-C , 15-H ) :   0.9729
B( 16-S , 17-C ) :   1.1667 B( 16-S , 20-C ) :   1.1458 B( 17-C , 18-C ) :   1.6010
B( 17-C , 33-H ) :   0.9655 B( 18-C , 19-C ) :   1.2643 B( 18-C , 21-H ) :   0.9933
B( 19-C , 20-C ) :   1.5518 B( 19-C , 22-C ) :   1.0185 B( 22-C , 23-H ) :   0.9484
B( 22-C , 24-H ) :   0.9416 B( 22-C , 25-C ) :   1.0412 B( 25-C , 26-H ) :   0.9560
B( 25-C , 27-H ) :   0.9596 B( 25-C , 28-C ) :   1.0704 B( 28-C , 29-H ) :   0.9704
B( 28-C , 30-H ) :   0.9731 B( 28-C , 31-H ) :   0.9702

Dispersion correction           -0.015915461
FINAL SINGLE POINT ENERGY     -1339.864616072536

DIPOLE MOMENT
-------------
                                X             Y             Z
Electronic contribution:    -28.79940      -8.79876      15.30544
Nuclear contribution   :     29.37456       9.16165     -15.38178
                        -----------------------------------------
Total Dipole Moment    :      0.57515       0.36289      -0.07634
                        -----------------------------------------
Magnitude (a.u.)       :      0.68434
Magnitude (Debye)      :      1.73945

Rotational constants in cm-1:     0.022332     0.009376     0.006940
Rotational constants in MHz :   669.487891   281.092805   208.066838

                             ****ORCA TERMINATED NORMALLY****
TOTAL RUN TIME: 0 days 0 hours 0 minutes 36 seconds 407 msec
