                         Program Version 4.2.1 -  RELEASE  -
|  1> ! wB97X-D3 SP def2-SVP
|  2> %pal
|  3> nprocs 16
|  4> end
|  5>
|  6> * xyz 0 1
|  7> S 	 41.3271 	 13.3509 	 83.3115
|  8> C 	 41.4381 	 11.5302 	 83.3651
|  9> C 	 42.7499 	 11.0399 	 83.2284
| 10> C 	 43.6338 	 12.2253 	 83.2317
| 11> C 	 43.0696 	 13.4607 	 83.4373
| 12> H 	 44.703 	 12.0631 	 83.183
| 13> C 	 43.3164 	 9.59626 	 83.4036
| 14> H 	 43.9104 	 9.24464 	 82.5682
| 15> H 	 42.365 	 8.97145 	 83.4535
| 16> C 	 44.1254 	 9.29658 	 84.6998
| 17> H 	 44.4568 	 8.25812 	 84.552
| 18> H 	 45.0311 	 9.82376 	 84.7116
| 19> C 	 43.2934 	 9.35727 	 86.0006
| 20> H 	 42.3855 	 8.84881 	 85.7766
| 21> H 	 43.8821 	 8.82034 	 86.7591
| 22> H 	 43.2497 	 10.4622 	 86.3402
| 23> S 	 43.3726 	 15.8856 	 82.154
| 24> C 	 44.9077 	 16.7309 	 82.231
| 25> C 	 45.7256 	 16.1817 	 83.2003
| 26> C 	 45.1001 	 15.0823 	 83.9707
| 27> C 	 43.8797 	 14.6944 	 83.4437
| 28> H 	 46.6844 	 16.5463 	 83.5231
| 29> C 	 45.8547 	 14.3298 	 85.0798
| 30> H 	 46.4161 	 13.485 	 84.6361
| 31> H 	 45.0899 	 13.9382 	 85.7434
| 32> C 	 46.713 	 15.1168 	 86.0105
| 33> H 	 47.4923 	 15.6675 	 85.5267
| 34> H 	 47.283 	 14.4541 	 86.666
| 35> C 	 45.9461 	 16.0195 	 87.0224
| 36> H 	 46.5979 	 16.5981 	 87.6272
| 37> H 	 45.2482 	 15.3926 	 87.643
| 38> H 	 45.2403 	 16.6224 	 86.4426
| 39> H 	 40.632 	 10.7978 	 83.3828
| 40> H 	 45.098 	 17.6001 	 81.577
| 41> *
| 42>
| 43>                          ****END OF INPUT****

CARTESIAN COORDINATES (ANGSTROEM)
---------------------------------
  S     41.327100   13.350900   83.311500
  C     41.438100   11.530200   83.365100
  C     42.749900   11.039900   83.228400
  C     43.633800   12.225300   83.231700
  C     43.069600   13.460700   83.437300
  H     44.703000   12.063100   83.183000
  C     43.316400    9.596260   83.403600
  H     43.910400    9.244640   82.568200
  H     42.365000    8.971450   83.453500
  C     44.125400    9.296580   84.699800
  H     44.456800    8.258120   84.552000
  H     45.031100    9.823760   84.711600
  C     43.293400    9.357270   86.000600
  H     42.385500    8.848810   85.776600
  H     43.882100    8.820340   86.759100
  H     43.249700   10.462200   86.340200
  S     43.372600   15.885600   82.154000
  C     44.907700   16.730900   82.231000
  C     45.725600   16.181700   83.200300
  C     45.100100   15.082300   83.970700
  C     43.879700   14.694400   83.443700
  H     46.684400   16.546300   83.523100
  C     45.854700   14.329800   85.079800
  H     46.416100   13.485000   84.636100
  H     45.089900   13.938200   85.743400
  C     46.713000   15.116800   86.010500
  H     47.492300   15.667500   85.526700
  H     47.283000   14.454100   86.666000
  C     45.946100   16.019500   87.022400
  H     46.597900   16.598100   87.627200
  H     45.248200   15.392600   87.643000
  H     45.240300   16.622400   86.442600
  H     40.632000   10.797800   83.382800
  H     45.098000   17.600100   81.577000

 Total Charge           Charge          ....    0
 Multiplicity           Mult            ....    1
 Number of Electrons    NEL             ....  134
 Basis Dimension        Dim             ....  322

ORBITAL ENERGIES
----------------

  NO   OCC          E(Eh)            E(eV)
   0   2.0000     -88.971521     -2421.0382
   1   2.0000     -88.959213     -2420.7033
   2   2.0000     -10.335197      -281.2350
   3   2.0000     -10.333553      -281.1903
   4   2.0000     -10.326151      -280.9889
   5   2.0000     -10.325603      -280.9740
   6   2.0000     -10.311856      -280.5999
   7   2.0000     -10.311778      -280.5977
   8   2.0000     -10.307996      -280.4948
   9   2.0000     -10.300039      -280.2783
  10   2.0000     -10.295168      -280.1458
  11   2.0000     -10.295032      -280.1421
  12   2.0000     -10.288592      -279.9668
  13   2.0000     -10.285596      -279.8853
  14   2.0000     -10.284439      -279.8538
  15   2.0000     -10.278522      -279.6928
  16   2.0000      -8.084814      -219.9990
  17   2.0000      -8.073526      -219.6918
  18   2.0000      -6.043695      -164.4573
  19   2.0000      -6.039774      -164.3506
  20   2.0000      -6.035000      -164.2207
  21   2.0000      -6.032156      -164.1433
  22   2.0000      -6.028168      -164.0348
  23   2.0000      -6.024087      -163.9237
  24   2.0000      -0.995757       -27.0959
  25   2.0000      -0.971693       -26.4411
  26   2.0000      -0.912803       -24.8386
  27   2.0000      -0.908286       -24.7157
  28   2.0000      -0.865517       -23.5519
  29   2.0000      -0.846456       -23.0332
  30   2.0000      -0.835945       -22.7472
  31   2.0000      -0.807469       -21.9723
  32   2.0000      -0.783581       -21.3223
  33   2.0000      -0.777285       -21.1510
  34   2.0000      -0.708307       -19.2740
  35   2.0000      -0.698694       -19.0124
  36   2.0000      -0.692510       -18.8442
  37   2.0000      -0.656557       -17.8658
  38   2.0000      -0.632374       -17.2078
  39   2.0000      -0.616455       -16.7746
  40   2.0000      -0.600219       -16.3328
  41   2.0000      -0.563715       -15.3395
  42   2.0000      -0.562363       -15.3027
  43   2.0000      -0.556356       -15.1392
  44   2.0000      -0.542687       -14.7673
  45   2.0000      -0.532664       -14.4945
  46   2.0000      -0.516889       -14.0653
  47   2.0000      -0.511300       -13.9132
  48   2.0000      -0.501181       -13.6378
  49   2.0000      -0.493942       -13.4408
  50   2.0000      -0.483468       -13.1558
  51   2.0000      -0.477229       -12.9861
  52   2.0000      -0.468986       -12.7618
  53   2.0000      -0.460624       -12.5342
  54   2.0000      -0.458009       -12.4631
  55   2.0000      -0.448268       -12.1980
  56   2.0000      -0.442583       -12.0433
  57   2.0000      -0.436196       -11.8695
  58   2.0000      -0.431965       -11.7544
  59   2.0000      -0.428003       -11.6465
  60   2.0000      -0.425185       -11.5699
  61   2.0000      -0.414236       -11.2719
  62   2.0000      -0.404589       -11.0094
  63   2.0000      -0.346934        -9.4406
  64   2.0000      -0.330135        -8.9834
  65   2.0000      -0.326624        -8.8879
  66   2.0000      -0.293413        -7.9842
  67   0.0000       0.027190         0.7399
  68   0.0000       0.064714         1.7609
  69   0.0000       0.095120         2.5883
  70   0.0000       0.114917         3.1271
  71   0.0000       0.124423         3.3857

MULLIKEN ATOMIC CHARGES
-----------------------
   0 S :    0.107399
   1 C :   -0.114716
   2 C :   -0.080786
   3 C :    0.007508
   4 C :   -0.114486
   5 H :    0.007728
   6 C :    0.023343
   7 H :    0.043992
   8 H :    0.026768
   9 C :   -0.076705
  10 H :    0.025775
  11 H :    0.017844
  12 C :   -0.046092
  13 H :    0.029972
  14 H :    0.038116
  15 H :    0.064080
  16 S :    0.064256
  17 C :   -0.091517
  18 C :   -0.009142
  19 C :   -0.092240
  20 C :   -0.125942
  21 H :    0.014448
  22 C :    0.066061
  23 H :    0.052440
  24 H :    0.026050
  25 C :   -0.075740
  26 H :    0.016220
  27 H :    0.021189
  28 C :   -0.051010
  29 H :    0.037103
  30 H :    0.029122
  31 H :    0.034982
  32 H :    0.045643
  33 H :    0.078337
Sum of atomic charges:   -0.0000000

LOEWDIN ATOMIC CHARGES
----------------------
   0 S :    0.373834
   1 C :   -0.174314
   2 C :   -0.060926
   3 C :   -0.055714
   4 C :   -0.202115
   5 H :    0.024308
   6 C :   -0.031761
   7 H :    0.032978
   8 H :    0.033912
   9 C :   -0.040369
  10 H :    0.027135
  11 H :    0.012916
  12 C :   -0.063362
  13 H :    0.020887
  14 H :    0.028729
  15 H :    0.042571
  16 S :    0.359664
  17 C :   -0.176672
  18 C :   -0.072491
  19 C :   -0.055849
  20 C :   -0.164591
  21 H :    0.026148
  22 C :   -0.034178
  23 H :    0.037795
  24 H :    0.035028
  25 C :   -0.046042
  26 H :    0.014241
  27 H :    0.027464
  28 C :   -0.060283
  29 H :    0.021019
  30 H :    0.028879
  31 H :    0.025612
  32 H :    0.027821
  33 H :    0.037723

  Mayer bond orders larger than 0.100000
B(  0-S ,  1-C ) :   1.1155 B(  0-S ,  4-C ) :   1.1086 B(  1-C ,  2-C ) :   1.6595
B(  1-C , 32-H ) :   0.9573 B(  2-C ,  3-C ) :   1.2016 B(  2-C ,  6-C ) :   1.0189
B(  3-C ,  4-C ) :   1.6123 B(  3-C ,  5-H ) :   0.9896 B(  4-C , 20-C ) :   1.0355
B(  6-C ,  7-H ) :   0.9421 B(  6-C ,  8-H ) :   0.9438 B(  6-C ,  9-C ) :   1.0752
B(  9-C , 10-H ) :   0.9529 B(  9-C , 11-H ) :   0.9541 B(  9-C , 12-C ) :   1.0684
B( 12-C , 13-H ) :   0.9754 B( 12-C , 14-H ) :   0.9750 B( 12-C , 15-H ) :   0.9745
B( 16-S , 17-C ) :   1.1496 B( 16-S , 20-C ) :   1.1044 B( 17-C , 18-C ) :   1.6150
B( 17-C , 33-H ) :   0.9660 B( 18-C , 19-C ) :   1.2099 B( 18-C , 21-H ) :   0.9898
B( 19-C , 20-C ) :   1.6553 B( 19-C , 22-C ) :   1.0288 B( 22-C , 23-H ) :   0.9321
B( 22-C , 24-H ) :   0.9386 B( 22-C , 25-C ) :   1.0813 B( 25-C , 26-H ) :   0.9519
B( 25-C , 27-H ) :   0.9491 B( 25-C , 28-C ) :   1.0731 B( 28-C , 29-H ) :   0.9761
B( 28-C , 30-H ) :   0.9718 B( 28-C , 31-H ) :   0.9790

Dispersion correction           -0.014315988
FINAL SINGLE POINT ENERGY     -1339.859384493258

DIPOLE MOMENT
-------------
                                X             Y             Z
Electronic contribution:    -15.42361      14.22672     -19.12563
Nuclear contribution   :     16.15864     -14.79099      19.42290
                        -----------------------------------------
Total Dipole Moment    :      0.73503      -0.56427       0.29728
                        -----------------------------------------
Magnitude (a.u.)       :      0.97316
Magnitude (Debye)      :      2.47358

Rotational constants in cm-1:     0.017374     0.009112     0.006808
Rotational constants in MHz :   520.872070   273.159809   204.090562

                             ****ORCA TERMINATED NORMALLY****
TOTAL RUN TIME: 0 days 0 hours 0 minutes 30 seconds 110 msec
