                         Program Version 4.2.1 -  RELEASE  -
|  1> ! wB97X-D3 SP def2-SVP
|  2> %pal
|  3> nprocs 16
|  4> end
|  5>
|  6> * xyz 0 1
|  7> S 	 -106.947 	 58.864 	 117.487
|  8> C 	 -105.757 	 58.9361 	 118.745
|  9> C 	 -106.432 	 58.9474 	 119.983
| 10> C 	 -107.874 	 58.8856 	 119.892
| 11> C 	 -108.31 	 58.8592 	 118.593
| 12> H 	 -108.549 	 58.9699 	 120.692
| 13> C 	 -105.689 	 59.0795 	 121.301
| 14> H 	 -105.977 	 60.0395 	 121.591
| 15> H 	 -104.575 	 59.2675 	 121.268
| 16> C 	 -106.082 	 58.141 	 122.4
| 17> H 	 -105.935 	 58.605 	 123.341
| 18> H 	 -107.104 	 57.8097 	 122.313
| 19> C 	 -105.217 	 56.8235 	 122.288
| 20> H 	 -104.095 	 56.8543 	 122.244
| 21> H 	 -105.467 	 56.176 	 123.151
| 22> H 	 -105.479 	 56.2606 	 121.377
| 23> S 	 -110.381 	 57.2736 	 117.916
| 24> C 	 -111.915 	 57.9396 	 117.415
| 25> C 	 -111.799 	 59.3072 	 117.325
| 26> C 	 -110.523 	 59.8708 	 117.604
| 27> C 	 -109.66 	 58.8765 	 118.094
| 28> H 	 -112.654 	 59.8882 	 117.038
| 29> C 	 -110.201 	 61.3885 	 117.598
| 30> H 	 -110.617 	 61.8308 	 116.673
| 31> H 	 -109.126 	 61.6944 	 117.455
| 32> C 	 -110.636 	 62.0746 	 118.944
| 33> H 	 -110.302 	 63.0746 	 119
| 34> H 	 -110.107 	 61.5129 	 119.728
| 35> C 	 -112.17 	 62.1569 	 119.091
| 36> H 	 -112.555 	 61.1929 	 119.361
| 37> H 	 -112.715 	 62.5597 	 118.195
| 38> H 	 -112.422 	 62.7897 	 119.969
| 39> H 	 -104.666 	 58.8408 	 118.672
| 40> H 	 -112.851 	 57.4654 	 117.206
| 41> *
| 42>
| 43>                          ****END OF INPUT****

CARTESIAN COORDINATES (ANGSTROEM)
---------------------------------
  S    -106.947000   58.864000  117.487000
  C    -105.757000   58.936100  118.745000
  C    -106.432000   58.947400  119.983000
  C    -107.874000   58.885600  119.892000
  C    -108.310000   58.859200  118.593000
  H    -108.549000   58.969900  120.692000
  C    -105.689000   59.079500  121.301000
  H    -105.977000   60.039500  121.591000
  H    -104.575000   59.267500  121.268000
  C    -106.082000   58.141000  122.400000
  H    -105.935000   58.605000  123.341000
  H    -107.104000   57.809700  122.313000
  C    -105.217000   56.823500  122.288000
  H    -104.095000   56.854300  122.244000
  H    -105.467000   56.176000  123.151000
  H    -105.479000   56.260600  121.377000
  S    -110.381000   57.273600  117.916000
  C    -111.915000   57.939600  117.415000
  C    -111.799000   59.307200  117.325000
  C    -110.523000   59.870800  117.604000
  C    -109.660000   58.876500  118.094000
  H    -112.654000   59.888200  117.038000
  C    -110.201000   61.388500  117.598000
  H    -110.617000   61.830800  116.673000
  H    -109.126000   61.694400  117.455000
  C    -110.636000   62.074600  118.944000
  H    -110.302000   63.074600  119.000000
  H    -110.107000   61.512900  119.728000
  C    -112.170000   62.156900  119.091000
  H    -112.555000   61.192900  119.361000
  H    -112.715000   62.559700  118.195000
  H    -112.422000   62.789700  119.969000
  H    -104.666000   58.840800  118.672000
  H    -112.851000   57.465400  117.206000

 Total Charge           Charge          ....    0
 Multiplicity           Mult            ....    1
 Number of Electrons    NEL             ....  134
 Basis Dimension        Dim             ....  322

ORBITAL ENERGIES
----------------

  NO   OCC          E(Eh)            E(eV)
   0   2.0000     -88.965402     -2420.8717
   1   2.0000     -88.963570     -2420.8218
   2   2.0000     -10.328383      -281.0496
   3   2.0000     -10.327514      -281.0260
   4   2.0000     -10.315486      -280.6986
   5   2.0000     -10.315414      -280.6967
   6   2.0000     -10.310285      -280.5571
   7   2.0000     -10.305744      -280.4336
   8   2.0000     -10.300484      -280.2904
   9   2.0000     -10.295275      -280.1487
  10   2.0000     -10.290993      -280.0322
  11   2.0000     -10.286877      -279.9201
  12   2.0000     -10.286238      -279.9028
  13   2.0000     -10.284936      -279.8673
  14   2.0000     -10.280471      -279.7458
  15   2.0000     -10.279181      -279.7107
  16   2.0000      -8.079838      -219.8636
  17   2.0000      -8.078304      -219.8218
  18   2.0000      -6.038359      -164.3121
  19   2.0000      -6.036865      -164.2714
  20   2.0000      -6.034262      -164.2006
  21   2.0000      -6.032570      -164.1546
  22   2.0000      -6.030710      -164.1040
  23   2.0000      -6.029251      -164.0642
  24   2.0000      -1.006108       -27.3776
  25   2.0000      -0.982695       -26.7405
  26   2.0000      -0.913242       -24.8506
  27   2.0000      -0.901030       -24.5183
  28   2.0000      -0.871146       -23.7051
  29   2.0000      -0.843234       -22.9456
  30   2.0000      -0.842278       -22.9196
  31   2.0000      -0.814983       -22.1768
  32   2.0000      -0.780987       -21.2517
  33   2.0000      -0.769894       -20.9499
  34   2.0000      -0.713541       -19.4164
  35   2.0000      -0.697521       -18.9805
  36   2.0000      -0.689017       -18.7491
  37   2.0000      -0.659829       -17.9549
  38   2.0000      -0.644888       -17.5483
  39   2.0000      -0.624285       -16.9877
  40   2.0000      -0.595333       -16.1998
  41   2.0000      -0.570899       -15.5350
  42   2.0000      -0.552879       -15.0446
  43   2.0000      -0.550321       -14.9750
  44   2.0000      -0.535406       -14.5691
  45   2.0000      -0.530922       -14.4471
  46   2.0000      -0.517114       -14.0714
  47   2.0000      -0.512624       -13.9492
  48   2.0000      -0.507833       -13.8188
  49   2.0000      -0.490938       -13.3591
  50   2.0000      -0.484717       -13.1898
  51   2.0000      -0.482371       -13.1260
  52   2.0000      -0.473489       -12.8843
  53   2.0000      -0.463897       -12.6233
  54   2.0000      -0.461878       -12.5683
  55   2.0000      -0.445716       -12.1285
  56   2.0000      -0.438476       -11.9315
  57   2.0000      -0.435872       -11.8607
  58   2.0000      -0.432027       -11.7560
  59   2.0000      -0.421601       -11.4724
  60   2.0000      -0.418492       -11.3878
  61   2.0000      -0.414320       -11.2742
  62   2.0000      -0.407936       -11.1005
  63   2.0000      -0.337175        -9.1750
  64   2.0000      -0.330857        -9.0031
  65   2.0000      -0.317223        -8.6321
  66   2.0000      -0.309330        -8.4173
  67   0.0000       0.042924         1.1680
  68   0.0000       0.052448         1.4272
  69   0.0000       0.119313         3.2467
  70   0.0000       0.121827         3.3151
  71   0.0000       0.133602         3.6355

MULLIKEN ATOMIC CHARGES
-----------------------
   0 S :    0.120744
   1 C :   -0.125270
   2 C :   -0.103639
   3 C :    0.073399
   4 C :   -0.158081
   5 H :   -0.001086
   6 C :    0.069721
   7 H :    0.011519
   8 H :    0.024641
   9 C :   -0.035133
  10 H :    0.022252
  11 H :    0.032907
  12 C :   -0.102076
  13 H :    0.034515
  14 H :    0.034640
  15 H :    0.038485
  16 S :    0.117485
  17 C :   -0.067210
  18 C :   -0.054474
  19 C :    0.021159
  20 C :   -0.215344
  21 H :    0.010876
  22 C :    0.026237
  23 H :    0.028411
  24 H :    0.037975
  25 C :   -0.043483
  26 H :    0.022310
  27 H :    0.033149
  28 C :   -0.073481
  29 H :    0.034132
  30 H :    0.043103
  31 H :    0.033180
  32 H :    0.060615
  33 H :    0.047820
Sum of atomic charges:    0.0000000

LOEWDIN ATOMIC CHARGES
----------------------
   0 S :    0.414575
   1 C :   -0.214986
   2 C :   -0.056162
   3 C :   -0.054532
   4 C :   -0.200141
   5 H :    0.025000
   6 C :   -0.041254
   7 H :    0.025914
   8 H :    0.037459
   9 C :   -0.031163
  10 H :    0.020170
  11 H :    0.027245
  12 C :   -0.077363
  13 H :    0.025518
  14 H :    0.024757
  15 H :    0.027520
  16 S :    0.411910
  17 C :   -0.188889
  18 C :   -0.072516
  19 C :   -0.048820
  20 C :   -0.199644
  21 H :    0.026948
  22 C :   -0.037408
  23 H :    0.029773
  24 H :    0.037908
  25 C :   -0.033069
  26 H :    0.017240
  27 H :    0.029010
  28 C :   -0.072936
  29 H :    0.020327
  30 H :    0.030370
  31 H :    0.028612
  32 H :    0.037527
  33 H :    0.031099

  Mayer bond orders larger than 0.100000
B(  0-S ,  1-C ) :   1.1385 B(  0-S ,  4-C ) :   1.1596 B(  1-C ,  2-C ) :   1.5952
B(  1-C , 32-H ) :   0.9698 B(  2-C ,  3-C ) :   1.2333 B(  2-C ,  6-C ) :   1.0175
B(  3-C ,  4-C ) :   1.5832 B(  3-C ,  5-H ) :   0.9973 B(  4-C , 20-C ) :   1.0138
B(  6-C ,  7-H ) :   0.9265 B(  6-C ,  8-H ) :   0.9457 B(  6-C ,  9-C ) :   1.0776
B(  9-C , 10-H ) :   0.9546 B(  9-C , 11-H ) :   0.9564 B(  9-C , 12-C ) :   1.0628
B( 12-C , 13-H ) :   0.9792 B( 12-C , 14-H ) :   0.9771 B( 12-C , 15-H ) :   0.9784
B( 16-S , 17-C ) :   1.1459 B( 16-S , 20-C ) :   1.1657 B( 17-C , 18-C ) :   1.6138
B( 17-C , 20-C ) :   0.1082 B( 17-C , 33-H ) :   0.9694 B( 18-C , 19-C ) :   1.2492
B( 18-C , 21-H ) :   0.9831 B( 19-C , 20-C ) :   1.5725 B( 19-C , 22-C ) :   1.0394
B( 22-C , 23-H ) :   0.9402 B( 22-C , 24-H ) :   0.9408 B( 22-C , 25-C ) :   1.0645
B( 25-C , 26-H ) :   0.9593 B( 25-C , 27-H ) :   0.9539 B( 25-C , 28-C ) :   1.0761
B( 28-C , 29-H ) :   0.9728 B( 28-C , 30-H ) :   0.9745 B( 28-C , 31-H ) :   0.9729

Dispersion correction           -0.014803621
FINAL SINGLE POINT ENERGY     -1339.874709092042

DIPOLE MOMENT
-------------
                                X             Y             Z
Electronic contribution:     -1.54389     -10.50373     -17.63152
Nuclear contribution   :      1.44022      10.96877      18.06456
                        -----------------------------------------
Total Dipole Moment    :     -0.10367       0.46504       0.43304
                        -----------------------------------------
Magnitude (a.u.)       :      0.64385
Magnitude (Debye)      :      1.63653

Rotational constants in cm-1:     0.020635     0.007832     0.007204
Rotational constants in MHz :   618.611841   234.803380   215.976081

                             ****ORCA TERMINATED NORMALLY****
TOTAL RUN TIME: 0 days 0 hours 0 minutes 32 seconds 759 msec
