                         Program Version 4.2.1 -  RELEASE  -
|  1> ! wB97X-D3 SP def2-SVP
|  2> %pal
|  3> nprocs 16
|  4> end
|  5>
|  6> * xyz 0 1
|  7> S 	 71.9621 	 30.5765 	 69.9216
|  8> C 	 71.8297 	 30.8762 	 68.1685
|  9> C 	 71.6871 	 29.6733 	 67.442
| 10> C 	 71.7975 	 28.4994 	 68.2799
| 11> C 	 71.9058 	 28.803 	 69.6505
| 12> H 	 71.7699 	 27.3991 	 67.9792
| 13> C 	 71.5788 	 29.6582 	 65.9278
| 14> H 	 71.5559 	 28.527 	 65.7938
| 15> H 	 72.4929 	 29.9667 	 65.4016
| 16> C 	 70.4511 	 30.4325 	 65.3404
| 17> H 	 70.4787 	 31.4364 	 65.6804
| 18> H 	 70.6207 	 30.502 	 64.2341
| 19> C 	 69.0953 	 29.8664 	 65.6676
| 20> H 	 69.0534 	 28.7889 	 65.4565
| 21> H 	 68.8905 	 29.9495 	 66.7631
| 22> H 	 68.3196 	 30.5031 	 65.2285
| 23> S 	 73.3173 	 28.0878 	 71.9793
| 24> C 	 72.5647 	 26.9377 	 73.0119
| 25> C 	 71.3928 	 26.388 	 72.5309
| 26> C 	 71.1163 	 26.8913 	 71.235
| 27> C 	 71.9951 	 27.8978 	 70.8161
| 28> H 	 70.8088 	 25.625 	 73.0913
| 29> C 	 69.8162 	 26.5165 	 70.6018
| 30> H 	 69.6486 	 27.2074 	 69.7442
| 31> H 	 68.9325 	 26.6049 	 71.2104
| 32> C 	 69.7101 	 25.0199 	 70.0168
| 33> H 	 68.6662 	 24.9239 	 69.6448
| 34> H 	 69.9165 	 24.3653 	 70.8891
| 35> C 	 70.817 	 24.8112 	 68.932
| 36> H 	 70.628 	 23.8696 	 68.4219
| 37> H 	 71.8812 	 24.8451 	 69.3848
| 38> H 	 70.7837 	 25.6282 	 68.1685
| 39> H 	 71.8127 	 31.8742 	 67.7149
| 40> H 	 72.8221 	 26.5848 	 74.0177
| 41> *
| 42>
| 43>                          ****END OF INPUT****

CARTESIAN COORDINATES (ANGSTROEM)
---------------------------------
  S     71.962100   30.576500   69.921600
  C     71.829700   30.876200   68.168500
  C     71.687100   29.673300   67.442000
  C     71.797500   28.499400   68.279900
  C     71.905800   28.803000   69.650500
  H     71.769900   27.399100   67.979200
  C     71.578800   29.658200   65.927800
  H     71.555900   28.527000   65.793800
  H     72.492900   29.966700   65.401600
  C     70.451100   30.432500   65.340400
  H     70.478700   31.436400   65.680400
  H     70.620700   30.502000   64.234100
  C     69.095300   29.866400   65.667600
  H     69.053400   28.788900   65.456500
  H     68.890500   29.949500   66.763100
  H     68.319600   30.503100   65.228500
  S     73.317300   28.087800   71.979300
  C     72.564700   26.937700   73.011900
  C     71.392800   26.388000   72.530900
  C     71.116300   26.891300   71.235000
  C     71.995100   27.897800   70.816100
  H     70.808800   25.625000   73.091300
  C     69.816200   26.516500   70.601800
  H     69.648600   27.207400   69.744200
  H     68.932500   26.604900   71.210400
  C     69.710100   25.019900   70.016800
  H     68.666200   24.923900   69.644800
  H     69.916500   24.365300   70.889100
  C     70.817000   24.811200   68.932000
  H     70.628000   23.869600   68.421900
  H     71.881200   24.845100   69.384800
  H     70.783700   25.628200   68.168500
  H     71.812700   31.874200   67.714900
  H     72.822100   26.584800   74.017700

 Total Charge           Charge          ....    0
 Multiplicity           Mult            ....    1
 Number of Electrons    NEL             ....  134
 Basis Dimension        Dim             ....  322

ORBITAL ENERGIES
----------------

  NO   OCC          E(Eh)            E(eV)
   0   2.0000     -88.972941     -2421.0768
   1   2.0000     -88.968835     -2420.9651
   2   2.0000     -10.337862      -281.3075
   3   2.0000     -10.331257      -281.1278
   4   2.0000     -10.320790      -280.8430
   5   2.0000     -10.317141      -280.7437
   6   2.0000     -10.307564      -280.4831
   7   2.0000     -10.307355      -280.4774
   8   2.0000     -10.303444      -280.3710
   9   2.0000     -10.298133      -280.2265
  10   2.0000     -10.294131      -280.1175
  11   2.0000     -10.293940      -280.1123
  12   2.0000     -10.288874      -279.9745
  13   2.0000     -10.288723      -279.9704
  14   2.0000     -10.283213      -279.8205
  15   2.0000     -10.276583      -279.6400
  16   2.0000      -8.087436      -220.0703
  17   2.0000      -8.082070      -219.9243
  18   2.0000      -6.045948      -164.5186
  19   2.0000      -6.041952      -164.4099
  20   2.0000      -6.040627      -164.3738
  21   2.0000      -6.038223      -164.3084
  22   2.0000      -6.036780      -164.2691
  23   2.0000      -6.032870      -164.1627
  24   2.0000      -1.002715       -27.2853
  25   2.0000      -0.976542       -26.5731
  26   2.0000      -0.917006       -24.9530
  27   2.0000      -0.901688       -24.5362
  28   2.0000      -0.863751       -23.5039
  29   2.0000      -0.846667       -23.0390
  30   2.0000      -0.843315       -22.9478
  31   2.0000      -0.810526       -22.0555
  32   2.0000      -0.779930       -21.2230
  33   2.0000      -0.767441       -20.8831
  34   2.0000      -0.704991       -19.1838
  35   2.0000      -0.701805       -19.0971
  36   2.0000      -0.687714       -18.7136
  37   2.0000      -0.655078       -17.8256
  38   2.0000      -0.634490       -17.2653
  39   2.0000      -0.609824       -16.5942
  40   2.0000      -0.592031       -16.1100
  41   2.0000      -0.573901       -15.6166
  42   2.0000      -0.556170       -15.1341
  43   2.0000      -0.545511       -14.8441
  44   2.0000      -0.541024       -14.7220
  45   2.0000      -0.532369       -14.4865
  46   2.0000      -0.515268       -14.0212
  47   2.0000      -0.506124       -13.7723
  48   2.0000      -0.501591       -13.6490
  49   2.0000      -0.494010       -13.4427
  50   2.0000      -0.489448       -13.3186
  51   2.0000      -0.478384       -13.0175
  52   2.0000      -0.466651       -12.6982
  53   2.0000      -0.457375       -12.4458
  54   2.0000      -0.453753       -12.3472
  55   2.0000      -0.451223       -12.2784
  56   2.0000      -0.443476       -12.0676
  57   2.0000      -0.435967       -11.8633
  58   2.0000      -0.430624       -11.7179
  59   2.0000      -0.427828       -11.6418
  60   2.0000      -0.419338       -11.4108
  61   2.0000      -0.416381       -11.3303
  62   2.0000      -0.405209       -11.0263
  63   2.0000      -0.342385        -9.3168
  64   2.0000      -0.334047        -9.0899
  65   2.0000      -0.330484        -8.9929
  66   2.0000      -0.291504        -7.9322
  67   0.0000       0.026103         0.7103
  68   0.0000       0.063310         1.7228
  69   0.0000       0.107772         2.9326
  70   0.0000       0.120389         3.2760
  71   0.0000       0.122614         3.3365

MULLIKEN ATOMIC CHARGES
-----------------------
   0 S :    0.105582
   1 C :   -0.134992
   2 C :   -0.106095
   3 C :    0.031192
   4 C :   -0.170758
   5 H :    0.035563
   6 C :    0.041972
   7 H :    0.021022
   8 H :    0.044137
   9 C :   -0.054418
  10 H :    0.015152
  11 H :    0.033095
  12 C :   -0.056227
  13 H :    0.033157
  14 H :    0.039192
  15 H :    0.036086
  16 S :    0.136236
  17 C :   -0.076427
  18 C :   -0.067075
  19 C :    0.009920
  20 C :   -0.178515
  21 H :    0.037846
  22 C :    0.006995
  23 H :    0.028427
  24 H :    0.032908
  25 C :   -0.090361
  26 H :    0.045929
  27 H :    0.036742
  28 C :   -0.090845
  29 H :    0.040479
  30 H :    0.065787
  31 H :    0.032823
  32 H :    0.062443
  33 H :    0.053027
Sum of atomic charges:    0.0000000

LOEWDIN ATOMIC CHARGES
----------------------
   0 S :    0.380443
   1 C :   -0.191830
   2 C :   -0.066004
   3 C :   -0.072796
   4 C :   -0.179456
   5 H :    0.044023
   6 C :   -0.040109
   7 H :    0.033972
   8 H :    0.035923
   9 C :   -0.046316
  10 H :    0.019141
  11 H :    0.029693
  12 C :   -0.067981
  13 H :    0.025537
  14 H :    0.031354
  15 H :    0.027935
  16 S :    0.419838
  17 C :   -0.196524
  18 C :   -0.076214
  19 C :   -0.054650
  20 C :   -0.205181
  21 H :    0.040237
  22 C :   -0.037674
  23 H :    0.028967
  24 H :    0.027776
  25 C :   -0.036740
  26 H :    0.028694
  27 H :    0.022795
  28 C :   -0.077830
  29 H :    0.024584
  30 H :    0.041122
  31 H :    0.020952
  32 H :    0.031114
  33 H :    0.035204

  Mayer bond orders larger than 0.100000
B(  0-S ,  1-C ) :   1.1367 B(  0-S ,  4-C ) :   1.1491 B(  1-C ,  2-C ) :   1.5958
B(  1-C ,  4-C ) :   0.1024 B(  1-C , 32-H ) :   0.9674 B(  2-C ,  3-C ) :   1.2375
B(  2-C ,  6-C ) :   1.0002 B(  3-C ,  4-C ) :   1.5785 B(  3-C ,  5-H ) :   0.9700
B(  4-C , 20-C ) :   1.0423 B(  6-C ,  7-H ) :   0.9462 B(  6-C ,  8-H ) :   0.9403
B(  6-C ,  9-C ) :   1.0789 B(  9-C , 10-H ) :   0.9488 B(  9-C , 11-H ) :   0.9510
B(  9-C , 12-C ) :   1.0833 B( 12-C , 13-H ) :   0.9753 B( 12-C , 14-H ) :   0.9708
B( 12-C , 15-H ) :   0.9711 B( 16-S , 17-C ) :   1.1592 B( 16-S , 20-C ) :   1.1341
B( 17-C , 18-C ) :   1.6200 B( 17-C , 33-H ) :   0.9573 B( 18-C , 19-C ) :   1.2463
B( 18-C , 21-H ) :   0.9826 B( 19-C , 20-C ) :   1.5702 B( 19-C , 22-C ) :   1.0486
B( 22-C , 23-H ) :   0.9379 B( 22-C , 24-H ) :   0.9486 B( 22-C , 25-C ) :   1.0557
B( 25-C , 26-H ) :   0.9592 B( 25-C , 27-H ) :   0.9590 B( 25-C , 28-C ) :   1.0649
B( 28-C , 29-H ) :   0.9707 B( 28-C , 30-H ) :   0.9716 B( 28-C , 31-H ) :   0.9688

Dispersion correction           -0.015224000
FINAL SINGLE POINT ENERGY     -1339.879053780374

DIPOLE MOMENT
-------------
                                X             Y             Z
Electronic contribution:     15.96315      10.45462      21.04815
Nuclear contribution   :    -16.34194     -10.73605     -21.29451
                        -----------------------------------------
Total Dipole Moment    :     -0.37879      -0.28142      -0.24636
                        -----------------------------------------
Magnitude (a.u.)       :      0.53233
Magnitude (Debye)      :      1.35308

Rotational constants in cm-1:     0.020209     0.009009     0.006855
Rotational constants in MHz :   605.851578   270.082844   205.517779

                             ****ORCA TERMINATED NORMALLY****
TOTAL RUN TIME: 0 days 0 hours 0 minutes 31 seconds 279 msec
