                         Program Version 4.2.1 -  RELEASE  -
|  1> ! wB97X-D3 SP def2-SVP
|  2> %pal
|  3> nprocs 16
|  4> end
|  5>
|  6> * xyz 0 1
|  7> S 	 9.91343 	 -15.6052 	 89.9561
|  8> C 	 10.4958 	 -15.7229 	 88.3451
|  9> C 	 9.48905 	 -15.7452 	 87.4147
| 10> C 	 8.25039 	 -15.4171 	 88.0384
| 11> C 	 8.35667 	 -15.2861 	 89.4252
| 12> H 	 7.26977 	 -15.1987 	 87.6528
| 13> C 	 9.53286 	 -16.0158 	 85.9255
| 14> H 	 8.51808 	 -16.1251 	 85.6828
| 15> H 	 10.0554 	 -16.9868 	 85.785
| 16> C 	 10.19 	 -14.9452 	 85.142
| 17> H 	 9.62776 	 -14.0308 	 85.213
| 18> H 	 11.2029 	 -14.7011 	 85.2163
| 19> C 	 9.94338 	 -15.3737 	 83.6872
| 20> H 	 10.3137 	 -16.4014 	 83.4784
| 21> H 	 8.86641 	 -15.2688 	 83.4448
| 22> H 	 10.4464 	 -14.6914 	 82.9932
| 23> S 	 6.97341 	 -16.0077 	 91.7304
| 24> C 	 5.80133 	 -14.8857 	 92.4657
| 25> C 	 5.73463 	 -13.7211 	 91.7252
| 26> C 	 6.55835 	 -13.7162 	 90.4959
| 27> C 	 7.33416 	 -14.8844 	 90.3756
| 28> H 	 5.14718 	 -12.8514 	 92.1118
| 29> C 	 6.6384 	 -12.5181 	 89.5307
| 30> H 	 5.69588 	 -11.9855 	 89.8502
| 31> H 	 6.35917 	 -12.7776 	 88.4881
| 32> C 	 7.81988 	 -11.5477 	 89.5648
| 33> H 	 8.71124 	 -12.1252 	 89.433
| 34> H 	 7.93207 	 -11.1346 	 90.6223
| 35> C 	 7.79282 	 -10.3237 	 88.53
| 36> H 	 6.86384 	 -9.76051 	 88.573
| 37> H 	 7.94688 	 -10.7338 	 87.543
| 38> H 	 8.59329 	 -9.75157 	 88.8984
| 39> H 	 11.5508 	 -15.8465 	 88.089
| 40> H 	 5.27181 	 -15.0691 	 93.3358
| 41> *
| 42>
| 43>                          ****END OF INPUT****

CARTESIAN COORDINATES (ANGSTROEM)
---------------------------------
  S      9.913430  -15.605200   89.956100
  C     10.495800  -15.722900   88.345100
  C      9.489050  -15.745200   87.414700
  C      8.250390  -15.417100   88.038400
  C      8.356670  -15.286100   89.425200
  H      7.269770  -15.198700   87.652800
  C      9.532860  -16.015800   85.925500
  H      8.518080  -16.125100   85.682800
  H     10.055400  -16.986800   85.785000
  C     10.190000  -14.945200   85.142000
  H      9.627760  -14.030800   85.213000
  H     11.202900  -14.701100   85.216300
  C      9.943380  -15.373700   83.687200
  H     10.313700  -16.401400   83.478400
  H      8.866410  -15.268800   83.444800
  H     10.446400  -14.691400   82.993200
  S      6.973410  -16.007700   91.730400
  C      5.801330  -14.885700   92.465700
  C      5.734630  -13.721100   91.725200
  C      6.558350  -13.716200   90.495900
  C      7.334160  -14.884400   90.375600
  H      5.147180  -12.851400   92.111800
  C      6.638400  -12.518100   89.530700
  H      5.695880  -11.985500   89.850200
  H      6.359170  -12.777600   88.488100
  C      7.819880  -11.547700   89.564800
  H      8.711240  -12.125200   89.433000
  H      7.932070  -11.134600   90.622300
  C      7.792820  -10.323700   88.530000
  H      6.863840   -9.760510   88.573000
  H      7.946880  -10.733800   87.543000
  H      8.593290   -9.751570   88.898400
  H     11.550800  -15.846500   88.089000
  H      5.271810  -15.069100   93.335800

 Total Charge           Charge          ....    0
 Multiplicity           Mult            ....    1
 Number of Electrons    NEL             ....  134
 Basis Dimension        Dim             ....  322

ORBITAL ENERGIES
----------------

  NO   OCC          E(Eh)            E(eV)
   0   2.0000     -88.966445     -2420.9001
   1   2.0000     -88.962514     -2420.7931
   2   2.0000     -10.331528      -281.1352
   3   2.0000     -10.321159      -280.8530
   4   2.0000     -10.316787      -280.7341
   5   2.0000     -10.312372      -280.6139
   6   2.0000     -10.309068      -280.5240
   7   2.0000     -10.303372      -280.3690
   8   2.0000     -10.297768      -280.2165
   9   2.0000     -10.296507      -280.1822
  10   2.0000     -10.291012      -280.0327
  11   2.0000     -10.289883      -280.0020
  12   2.0000     -10.289516      -279.9920
  13   2.0000     -10.280201      -279.7385
  14   2.0000     -10.279275      -279.7133
  15   2.0000     -10.278800      -279.7004
  16   2.0000      -8.083047      -219.9509
  17   2.0000      -8.076217      -219.7650
  18   2.0000      -6.041273      -164.3914
  19   2.0000      -6.037242      -164.2817
  20   2.0000      -6.034898      -164.2179
  21   2.0000      -6.034036      -164.1945
  22   2.0000      -6.030809      -164.1067
  23   2.0000      -6.026918      -164.0008
  24   2.0000      -1.013134       -27.5688
  25   2.0000      -0.975928       -26.5564
  26   2.0000      -0.927312       -25.2334
  27   2.0000      -0.896346       -24.3908
  28   2.0000      -0.871727       -23.7209
  29   2.0000      -0.853044       -23.2125
  30   2.0000      -0.839940       -22.8559
  31   2.0000      -0.811078       -22.0706
  32   2.0000      -0.781317       -21.2607
  33   2.0000      -0.771712       -20.9994
  34   2.0000      -0.708437       -19.2776
  35   2.0000      -0.704956       -19.1828
  36   2.0000      -0.688926       -18.7466
  37   2.0000      -0.660879       -17.9834
  38   2.0000      -0.646852       -17.6017
  39   2.0000      -0.616577       -16.7779
  40   2.0000      -0.590989       -16.0816
  41   2.0000      -0.582061       -15.8387
  42   2.0000      -0.564341       -15.3565
  43   2.0000      -0.551852       -15.0167
  44   2.0000      -0.531801       -14.4710
  45   2.0000      -0.526968       -14.3395
  46   2.0000      -0.515604       -14.0303
  47   2.0000      -0.515091       -14.0163
  48   2.0000      -0.503826       -13.7098
  49   2.0000      -0.497828       -13.5466
  50   2.0000      -0.490280       -13.3412
  51   2.0000      -0.481083       -13.0909
  52   2.0000      -0.469858       -12.7855
  53   2.0000      -0.464657       -12.6440
  54   2.0000      -0.459784       -12.5114
  55   2.0000      -0.450616       -12.2619
  56   2.0000      -0.440969       -11.9994
  57   2.0000      -0.438760       -11.9393
  58   2.0000      -0.437501       -11.9050
  59   2.0000      -0.430557       -11.7161
  60   2.0000      -0.415871       -11.3164
  61   2.0000      -0.413359       -11.2481
  62   2.0000      -0.403096       -10.9688
  63   2.0000      -0.341976        -9.3056
  64   2.0000      -0.333080        -9.0636
  65   2.0000      -0.326659        -8.8888
  66   2.0000      -0.293506        -7.9867
  67   0.0000       0.035276         0.9599
  68   0.0000       0.064579         1.7573
  69   0.0000       0.113904         3.0995
  70   0.0000       0.121136         3.2963
  71   0.0000       0.126858         3.4520

MULLIKEN ATOMIC CHARGES
-----------------------
   0 S :    0.141272
   1 C :   -0.138252
   2 C :   -0.075360
   3 C :    0.029997
   4 C :   -0.178271
   5 H :    0.002370
   6 C :    0.102835
   7 H :    0.006878
   8 H :    0.038989
   9 C :   -0.030971
  10 H :    0.020222
  11 H :    0.025265
  12 C :   -0.075175
  13 H :    0.032999
  14 H :    0.033318
  15 H :    0.025095
  16 S :    0.083012
  17 C :   -0.064113
  18 C :   -0.049858
  19 C :   -0.033800
  20 C :   -0.161150
  21 H :    0.041103
  22 C :    0.044985
  23 H :    0.012338
  24 H :    0.027265
  25 C :   -0.087061
  26 H :    0.032092
  27 H :    0.029620
  28 C :   -0.026027
  29 H :    0.036252
  30 H :    0.038052
  31 H :    0.035845
  32 H :    0.044447
  33 H :    0.035787
Sum of atomic charges:   -0.0000000

LOEWDIN ATOMIC CHARGES
----------------------
   0 S :    0.460345
   1 C :   -0.213119
   2 C :   -0.061532
   3 C :   -0.064957
   4 C :   -0.226966
   5 H :    0.028971
   6 C :   -0.022676
   7 H :    0.027795
   8 H :    0.038642
   9 C :   -0.034184
  10 H :    0.027167
  11 H :    0.018784
  12 C :   -0.064468
  13 H :    0.023993
  14 H :    0.025693
  15 H :    0.020421
  16 S :    0.366831
  17 C :   -0.166437
  18 C :   -0.074286
  19 C :   -0.057953
  20 C :   -0.182608
  21 H :    0.039798
  22 C :   -0.047827
  23 H :    0.032437
  24 H :    0.029558
  25 C :   -0.040314
  26 H :    0.020768
  27 H :    0.028324
  28 C :   -0.052822
  29 H :    0.025265
  30 H :    0.024772
  31 H :    0.024969
  32 H :    0.028380
  33 H :    0.017235

  Mayer bond orders larger than 0.100000
B(  0-S ,  1-C ) :   1.1581 B(  0-S ,  4-C ) :   1.1888 B(  1-C ,  2-C ) :   1.5916
B(  1-C , 32-H ) :   0.9716 B(  2-C ,  3-C ) :   1.2459 B(  2-C ,  6-C ) :   1.0045
B(  3-C ,  4-C ) :   1.5575 B(  3-C ,  5-H ) :   0.9990 B(  4-C , 20-C ) :   1.0259
B(  6-C ,  7-H ) :   0.9381 B(  6-C ,  8-H ) :   0.9316 B(  6-C ,  9-C ) :   1.0872
B(  9-C , 10-H ) :   0.9481 B(  9-C , 11-H ) :   0.9584 B(  9-C , 12-C ) :   1.0832
B( 12-C , 13-H ) :   0.9723 B( 12-C , 14-H ) :   0.9784 B( 12-C , 15-H ) :   0.9738
B( 16-S , 17-C ) :   1.1303 B( 16-S , 20-C ) :   1.1305 B( 17-C , 18-C ) :   1.6412
B( 17-C , 33-H ) :   0.9765 B( 18-C , 19-C ) :   1.2204 B( 18-C , 21-H ) :   0.9753
B( 19-C , 20-C ) :   1.6115 B( 19-C , 22-C ) :   1.0344 B( 22-C , 23-H ) :   0.9275
B( 22-C , 24-H ) :   0.9384 B( 22-C , 25-C ) :   1.0571 B( 25-C , 26-H ) :   0.9579
B( 25-C , 27-H ) :   0.9565 B( 25-C , 28-C ) :   1.0650 B( 28-C , 29-H ) :   0.9798
B( 28-C , 30-H ) :   0.9776 B( 28-C , 31-H ) :   0.9769

Dispersion correction           -0.013927289
FINAL SINGLE POINT ENERGY     -1339.865893297221

DIPOLE MOMENT
-------------
                                X             Y             Z
Electronic contribution:     -2.03476     -16.46695      25.50903
Nuclear contribution   :      2.04635      16.91088     -26.01763
                        -----------------------------------------
Total Dipole Moment    :      0.01159       0.44393      -0.50860
                        -----------------------------------------
Magnitude (a.u.)       :      0.67519
Magnitude (Debye)      :      1.71621

Rotational constants in cm-1:     0.018724     0.008404     0.006631
Rotational constants in MHz :   561.339451   251.934901   198.799636

                             ****ORCA TERMINATED NORMALLY****
TOTAL RUN TIME: 0 days 0 hours 0 minutes 33 seconds 690 msec
