                         Program Version 4.2.1 -  RELEASE  -
|  1> ! wB97X-D3 SP def2-SVP
|  2> %pal
|  3> nprocs 16
|  4> end
|  5>
|  6> * xyz 0 1
|  7> S 	 3.37419 	 -14.3427 	 61.9124
|  8> C 	 2.82187 	 -13.7389 	 63.4337
|  9> C 	 1.65122 	 -14.345 	 63.8047
| 10> C 	 1.11931 	 -15.2511 	 62.7605
| 11> C 	 1.93477 	 -15.2862 	 61.6344
| 12> H 	 0.142974 	 -15.7026 	 62.82
| 13> C 	 0.784353 	 -14.0141 	 64.9853
| 14> H 	 0.538403 	 -14.9756 	 65.4168
| 15> H 	 -0.0848218 	 -13.5897 	 64.5146
| 16> C 	 1.43331 	 -13.1257 	 66.0955
| 17> H 	 2.40023 	 -13.4163 	 66.5518
| 18> H 	 1.63647 	 -12.0963 	 65.7274
| 19> C 	 0.441329 	 -12.9777 	 67.2365
| 20> H 	 -0.340428 	 -12.393 	 66.8139
| 21> H 	 0.0259361 	 -13.9358 	 67.5506
| 22> H 	 0.912465 	 -12.4542 	 68.0672
| 23> S 	 2.209 	 -14.7415 	 58.9092
| 24> C 	 1.64455 	 -15.8713 	 57.6989
| 25> C 	 1.27608 	 -17.0266 	 58.326
| 26> C 	 1.14719 	 -16.9626 	 59.775
| 27> C 	 1.71632 	 -15.7862 	 60.3098
| 28> H 	 1.04505 	 -17.8307 	 57.6834
| 29> C 	 0.668924 	 -18.2268 	 60.4478
| 30> H 	 0.0779577 	 -18.7457 	 59.6879
| 31> H 	 -0.0708889 	 -18.0415 	 61.3083
| 32> C 	 1.88984 	 -19.106 	 60.925
| 33> H 	 2.43993 	 -18.4531 	 61.6352
| 34> H 	 2.49365 	 -19.2406 	 60.0188
| 35> C 	 1.59342 	 -20.4264 	 61.6444
| 36> H 	 1.16969 	 -21.1137 	 60.911
| 37> H 	 0.881965 	 -20.3865 	 62.4334
| 38> H 	 2.46352 	 -21.0348 	 61.8754
| 39> H 	 3.35641 	 -13.309 	 64.2672
| 40> H 	 1.61976 	 -15.6438 	 56.6422
| 41> *
| 42>
| 43>                          ****END OF INPUT****

CARTESIAN COORDINATES (ANGSTROEM)
---------------------------------
  S      3.374190  -14.342700   61.912400
  C      2.821870  -13.738900   63.433700
  C      1.651220  -14.345000   63.804700
  C      1.119310  -15.251100   62.760500
  C      1.934770  -15.286200   61.634400
  H      0.142974  -15.702600   62.820000
  C      0.784353  -14.014100   64.985300
  H      0.538403  -14.975600   65.416800
  H     -0.084822  -13.589700   64.514600
  C      1.433310  -13.125700   66.095500
  H      2.400230  -13.416300   66.551800
  H      1.636470  -12.096300   65.727400
  C      0.441329  -12.977700   67.236500
  H     -0.340428  -12.393000   66.813900
  H      0.025936  -13.935800   67.550600
  H      0.912465  -12.454200   68.067200
  S      2.209000  -14.741500   58.909200
  C      1.644550  -15.871300   57.698900
  C      1.276080  -17.026600   58.326000
  C      1.147190  -16.962600   59.775000
  C      1.716320  -15.786200   60.309800
  H      1.045050  -17.830700   57.683400
  C      0.668924  -18.226800   60.447800
  H      0.077958  -18.745700   59.687900
  H     -0.070889  -18.041500   61.308300
  C      1.889840  -19.106000   60.925000
  H      2.439930  -18.453100   61.635200
  H      2.493650  -19.240600   60.018800
  C      1.593420  -20.426400   61.644400
  H      1.169690  -21.113700   60.911000
  H      0.881965  -20.386500   62.433400
  H      2.463520  -21.034800   61.875400
  H      3.356410  -13.309000   64.267200
  H      1.619760  -15.643800   56.642200

 Total Charge           Charge          ....    0
 Multiplicity           Mult            ....    1
 Number of Electrons    NEL             ....  134
 Basis Dimension        Dim             ....  322

ORBITAL ENERGIES
----------------

  NO   OCC          E(Eh)            E(eV)
   0   2.0000     -88.962950     -2420.8049
   1   2.0000     -88.961768     -2420.7728
   2   2.0000     -10.336392      -281.2675
   3   2.0000     -10.333378      -281.1855
   4   2.0000     -10.317971      -280.7663
   5   2.0000     -10.311259      -280.5836
   6   2.0000     -10.305189      -280.4185
   7   2.0000     -10.300718      -280.2968
   8   2.0000     -10.300095      -280.2798
   9   2.0000     -10.297438      -280.2075
  10   2.0000     -10.295278      -280.1488
  11   2.0000     -10.293933      -280.1122
  12   2.0000     -10.292006      -280.0597
  13   2.0000     -10.291004      -280.0325
  14   2.0000     -10.274986      -279.5966
  15   2.0000     -10.274908      -279.5945
  16   2.0000      -8.078159      -219.8179
  17   2.0000      -8.075767      -219.7528
  18   2.0000      -6.036881      -164.2719
  19   2.0000      -6.034547      -164.2084
  20   2.0000      -6.032499      -164.1526
  21   2.0000      -6.030238      -164.0911
  22   2.0000      -6.028733      -164.0502
  23   2.0000      -6.026377      -163.9860
  24   2.0000      -1.004557       -27.3354
  25   2.0000      -0.980097       -26.6698
  26   2.0000      -0.916007       -24.9258
  27   2.0000      -0.902158       -24.5490
  28   2.0000      -0.874505       -23.7965
  29   2.0000      -0.852015       -23.1845
  30   2.0000      -0.844709       -22.9857
  31   2.0000      -0.815540       -22.1920
  32   2.0000      -0.780206       -21.2305
  33   2.0000      -0.771485       -20.9932
  34   2.0000      -0.715549       -19.4711
  35   2.0000      -0.702888       -19.1266
  36   2.0000      -0.690318       -18.7845
  37   2.0000      -0.663416       -18.0525
  38   2.0000      -0.631279       -17.1780
  39   2.0000      -0.613749       -16.7010
  40   2.0000      -0.593403       -16.1473
  41   2.0000      -0.576317       -15.6824
  42   2.0000      -0.569361       -15.4931
  43   2.0000      -0.557922       -15.1818
  44   2.0000      -0.533235       -14.5101
  45   2.0000      -0.523251       -14.2384
  46   2.0000      -0.520111       -14.1529
  47   2.0000      -0.516529       -14.0555
  48   2.0000      -0.511262       -13.9121
  49   2.0000      -0.503600       -13.7037
  50   2.0000      -0.490672       -13.3519
  51   2.0000      -0.478529       -13.0214
  52   2.0000      -0.477031       -12.9807
  53   2.0000      -0.460603       -12.5337
  54   2.0000      -0.453148       -12.3308
  55   2.0000      -0.448044       -12.1919
  56   2.0000      -0.447200       -12.1689
  57   2.0000      -0.435114       -11.8400
  58   2.0000      -0.428790       -11.6680
  59   2.0000      -0.425359       -11.5746
  60   2.0000      -0.415000       -11.2927
  61   2.0000      -0.414039       -11.2666
  62   2.0000      -0.409162       -11.1339
  63   2.0000      -0.359955        -9.7949
  64   2.0000      -0.325970        -8.8701
  65   2.0000      -0.323132        -8.7929
  66   2.0000      -0.286946        -7.8082
  67   0.0000       0.023571         0.6414
  68   0.0000       0.070157         1.9091
  69   0.0000       0.115322         3.1381
  70   0.0000       0.121142         3.2964
  71   0.0000       0.130944         3.5632

MULLIKEN ATOMIC CHARGES
-----------------------
   0 S :    0.103972
   1 C :   -0.092555
   2 C :   -0.147318
   3 C :    0.020378
   4 C :   -0.131202
   5 H :    0.008232
   6 C :    0.066056
   7 H :    0.030694
   8 H :    0.047205
   9 C :   -0.129976
  10 H :    0.039478
  11 H :    0.035282
  12 C :   -0.011244
  13 H :    0.020175
  14 H :    0.026714
  15 H :    0.034719
  16 S :    0.084718
  17 C :   -0.091880
  18 C :   -0.031042
  19 C :   -0.028514
  20 C :   -0.126614
  21 H :    0.008503
  22 C :    0.029795
  23 H :    0.020474
  24 H :    0.037444
  25 C :   -0.084654
  26 H :    0.043771
  27 H :    0.031264
  28 C :   -0.006791
  29 H :    0.009174
  30 H :    0.029232
  31 H :    0.033823
  32 H :    0.054629
  33 H :    0.066058
Sum of atomic charges:   -0.0000000

LOEWDIN ATOMIC CHARGES
----------------------
   0 S :    0.413511
   1 C :   -0.223734
   2 C :   -0.058031
   3 C :   -0.065488
   4 C :   -0.187403
   5 H :    0.027494
   6 C :   -0.028632
   7 H :    0.032919
   8 H :    0.040079
   9 C :   -0.048825
  10 H :    0.024889
  11 H :    0.026902
  12 C :   -0.057745
  13 H :    0.021164
  14 H :    0.022087
  15 H :    0.026646
  16 S :    0.377048
  17 C :   -0.178519
  18 C :   -0.072273
  19 C :   -0.052754
  20 C :   -0.179691
  21 H :    0.024172
  22 C :   -0.037939
  23 H :    0.026774
  24 H :    0.033946
  25 C :   -0.037990
  26 H :    0.029008
  27 H :    0.027174
  28 C :   -0.071240
  29 H :    0.025059
  30 H :    0.021130
  31 H :    0.031874
  32 H :    0.034236
  33 H :    0.034149

  Mayer bond orders larger than 0.100000
B(  0-S ,  1-C ) :   1.1077 B(  0-S ,  4-C ) :   1.1476 B(  1-C ,  2-C ) :   1.6643
B(  1-C , 32-H ) :   0.9477 B(  2-C ,  3-C ) :   1.2194 B(  2-C ,  6-C ) :   1.0081
B(  3-C ,  4-C ) :   1.5691 B(  3-C ,  5-H ) :   0.9969 B(  4-C , 20-C ) :   1.0822
B(  6-C ,  7-H ) :   0.9388 B(  6-C ,  8-H ) :   0.9411 B(  6-C ,  9-C ) :   1.0664
B(  9-C , 10-H ) :   0.9609 B(  9-C , 11-H ) :   0.9489 B(  9-C , 12-C ) :   1.0866
B( 12-C , 13-H ) :   0.9753 B( 12-C , 14-H ) :   0.9765 B( 12-C , 15-H ) :   0.9727
B( 16-S , 17-C ) :   1.1455 B( 16-S , 20-C ) :   1.1213 B( 17-C , 18-C ) :   1.6186
B( 17-C , 33-H ) :   0.9699 B( 18-C , 19-C ) :   1.2232 B( 18-C , 21-H ) :   0.9915
B( 19-C , 20-C ) :   1.5687 B( 19-C , 22-C ) :   1.0608 B( 22-C , 23-H ) :   0.9323
B( 22-C , 24-H ) :   0.9360 B( 22-C , 25-C ) :   1.0481 B( 25-C , 26-H ) :   0.9603
B( 25-C , 27-H ) :   0.9556 B( 25-C , 28-C ) :   1.0813 B( 28-C , 29-H ) :   0.9680
B( 28-C , 30-H ) :   0.9750 B( 28-C , 31-H ) :   0.9703

Dispersion correction           -0.013393027
FINAL SINGLE POINT ENERGY     -1339.867025450684

DIPOLE MOMENT
-------------
                                X             Y             Z
Electronic contribution:      9.93924      11.25759     -21.37141
Nuclear contribution   :    -10.40869     -11.66203      21.67301
                        -----------------------------------------
Total Dipole Moment    :     -0.46945      -0.40445       0.30160
                        -----------------------------------------
Magnitude (a.u.)       :      0.68914
Magnitude (Debye)      :      1.75166

Rotational constants in cm-1:     0.020043     0.007361     0.005961
Rotational constants in MHz :   600.867623   220.688798   178.711235

                             ****ORCA TERMINATED NORMALLY****
TOTAL RUN TIME: 0 days 0 hours 0 minutes 28 seconds 789 msec
