                         Program Version 4.2.1 -  RELEASE  -
|  1> ! wB97X-D3 SP def2-SVP
|  2> %pal
|  3> nprocs 16
|  4> end
|  5>
|  6> * xyz 0 1
|  7> S 	 -8.84678 	 61.2943 	 55.1792
|  8> C 	 -8.53508 	 60.106 	 56.4063
|  9> C 	 -7.4678 	 59.3182 	 56.0712
| 10> C 	 -6.89663 	 59.6827 	 54.8558
| 11> C 	 -7.52489 	 60.7338 	 54.1395
| 12> H 	 -6.05723 	 59.2215 	 54.3813
| 13> C 	 -6.95366 	 58.2126 	 57.0072
| 14> H 	 -6.44202 	 58.6838 	 57.8441
| 15> H 	 -6.00615 	 57.6816 	 56.6395
| 16> C 	 -7.98447 	 57.1451 	 57.5984
| 17> H 	 -8.71347 	 57.5532 	 58.2866
| 18> H 	 -8.57044 	 56.6949 	 56.7848
| 19> C 	 -7.31904 	 55.9746 	 58.4267
| 20> H 	 -7.9469 	 55.2061 	 58.8172
| 21> H 	 -6.6147 	 55.5025 	 57.7187
| 22> H 	 -6.73454 	 56.3853 	 59.3067
| 23> S 	 -7.3885 	 60.1722 	 51.5094
| 24> C 	 -6.94189 	 61.3817 	 50.3009
| 25> C 	 -6.79778 	 62.6262 	 50.9202
| 26> C 	 -7.11502 	 62.6087 	 52.2879
| 27> C 	 -7.28433 	 61.3006 	 52.7917
| 28> H 	 -6.4454 	 63.4789 	 50.2921
| 29> C 	 -6.97287 	 63.8959 	 53.0675
| 30> H 	 -5.96134 	 64.2023 	 53.2182
| 31> H 	 -7.27205 	 63.687 	 54.1097
| 32> C 	 -7.78697 	 65.1228 	 52.65
| 33> H 	 -8.86356 	 64.7927 	 52.8649
| 34> H 	 -7.59562 	 65.3038 	 51.5753
| 35> C 	 -7.43087 	 66.4596 	 53.3605
| 36> H 	 -7.72906 	 66.4222 	 54.4036
| 37> H 	 -8.09711 	 67.2314 	 52.9139
| 38> H 	 -6.40714 	 66.8926 	 53.2259
| 39> H 	 -9.09031 	 59.878 	 57.2963
| 40> H 	 -6.57601 	 61.1616 	 49.3131
| 41> *
| 42>
| 43>                          ****END OF INPUT****

CARTESIAN COORDINATES (ANGSTROEM)
---------------------------------
  S     -8.846780   61.294300   55.179200
  C     -8.535080   60.106000   56.406300
  C     -7.467800   59.318200   56.071200
  C     -6.896630   59.682700   54.855800
  C     -7.524890   60.733800   54.139500
  H     -6.057230   59.221500   54.381300
  C     -6.953660   58.212600   57.007200
  H     -6.442020   58.683800   57.844100
  H     -6.006150   57.681600   56.639500
  C     -7.984470   57.145100   57.598400
  H     -8.713470   57.553200   58.286600
  H     -8.570440   56.694900   56.784800
  C     -7.319040   55.974600   58.426700
  H     -7.946900   55.206100   58.817200
  H     -6.614700   55.502500   57.718700
  H     -6.734540   56.385300   59.306700
  S     -7.388500   60.172200   51.509400
  C     -6.941890   61.381700   50.300900
  C     -6.797780   62.626200   50.920200
  C     -7.115020   62.608700   52.287900
  C     -7.284330   61.300600   52.791700
  H     -6.445400   63.478900   50.292100
  C     -6.972870   63.895900   53.067500
  H     -5.961340   64.202300   53.218200
  H     -7.272050   63.687000   54.109700
  C     -7.786970   65.122800   52.650000
  H     -8.863560   64.792700   52.864900
  H     -7.595620   65.303800   51.575300
  C     -7.430870   66.459600   53.360500
  H     -7.729060   66.422200   54.403600
  H     -8.097110   67.231400   52.913900
  H     -6.407140   66.892600   53.225900
  H     -9.090310   59.878000   57.296300
  H     -6.576010   61.161600   49.313100

 Total Charge           Charge          ....    0
 Multiplicity           Mult            ....    1
 Number of Electrons    NEL             ....  134
 Basis Dimension        Dim             ....  322

ORBITAL ENERGIES
----------------

  NO   OCC          E(Eh)            E(eV)
   0   2.0000     -88.968543     -2420.9571
   1   2.0000     -88.968107     -2420.9453
   2   2.0000     -10.337791      -281.3056
   3   2.0000     -10.333938      -281.2008
   4   2.0000     -10.317719      -280.7594
   5   2.0000     -10.312220      -280.6098
   6   2.0000     -10.306022      -280.4411
   7   2.0000     -10.305762      -280.4340
   8   2.0000     -10.300971      -280.3037
   9   2.0000     -10.297818      -280.2179
  10   2.0000     -10.297659      -280.2135
  11   2.0000     -10.296207      -280.1740
  12   2.0000     -10.294056      -280.1155
  13   2.0000     -10.286675      -279.9147
  14   2.0000     -10.284706      -279.8611
  15   2.0000     -10.283406      -279.8257
  16   2.0000      -8.083018      -219.9501
  17   2.0000      -8.082585      -219.9383
  18   2.0000      -6.041501      -164.3976
  19   2.0000      -6.041044      -164.3852
  20   2.0000      -6.037267      -164.2824
  21   2.0000      -6.036970      -164.2743
  22   2.0000      -6.034013      -164.1938
  23   2.0000      -6.033644      -164.1838
  24   2.0000      -1.007613       -27.4186
  25   2.0000      -0.988023       -26.8855
  26   2.0000      -0.905453       -24.6386
  27   2.0000      -0.899109       -24.4660
  28   2.0000      -0.867440       -23.6042
  29   2.0000      -0.850653       -23.1474
  30   2.0000      -0.844272       -22.9738
  31   2.0000      -0.814718       -22.1696
  32   2.0000      -0.780994       -21.2519
  33   2.0000      -0.769777       -20.9467
  34   2.0000      -0.707266       -19.2457
  35   2.0000      -0.702105       -19.1053
  36   2.0000      -0.690446       -18.7880
  37   2.0000      -0.660545       -17.9743
  38   2.0000      -0.638915       -17.3858
  39   2.0000      -0.616575       -16.7779
  40   2.0000      -0.598224       -16.2785
  41   2.0000      -0.575003       -15.6466
  42   2.0000      -0.563840       -15.3429
  43   2.0000      -0.554947       -15.1009
  44   2.0000      -0.522329       -14.2133
  45   2.0000      -0.520496       -14.1634
  46   2.0000      -0.514336       -13.9958
  47   2.0000      -0.510162       -13.8822
  48   2.0000      -0.507572       -13.8117
  49   2.0000      -0.502641       -13.6776
  50   2.0000      -0.487876       -13.2758
  51   2.0000      -0.480890       -13.0857
  52   2.0000      -0.466059       -12.6821
  53   2.0000      -0.462657       -12.5895
  54   2.0000      -0.457029       -12.4364
  55   2.0000      -0.448481       -12.2038
  56   2.0000      -0.444706       -12.1011
  57   2.0000      -0.433321       -11.7913
  58   2.0000      -0.428600       -11.6628
  59   2.0000      -0.424151       -11.5417
  60   2.0000      -0.419569       -11.4171
  61   2.0000      -0.417300       -11.3553
  62   2.0000      -0.410462       -11.1693
  63   2.0000      -0.343169        -9.3381
  64   2.0000      -0.336007        -9.1432
  65   2.0000      -0.329971        -8.9790
  66   2.0000      -0.294541        -8.0149
  67   0.0000       0.024931         0.6784
  68   0.0000       0.066623         1.8129
  69   0.0000       0.109977         2.9926
  70   0.0000       0.120847         3.2884
  71   0.0000       0.132368         3.6019

MULLIKEN ATOMIC CHARGES
-----------------------
   0 S :    0.121423
   1 C :   -0.110247
   2 C :   -0.044194
   3 C :    0.038995
   4 C :   -0.168845
   5 H :   -0.002184
   6 C :    0.027458
   7 H :    0.034725
   8 H :    0.025233
   9 C :   -0.083714
  10 H :    0.032120
  11 H :    0.043203
  12 C :   -0.083857
  13 H :    0.040013
  14 H :    0.033994
  15 H :    0.039067
  16 S :    0.121360
  17 C :   -0.101312
  18 C :   -0.062344
  19 C :    0.005112
  20 C :   -0.157763
  21 H :    0.044942
  22 C :    0.064982
  23 H :    0.023420
  24 H :    0.003819
  25 C :   -0.120631
  26 H :    0.049211
  27 H :    0.032410
  28 C :   -0.065922
  29 H :    0.036876
  30 H :    0.035881
  31 H :    0.047029
  32 H :    0.041848
  33 H :    0.057891
Sum of atomic charges:    0.0000000

LOEWDIN ATOMIC CHARGES
----------------------
   0 S :    0.415666
   1 C :   -0.193677
   2 C :   -0.073380
   3 C :   -0.058517
   4 C :   -0.195367
   5 H :    0.026747
   6 C :   -0.040657
   7 H :    0.033505
   8 H :    0.037708
   9 C :   -0.040811
  10 H :    0.018760
  11 H :    0.026992
  12 C :   -0.070273
  13 H :    0.023178
  14 H :    0.025491
  15 H :    0.029942
  16 S :    0.433235
  17 C :   -0.189721
  18 C :   -0.068179
  19 C :   -0.061668
  20 C :   -0.210974
  21 H :    0.041938
  22 C :   -0.043958
  23 H :    0.026394
  24 H :    0.023278
  25 C :   -0.044738
  26 H :    0.036942
  27 H :    0.020825
  28 C :   -0.074435
  29 H :    0.024269
  30 H :    0.032826
  31 H :    0.031525
  32 H :    0.029736
  33 H :    0.027398

  Mayer bond orders larger than 0.100000
B(  0-S ,  1-C ) :   1.1631 B(  0-S ,  4-C ) :   1.1535 B(  1-C ,  2-C ) :   1.5802
B(  1-C ,  4-C ) :   0.1085 B(  1-C , 32-H ) :   0.9691 B(  2-C ,  3-C ) :   1.2836
B(  2-C ,  6-C ) :   1.0082 B(  3-C ,  4-C ) :   1.5372 B(  3-C ,  5-H ) :   1.0025
B(  4-C , 20-C ) :   1.0228 B(  6-C ,  7-H ) :   0.9382 B(  6-C ,  8-H ) :   0.9499
B(  6-C ,  9-C ) :   1.0398 B(  9-C , 10-H ) :   0.9577 B(  9-C , 11-H ) :   0.9641
B(  9-C , 12-C ) :   1.0733 B( 12-C , 13-H ) :   0.9775 B( 12-C , 14-H ) :   0.9784
B( 12-C , 15-H ) :   0.9770 B( 16-S , 17-C ) :   1.1604 B( 16-S , 20-C ) :   1.1807
B( 17-C , 18-C ) :   1.5888 B( 17-C , 20-C ) :   0.1103 B( 17-C , 33-H ) :   0.9671
B( 18-C , 19-C ) :   1.2637 B( 18-C , 21-H ) :   0.9809 B( 19-C , 20-C ) :   1.5347
B( 19-C , 22-C ) :   1.0522 B( 22-C , 23-H ) :   0.9400 B( 22-C , 24-H ) :   0.9267
B( 22-C , 25-C ) :   1.0524 B( 25-C , 26-H ) :   0.9548 B( 25-C , 27-H ) :   0.9588
B( 25-C , 28-C ) :   1.0833 B( 28-C , 29-H ) :   0.9749 B( 28-C , 30-H ) :   0.9729
B( 28-C , 31-H ) :   0.9726

Dispersion correction           -0.013272290
FINAL SINGLE POINT ENERGY     -1339.870257831984

DIPOLE MOMENT
-------------
                                X             Y             Z
Electronic contribution:     -4.14045      -2.42683     -14.30188
Nuclear contribution   :      4.46663       2.42896      14.51883
                        -----------------------------------------
Total Dipole Moment    :      0.32619       0.00213       0.21695
                        -----------------------------------------
Magnitude (a.u.)       :      0.39175
Magnitude (Debye)      :      0.99575

Rotational constants in cm-1:     0.024015     0.006455     0.005390
Rotational constants in MHz :   719.954612   193.516369   161.586697

                             ****ORCA TERMINATED NORMALLY****
TOTAL RUN TIME: 0 days 0 hours 0 minutes 31 seconds 300 msec
