                         Program Version 4.2.1 -  RELEASE  -
|  1> ! wB97X-D3 SP def2-SVP
|  2> %pal
|  3> nprocs 16
|  4> end
|  5>
|  6> * xyz 0 1
|  7> S 	 40.1803 	 18.1629 	 47.3553
|  8> C 	 40.8268 	 17.0332 	 48.5247
|  9> C 	 42.2086 	 16.9998 	 48.3732
| 10> C 	 42.7186 	 18.1505 	 47.6978
| 11> C 	 41.7579 	 18.9868 	 47.1876
| 12> H 	 43.7068 	 18.4372 	 47.4882
| 13> C 	 43.131 	 16.049 	 49.0668
| 14> H 	 42.8184 	 15.719 	 50.0952
| 15> H 	 44.0806 	 16.5916 	 49.2051
| 16> C 	 43.4065 	 14.7388 	 48.2744
| 17> H 	 44.3131 	 14.7352 	 47.6766
| 18> H 	 43.7741 	 14.1733 	 49.1371
| 19> C 	 42.141 	 14.0773 	 47.7767
| 20> H 	 42.4449 	 13.0121 	 47.6437
| 21> H 	 41.4125 	 14.1158 	 48.5294
| 22> H 	 41.7118 	 14.4667 	 46.9239
| 23> S 	 43.4038 	 21.1243 	 46.7684
| 24> C 	 42.9973 	 22.2927 	 45.516
| 25> C 	 41.7016 	 22.0986 	 44.9635
| 26> C 	 41.1353 	 20.8514 	 45.4079
| 27> C 	 41.9671 	 20.1891 	 46.3386
| 28> H 	 41.2931 	 22.789 	 44.323
| 29> C 	 39.7036 	 20.4525 	 44.9393
| 30> H 	 39.0595 	 21.3405 	 44.921
| 31> H 	 39.2165 	 19.8621 	 45.7134
| 32> C 	 39.5141 	 19.6849 	 43.552
| 33> H 	 39.6217 	 20.3815 	 42.7206
| 34> H 	 38.4768 	 19.367 	 43.5261
| 35> C 	 40.2663 	 18.3698 	 43.3965
| 36> H 	 40.2857 	 18.1142 	 42.3274
| 37> H 	 39.7471 	 17.5345 	 43.8807
| 38> H 	 41.3438 	 18.2655 	 43.5572
| 39> H 	 40.2951 	 16.3377 	 49.1526
| 40> H 	 43.5912 	 23.1355 	 45.4178
| 41> *
| 42>
| 43>                          ****END OF INPUT****

CARTESIAN COORDINATES (ANGSTROEM)
---------------------------------
  S     40.180300   18.162900   47.355300
  C     40.826800   17.033200   48.524700
  C     42.208600   16.999800   48.373200
  C     42.718600   18.150500   47.697800
  C     41.757900   18.986800   47.187600
  H     43.706800   18.437200   47.488200
  C     43.131000   16.049000   49.066800
  H     42.818400   15.719000   50.095200
  H     44.080600   16.591600   49.205100
  C     43.406500   14.738800   48.274400
  H     44.313100   14.735200   47.676600
  H     43.774100   14.173300   49.137100
  C     42.141000   14.077300   47.776700
  H     42.444900   13.012100   47.643700
  H     41.412500   14.115800   48.529400
  H     41.711800   14.466700   46.923900
  S     43.403800   21.124300   46.768400
  C     42.997300   22.292700   45.516000
  C     41.701600   22.098600   44.963500
  C     41.135300   20.851400   45.407900
  C     41.967100   20.189100   46.338600
  H     41.293100   22.789000   44.323000
  C     39.703600   20.452500   44.939300
  H     39.059500   21.340500   44.921000
  H     39.216500   19.862100   45.713400
  C     39.514100   19.684900   43.552000
  H     39.621700   20.381500   42.720600
  H     38.476800   19.367000   43.526100
  C     40.266300   18.369800   43.396500
  H     40.285700   18.114200   42.327400
  H     39.747100   17.534500   43.880700
  H     41.343800   18.265500   43.557200
  H     40.295100   16.337700   49.152600
  H     43.591200   23.135500   45.417800

 Total Charge           Charge          ....    0
 Multiplicity           Mult            ....    1
 Number of Electrons    NEL             ....  134
 Basis Dimension        Dim             ....  322

ORBITAL ENERGIES
----------------

  NO   OCC          E(Eh)            E(eV)
   0   2.0000     -88.970516     -2421.0108
   1   2.0000     -88.963007     -2420.8065
   2   2.0000     -10.335453      -281.2420
   3   2.0000     -10.332192      -281.1532
   4   2.0000     -10.318070      -280.7689
   5   2.0000     -10.313674      -280.6493
   6   2.0000     -10.311797      -280.5983
   7   2.0000     -10.299266      -280.2573
   8   2.0000     -10.297391      -280.2063
   9   2.0000     -10.297256      -280.2026
  10   2.0000     -10.292306      -280.0679
  11   2.0000     -10.290282      -280.0128
  12   2.0000     -10.288549      -279.9657
  13   2.0000     -10.282937      -279.8130
  14   2.0000     -10.272233      -279.5217
  15   2.0000     -10.268673      -279.4248
  16   2.0000      -8.084634      -219.9941
  17   2.0000      -8.076648      -219.7768
  18   2.0000      -6.043054      -164.4399
  19   2.0000      -6.039379      -164.3399
  20   2.0000      -6.035402      -164.2316
  21   2.0000      -6.035373      -164.2308
  22   2.0000      -6.031468      -164.1246
  23   2.0000      -6.027077      -164.0051
  24   2.0000      -1.001176       -27.2434
  25   2.0000      -0.978889       -26.6369
  26   2.0000      -0.911607       -24.8061
  27   2.0000      -0.896543       -24.3962
  28   2.0000      -0.866403       -23.5760
  29   2.0000      -0.851236       -23.1633
  30   2.0000      -0.843684       -22.9578
  31   2.0000      -0.811197       -22.0738
  32   2.0000      -0.783933       -21.3319
  33   2.0000      -0.775199       -21.0942
  34   2.0000      -0.705098       -19.1867
  35   2.0000      -0.701465       -19.0878
  36   2.0000      -0.688169       -18.7260
  37   2.0000      -0.672232       -18.2924
  38   2.0000      -0.638312       -17.3694
  39   2.0000      -0.615639       -16.7524
  40   2.0000      -0.592867       -16.1327
  41   2.0000      -0.565017       -15.3749
  42   2.0000      -0.556376       -15.1398
  43   2.0000      -0.550101       -14.9690
  44   2.0000      -0.541842       -14.7443
  45   2.0000      -0.533632       -14.5209
  46   2.0000      -0.519644       -14.1402
  47   2.0000      -0.509698       -13.8696
  48   2.0000      -0.499549       -13.5934
  49   2.0000      -0.498928       -13.5765
  50   2.0000      -0.486602       -13.2411
  51   2.0000      -0.478191       -13.0122
  52   2.0000      -0.468986       -12.7618
  53   2.0000      -0.463464       -12.6115
  54   2.0000      -0.460575       -12.5329
  55   2.0000      -0.454053       -12.3554
  56   2.0000      -0.447630       -12.1806
  57   2.0000      -0.433332       -11.7916
  58   2.0000      -0.430460       -11.7134
  59   2.0000      -0.421023       -11.4566
  60   2.0000      -0.415243       -11.2993
  61   2.0000      -0.407535       -11.0896
  62   2.0000      -0.400153       -10.8887
  63   2.0000      -0.356838        -9.7101
  64   2.0000      -0.333694        -9.0803
  65   2.0000      -0.323648        -8.8069
  66   2.0000      -0.279417        -7.6033
  67   0.0000       0.017526         0.4769
  68   0.0000       0.069500         1.8912
  69   0.0000       0.102272         2.7830
  70   0.0000       0.111161         3.0248
  71   0.0000       0.124567         3.3896

MULLIKEN ATOMIC CHARGES
-----------------------
   0 S :    0.068214
   1 C :   -0.095239
   2 C :   -0.057587
   3 C :    0.004547
   4 C :   -0.082481
   5 H :   -0.005000
   6 C :    0.003667
   7 H :    0.038102
   8 H :    0.024519
   9 C :   -0.082174
  10 H :    0.030790
  11 H :    0.015283
  12 C :    0.022156
  13 H :    0.035686
  14 H :   -0.002448
  15 H :    0.034987
  16 S :    0.092116
  17 C :   -0.073588
  18 C :    0.003465
  19 C :   -0.054737
  20 C :   -0.132388
  21 H :   -0.006124
  22 C :    0.035432
  23 H :    0.027715
  24 H :    0.025759
  25 C :   -0.042632
  26 H :    0.030631
  27 H :    0.029208
  28 C :   -0.068343
  29 H :    0.019309
  30 H :    0.035911
  31 H :    0.040906
  32 H :    0.047023
  33 H :    0.037315
Sum of atomic charges:    0.0000000

LOEWDIN ATOMIC CHARGES
----------------------
   0 S :    0.390219
   1 C :   -0.190157
   2 C :   -0.062697
   3 C :   -0.066948
   4 C :   -0.169540
   5 H :    0.017942
   6 C :   -0.039458
   7 H :    0.033839
   8 H :    0.032062
   9 C :   -0.044947
  10 H :    0.022412
  11 H :    0.027074
  12 C :   -0.051820
  13 H :    0.036124
  14 H :    0.016262
  15 H :    0.016868
  16 S :    0.405040
  17 C :   -0.170315
  18 C :   -0.046628
  19 C :   -0.057840
  20 C :   -0.184145
  21 H :    0.018849
  22 C :   -0.038633
  23 H :    0.034241
  24 H :    0.014555
  25 C :   -0.035649
  26 H :    0.021173
  27 H :    0.030491
  28 C :   -0.080023
  29 H :    0.030090
  30 H :    0.026628
  31 H :    0.028082
  32 H :    0.027118
  33 H :    0.009733

  Mayer bond orders larger than 0.100000
B(  0-S ,  1-C ) :   1.1231 B(  0-S ,  4-C ) :   1.1246 B(  1-C ,  2-C ) :   1.5945
B(  1-C , 32-H ) :   0.9734 B(  2-C ,  3-C ) :   1.2203 B(  2-C ,  6-C ) :   1.0395
B(  3-C ,  4-C ) :   1.5764 B(  3-C ,  5-H ) :   0.9998 B(  4-C , 20-C ) :   1.0643
B(  6-C ,  7-H ) :   0.9563 B(  6-C ,  8-H ) :   0.9429 B(  6-C ,  9-C ) :   1.0562
B(  9-C , 10-H ) :   0.9592 B(  9-C , 11-H ) :   0.9567 B(  9-C , 12-C ) :   1.0798
B( 12-C , 13-H ) :   0.9699 B( 12-C , 14-H ) :   0.9666 B( 12-C , 15-H ) :   0.9718
B( 16-S , 17-C ) :   1.1570 B( 16-S , 20-C ) :   1.1494 B( 17-C , 18-C ) :   1.5860
B( 17-C , 20-C ) :   0.1008 B( 17-C , 33-H ) :   0.9773 B( 18-C , 19-C ) :   1.2454
B( 18-C , 21-H ) :   1.0057 B( 19-C , 20-C ) :   1.5688 B( 19-C , 22-C ) :   1.0265
B( 22-C , 23-H ) :   0.9375 B( 22-C , 24-H ) :   0.9363 B( 22-C , 25-C ) :   1.0642
B( 25-C , 26-H ) :   0.9637 B( 25-C , 27-H ) :   0.9524 B( 25-C , 28-C ) :   1.0730
B( 28-C , 29-H ) :   0.9682 B( 28-C , 30-H ) :   0.9780 B( 28-C , 31-H ) :   0.9760

Dispersion correction           -0.014839057
FINAL SINGLE POINT ENERGY     -1339.847464063570

DIPOLE MOMENT
-------------
                                X             Y             Z
Electronic contribution:      3.13637      18.33018       6.51084
Nuclear contribution   :     -3.10604     -18.50785      -6.60988
                        -----------------------------------------
Total Dipole Moment    :      0.03033      -0.17767      -0.09904
                        -----------------------------------------
Magnitude (a.u.)       :      0.20566
Magnitude (Debye)      :      0.52274

Rotational constants in cm-1:     0.021008     0.008725     0.007078
Rotational constants in MHz :   629.808650   261.582757   212.207995

                             ****ORCA TERMINATED NORMALLY****
TOTAL RUN TIME: 0 days 0 hours 0 minutes 34 seconds 597 msec
