                         Program Version 4.2.1 -  RELEASE  -
|  1> ! wB97X-D3 SP def2-SVP
|  2> %pal
|  3> nprocs 16
|  4> end
|  5>
|  6> * xyz 0 1
|  7> S 	 17.3227 	 0.0305762 	 67.2245
|  8> C 	 16.1884 	 -0.300001 	 65.9128
|  9> C 	 15.9113 	 0.837936 	 65.1504
| 10> C 	 16.6305 	 1.98228 	 65.6134
| 11> C 	 17.4821 	 1.67062 	 66.6857
| 12> H 	 16.4663 	 3.0479 	 65.2689
| 13> C 	 14.9008 	 0.898507 	 63.9975
| 14> H 	 14.9042 	 -0.0247853 	 63.5918
| 15> H 	 15.1175 	 1.67852 	 63.2661
| 16> C 	 13.4274 	 0.970149 	 64.3106
| 17> H 	 12.9025 	 0.620319 	 63.4401
| 18> H 	 13.1109 	 0.329887 	 65.1599
| 19> C 	 13.0218 	 2.37419 	 64.6873
| 20> H 	 13.7168 	 2.82726 	 65.3838
| 21> H 	 12.9604 	 2.95167 	 63.7001
| 22> H 	 11.9824 	 2.51106 	 64.9902
| 23> S 	 20.1155 	 1.81979 	 67.2604
| 24> C 	 20.9124 	 3.41894 	 67.3688
| 25> C 	 19.9589 	 4.41772 	 67.4081
| 26> C 	 18.5854 	 3.94051 	 67.2574
| 27> C 	 18.5676 	 2.55267 	 67.0773
| 28> H 	 20.3179 	 5.49486 	 67.4837
| 29> C 	 17.379 	 4.81915 	 67.3754
| 30> H 	 16.6819 	 4.68805 	 66.4661
| 31> H 	 17.7205 	 5.87904 	 67.3675
| 32> C 	 16.6658 	 4.6076 	 68.7023
| 33> H 	 16.0747 	 3.70169 	 68.7688
| 34> H 	 16.0138 	 5.4754 	 68.9479
| 35> C 	 17.5968 	 4.53817 	 69.9443
| 36> H 	 18.2854 	 5.34493 	 70.0674
| 37> H 	 18.3149 	 3.6844 	 69.9087
| 38> H 	 17.0194 	 4.50126 	 70.8602
| 39> H 	 15.8698 	 -1.28441 	 65.4981
| 40> H 	 21.9936 	 3.75121 	 67.3592
| 41> *
| 42>
| 43>                          ****END OF INPUT****

CARTESIAN COORDINATES (ANGSTROEM)
---------------------------------
  S     17.322700    0.030576   67.224500
  C     16.188400   -0.300001   65.912800
  C     15.911300    0.837936   65.150400
  C     16.630500    1.982280   65.613400
  C     17.482100    1.670620   66.685700
  H     16.466300    3.047900   65.268900
  C     14.900800    0.898507   63.997500
  H     14.904200   -0.024785   63.591800
  H     15.117500    1.678520   63.266100
  C     13.427400    0.970149   64.310600
  H     12.902500    0.620319   63.440100
  H     13.110900    0.329887   65.159900
  C     13.021800    2.374190   64.687300
  H     13.716800    2.827260   65.383800
  H     12.960400    2.951670   63.700100
  H     11.982400    2.511060   64.990200
  S     20.115500    1.819790   67.260400
  C     20.912400    3.418940   67.368800
  C     19.958900    4.417720   67.408100
  C     18.585400    3.940510   67.257400
  C     18.567600    2.552670   67.077300
  H     20.317900    5.494860   67.483700
  C     17.379000    4.819150   67.375400
  H     16.681900    4.688050   66.466100
  H     17.720500    5.879040   67.367500
  C     16.665800    4.607600   68.702300
  H     16.074700    3.701690   68.768800
  H     16.013800    5.475400   68.947900
  C     17.596800    4.538170   69.944300
  H     18.285400    5.344930   70.067400
  H     18.314900    3.684400   69.908700
  H     17.019400    4.501260   70.860200
  H     15.869800   -1.284410   65.498100
  H     21.993600    3.751210   67.359200

 Total Charge           Charge          ....    0
 Multiplicity           Mult            ....    1
 Number of Electrons    NEL             ....  134
 Basis Dimension        Dim             ....  322

ORBITAL ENERGIES
----------------

  NO   OCC          E(Eh)            E(eV)
   0   2.0000     -88.975986     -2421.1597
   1   2.0000     -88.968892     -2420.9666
   2   2.0000     -10.332233      -281.1543
   3   2.0000     -10.327032      -281.0128
   4   2.0000     -10.322313      -280.8844
   5   2.0000     -10.318784      -280.7884
   6   2.0000     -10.305124      -280.4167
   7   2.0000     -10.304781      -280.4074
   8   2.0000     -10.302008      -280.3319
   9   2.0000     -10.300832      -280.2999
  10   2.0000     -10.300264      -280.2844
  11   2.0000     -10.286045      -279.8975
  12   2.0000     -10.283913      -279.8395
  13   2.0000     -10.282899      -279.8119
  14   2.0000     -10.277278      -279.6590
  15   2.0000     -10.269543      -279.4485
  16   2.0000      -8.090171      -220.1447
  17   2.0000      -8.083176      -219.9544
  18   2.0000      -6.048680      -164.5929
  19   2.0000      -6.044792      -164.4871
  20   2.0000      -6.041900      -164.4085
  21   2.0000      -6.040930      -164.3821
  22   2.0000      -6.037749      -164.2955
  23   2.0000      -6.033703      -164.1854
  24   2.0000      -1.007890       -27.4261
  25   2.0000      -0.980641       -26.6846
  26   2.0000      -0.920752       -25.0549
  27   2.0000      -0.908347       -24.7174
  28   2.0000      -0.869103       -23.6495
  29   2.0000      -0.850288       -23.1375
  30   2.0000      -0.839541       -22.8451
  31   2.0000      -0.812000       -22.0956
  32   2.0000      -0.785720       -21.3805
  33   2.0000      -0.771441       -20.9920
  34   2.0000      -0.707430       -19.2502
  35   2.0000      -0.697502       -18.9800
  36   2.0000      -0.683891       -18.6096
  37   2.0000      -0.658197       -17.9105
  38   2.0000      -0.630389       -17.1538
  39   2.0000      -0.615219       -16.7410
  40   2.0000      -0.584965       -15.9177
  41   2.0000      -0.575054       -15.6480
  42   2.0000      -0.560649       -15.2560
  43   2.0000      -0.551242       -15.0001
  44   2.0000      -0.546680       -14.8759
  45   2.0000      -0.540960       -14.7203
  46   2.0000      -0.514257       -13.9937
  47   2.0000      -0.508315       -13.8320
  48   2.0000      -0.499163       -13.5829
  49   2.0000      -0.489132       -13.3100
  50   2.0000      -0.483088       -13.1455
  51   2.0000      -0.478402       -13.0180
  52   2.0000      -0.472550       -12.8587
  53   2.0000      -0.464464       -12.6387
  54   2.0000      -0.459583       -12.5059
  55   2.0000      -0.446102       -12.1390
  56   2.0000      -0.443148       -12.0587
  57   2.0000      -0.436576       -11.8798
  58   2.0000      -0.432208       -11.7610
  59   2.0000      -0.425882       -11.5888
  60   2.0000      -0.416474       -11.3328
  61   2.0000      -0.411590       -11.1999
  62   2.0000      -0.410915       -11.1816
  63   2.0000      -0.351268        -9.5585
  64   2.0000      -0.335663        -9.1339
  65   2.0000      -0.328219        -8.9313
  66   2.0000      -0.283705        -7.7200
  67   0.0000       0.019539         0.5317
  68   0.0000       0.070496         1.9183
  69   0.0000       0.101940         2.7739
  70   0.0000       0.114489         3.1154
  71   0.0000       0.131035         3.5656

MULLIKEN ATOMIC CHARGES
-----------------------
   0 S :    0.127700
   1 C :   -0.132180
   2 C :   -0.110669
   3 C :    0.002439
   4 C :   -0.144886
   5 H :    0.038658
   6 C :    0.129768
   7 H :   -0.013957
   8 H :    0.025504
   9 C :   -0.066163
  10 H :    0.025200
  11 H :    0.031305
  12 C :   -0.075790
  13 H :    0.041410
  14 H :    0.022197
  15 H :    0.030926
  16 S :    0.111698
  17 C :   -0.114973
  18 C :   -0.066131
  19 C :   -0.075771
  20 C :   -0.136449
  21 H :    0.044900
  22 C :    0.076576
  23 H :    0.044608
  24 H :    0.022517
  25 C :   -0.073912
  26 H :    0.043104
  27 H :    0.035222
  28 C :   -0.066033
  29 H :    0.009908
  30 H :    0.043069
  31 H :    0.033054
  32 H :    0.061261
  33 H :    0.075888
Sum of atomic charges:   -0.0000000

LOEWDIN ATOMIC CHARGES
----------------------
   0 S :    0.415718
   1 C :   -0.212362
   2 C :   -0.055583
   3 C :   -0.069596
   4 C :   -0.200506
   5 H :    0.040297
   6 C :   -0.022879
   7 H :    0.018822
   8 H :    0.033431
   9 C :   -0.038129
  10 H :    0.022397
  11 H :    0.027008
  12 C :   -0.074591
  13 H :    0.023756
  14 H :    0.029038
  15 H :    0.023900
  16 S :    0.404558
  17 C :   -0.200517
  18 C :   -0.076984
  19 C :   -0.065132
  20 C :   -0.200101
  21 H :    0.042541
  22 C :   -0.039818
  23 H :    0.038210
  24 H :    0.034882
  25 C :   -0.040888
  26 H :    0.026158
  27 H :    0.028871
  28 C :   -0.070456
  29 H :    0.015139
  30 H :    0.029552
  31 H :    0.025516
  32 H :    0.038424
  33 H :    0.049326

  Mayer bond orders larger than 0.100000
B(  0-S ,  1-C ) :   1.1250 B(  0-S ,  4-C ) :   1.1612 B(  1-C ,  2-C ) :   1.6115
B(  1-C , 32-H ) :   0.9550 B(  2-C ,  3-C ) :   1.2701 B(  2-C ,  6-C ) :   1.0330
B(  3-C ,  4-C ) :   1.5378 B(  3-C ,  5-H ) :   0.9736 B(  4-C , 20-C ) :   1.0604
B(  6-C ,  7-H ) :   0.9166 B(  6-C ,  8-H ) :   0.9433 B(  6-C ,  9-C ) :   1.0706
B(  9-C , 10-H ) :   0.9566 B(  9-C , 11-H ) :   0.9515 B(  9-C , 12-C ) :   1.0795
B( 12-C , 13-H ) :   0.9773 B( 12-C , 14-H ) :   0.9730 B( 12-C , 15-H ) :   0.9727
B( 16-S , 17-C ) :   1.1250 B( 16-S , 20-C ) :   1.1406 B( 17-C , 18-C ) :   1.6542
B( 17-C , 33-H ) :   0.9572 B( 18-C , 19-C ) :   1.2295 B( 18-C , 21-H ) :   0.9726
B( 19-C , 20-C ) :   1.5740 B( 19-C , 22-C ) :   1.0522 B( 22-C , 23-H ) :   0.9320
B( 22-C , 24-H ) :   0.9274 B( 22-C , 25-C ) :   1.0665 B( 25-C , 26-H ) :   0.9557
B( 25-C , 27-H ) :   0.9593 B( 25-C , 28-C ) :   1.0757 B( 28-C , 29-H ) :   0.9757
B( 28-C , 30-H ) :   0.9672 B( 28-C , 31-H ) :   0.9751

Dispersion correction           -0.015330394
FINAL SINGLE POINT ENERGY     -1339.860250216519

DIPOLE MOMENT
-------------
                                X             Y             Z
Electronic contribution:     20.95229     -13.95813       2.85835
Nuclear contribution   :    -21.28759      14.34164      -3.17888
                        -----------------------------------------
Total Dipole Moment    :     -0.33530       0.38351      -0.32053
                        -----------------------------------------
Magnitude (a.u.)       :      0.60187
Magnitude (Debye)      :      1.52983

Rotational constants in cm-1:     0.020935     0.008908     0.007371
Rotational constants in MHz :   627.614936   267.058003   220.984220

                             ****ORCA TERMINATED NORMALLY****
TOTAL RUN TIME: 0 days 0 hours 0 minutes 34 seconds 423 msec
