                         Program Version 4.2.1 -  RELEASE  -
|  1> ! wB97X-D3 SP def2-SVP
|  2> %pal
|  3> nprocs 16
|  4> end
|  5>
|  6> * xyz 0 1
|  7> S 	 -54.6914 	 32.9662 	 89.5677
|  8> C 	 -55.5248 	 31.6687 	 88.8331
|  9> C 	 -56.2833 	 32.0622 	 87.7331
| 10> C 	 -56.2687 	 33.4732 	 87.5804
| 11> C 	 -55.5027 	 34.1316 	 88.4798
| 12> H 	 -56.593 	 34.1825 	 86.8437
| 13> C 	 -57.0622 	 31.2125 	 86.8024
| 14> H 	 -56.7043 	 30.1453 	 86.8899
| 15> H 	 -56.7848 	 31.5608 	 85.7703
| 16> C 	 -58.6055 	 31.4085 	 86.9749
| 17> H 	 -58.7968 	 32.4545 	 86.9614
| 18> H 	 -59.1224 	 30.9249 	 86.1543
| 19> C 	 -59.2136 	 30.698 	 88.2593
| 20> H 	 -59.09 	 31.1947 	 89.1887
| 21> H 	 -60.2441 	 30.5449 	 88.194
| 22> H 	 -58.7953 	 29.7853 	 88.2605
| 23> S 	 -53.8241 	 36.209 	 88.415
| 24> C 	 -54.4201 	 37.8436 	 88.4238
| 25> C 	 -55.7901 	 37.9047 	 88.4842
| 26> C 	 -56.3366 	 36.5752 	 88.5409
| 27> C 	 -55.3519 	 35.6007 	 88.4754
| 28> H 	 -56.3273 	 38.8145 	 88.556
| 29> C 	 -57.7829 	 36.2079 	 88.5519
| 30> H 	 -57.8764 	 35.2026 	 88.9223
| 31> H 	 -58.2677 	 36.1953 	 87.5832
| 32> C 	 -58.6978 	 37.0513 	 89.5278
| 33> H 	 -58.8043 	 38.1017 	 89.2539
| 34> H 	 -58.2026 	 37.1886 	 90.4472
| 35> C 	 -60.0226 	 36.3772 	 89.8596
| 36> H 	 -60.7899 	 36.2115 	 89.1094
| 37> H 	 -60.4653 	 36.9417 	 90.614
| 38> H 	 -59.7706 	 35.3738 	 90.2087
| 39> H 	 -55.5726 	 30.6105 	 89.2173
| 40> H 	 -53.7683 	 38.7499 	 88.3402
| 41> *
| 42>
| 43>                          ****END OF INPUT****

CARTESIAN COORDINATES (ANGSTROEM)
---------------------------------
  S    -54.691400   32.966200   89.567700
  C    -55.524800   31.668700   88.833100
  C    -56.283300   32.062200   87.733100
  C    -56.268700   33.473200   87.580400
  C    -55.502700   34.131600   88.479800
  H    -56.593000   34.182500   86.843700
  C    -57.062200   31.212500   86.802400
  H    -56.704300   30.145300   86.889900
  H    -56.784800   31.560800   85.770300
  C    -58.605500   31.408500   86.974900
  H    -58.796800   32.454500   86.961400
  H    -59.122400   30.924900   86.154300
  C    -59.213600   30.698000   88.259300
  H    -59.090000   31.194700   89.188700
  H    -60.244100   30.544900   88.194000
  H    -58.795300   29.785300   88.260500
  S    -53.824100   36.209000   88.415000
  C    -54.420100   37.843600   88.423800
  C    -55.790100   37.904700   88.484200
  C    -56.336600   36.575200   88.540900
  C    -55.351900   35.600700   88.475400
  H    -56.327300   38.814500   88.556000
  C    -57.782900   36.207900   88.551900
  H    -57.876400   35.202600   88.922300
  H    -58.267700   36.195300   87.583200
  C    -58.697800   37.051300   89.527800
  H    -58.804300   38.101700   89.253900
  H    -58.202600   37.188600   90.447200
  C    -60.022600   36.377200   89.859600
  H    -60.789900   36.211500   89.109400
  H    -60.465300   36.941700   90.614000
  H    -59.770600   35.373800   90.208700
  H    -55.572600   30.610500   89.217300
  H    -53.768300   38.749900   88.340200

 Total Charge           Charge          ....    0
 Multiplicity           Mult            ....    1
 Number of Electrons    NEL             ....  134
 Basis Dimension        Dim             ....  322

ORBITAL ENERGIES
----------------

  NO   OCC          E(Eh)            E(eV)
   0   2.0000     -88.966851     -2420.9111
   1   2.0000     -88.965244     -2420.8674
   2   2.0000     -10.325360      -280.9673
   3   2.0000     -10.317029      -280.7406
   4   2.0000     -10.316936      -280.7381
   5   2.0000     -10.316469      -280.7254
   6   2.0000     -10.299479      -280.2631
   7   2.0000     -10.299305      -280.2583
   8   2.0000     -10.298627      -280.2399
   9   2.0000     -10.293244      -280.0934
  10   2.0000     -10.289288      -279.9858
  11   2.0000     -10.286103      -279.8991
  12   2.0000     -10.285308      -279.8775
  13   2.0000     -10.280795      -279.7547
  14   2.0000     -10.270959      -279.4870
  15   2.0000     -10.262725      -279.2629
  16   2.0000      -8.082349      -219.9319
  17   2.0000      -8.081591      -219.9113
  18   2.0000      -6.040645      -164.3743
  19   2.0000      -6.040156      -164.3610
  20   2.0000      -6.036472      -164.2608
  21   2.0000      -6.036111      -164.2509
  22   2.0000      -6.033233      -164.1726
  23   2.0000      -6.032294      -164.1471
  24   2.0000      -1.017496       -27.6875
  25   2.0000      -0.991624       -26.9835
  26   2.0000      -0.908041       -24.7091
  27   2.0000      -0.906974       -24.6800
  28   2.0000      -0.874328       -23.7917
  29   2.0000      -0.857355       -23.3298
  30   2.0000      -0.848243       -23.0819
  31   2.0000      -0.820391       -22.3240
  32   2.0000      -0.782169       -21.2839
  33   2.0000      -0.769570       -20.9411
  34   2.0000      -0.711141       -19.3511
  35   2.0000      -0.704199       -19.1622
  36   2.0000      -0.692029       -18.8311
  37   2.0000      -0.661828       -18.0093
  38   2.0000      -0.644135       -17.5278
  39   2.0000      -0.619241       -16.8504
  40   2.0000      -0.600224       -16.3329
  41   2.0000      -0.568838       -15.4789
  42   2.0000      -0.561154       -15.2698
  43   2.0000      -0.546678       -14.8759
  44   2.0000      -0.540434       -14.7060
  45   2.0000      -0.525676       -14.3044
  46   2.0000      -0.519804       -14.1446
  47   2.0000      -0.517102       -14.0711
  48   2.0000      -0.503355       -13.6970
  49   2.0000      -0.495653       -13.4874
  50   2.0000      -0.485016       -13.1980
  51   2.0000      -0.478832       -13.0297
  52   2.0000      -0.472881       -12.8677
  53   2.0000      -0.467050       -12.7091
  54   2.0000      -0.464921       -12.6511
  55   2.0000      -0.455088       -12.3836
  56   2.0000      -0.444502       -12.0955
  57   2.0000      -0.438356       -11.9283
  58   2.0000      -0.437044       -11.8926
  59   2.0000      -0.430963       -11.7271
  60   2.0000      -0.420743       -11.4490
  61   2.0000      -0.416275       -11.3274
  62   2.0000      -0.414922       -11.2906
  63   2.0000      -0.353593        -9.6217
  64   2.0000      -0.332506        -9.0479
  65   2.0000      -0.325075        -8.8457
  66   2.0000      -0.292823        -7.9681
  67   0.0000       0.040020         1.0890
  68   0.0000       0.071470         1.9448
  69   0.0000       0.116201         3.1620
  70   0.0000       0.124643         3.3917
  71   0.0000       0.134255         3.6533

MULLIKEN ATOMIC CHARGES
-----------------------
   0 S :    0.119311
   1 C :   -0.139104
   2 C :   -0.057789
   3 C :    0.010843
   4 C :   -0.156745
   5 H :    0.016465
   6 C :    0.035067
   7 H :    0.030149
   8 H :    0.040382
   9 C :   -0.065174
  10 H :    0.026961
  11 H :    0.030047
  12 C :    0.006722
  13 H :    0.031815
  14 H :    0.015197
  15 H :   -0.002514
  16 S :    0.127150
  17 C :   -0.113050
  18 C :   -0.009764
  19 C :   -0.035787
  20 C :   -0.181274
  21 H :    0.009052
  22 C :    0.058691
  23 H :    0.025315
  24 H :    0.038328
  25 C :   -0.078897
  26 H :    0.018694
  27 H :    0.013604
  28 C :   -0.024308
  29 H :    0.028526
  30 H :    0.020306
  31 H :    0.024954
  32 H :    0.067789
  33 H :    0.069038
Sum of atomic charges:    0.0000000

LOEWDIN ATOMIC CHARGES
----------------------
   0 S :    0.399225
   1 C :   -0.218930
   2 C :   -0.070408
   3 C :   -0.063470
   4 C :   -0.183270
   5 H :    0.036504
   6 C :   -0.037235
   7 H :    0.031905
   8 H :    0.039794
   9 C :   -0.025381
  10 H :    0.017581
  11 H :    0.023947
  12 C :   -0.050836
  13 H :    0.023355
  14 H :    0.021163
  15 H :    0.009176
  16 S :    0.458259
  17 C :   -0.197435
  18 C :   -0.062471
  19 C :   -0.061158
  20 C :   -0.234563
  21 H :    0.028668
  22 C :   -0.033467
  23 H :    0.029702
  24 H :    0.029523
  25 C :   -0.038609
  26 H :    0.017631
  27 H :    0.020156
  28 C :   -0.059278
  29 H :    0.022794
  30 H :    0.020348
  31 H :    0.026848
  32 H :    0.042833
  33 H :    0.037098

  Mayer bond orders larger than 0.100000
B(  0-S ,  1-C ) :   1.1453 B(  0-S ,  4-C ) :   1.1266 B(  1-C ,  2-C ) :   1.6147
B(  1-C , 32-H ) :   0.9568 B(  2-C ,  3-C ) :   1.1942 B(  2-C ,  6-C ) :   1.0336
B(  3-C ,  4-C ) :   1.6151 B(  3-C ,  5-H ) :   0.9924 B(  4-C , 20-C ) :   1.0149
B(  6-C ,  7-H ) :   0.9444 B(  6-C ,  8-H ) :   0.9369 B(  6-C ,  9-C ) :   1.0668
B(  9-C , 10-H ) :   0.9603 B(  9-C , 11-H ) :   0.9587 B(  9-C , 12-C ) :   1.0633
B( 12-C , 13-H ) :   0.9778 B( 12-C , 14-H ) :   0.9747 B( 12-C , 15-H ) :   0.9742
B( 16-S , 17-C ) :   1.1662 B( 16-S , 20-C ) :   1.1778 B( 17-C , 18-C ) :   1.5922
B( 17-C , 33-H ) :   0.9622 B( 18-C , 19-C ) :   1.2449 B( 18-C , 21-H ) :   1.0017
B( 19-C , 20-C ) :   1.5771 B( 19-C , 22-C ) :   1.0575 B( 22-C , 23-H ) :   0.9279
B( 22-C , 24-H ) :   0.9338 B( 22-C , 25-C ) :   1.0550 B( 25-C , 26-H ) :   0.9510
B( 25-C , 27-H ) :   0.9555 B( 25-C , 28-C ) :   1.0895 B( 28-C , 29-H ) :   0.9766
B( 28-C , 30-H ) :   0.9723 B( 28-C , 31-H ) :   0.9728

Dispersion correction           -0.014543743
FINAL SINGLE POINT ENERGY     -1339.866660549502

DIPOLE MOMENT
-------------
                                X             Y             Z
Electronic contribution:     29.69066       5.68730       2.10684
Nuclear contribution   :    -30.28106      -5.68290      -2.31227
                        -----------------------------------------
Total Dipole Moment    :     -0.59040       0.00440      -0.20543
                        -----------------------------------------
Magnitude (a.u.)       :      0.62513
Magnitude (Debye)      :      1.58897

Rotational constants in cm-1:     0.017065     0.009882     0.007087
Rotational constants in MHz :   511.599206   296.262072   212.476215

                             ****ORCA TERMINATED NORMALLY****
TOTAL RUN TIME: 0 days 0 hours 0 minutes 31 seconds 57 msec
