                         Program Version 4.2.1 -  RELEASE  -
|  1> ! wB97X-D3 SP def2-SVP
|  2> %pal
|  3> nprocs 16
|  4> end
|  5>
|  6> * xyz 0 1
|  7> S 	 -3.3463 	 -22.4864 	 86.6378
|  8> C 	 -2.29475 	 -23.3115 	 85.5429
|  9> C 	 -1.38731 	 -22.3317 	 85.0411
| 10> C 	 -1.50809 	 -20.9834 	 85.4921
| 11> C 	 -2.53859 	 -20.969 	 86.416
| 12> H 	 -0.833257 	 -20.1341 	 85.3026
| 13> C 	 -0.291268 	 -22.8285 	 84.0804
| 14> H 	 -0.448214 	 -22.2366 	 83.2127
| 15> H 	 -0.553434 	 -23.7379 	 83.634
| 16> C 	 1.16771 	 -22.5811 	 84.4506
| 17> H 	 1.77102 	 -22.7561 	 83.4806
| 18> H 	 1.27732 	 -21.591 	 84.6292
| 19> C 	 1.70385 	 -23.42 	 85.6139
| 20> H 	 1.13304 	 -23.0645 	 86.5151
| 21> H 	 1.54744 	 -24.4388 	 85.3948
| 22> H 	 2.76898 	 -23.1851 	 85.9503
| 23> S 	 -3.49734 	 -19.7497 	 88.7638
| 24> C 	 -3.68898 	 -17.9663 	 88.8532
| 25> C 	 -3.65116 	 -17.4197 	 87.5849
| 26> C 	 -3.32552 	 -18.4095 	 86.5847
| 27> C 	 -3.0431 	 -19.7053 	 87.0554
| 28> H 	 -4.0186 	 -16.3781 	 87.4768
| 29> C 	 -3.35472 	 -18.0577 	 85.1267
| 30> H 	 -2.80043 	 -18.8059 	 84.4702
| 31> H 	 -2.96683 	 -17.0999 	 84.919
| 32> C 	 -4.70444 	 -18.0876 	 84.3745
| 33> H 	 -5.45176 	 -17.4054 	 84.8709
| 34> H 	 -5.0772 	 -19.0474 	 84.3751
| 35> C 	 -4.3436 	 -17.6616 	 83.0133
| 36> H 	 -5.23746 	 -17.5654 	 82.4231
| 37> H 	 -3.76687 	 -18.4822 	 82.5271
| 38> H 	 -3.77514 	 -16.7098 	 83.0265
| 39> H 	 -2.38005 	 -24.2532 	 85.1149
| 40> H 	 -3.88938 	 -17.3848 	 89.7629
| 41> *
| 42>
| 43>                          ****END OF INPUT****

CARTESIAN COORDINATES (ANGSTROEM)
---------------------------------
  S     -3.346300  -22.486400   86.637800
  C     -2.294750  -23.311500   85.542900
  C     -1.387310  -22.331700   85.041100
  C     -1.508090  -20.983400   85.492100
  C     -2.538590  -20.969000   86.416000
  H     -0.833257  -20.134100   85.302600
  C     -0.291268  -22.828500   84.080400
  H     -0.448214  -22.236600   83.212700
  H     -0.553434  -23.737900   83.634000
  C      1.167710  -22.581100   84.450600
  H      1.771020  -22.756100   83.480600
  H      1.277320  -21.591000   84.629200
  C      1.703850  -23.420000   85.613900
  H      1.133040  -23.064500   86.515100
  H      1.547440  -24.438800   85.394800
  H      2.768980  -23.185100   85.950300
  S     -3.497340  -19.749700   88.763800
  C     -3.688980  -17.966300   88.853200
  C     -3.651160  -17.419700   87.584900
  C     -3.325520  -18.409500   86.584700
  C     -3.043100  -19.705300   87.055400
  H     -4.018600  -16.378100   87.476800
  C     -3.354720  -18.057700   85.126700
  H     -2.800430  -18.805900   84.470200
  H     -2.966830  -17.099900   84.919000
  C     -4.704440  -18.087600   84.374500
  H     -5.451760  -17.405400   84.870900
  H     -5.077200  -19.047400   84.375100
  C     -4.343600  -17.661600   83.013300
  H     -5.237460  -17.565400   82.423100
  H     -3.766870  -18.482200   82.527100
  H     -3.775140  -16.709800   83.026500
  H     -2.380050  -24.253200   85.114900
  H     -3.889380  -17.384800   89.762900

 Total Charge           Charge          ....    0
 Multiplicity           Mult            ....    1
 Number of Electrons    NEL             ....  134
 Basis Dimension        Dim             ....  322

ORBITAL ENERGIES
----------------

  NO   OCC          E(Eh)            E(eV)
   0   2.0000     -88.972820     -2421.0735
   1   2.0000     -88.963036     -2420.8073
   2   2.0000     -10.338914      -281.3361
   3   2.0000     -10.334659      -281.2204
   4   2.0000     -10.324437      -280.9422
   5   2.0000     -10.312424      -280.6153
   6   2.0000     -10.308128      -280.4984
   7   2.0000     -10.307155      -280.4720
   8   2.0000     -10.302034      -280.3326
   9   2.0000     -10.301011      -280.3048
  10   2.0000     -10.284756      -279.8624
  11   2.0000     -10.284368      -279.8519
  12   2.0000     -10.281087      -279.7626
  13   2.0000     -10.277825      -279.6738
  14   2.0000     -10.275805      -279.6189
  15   2.0000     -10.275215      -279.6028
  16   2.0000      -8.087659      -220.0764
  17   2.0000      -8.076975      -219.7857
  18   2.0000      -6.046099      -164.5227
  19   2.0000      -6.041992      -164.4110
  20   2.0000      -6.038640      -164.3197
  21   2.0000      -6.035645      -164.2383
  22   2.0000      -6.031648      -164.1295
  23   2.0000      -6.027561      -164.0183
  24   2.0000      -1.006149       -27.3787
  25   2.0000      -0.981018       -26.6949
  26   2.0000      -0.918856       -25.0033
  27   2.0000      -0.910940       -24.7879
  28   2.0000      -0.867457       -23.6047
  29   2.0000      -0.852978       -23.2107
  30   2.0000      -0.845033       -22.9945
  31   2.0000      -0.819786       -22.3075
  32   2.0000      -0.780267       -21.2321
  33   2.0000      -0.762716       -20.7546
  34   2.0000      -0.708503       -19.2793
  35   2.0000      -0.695563       -18.9272
  36   2.0000      -0.691977       -18.8297
  37   2.0000      -0.657891       -17.9021
  38   2.0000      -0.643472       -17.5098
  39   2.0000      -0.624284       -16.9876
  40   2.0000      -0.598321       -16.2812
  41   2.0000      -0.578711       -15.7475
  42   2.0000      -0.569173       -15.4880
  43   2.0000      -0.549412       -14.9503
  44   2.0000      -0.538382       -14.6501
  45   2.0000      -0.525340       -14.2952
  46   2.0000      -0.519741       -14.1429
  47   2.0000      -0.514829       -14.0092
  48   2.0000      -0.506288       -13.7768
  49   2.0000      -0.498687       -13.5700
  50   2.0000      -0.484840       -13.1932
  51   2.0000      -0.482971       -13.1423
  52   2.0000      -0.466091       -12.6830
  53   2.0000      -0.465255       -12.6602
  54   2.0000      -0.456175       -12.4131
  55   2.0000      -0.445679       -12.1275
  56   2.0000      -0.445285       -12.1168
  57   2.0000      -0.437771       -11.9123
  58   2.0000      -0.435179       -11.8418
  59   2.0000      -0.427071       -11.6212
  60   2.0000      -0.420491       -11.4422
  61   2.0000      -0.409185       -11.1345
  62   2.0000      -0.399313       -10.8659
  63   2.0000      -0.353547        -9.6205
  64   2.0000      -0.335022        -9.1164
  65   2.0000      -0.323580        -8.8051
  66   2.0000      -0.287916        -7.8346
  67   0.0000       0.024547         0.6680
  68   0.0000       0.066202         1.8014
  69   0.0000       0.105506         2.8710
  70   0.0000       0.116012         3.1568
  71   0.0000       0.132567         3.6073

MULLIKEN ATOMIC CHARGES
-----------------------
   0 S :    0.126161
   1 C :   -0.081676
   2 C :   -0.138737
   3 C :    0.006665
   4 C :   -0.109013
   5 H :    0.050097
   6 C :    0.104654
   7 H :    0.005456
   8 H :   -0.010780
   9 C :   -0.046514
  10 H :    0.031227
  11 H :   -0.002593
  12 C :   -0.053800
  13 H :    0.041928
  14 H :    0.031196
  15 H :    0.042406
  16 S :    0.078830
  17 C :   -0.106270
  18 C :   -0.032030
  19 C :   -0.004545
  20 C :   -0.145765
  21 H :    0.042064
  22 C :   -0.009608
  23 H :    0.019739
  24 H :    0.003853
  25 C :   -0.033540
  26 H :    0.027551
  27 H :    0.014229
  28 C :   -0.046506
  29 H :    0.025974
  30 H :    0.035433
  31 H :    0.034707
  32 H :    0.030253
  33 H :    0.068953
Sum of atomic charges:   -0.0000000

LOEWDIN ATOMIC CHARGES
----------------------
   0 S :    0.432349
   1 C :   -0.212118
   2 C :   -0.049623
   3 C :   -0.071887
   4 C :   -0.187376
   5 H :    0.045998
   6 C :   -0.035625
   7 H :    0.031162
   8 H :    0.018954
   9 C :   -0.035351
  10 H :    0.031954
  11 H :    0.005987
  12 C :   -0.069594
  13 H :    0.034493
  14 H :    0.017707
  15 H :    0.033534
  16 S :    0.372038
  17 C :   -0.170085
  18 C :   -0.077323
  19 C :   -0.059883
  20 C :   -0.191448
  21 H :    0.043383
  22 C :   -0.038281
  23 H :    0.035939
  24 H :    0.016960
  25 C :   -0.032202
  26 H :    0.023470
  27 H :    0.014634
  28 C :   -0.063570
  29 H :    0.022216
  30 H :    0.030696
  31 H :    0.027713
  32 H :    0.019301
  33 H :    0.035878

  Mayer bond orders larger than 0.100000
B(  0-S ,  1-C ) :   1.1266 B(  0-S ,  4-C ) :   1.1939 B(  1-C ,  2-C ) :   1.5724
B(  1-C ,  4-C ) :   0.1000 B(  1-C , 32-H ) :   0.9818 B(  2-C ,  3-C ) :   1.2536
B(  2-C ,  6-C ) :   1.0252 B(  3-C ,  4-C ) :   1.5374 B(  3-C ,  5-H ) :   0.9880
B(  4-C , 20-C ) :   1.0138 B(  6-C ,  7-H ) :   0.9203 B(  6-C ,  8-H ) :   0.9391
B(  6-C ,  9-C ) :   1.0747 B(  9-C , 10-H ) :   0.9508 B(  9-C , 11-H ) :   0.9536
B(  9-C , 12-C ) :   1.0720 B( 12-C , 13-H ) :   0.9733 B( 12-C , 14-H ) :   0.9779
B( 12-C , 15-H ) :   0.9739 B( 16-S , 17-C ) :   1.1487 B( 16-S , 20-C ) :   1.1187
B( 17-C , 18-C ) :   1.6182 B( 17-C , 33-H ) :   0.9641 B( 18-C , 19-C ) :   1.2267
B( 18-C , 21-H ) :   0.9851 B( 19-C , 20-C ) :   1.5912 B( 19-C , 22-C ) :   1.0450
B( 22-C , 23-H ) :   0.9428 B( 22-C , 24-H ) :   0.9402 B( 22-C , 25-C ) :   1.0576
B( 25-C , 26-H ) :   0.9504 B( 25-C , 27-H ) :   0.9492 B( 25-C , 28-C ) :   1.0967
B( 28-C , 29-H ) :   0.9674 B( 28-C , 30-H ) :   0.9689 B( 28-C , 31-H ) :   0.9709

Dispersion correction           -0.013980125
FINAL SINGLE POINT ENERGY     -1339.844692172491

DIPOLE MOMENT
-------------
                                X             Y             Z
Electronic contribution:    -11.63448      -3.84180      21.20130
Nuclear contribution   :     11.71233       4.17363     -21.78137
                        -----------------------------------------
Total Dipole Moment    :      0.07785       0.33183      -0.58007
                        -----------------------------------------
Magnitude (a.u.)       :      0.67280
Magnitude (Debye)      :      1.71012

Rotational constants in cm-1:     0.018166     0.008448     0.007030
Rotational constants in MHz :   544.606679   253.274277   210.739665

                             ****ORCA TERMINATED NORMALLY****
TOTAL RUN TIME: 0 days 0 hours 0 minutes 33 seconds 837 msec
