                         Program Version 4.2.1 -  RELEASE  -
|  1> ! wB97X-D3 SP def2-SVP
|  2> %pal
|  3> nprocs 16
|  4> end
|  5>
|  6> * xyz 0 1
|  7> S 	 40.9816 	 10.6218 	 87.7502
|  8> C 	 42.5135 	 11.5018 	 88.0213
|  9> C 	 43.5693 	 10.6696 	 88.3155
| 10> C 	 43.0314 	 9.32822 	 88.4592
| 11> C 	 41.737 	 9.06507 	 88.1451
| 12> H 	 43.6018 	 8.48298 	 88.8514
| 13> C 	 45.0196 	 10.9816 	 88.6483
| 14> H 	 45.1519 	 10.7065 	 89.7137
| 15> H 	 45.0729 	 12.1138 	 88.6841
| 16> C 	 46.1134 	 10.3689 	 87.7972
| 17> H 	 46.0617 	 10.6247 	 86.7118
| 18> H 	 46.953 	 10.9412 	 88.149
| 19> C 	 46.2773 	 8.84992 	 87.8571
| 20> H 	 45.4873 	 8.34127 	 87.2924
| 21> H 	 47.2081 	 8.45231 	 87.4481
| 22> H 	 46.1749 	 8.57756 	 88.9015
| 23> S 	 39.1927 	 7.8847 	 88.239
| 24> C 	 39.0355 	 6.18125 	 88.3435
| 25> C 	 40.2305 	 5.5766 	 88.5658
| 26> C 	 41.3905 	 6.50924 	 88.5714
| 27> C 	 40.975 	 7.81961 	 88.3443
| 28> H 	 40.2746 	 4.4937 	 88.7167
| 29> C 	 42.7726 	 5.89215 	 88.6586
| 30> H 	 42.7201 	 4.92534 	 89.1682
| 31> H 	 43.3388 	 6.41275 	 89.3314
| 32> C 	 43.5414 	 5.79428 	 87.3148
| 33> H 	 43.3519 	 6.66984 	 86.6389
| 34> H 	 43.0772 	 4.9758 	 86.6935
| 35> C 	 44.9784 	 5.39449 	 87.4335
| 36> H 	 45.4741 	 5.36165 	 86.4707
| 37> H 	 44.899 	 4.43376 	 87.8063
| 38> H 	 45.5342 	 5.90208 	 88.1981
| 39> H 	 42.6688 	 12.5824 	 87.8883
| 40> H 	 38.0947 	 5.64158 	 88.2905
| 41> *
| 42>
| 43>                          ****END OF INPUT****

CARTESIAN COORDINATES (ANGSTROEM)
---------------------------------
  S     40.981600   10.621800   87.750200
  C     42.513500   11.501800   88.021300
  C     43.569300   10.669600   88.315500
  C     43.031400    9.328220   88.459200
  C     41.737000    9.065070   88.145100
  H     43.601800    8.482980   88.851400
  C     45.019600   10.981600   88.648300
  H     45.151900   10.706500   89.713700
  H     45.072900   12.113800   88.684100
  C     46.113400   10.368900   87.797200
  H     46.061700   10.624700   86.711800
  H     46.953000   10.941200   88.149000
  C     46.277300    8.849920   87.857100
  H     45.487300    8.341270   87.292400
  H     47.208100    8.452310   87.448100
  H     46.174900    8.577560   88.901500
  S     39.192700    7.884700   88.239000
  C     39.035500    6.181250   88.343500
  C     40.230500    5.576600   88.565800
  C     41.390500    6.509240   88.571400
  C     40.975000    7.819610   88.344300
  H     40.274600    4.493700   88.716700
  C     42.772600    5.892150   88.658600
  H     42.720100    4.925340   89.168200
  H     43.338800    6.412750   89.331400
  C     43.541400    5.794280   87.314800
  H     43.351900    6.669840   86.638900
  H     43.077200    4.975800   86.693500
  C     44.978400    5.394490   87.433500
  H     45.474100    5.361650   86.470700
  H     44.899000    4.433760   87.806300
  H     45.534200    5.902080   88.198100
  H     42.668800   12.582400   87.888300
  H     38.094700    5.641580   88.290500

 Total Charge           Charge          ....    0
 Multiplicity           Mult            ....    1
 Number of Electrons    NEL             ....  134
 Basis Dimension        Dim             ....  322

ORBITAL ENERGIES
----------------

  NO   OCC          E(Eh)            E(eV)
   0   2.0000     -88.964257     -2420.8405
   1   2.0000     -88.964024     -2420.8342
   2   2.0000     -10.336710      -281.2762
   3   2.0000     -10.331095      -281.1234
   4   2.0000     -10.319608      -280.8108
   5   2.0000     -10.314525      -280.6725
   6   2.0000     -10.311581      -280.5924
   7   2.0000     -10.304499      -280.3997
   8   2.0000     -10.303421      -280.3703
   9   2.0000     -10.295687      -280.1599
  10   2.0000     -10.291530      -280.0468
  11   2.0000     -10.290925      -280.0303
  12   2.0000     -10.290230      -280.0114
  13   2.0000     -10.289907      -280.0026
  14   2.0000     -10.280835      -279.7557
  15   2.0000     -10.269753      -279.4542
  16   2.0000      -8.079305      -219.8491
  17   2.0000      -8.077768      -219.8072
  18   2.0000      -6.038011      -164.3026
  19   2.0000      -6.036639      -164.2653
  20   2.0000      -6.033817      -164.1885
  21   2.0000      -6.032528      -164.1534
  22   2.0000      -6.029794      -164.0790
  23   2.0000      -6.028091      -164.0327
  24   2.0000      -1.002262       -27.2729
  25   2.0000      -0.980775       -26.6882
  26   2.0000      -0.914760       -24.8919
  27   2.0000      -0.913884       -24.8680
  28   2.0000      -0.871115       -23.7042
  29   2.0000      -0.856390       -23.3036
  30   2.0000      -0.838119       -22.8064
  31   2.0000      -0.817045       -22.2329
  32   2.0000      -0.788231       -21.4488
  33   2.0000      -0.780490       -21.2382
  34   2.0000      -0.705987       -19.2109
  35   2.0000      -0.704358       -19.1665
  36   2.0000      -0.693541       -18.8722
  37   2.0000      -0.661515       -18.0007
  38   2.0000      -0.634749       -17.2724
  39   2.0000      -0.618066       -16.8184
  40   2.0000      -0.599188       -16.3047
  41   2.0000      -0.574707       -15.6386
  42   2.0000      -0.563043       -15.3212
  43   2.0000      -0.547956       -14.9106
  44   2.0000      -0.538671       -14.6580
  45   2.0000      -0.533828       -14.5262
  46   2.0000      -0.515685       -14.0325
  47   2.0000      -0.512230       -13.9385
  48   2.0000      -0.507953       -13.8221
  49   2.0000      -0.501208       -13.6386
  50   2.0000      -0.493938       -13.4407
  51   2.0000      -0.483380       -13.1534
  52   2.0000      -0.481253       -13.0956
  53   2.0000      -0.463140       -12.6027
  54   2.0000      -0.459959       -12.5161
  55   2.0000      -0.448585       -12.2066
  56   2.0000      -0.446215       -12.1421
  57   2.0000      -0.443311       -12.0631
  58   2.0000      -0.427430       -11.6310
  59   2.0000      -0.423899       -11.5349
  60   2.0000      -0.419674       -11.4199
  61   2.0000      -0.410279       -11.1643
  62   2.0000      -0.406423       -11.0593
  63   2.0000      -0.365351        -9.9417
  64   2.0000      -0.331054        -9.0084
  65   2.0000      -0.324797        -8.8382
  66   2.0000      -0.287076        -7.8117
  67   0.0000       0.023062         0.6275
  68   0.0000       0.090486         2.4623
  69   0.0000       0.095178         2.5899
  70   0.0000       0.119584         3.2541
  71   0.0000       0.127265         3.4631

MULLIKEN ATOMIC CHARGES
-----------------------
   0 S :    0.083925
   1 C :   -0.132004
   2 C :   -0.059636
   3 C :   -0.037918
   4 C :   -0.077043
   5 H :   -0.015242
   6 C :    0.021830
   7 H :    0.045062
   8 H :    0.026348
   9 C :   -0.040668
  10 H :    0.032840
  11 H :    0.026208
  12 C :   -0.056597
  13 H :    0.046906
  14 H :    0.038964
  15 H :    0.024883
  16 S :    0.094669
  17 C :   -0.079291
  18 C :   -0.038021
  19 C :   -0.078845
  20 C :   -0.111941
  21 H :    0.023631
  22 C :    0.105903
  23 H :    0.013190
  24 H :   -0.004008
  25 C :   -0.121040
  26 H :    0.046097
  27 H :    0.027365
  28 C :    0.017008
  29 H :    0.041462
  30 H :    0.002819
  31 H :    0.020006
  32 H :    0.052187
  33 H :    0.060951
Sum of atomic charges:   -0.0000000

LOEWDIN ATOMIC CHARGES
----------------------
   0 S :    0.366515
   1 C :   -0.182202
   2 C :   -0.066492
   3 C :   -0.069579
   4 C :   -0.182077
   5 H :    0.025295
   6 C :   -0.035700
   7 H :    0.038820
   8 H :    0.037762
   9 C :   -0.043157
  10 H :    0.030666
  11 H :    0.025587
  12 C :   -0.066202
  13 H :    0.030202
  14 H :    0.029653
  15 H :    0.019370
  16 S :    0.396338
  17 C :   -0.193648
  18 C :   -0.074738
  19 C :   -0.048765
  20 C :   -0.177971
  21 H :    0.032877
  22 C :   -0.028601
  23 H :    0.034389
  24 H :    0.011977
  25 C :   -0.045031
  26 H :    0.026676
  27 H :    0.029973
  28 C :   -0.060931
  29 H :    0.032636
  30 H :    0.018772
  31 H :    0.019808
  32 H :    0.032873
  33 H :    0.034907

  Mayer bond orders larger than 0.100000
B(  0-S ,  1-C ) :   1.1255 B(  0-S ,  4-C ) :   1.0988 B(  1-C ,  2-C ) :   1.6548
B(  1-C , 32-H ) :   0.9557 B(  2-C ,  3-C ) :   1.2041 B(  2-C ,  6-C ) :   1.0138
B(  3-C ,  4-C ) :   1.6347 B(  3-C ,  5-H ) :   0.9778 B(  4-C , 20-C ) :   1.0795
B(  6-C ,  7-H ) :   0.9392 B(  6-C ,  8-H ) :   0.9377 B(  6-C ,  9-C ) :   1.0718
B(  9-C , 10-H ) :   0.9519 B(  9-C , 11-H ) :   0.9521 B(  9-C , 12-C ) :   1.0784
B( 12-C , 13-H ) :   0.9668 B( 12-C , 14-H ) :   0.9690 B( 12-C , 15-H ) :   0.9710
B( 16-S , 17-C ) :   1.1448 B( 16-S , 20-C ) :   1.1172 B( 17-C , 18-C ) :   1.6436
B( 17-C , 33-H ) :   0.9644 B( 18-C , 19-C ) :   1.2165 B( 18-C , 21-H ) :   0.9859
B( 19-C , 20-C ) :   1.6170 B( 19-C , 22-C ) :   1.0512 B( 22-C , 23-H ) :   0.9224
B( 22-C , 24-H ) :   0.9253 B( 22-C , 25-C ) :   1.0471 B( 25-C , 26-H ) :   0.9611
B( 25-C , 27-H ) :   0.9527 B( 25-C , 28-C ) :   1.0728 B( 28-C , 29-H ) :   0.9693
B( 28-C , 30-H ) :   0.9664 B( 28-C , 31-H ) :   0.9720

Dispersion correction           -0.015752382
FINAL SINGLE POINT ENERGY     -1339.876704015593

DIPOLE MOMENT
-------------
                                X             Y             Z
Electronic contribution:    -31.01709      10.39102       1.28273
Nuclear contribution   :     31.78348     -10.82889      -1.14380
                        -----------------------------------------
Total Dipole Moment    :      0.76639      -0.43787       0.13894
                        -----------------------------------------
Magnitude (a.u.)       :      0.89352
Magnitude (Debye)      :      2.27116

Rotational constants in cm-1:     0.017354     0.010927     0.006975
Rotational constants in MHz :   520.247457   327.582673   209.102396

                             ****ORCA TERMINATED NORMALLY****
TOTAL RUN TIME: 0 days 0 hours 0 minutes 31 seconds 975 msec
