                         Program Version 4.2.1 -  RELEASE  -
|  1> ! wB97X-D3 SP def2-SVP
|  2> %pal
|  3> nprocs 16
|  4> end
|  5>
|  6> * xyz 0 1
|  7> S 	 11.1562 	 -6.68686 	 72.5559
|  8> C 	 10.8869 	 -5.07319 	 73.2604
|  9> C 	 9.7265 	 -4.47102 	 72.7522
| 10> C 	 9.09252 	 -5.32801 	 71.7708
| 11> C 	 9.75039 	 -6.5287 	 71.4664
| 12> H 	 8.23998 	 -5.02429 	 71.2115
| 13> C 	 8.92147 	 -3.18244 	 73.1757
| 14> H 	 9.40228 	 -2.6314 	 73.997
| 15> H 	 7.88838 	 -3.4722 	 73.4165
| 16> C 	 8.62365 	 -2.0774 	 72.0873
| 17> H 	 8.19849 	 -2.34727 	 71.1271
| 18> H 	 7.93841 	 -1.34886 	 72.4306
| 19> C 	 9.93365 	 -1.2534 	 71.6838
| 20> H 	 10.0699 	 -0.397849 	 72.3101
| 21> H 	 10.9032 	 -1.8182 	 71.7773
| 22> H 	 9.86354 	 -0.988923 	 70.5931
| 23> S 	 10.6222 	 -7.81206 	 69.2847
| 24> C 	 9.81884 	 -9.11651 	 68.6342
| 25> C 	 8.48883 	 -9.20406 	 69.1033
| 26> C 	 8.24988 	 -8.15961 	 70.0786
| 27> C 	 9.40337 	 -7.52651 	 70.462
| 28> H 	 7.70749 	 -9.8717 	 68.7377
| 29> C 	 6.91684 	 -8.09169 	 70.8043
| 30> H 	 6.2782 	 -8.95056 	 70.4727
| 31> H 	 6.36414 	 -7.16655 	 70.5887
| 32> C 	 6.99062 	 -8.44174 	 72.3276
| 33> H 	 7.63681 	 -7.65443 	 72.7876
| 34> H 	 7.48509 	 -9.40135 	 72.3703
| 35> C 	 5.63288 	 -8.62567 	 73.1037
| 36> H 	 5.64352 	 -8.55688 	 74.1629
| 37> H 	 5.03496 	 -9.5363 	 72.8567
| 38> H 	 4.93451 	 -7.78084 	 72.7913
| 39> H 	 11.5678 	 -4.72747 	 74.0224
| 40> H 	 10.2448 	 -9.65467 	 67.7613
| 41> *
| 42>
| 43>                          ****END OF INPUT****

CARTESIAN COORDINATES (ANGSTROEM)
---------------------------------
  S     11.156200   -6.686860   72.555900
  C     10.886900   -5.073190   73.260400
  C      9.726500   -4.471020   72.752200
  C      9.092520   -5.328010   71.770800
  C      9.750390   -6.528700   71.466400
  H      8.239980   -5.024290   71.211500
  C      8.921470   -3.182440   73.175700
  H      9.402280   -2.631400   73.997000
  H      7.888380   -3.472200   73.416500
  C      8.623650   -2.077400   72.087300
  H      8.198490   -2.347270   71.127100
  H      7.938410   -1.348860   72.430600
  C      9.933650   -1.253400   71.683800
  H     10.069900   -0.397849   72.310100
  H     10.903200   -1.818200   71.777300
  H      9.863540   -0.988923   70.593100
  S     10.622200   -7.812060   69.284700
  C      9.818840   -9.116510   68.634200
  C      8.488830   -9.204060   69.103300
  C      8.249880   -8.159610   70.078600
  C      9.403370   -7.526510   70.462000
  H      7.707490   -9.871700   68.737700
  C      6.916840   -8.091690   70.804300
  H      6.278200   -8.950560   70.472700
  H      6.364140   -7.166550   70.588700
  C      6.990620   -8.441740   72.327600
  H      7.636810   -7.654430   72.787600
  H      7.485090   -9.401350   72.370300
  C      5.632880   -8.625670   73.103700
  H      5.643520   -8.556880   74.162900
  H      5.034960   -9.536300   72.856700
  H      4.934510   -7.780840   72.791300
  H     11.567800   -4.727470   74.022400
  H     10.244800   -9.654670   67.761300

 Total Charge           Charge          ....    0
 Multiplicity           Mult            ....    1
 Number of Electrons    NEL             ....  134
 Basis Dimension        Dim             ....  322

ORBITAL ENERGIES
----------------

  NO   OCC          E(Eh)            E(eV)
   0   2.0000     -88.968017     -2420.9428
   1   2.0000     -88.963478     -2420.8193
   2   2.0000     -10.336253      -281.2637
   3   2.0000     -10.325191      -280.9627
   4   2.0000     -10.322654      -280.8937
   5   2.0000     -10.317915      -280.7647
   6   2.0000     -10.315388      -280.6960
   7   2.0000     -10.308803      -280.5168
   8   2.0000     -10.305071      -280.4152
   9   2.0000     -10.299533      -280.2645
  10   2.0000     -10.296431      -280.1801
  11   2.0000     -10.295240      -280.1477
  12   2.0000     -10.291014      -280.0327
  13   2.0000     -10.288055      -279.9522
  14   2.0000     -10.283381      -279.8250
  15   2.0000     -10.279698      -279.7248
  16   2.0000      -8.081655      -219.9130
  17   2.0000      -8.080792      -219.8895
  18   2.0000      -6.040262      -164.3639
  19   2.0000      -6.038949      -164.3282
  20   2.0000      -6.036259      -164.2550
  21   2.0000      -6.034905      -164.2181
  22   2.0000      -6.032421      -164.1505
  23   2.0000      -6.031770      -164.1328
  24   2.0000      -1.014016       -27.5928
  25   2.0000      -0.979636       -26.6572
  26   2.0000      -0.902784       -24.5660
  27   2.0000      -0.898391       -24.4465
  28   2.0000      -0.866298       -23.5732
  29   2.0000      -0.847055       -23.0495
  30   2.0000      -0.839808       -22.8523
  31   2.0000      -0.806432       -21.9441
  32   2.0000      -0.779508       -21.2115
  33   2.0000      -0.772966       -21.0335
  34   2.0000      -0.704973       -19.1833
  35   2.0000      -0.699424       -19.0323
  36   2.0000      -0.686351       -18.6766
  37   2.0000      -0.667950       -18.1758
  38   2.0000      -0.643009       -17.4972
  39   2.0000      -0.620194       -16.8763
  40   2.0000      -0.595959       -16.2169
  41   2.0000      -0.564144       -15.3511
  42   2.0000      -0.557327       -15.1656
  43   2.0000      -0.542645       -14.7661
  44   2.0000      -0.536592       -14.6014
  45   2.0000      -0.517325       -14.0771
  46   2.0000      -0.513207       -13.9651
  47   2.0000      -0.509739       -13.8707
  48   2.0000      -0.499924       -13.6036
  49   2.0000      -0.498464       -13.5639
  50   2.0000      -0.486258       -13.2318
  51   2.0000      -0.483117       -13.1463
  52   2.0000      -0.472701       -12.8629
  53   2.0000      -0.464512       -12.6400
  54   2.0000      -0.457783       -12.4569
  55   2.0000      -0.449897       -12.2423
  56   2.0000      -0.442248       -12.0342
  57   2.0000      -0.435760       -11.8576
  58   2.0000      -0.430926       -11.7261
  59   2.0000      -0.419770       -11.4225
  60   2.0000      -0.415917       -11.3177
  61   2.0000      -0.415674       -11.3111
  62   2.0000      -0.404976       -11.0200
  63   2.0000      -0.343850        -9.3566
  64   2.0000      -0.334032        -9.0895
  65   2.0000      -0.325483        -8.8568
  66   2.0000      -0.295960        -8.0535
  67   0.0000       0.026967         0.7338
  68   0.0000       0.067237         1.8296
  69   0.0000       0.106664         2.9025
  70   0.0000       0.110539         3.0079
  71   0.0000       0.131978         3.5913

MULLIKEN ATOMIC CHARGES
-----------------------
   0 S :    0.104832
   1 C :   -0.141491
   2 C :   -0.033430
   3 C :    0.031768
   4 C :   -0.159631
   5 H :    0.004504
   6 C :    0.054037
   7 H :    0.034803
   8 H :    0.044973
   9 C :   -0.076725
  10 H :    0.028702
  11 H :    0.025867
  12 C :   -0.105551
  13 H :    0.030923
  14 H :    0.040977
  15 H :    0.040908
  16 S :    0.129929
  17 C :   -0.094333
  18 C :   -0.047918
  19 C :   -0.017175
  20 C :   -0.168013
  21 H :    0.027797
  22 C :    0.022677
  23 H :    0.019398
  24 H :    0.039682
  25 C :   -0.085208
  26 H :    0.056172
  27 H :    0.034688
  28 C :   -0.069808
  29 H :    0.035275
  30 H :    0.036630
  31 H :    0.023395
  32 H :    0.056313
  33 H :    0.075034
Sum of atomic charges:   -0.0000000

LOEWDIN ATOMIC CHARGES
----------------------
   0 S :    0.383553
   1 C :   -0.182897
   2 C :   -0.060549
   3 C :   -0.056252
   4 C :   -0.189779
   5 H :    0.024415
   6 C :   -0.024345
   7 H :    0.032604
   8 H :    0.037519
   9 C :   -0.041755
  10 H :    0.021428
  11 H :    0.021236
  12 C :   -0.077757
  13 H :    0.016683
  14 H :    0.029202
  15 H :    0.030887
  16 S :    0.464424
  17 C :   -0.215198
  18 C :   -0.074721
  19 C :   -0.055253
  20 C :   -0.215137
  21 H :    0.033602
  22 C :   -0.038389
  23 H :    0.032358
  24 H :    0.028206
  25 C :   -0.040808
  26 H :    0.028695
  27 H :    0.024337
  28 C :   -0.077704
  29 H :    0.022576
  30 H :    0.027888
  31 H :    0.028429
  32 H :    0.026783
  33 H :    0.035721

  Mayer bond orders larger than 0.100000
B(  0-S ,  1-C ) :   1.1388 B(  0-S ,  4-C ) :   1.1407 B(  1-C ,  2-C ) :   1.6010
B(  1-C ,  4-C ) :   0.1002 B(  1-C , 32-H ) :   0.9729 B(  2-C ,  3-C ) :   1.2324
B(  2-C ,  6-C ) :   1.0140 B(  3-C ,  4-C ) :   1.5790 B(  3-C ,  5-H ) :   0.9975
B(  4-C , 20-C ) :   1.0408 B(  6-C ,  7-H ) :   0.9519 B(  6-C ,  8-H ) :   0.9471
B(  6-C ,  9-C ) :   1.0571 B(  9-C , 10-H ) :   0.9680 B(  9-C , 11-H ) :   0.9606
B(  9-C , 12-C ) :   1.0500 B( 12-C , 13-H ) :   0.9814 B( 12-C , 14-H ) :   0.9822
B( 12-C , 15-H ) :   0.9819 B( 16-S , 17-C ) :   1.2044 B( 16-S , 20-C ) :   1.1737
B( 17-C , 18-C ) :   1.5388 B( 17-C , 33-H ) :   0.9646 B( 18-C , 19-C ) :   1.2749
B( 18-C , 21-H ) :   0.9898 B( 19-C , 20-C ) :   1.5566 B( 19-C , 22-C ) :   1.0547
B( 22-C , 23-H ) :   0.9466 B( 22-C , 24-H ) :   0.9294 B( 22-C , 25-C ) :   1.0537
B( 25-C , 26-H ) :   0.9548 B( 25-C , 27-H ) :   0.9596 B( 25-C , 28-C ) :   1.0697
B( 28-C , 29-H ) :   0.9773 B( 28-C , 30-H ) :   0.9759 B( 28-C , 31-H ) :   0.9753

Dispersion correction           -0.014303383
FINAL SINGLE POINT ENERGY     -1339.860156190667

DIPOLE MOMENT
-------------
                                X             Y             Z
Electronic contribution:     19.29063     -13.46538      -8.32013
Nuclear contribution   :    -19.82159      13.74862       8.34909
                        -----------------------------------------
Total Dipole Moment    :     -0.53096       0.28324       0.02896
                        -----------------------------------------
Magnitude (a.u.)       :      0.60248
Magnitude (Debye)      :      1.53138

Rotational constants in cm-1:     0.017257     0.008671     0.007265
Rotational constants in MHz :   517.363982   259.945823   217.806152

                             ****ORCA TERMINATED NORMALLY****
TOTAL RUN TIME: 0 days 0 hours 0 minutes 34 seconds 110 msec
