                         Program Version 4.2.1 -  RELEASE  -
|  1> ! wB97X-D3 SP def2-SVP
|  2> %pal
|  3> nprocs 16
|  4> end
|  5>
|  6> * xyz 0 1
|  7> S 	 67.792 	 23.6756 	 73.4072
|  8> C 	 69.1608 	 22.8364 	 74.2361
|  9> C 	 69.9971 	 23.8677 	 74.7803
| 10> C 	 69.5525 	 25.2285 	 74.5762
| 11> C 	 68.3493 	 25.284 	 73.9745
| 12> H 	 70.0664 	 26.1441 	 74.8801
| 13> C 	 71.055 	 23.5929 	 75.7835
| 14> H 	 71.9265 	 24.1597 	 75.6714
| 15> H 	 71.3827 	 22.5759 	 75.7095
| 16> C 	 70.6367 	 23.9971 	 77.2471
| 17> H 	 70.2032 	 24.9487 	 77.4018
| 18> H 	 69.8559 	 23.3579 	 77.6108
| 19> C 	 71.8156 	 23.8916 	 78.2902
| 20> H 	 72.6676 	 24.458 	 77.8968
| 21> H 	 71.7028 	 24.3634 	 79.2297
| 22> H 	 72.0611 	 22.8669 	 78.5105
| 23> S 	 67.3407 	 27.1917 	 72.207
| 24> C 	 66.4493 	 28.5505 	 72.8663
| 25> C 	 66.3074 	 28.4445 	 74.2079
| 26> C 	 66.9481 	 27.3149 	 74.7569
| 27> C 	 67.5987 	 26.5522 	 73.7811
| 28> H 	 65.7699 	 29.315 	 74.6242
| 29> C 	 66.7506 	 26.8881 	 76.1687
| 30> H 	 66.5633 	 27.816 	 76.7165
| 31> H 	 67.6955 	 26.6358 	 76.6452
| 32> C 	 65.6237 	 26.0107 	 76.4909
| 33> H 	 65.6766 	 25.0269 	 76.0258
| 34> H 	 64.7646 	 26.5555 	 76.2463
| 35> C 	 65.5845 	 25.8231 	 78.0116
| 36> H 	 66.5224 	 25.3638 	 78.3167
| 37> H 	 64.7621 	 25.0847 	 78.2181
| 38> H 	 65.314 	 26.8002 	 78.4752
| 39> H 	 69.3036 	 21.7733 	 74.4585
| 40> H 	 66.1369 	 29.4976 	 72.3605
| 41> *
| 42>
| 43>                          ****END OF INPUT****

CARTESIAN COORDINATES (ANGSTROEM)
---------------------------------
  S     67.792000   23.675600   73.407200
  C     69.160800   22.836400   74.236100
  C     69.997100   23.867700   74.780300
  C     69.552500   25.228500   74.576200
  C     68.349300   25.284000   73.974500
  H     70.066400   26.144100   74.880100
  C     71.055000   23.592900   75.783500
  H     71.926500   24.159700   75.671400
  H     71.382700   22.575900   75.709500
  C     70.636700   23.997100   77.247100
  H     70.203200   24.948700   77.401800
  H     69.855900   23.357900   77.610800
  C     71.815600   23.891600   78.290200
  H     72.667600   24.458000   77.896800
  H     71.702800   24.363400   79.229700
  H     72.061100   22.866900   78.510500
  S     67.340700   27.191700   72.207000
  C     66.449300   28.550500   72.866300
  C     66.307400   28.444500   74.207900
  C     66.948100   27.314900   74.756900
  C     67.598700   26.552200   73.781100
  H     65.769900   29.315000   74.624200
  C     66.750600   26.888100   76.168700
  H     66.563300   27.816000   76.716500
  H     67.695500   26.635800   76.645200
  C     65.623700   26.010700   76.490900
  H     65.676600   25.026900   76.025800
  H     64.764600   26.555500   76.246300
  C     65.584500   25.823100   78.011600
  H     66.522400   25.363800   78.316700
  H     64.762100   25.084700   78.218100
  H     65.314000   26.800200   78.475200
  H     69.303600   21.773300   74.458500
  H     66.136900   29.497600   72.360500

 Total Charge           Charge          ....    0
 Multiplicity           Mult            ....    1
 Number of Electrons    NEL             ....  134
 Basis Dimension        Dim             ....  322

ORBITAL ENERGIES
----------------

  NO   OCC          E(Eh)            E(eV)
   0   2.0000     -88.968421     -2420.9538
   1   2.0000     -88.967182     -2420.9201
   2   2.0000     -10.333336      -281.1844
   3   2.0000     -10.326814      -281.0069
   4   2.0000     -10.326043      -280.9859
   5   2.0000     -10.315379      -280.6957
   6   2.0000     -10.307936      -280.4932
   7   2.0000     -10.300865      -280.3008
   8   2.0000     -10.295288      -280.1490
   9   2.0000     -10.290550      -280.0201
  10   2.0000     -10.287359      -279.9333
  11   2.0000     -10.286197      -279.9017
  12   2.0000     -10.280078      -279.7351
  13   2.0000     -10.279475      -279.7187
  14   2.0000     -10.275964      -279.6232
  15   2.0000     -10.272170      -279.5200
  16   2.0000      -8.082256      -219.9294
  17   2.0000      -8.081196      -219.9005
  18   2.0000      -6.040654      -164.3745
  19   2.0000      -6.040060      -164.3584
  20   2.0000      -6.036636      -164.2652
  21   2.0000      -6.035940      -164.2463
  22   2.0000      -6.033190      -164.1715
  23   2.0000      -6.031700      -164.1309
  24   2.0000      -1.007424       -27.4134
  25   2.0000      -0.980139       -26.6709
  26   2.0000      -0.921980       -25.0883
  27   2.0000      -0.907673       -24.6990
  28   2.0000      -0.867812       -23.6144
  29   2.0000      -0.852959       -23.2102
  30   2.0000      -0.844142       -22.9703
  31   2.0000      -0.821108       -22.3435
  32   2.0000      -0.778201       -21.1759
  33   2.0000      -0.765807       -20.8387
  34   2.0000      -0.712171       -19.3792
  35   2.0000      -0.702726       -19.1221
  36   2.0000      -0.692326       -18.8392
  37   2.0000      -0.654324       -17.8050
  38   2.0000      -0.643737       -17.5170
  39   2.0000      -0.621991       -16.9252
  40   2.0000      -0.596752       -16.2384
  41   2.0000      -0.578442       -15.7402
  42   2.0000      -0.571919       -15.5627
  43   2.0000      -0.558751       -15.2044
  44   2.0000      -0.528893       -14.3919
  45   2.0000      -0.519157       -14.1270
  46   2.0000      -0.518748       -14.1158
  47   2.0000      -0.511703       -13.9242
  48   2.0000      -0.508406       -13.8344
  49   2.0000      -0.496956       -13.5229
  50   2.0000      -0.495143       -13.4735
  51   2.0000      -0.477038       -12.9809
  52   2.0000      -0.466974       -12.7070
  53   2.0000      -0.461951       -12.5703
  54   2.0000      -0.458035       -12.4638
  55   2.0000      -0.448869       -12.2143
  56   2.0000      -0.442318       -12.0361
  57   2.0000      -0.436114       -11.8673
  58   2.0000      -0.433183       -11.7875
  59   2.0000      -0.422989       -11.5101
  60   2.0000      -0.419699       -11.4206
  61   2.0000      -0.418651       -11.3921
  62   2.0000      -0.411679       -11.2024
  63   2.0000      -0.344415        -9.3720
  64   2.0000      -0.333313        -9.0699
  65   2.0000      -0.323772        -8.8103
  66   2.0000      -0.300774        -8.1845
  67   0.0000       0.038685         1.0527
  68   0.0000       0.053742         1.4624
  69   0.0000       0.114108         3.1050
  70   0.0000       0.120661         3.2833
  71   0.0000       0.125975         3.4279

MULLIKEN ATOMIC CHARGES
-----------------------
   0 S :    0.099539
   1 C :   -0.119909
   2 C :   -0.088904
   3 C :    0.039663
   4 C :   -0.139079
   5 H :    0.030697
   6 C :    0.109081
   7 H :    0.002978
   8 H :    0.012064
   9 C :   -0.073033
  10 H :    0.020856
  11 H :    0.017892
  12 C :   -0.051077
  13 H :    0.022411
  14 H :    0.021123
  15 H :    0.032666
  16 S :    0.122505
  17 C :   -0.118191
  18 C :   -0.058826
  19 C :   -0.006213
  20 C :   -0.185458
  21 H :    0.028761
  22 C :    0.073698
  23 H :   -0.006363
  24 H :    0.003705
  25 C :   -0.008337
  26 H :    0.034707
  27 H :    0.008235
  28 C :   -0.067009
  29 H :    0.034473
  30 H :    0.037904
  31 H :    0.037701
  32 H :    0.064273
  33 H :    0.067465
Sum of atomic charges:    0.0000000

LOEWDIN ATOMIC CHARGES
----------------------
   0 S :    0.362432
   1 C :   -0.192631
   2 C :   -0.053708
   3 C :   -0.057604
   4 C :   -0.172955
   5 H :    0.040894
   6 C :   -0.027293
   7 H :    0.022145
   8 H :    0.027897
   9 C :   -0.031729
  10 H :    0.017957
  11 H :    0.019519
  12 C :   -0.066256
  13 H :    0.024272
  14 H :    0.021353
  15 H :    0.022516
  16 S :    0.421590
  17 C :   -0.195409
  18 C :   -0.081853
  19 C :   -0.056246
  20 C :   -0.209740
  21 H :    0.041372
  22 C :   -0.042223
  23 H :    0.029720
  24 H :    0.025441
  25 C :   -0.032914
  26 H :    0.025510
  27 H :    0.019120
  28 C :   -0.061017
  29 H :    0.022941
  30 H :    0.029945
  31 H :    0.027285
  32 H :    0.037755
  33 H :    0.041912

  Mayer bond orders larger than 0.100000
B(  0-S ,  1-C ) :   1.1072 B(  0-S ,  4-C ) :   1.1215 B(  1-C ,  2-C ) :   1.6229
B(  1-C , 32-H ) :   0.9673 B(  2-C ,  3-C ) :   1.1860 B(  2-C ,  6-C ) :   1.0697
B(  3-C ,  4-C ) :   1.6359 B(  3-C ,  5-H ) :   0.9897 B(  4-C , 20-C ) :   1.0090
B(  6-C ,  7-H ) :   0.9323 B(  6-C ,  8-H ) :   0.9396 B(  6-C ,  9-C ) :   1.0361
B(  9-C , 10-H ) :   0.9603 B(  9-C , 11-H ) :   0.9571 B(  9-C , 12-C ) :   1.0773
B( 12-C , 13-H ) :   0.9743 B( 12-C , 14-H ) :   0.9756 B( 12-C , 15-H ) :   0.9798
B( 16-S , 17-C ) :   1.1535 B( 16-S , 20-C ) :   1.1616 B( 17-C , 18-C ) :   1.6367
B( 17-C , 33-H ) :   0.9556 B( 18-C , 19-C ) :   1.2403 B( 18-C , 21-H ) :   0.9862
B( 19-C , 20-C ) :   1.5784 B( 19-C , 22-C ) :   1.0501 B( 22-C , 23-H ) :   0.9175
B( 22-C , 24-H ) :   0.9159 B( 22-C , 25-C ) :   1.0835 B( 25-C , 26-H ) :   0.9505
B( 25-C , 27-H ) :   0.9447 B( 25-C , 28-C ) :   1.0870 B( 28-C , 29-H ) :   0.9751
B( 28-C , 30-H ) :   0.9746 B( 28-C , 31-H ) :   0.9741

Dispersion correction           -0.014736581
FINAL SINGLE POINT ENERGY     -1339.857550126131

DIPOLE MOMENT
-------------
                                X             Y             Z
Electronic contribution:     -5.96806       2.96573     -29.92626
Nuclear contribution   :      6.09275      -2.70945      30.64278
                        -----------------------------------------
Total Dipole Moment    :      0.12469       0.25628       0.71652
                        -----------------------------------------
Magnitude (a.u.)       :      0.77112
Magnitude (Debye)      :      1.96004

Rotational constants in cm-1:     0.017560     0.009202     0.007465
Rotational constants in MHz :   526.439834   275.867020   223.786069

                             ****ORCA TERMINATED NORMALLY****
TOTAL RUN TIME: 0 days 0 hours 0 minutes 29 seconds 227 msec
