                         Program Version 4.2.1 -  RELEASE  -
|  1> ! wB97X-D3 SP def2-SVP
|  2> %pal
|  3> nprocs 16
|  4> end
|  5>
|  6> * xyz 0 1
|  7> S 	 -47.4412 	 -1.79082 	 95.3531
|  8> C 	 -48.829 	 -2.76726 	 95.8457
|  9> C 	 -49.1175 	 -2.58684 	 97.1921
| 10> C 	 -48.2151 	 -1.69111 	 97.8585
| 11> C 	 -47.2579 	 -1.15401 	 97.0284
| 12> H 	 -48.3014 	 -1.31367 	 98.8527
| 13> C 	 -50.3683 	 -3.14977 	 97.8079
| 14> H 	 -50.0619 	 -3.56844 	 98.7504
| 15> H 	 -50.7779 	 -3.95986 	 97.1712
| 16> C 	 -51.3911 	 -2.12354 	 98.2336
| 17> H 	 -52.1559 	 -2.63413 	 98.8279
| 18> H 	 -50.872 	 -1.39578 	 98.8499
| 19> C 	 -51.9307 	 -1.35312 	 96.9908
| 20> H 	 -51.1453 	 -0.922983 	 96.4
| 21> H 	 -52.5919 	 -2.05411 	 96.3907
| 22> H 	 -52.5183 	 -0.391434 	 97.2012
| 23> S 	 -45.0678 	 0.192386 	 98.267
| 24> C 	 -44.8266 	 1.89037 	 97.8565
| 25> C 	 -45.8792 	 2.45231 	 97.1691
| 26> C 	 -46.805 	 1.41578 	 96.7444
| 27> C 	 -46.5637 	 0.0949693 	 97.2283
| 28> H 	 -45.8943 	 3.45505 	 96.8181
| 29> C 	 -48.009 	 1.82056 	 95.9134
| 30> H 	 -48.3414 	 1.00684 	 95.2351
| 31> H 	 -47.6855 	 2.66951 	 95.3168
| 32> C 	 -49.2694 	 2.18494 	 96.6885
| 33> H 	 -48.8994 	 2.65517 	 97.6038
| 34> H 	 -49.8554 	 1.36214 	 96.9666
| 35> C 	 -49.9724 	 3.33186 	 95.9152
| 36> H 	 -50.7629 	 3.80973 	 96.5057
| 37> H 	 -50.1383 	 3.21008 	 94.8507
| 38> H 	 -49.278 	 4.15267 	 95.9019
| 39> H 	 -49.3829 	 -3.47334 	 95.2095
| 40> H 	 -43.9783 	 2.5282 	 98.1032
| 41> *
| 42>
| 43>                          ****END OF INPUT****

CARTESIAN COORDINATES (ANGSTROEM)
---------------------------------
  S    -47.441200   -1.790820   95.353100
  C    -48.829000   -2.767260   95.845700
  C    -49.117500   -2.586840   97.192100
  C    -48.215100   -1.691110   97.858500
  C    -47.257900   -1.154010   97.028400
  H    -48.301400   -1.313670   98.852700
  C    -50.368300   -3.149770   97.807900
  H    -50.061900   -3.568440   98.750400
  H    -50.777900   -3.959860   97.171200
  C    -51.391100   -2.123540   98.233600
  H    -52.155900   -2.634130   98.827900
  H    -50.872000   -1.395780   98.849900
  C    -51.930700   -1.353120   96.990800
  H    -51.145300   -0.922983   96.400000
  H    -52.591900   -2.054110   96.390700
  H    -52.518300   -0.391434   97.201200
  S    -45.067800    0.192386   98.267000
  C    -44.826600    1.890370   97.856500
  C    -45.879200    2.452310   97.169100
  C    -46.805000    1.415780   96.744400
  C    -46.563700    0.094969   97.228300
  H    -45.894300    3.455050   96.818100
  C    -48.009000    1.820560   95.913400
  H    -48.341400    1.006840   95.235100
  H    -47.685500    2.669510   95.316800
  C    -49.269400    2.184940   96.688500
  H    -48.899400    2.655170   97.603800
  H    -49.855400    1.362140   96.966600
  C    -49.972400    3.331860   95.915200
  H    -50.762900    3.809730   96.505700
  H    -50.138300    3.210080   94.850700
  H    -49.278000    4.152670   95.901900
  H    -49.382900   -3.473340   95.209500
  H    -43.978300    2.528200   98.103200

 Total Charge           Charge          ....    0
 Multiplicity           Mult            ....    1
 Number of Electrons    NEL             ....  134
 Basis Dimension        Dim             ....  322

ORBITAL ENERGIES
----------------

  NO   OCC          E(Eh)            E(eV)
   0   2.0000     -88.969159     -2420.9739
   1   2.0000     -88.966206     -2420.8936
   2   2.0000     -10.334727      -281.2222
   3   2.0000     -10.333803      -281.1971
   4   2.0000     -10.322664      -280.8940
   5   2.0000     -10.321272      -280.8561
   6   2.0000     -10.309999      -280.5493
   7   2.0000     -10.304260      -280.3932
   8   2.0000     -10.300639      -280.2946
   9   2.0000     -10.295303      -280.1494
  10   2.0000     -10.291109      -280.0353
  11   2.0000     -10.290874      -280.0289
  12   2.0000     -10.285148      -279.8731
  13   2.0000     -10.284744      -279.8621
  14   2.0000     -10.280665      -279.7511
  15   2.0000     -10.276258      -279.6312
  16   2.0000      -8.082431      -219.9341
  17   2.0000      -8.079546      -219.8556
  18   2.0000      -6.041003      -164.3840
  19   2.0000      -6.038203      -164.3078
  20   2.0000      -6.037109      -164.2781
  21   2.0000      -6.034240      -164.2000
  22   2.0000      -6.033207      -164.1719
  23   2.0000      -6.030232      -164.0910
  24   2.0000      -0.998934       -27.1824
  25   2.0000      -0.975874       -26.5549
  26   2.0000      -0.917049       -24.9542
  27   2.0000      -0.908956       -24.7339
  28   2.0000      -0.869830       -23.6693
  29   2.0000      -0.845283       -23.0013
  30   2.0000      -0.842417       -22.9233
  31   2.0000      -0.815189       -22.1824
  32   2.0000      -0.781607       -21.2686
  33   2.0000      -0.766726       -20.8637
  34   2.0000      -0.715291       -19.4641
  35   2.0000      -0.698344       -19.0029
  36   2.0000      -0.689702       -18.7678
  37   2.0000      -0.662672       -18.0322
  38   2.0000      -0.641829       -17.4651
  39   2.0000      -0.622344       -16.9349
  40   2.0000      -0.593719       -16.1559
  41   2.0000      -0.571232       -15.5440
  42   2.0000      -0.563114       -15.3231
  43   2.0000      -0.553111       -15.0509
  44   2.0000      -0.544040       -14.8041
  45   2.0000      -0.521378       -14.1874
  46   2.0000      -0.515851       -14.0370
  47   2.0000      -0.513208       -13.9651
  48   2.0000      -0.510355       -13.8875
  49   2.0000      -0.502563       -13.6754
  50   2.0000      -0.485764       -13.2183
  51   2.0000      -0.473822       -12.8933
  52   2.0000      -0.466922       -12.7056
  53   2.0000      -0.461144       -12.5484
  54   2.0000      -0.455936       -12.4067
  55   2.0000      -0.454010       -12.3542
  56   2.0000      -0.445772       -12.1301
  57   2.0000      -0.438387       -11.9291
  58   2.0000      -0.428946       -11.6722
  59   2.0000      -0.424285       -11.5454
  60   2.0000      -0.420205       -11.4344
  61   2.0000      -0.414370       -11.2756
  62   2.0000      -0.407334       -11.0841
  63   2.0000      -0.344617        -9.3775
  64   2.0000      -0.331931        -9.0323
  65   2.0000      -0.323092        -8.7918
  66   2.0000      -0.298390        -8.1196
  67   0.0000       0.031021         0.8441
  68   0.0000       0.048848         1.3292
  69   0.0000       0.108516         2.9529
  70   0.0000       0.112269         3.0550
  71   0.0000       0.126109         3.4316

MULLIKEN ATOMIC CHARGES
-----------------------
   0 S :    0.102456
   1 C :   -0.120352
   2 C :   -0.116222
   3 C :    0.062468
   4 C :   -0.154473
   5 H :    0.015656
   6 C :    0.083851
   7 H :    0.019884
   8 H :    0.026313
   9 C :   -0.056311
  10 H :    0.041239
  11 H :    0.024084
  12 C :   -0.099921
  13 H :    0.045078
  14 H :    0.038620
  15 H :    0.040240
  16 S :    0.093565
  17 C :   -0.081343
  18 C :   -0.018025
  19 C :   -0.058071
  20 C :   -0.159953
  21 H :    0.016310
  22 C :    0.044086
  23 H :    0.033076
  24 H :    0.013855
  25 C :   -0.023973
  26 H :    0.017979
  27 H :    0.024609
  28 C :   -0.049078
  29 H :    0.031752
  30 H :    0.036578
  31 H :    0.005908
  32 H :    0.058834
  33 H :    0.061281
Sum of atomic charges:    0.0000000

LOEWDIN ATOMIC CHARGES
----------------------
   0 S :    0.389512
   1 C :   -0.190579
   2 C :   -0.065853
   3 C :   -0.044478
   4 C :   -0.181933
   5 H :    0.031542
   6 C :   -0.032380
   7 H :    0.030491
   8 H :    0.030984
   9 C :   -0.036765
  10 H :    0.028044
  11 H :    0.022268
  12 C :   -0.079084
  13 H :    0.021290
  14 H :    0.029622
  15 H :    0.031584
  16 S :    0.369887
  17 C :   -0.171513
  18 C :   -0.074688
  19 C :   -0.042703
  20 C :   -0.195287
  21 H :    0.029371
  22 C :   -0.037440
  23 H :    0.028314
  24 H :    0.026126
  25 C :   -0.029869
  26 H :    0.025141
  27 H :    0.014543
  28 C :   -0.068879
  29 H :    0.027917
  30 H :    0.024540
  31 H :    0.021457
  32 H :    0.034455
  33 H :    0.034361

  Mayer bond orders larger than 0.100000
B(  0-S ,  1-C ) :   1.1311 B(  0-S ,  4-C ) :   1.1362 B(  1-C ,  2-C ) :   1.6177
B(  1-C , 32-H ) :   0.9639 B(  2-C ,  3-C ) :   1.2250 B(  2-C ,  6-C ) :   1.0338
B(  3-C ,  4-C ) :   1.5935 B(  3-C ,  5-H ) :   0.9907 B(  4-C , 20-C ) :   1.0373
B(  6-C ,  7-H ) :   0.9263 B(  6-C ,  8-H ) :   0.9456 B(  6-C ,  9-C ) :   1.0732
B(  9-C , 10-H ) :   0.9575 B(  9-C , 11-H ) :   0.9534 B(  9-C , 12-C ) :   1.0647
B( 12-C , 13-H ) :   0.9715 B( 12-C , 14-H ) :   0.9747 B( 12-C , 15-H ) :   0.9759
B( 16-S , 17-C ) :   1.1616 B( 16-S , 20-C ) :   1.0948 B( 17-C , 18-C ) :   1.6203
B( 17-C , 33-H ) :   0.9605 B( 18-C , 19-C ) :   1.2308 B( 18-C , 21-H ) :   0.9888
B( 19-C , 20-C ) :   1.5958 B( 19-C , 22-C ) :   1.0628 B( 22-C , 23-H ) :   0.9244
B( 22-C , 24-H ) :   0.9386 B( 22-C , 25-C ) :   1.0560 B( 25-C , 26-H ) :   0.9554
B( 25-C , 27-H ) :   0.9582 B( 25-C , 28-C ) :   1.0714 B( 28-C , 29-H ) :   0.9719
B( 28-C , 30-H ) :   0.9768 B( 28-C , 31-H ) :   0.9708

Dispersion correction           -0.016016235
FINAL SINGLE POINT ENERGY     -1339.866690735057

DIPOLE MOMENT
-------------
                                X             Y             Z
Electronic contribution:     26.79745      -8.96903       0.54103
Nuclear contribution   :    -27.35859       9.28013      -0.46105
                        -----------------------------------------
Total Dipole Moment    :     -0.56114       0.31110       0.07998
                        -----------------------------------------
Magnitude (a.u.)       :      0.64657
Magnitude (Debye)      :      1.64346

Rotational constants in cm-1:     0.017776     0.009993     0.007852
Rotational constants in MHz :   532.911343   299.580768   235.403231

                             ****ORCA TERMINATED NORMALLY****
TOTAL RUN TIME: 0 days 0 hours 0 minutes 32 seconds 254 msec
