                         Program Version 4.2.1 -  RELEASE  -
|  1> ! wB97X-D3 SP def2-SVP
|  2> %pal
|  3> nprocs 16
|  4> end
|  5>
|  6> * xyz 0 1
|  7> S 	 -54.3628 	 42.1606 	 113.558
|  8> C 	 -53.0116 	 42.4305 	 112.434
|  9> C 	 -53.1689 	 41.6519 	 111.321
| 10> C 	 -54.2961 	 40.7494 	 111.461
| 11> C 	 -55.037 	 40.8689 	 112.621
| 12> H 	 -54.5125 	 39.9326 	 110.823
| 13> C 	 -52.1178 	 41.5631 	 110.261
| 14> H 	 -51.1488 	 41.4841 	 110.715
| 15> H 	 -52.1447 	 42.4997 	 109.709
| 16> C 	 -52.1776 	 40.4205 	 109.235
| 17> H 	 -51.8827 	 39.4303 	 109.721
| 18> H 	 -53.1366 	 40.2554 	 108.737
| 19> C 	 -51.1882 	 40.7125 	 108.099
| 20> H 	 -50.191 	 40.7844 	 108.592
| 21> H 	 -51.1099 	 39.9592 	 107.266
| 22> H 	 -51.422 	 41.6648 	 107.607
| 23> S 	 -56.0902 	 39.5666 	 114.75
| 24> C 	 -57.5882 	 38.6018 	 114.519
| 25> C 	 -58.0238 	 38.7634 	 113.249
| 26> C 	 -57.1383 	 39.5481 	 112.377
| 27> C 	 -56.1174 	 40.0807 	 113.118
| 28> H 	 -58.8335 	 38.1295 	 112.925
| 29> C 	 -57.5588 	 39.902 	 110.937
| 30> H 	 -57.0331 	 40.9052 	 110.774
| 31> H 	 -58.6015 	 40.0266 	 110.985
| 32> C 	 -57.1759 	 38.927 	 109.85
| 33> H 	 -57.5146 	 37.9933 	 110.235
| 34> H 	 -56.0898 	 38.9201 	 109.764
| 35> C 	 -57.6884 	 39.3702 	 108.497
| 36> H 	 -58.7473 	 39.17 	 108.463
| 37> H 	 -57.0536 	 38.6945 	 107.854
| 38> H 	 -57.5035 	 40.362 	 108.218
| 39> H 	 -52.1973 	 43.0884 	 112.643
| 40> H 	 -58.1236 	 38.0766 	 115.223
| 41> *
| 42>
| 43>                          ****END OF INPUT****

CARTESIAN COORDINATES (ANGSTROEM)
---------------------------------
  S    -54.362800   42.160600  113.558000
  C    -53.011600   42.430500  112.434000
  C    -53.168900   41.651900  111.321000
  C    -54.296100   40.749400  111.461000
  C    -55.037000   40.868900  112.621000
  H    -54.512500   39.932600  110.823000
  C    -52.117800   41.563100  110.261000
  H    -51.148800   41.484100  110.715000
  H    -52.144700   42.499700  109.709000
  C    -52.177600   40.420500  109.235000
  H    -51.882700   39.430300  109.721000
  H    -53.136600   40.255400  108.737000
  C    -51.188200   40.712500  108.099000
  H    -50.191000   40.784400  108.592000
  H    -51.109900   39.959200  107.266000
  H    -51.422000   41.664800  107.607000
  S    -56.090200   39.566600  114.750000
  C    -57.588200   38.601800  114.519000
  C    -58.023800   38.763400  113.249000
  C    -57.138300   39.548100  112.377000
  C    -56.117400   40.080700  113.118000
  H    -58.833500   38.129500  112.925000
  C    -57.558800   39.902000  110.937000
  H    -57.033100   40.905200  110.774000
  H    -58.601500   40.026600  110.985000
  C    -57.175900   38.927000  109.850000
  H    -57.514600   37.993300  110.235000
  H    -56.089800   38.920100  109.764000
  C    -57.688400   39.370200  108.497000
  H    -58.747300   39.170000  108.463000
  H    -57.053600   38.694500  107.854000
  H    -57.503500   40.362000  108.218000
  H    -52.197300   43.088400  112.643000
  H    -58.123600   38.076600  115.223000

 Total Charge           Charge          ....    0
 Multiplicity           Mult            ....    1
 Number of Electrons    NEL             ....  134
 Basis Dimension        Dim             ....  322

ORBITAL ENERGIES
----------------

  NO   OCC          E(Eh)            E(eV)
   0   2.0000     -88.964437     -2420.8454
   1   2.0000     -88.960978     -2420.7513
   2   2.0000     -10.325478      -280.9706
   3   2.0000     -10.321594      -280.8649
   4   2.0000     -10.313358      -280.6407
   5   2.0000     -10.312406      -280.6148
   6   2.0000     -10.302554      -280.3468
   7   2.0000     -10.301942      -280.3301
   8   2.0000     -10.295200      -280.1466
   9   2.0000     -10.292962      -280.0857
  10   2.0000     -10.292816      -280.0818
  11   2.0000     -10.292111      -280.0626
  12   2.0000     -10.288709      -279.9700
  13   2.0000     -10.286629      -279.9134
  14   2.0000     -10.281759      -279.7809
  15   2.0000     -10.277354      -279.6610
  16   2.0000      -8.079332      -219.8498
  17   2.0000      -8.075847      -219.7550
  18   2.0000      -6.038009      -164.3026
  19   2.0000      -6.034385      -164.2040
  20   2.0000      -6.033884      -164.1903
  21   2.0000      -6.030226      -164.0908
  22   2.0000      -6.029806      -164.0794
  23   2.0000      -6.026669      -163.9940
  24   2.0000      -1.010437       -27.4954
  25   2.0000      -0.983168       -26.7533
  26   2.0000      -0.916977       -24.9522
  27   2.0000      -0.915492       -24.9118
  28   2.0000      -0.877941       -23.8900
  29   2.0000      -0.852619       -23.2009
  30   2.0000      -0.842364       -22.9219
  31   2.0000      -0.821257       -22.3475
  32   2.0000      -0.781399       -21.2629
  33   2.0000      -0.772519       -21.0213
  34   2.0000      -0.714839       -19.4517
  35   2.0000      -0.698117       -18.9967
  36   2.0000      -0.691589       -18.8191
  37   2.0000      -0.664431       -18.0801
  38   2.0000      -0.645545       -17.5662
  39   2.0000      -0.619770       -16.8648
  40   2.0000      -0.591547       -16.0968
  41   2.0000      -0.578954       -15.7541
  42   2.0000      -0.577082       -15.7032
  43   2.0000      -0.568706       -15.4753
  44   2.0000      -0.533836       -14.5264
  45   2.0000      -0.524054       -14.2602
  46   2.0000      -0.520249       -14.1567
  47   2.0000      -0.513977       -13.9860
  48   2.0000      -0.509699       -13.8696
  49   2.0000      -0.501139       -13.6367
  50   2.0000      -0.499183       -13.5834
  51   2.0000      -0.487869       -13.2756
  52   2.0000      -0.473851       -12.8941
  53   2.0000      -0.466331       -12.6895
  54   2.0000      -0.460158       -12.5215
  55   2.0000      -0.446687       -12.1550
  56   2.0000      -0.440555       -11.9881
  57   2.0000      -0.432056       -11.7568
  58   2.0000      -0.429151       -11.6778
  59   2.0000      -0.427668       -11.6374
  60   2.0000      -0.422431       -11.4949
  61   2.0000      -0.413909       -11.2630
  62   2.0000      -0.410210       -11.1624
  63   2.0000      -0.355140        -9.6638
  64   2.0000      -0.329062        -8.9542
  65   2.0000      -0.327056        -8.8996
  66   2.0000      -0.293461        -7.9855
  67   0.0000       0.027761         0.7554
  68   0.0000       0.080604         2.1933
  69   0.0000       0.111810         3.0425
  70   0.0000       0.122926         3.3450
  71   0.0000       0.126049         3.4300

MULLIKEN ATOMIC CHARGES
-----------------------
   0 S :    0.092040
   1 C :   -0.132654
   2 C :   -0.044325
   3 C :    0.027347
   4 C :   -0.144991
   5 H :   -0.019359
   6 C :    0.054066
   7 H :    0.032999
   8 H :    0.033790
   9 C :   -0.101299
  10 H :    0.045215
  11 H :    0.034470
  12 C :   -0.075020
  13 H :    0.030423
  14 H :    0.044552
  15 H :    0.033548
  16 S :    0.104122
  17 C :   -0.056727
  18 C :   -0.023279
  19 C :   -0.057826
  20 C :   -0.120684
  21 H :    0.019033
  22 C :    0.032990
  23 H :    0.042136
  24 H :    0.014069
  25 C :   -0.061670
  26 H :    0.019325
  27 H :    0.020411
  28 C :   -0.005486
  29 H :    0.032340
  30 H :    0.038197
  31 H :    0.024872
  32 H :    0.042105
  33 H :    0.025269
Sum of atomic charges:   -0.0000000

LOEWDIN ATOMIC CHARGES
----------------------
   0 S :    0.395018
   1 C :   -0.181346
   2 C :   -0.061186
   3 C :   -0.064306
   4 C :   -0.191902
   5 H :    0.019315
   6 C :   -0.032937
   7 H :    0.034349
   8 H :    0.035393
   9 C :   -0.048084
  10 H :    0.031852
  11 H :    0.020473
  12 C :   -0.070985
  13 H :    0.026180
  14 H :    0.030200
  15 H :    0.023262
  16 S :    0.398257
  17 C :   -0.157519
  18 C :   -0.066584
  19 C :   -0.055848
  20 C :   -0.211600
  21 H :    0.029411
  22 C :   -0.031119
  23 H :    0.038323
  24 H :    0.021864
  25 C :   -0.038402
  26 H :    0.020660
  27 H :    0.019568
  28 C :   -0.054267
  29 H :    0.024542
  30 H :    0.037565
  31 H :    0.018812
  32 H :    0.024770
  33 H :    0.016271

  Mayer bond orders larger than 0.100000
B(  0-S ,  1-C ) :   1.1287 B(  0-S ,  4-C ) :   1.1484 B(  1-C ,  2-C ) :   1.6126
B(  1-C , 32-H ) :   0.9821 B(  2-C ,  3-C ) :   1.2384 B(  2-C ,  6-C ) :   1.0082
B(  3-C ,  4-C ) :   1.5698 B(  3-C ,  5-H ) :   0.9966 B(  4-C , 20-C ) :   1.0482
B(  6-C ,  7-H ) :   0.9438 B(  6-C ,  8-H ) :   0.9335 B(  6-C ,  9-C ) :   1.0775
B(  9-C , 10-H ) :   0.9524 B(  9-C , 11-H ) :   0.9527 B(  9-C , 12-C ) :   1.0766
B( 12-C , 13-H ) :   0.9744 B( 12-C , 14-H ) :   0.9744 B( 12-C , 15-H ) :   0.9756
B( 16-S , 17-C ) :   1.1127 B( 16-S , 20-C ) :   1.1339 B( 17-C , 18-C ) :   1.6728
B( 17-C , 33-H ) :   0.9759 B( 18-C , 19-C ) :   1.1991 B( 18-C , 21-H ) :   0.9806
B( 19-C , 20-C ) :   1.6224 B( 19-C , 22-C ) :   1.0294 B( 22-C , 23-H ) :   0.9318
B( 22-C , 24-H ) :   0.9403 B( 22-C , 25-C ) :   1.0693 B( 25-C , 26-H ) :   0.9516
B( 25-C , 27-H ) :   0.9520 B( 25-C , 28-C ) :   1.0777 B( 28-C , 29-H ) :   0.9746
B( 28-C , 30-H ) :   0.9778 B( 28-C , 31-H ) :   0.9729

Dispersion correction           -0.014000068
FINAL SINGLE POINT ENERGY     -1339.873847084918

DIPOLE MOMENT
-------------
                                X             Y             Z
Electronic contribution:     -5.20468       5.18953      31.76515
Nuclear contribution   :      5.23318      -5.47091     -32.43228
                        -----------------------------------------
Total Dipole Moment    :      0.02850      -0.28138      -0.66713
                        -----------------------------------------
Magnitude (a.u.)       :      0.72461
Magnitude (Debye)      :      1.84180

Rotational constants in cm-1:     0.016813     0.009509     0.006656
Rotational constants in MHz :   504.036294   285.074297   199.528483

                             ****ORCA TERMINATED NORMALLY****
TOTAL RUN TIME: 0 days 0 hours 0 minutes 30 seconds 583 msec
