                         Program Version 4.2.1 -  RELEASE  -
|  1> ! wB97X-D3 SP def2-SVP
|  2> %pal
|  3> nprocs 16
|  4> end
|  5>
|  6> * xyz 0 1
|  7> S 	 45.2834 	 11.1981 	 104.56
|  8> C 	 47.0421 	 11.2066 	 104.93
|  9> C 	 47.7913 	 10.4349 	 104.124
| 10> C 	 47.0068 	 9.95231 	 103.032
| 11> C 	 45.6589 	 10.2244 	 103.115
| 12> H 	 47.4378 	 9.31589 	 102.285
| 13> C 	 49.3066 	 10.1912 	 104.294
| 14> H 	 49.6817 	 10.7168 	 105.192
| 15> H 	 49.7458 	 10.6685 	 103.43
| 16> C 	 49.7733 	 8.68218 	 104.341
| 17> H 	 49.4034 	 8.23155 	 103.353
| 18> H 	 50.8722 	 8.58226 	 104.231
| 19> C 	 49.4008 	 8.05338 	 105.68
| 20> H 	 48.3502 	 8.07163 	 105.835
| 21> H 	 49.7398 	 7.04415 	 105.848
| 22> H 	 49.6818 	 8.7111 	 106.498
| 23> S 	 42.8932 	 9.9414 	 102.825
| 24> C 	 42.1855 	 9.82106 	 101.263
| 25> C 	 43.159 	 9.60624 	 100.299
| 26> C 	 44.4851 	 9.58313 	 100.84
| 27> C 	 44.5827 	 9.95468 	 102.189
| 28> H 	 42.8787 	 9.60948 	 99.1893
| 29> C 	 45.6469 	 9.32532 	 99.9773
| 30> H 	 45.8772 	 8.21781 	 100.024
| 31> H 	 46.4751 	 9.86884 	 100.413
| 32> C 	 45.5124 	 9.60717 	 98.4416
| 33> H 	 44.7663 	 9.02764 	 97.9364
| 34> H 	 46.4678 	 9.15937 	 97.9686
| 35> C 	 45.4214 	 11.0929 	 98.047
| 36> H 	 46.4059 	 11.4092 	 98.1267
| 37> H 	 44.7088 	 11.7172 	 98.5806
| 38> H 	 45.3324 	 11.1112 	 97.0102
| 39> H 	 47.4288 	 11.6015 	 105.824
| 40> H 	 41.1394 	 9.82722 	 101.015
| 41> *
| 42>
| 43>                          ****END OF INPUT****

CARTESIAN COORDINATES (ANGSTROEM)
---------------------------------
  S     45.283400   11.198100  104.560000
  C     47.042100   11.206600  104.930000
  C     47.791300   10.434900  104.124000
  C     47.006800    9.952310  103.032000
  C     45.658900   10.224400  103.115000
  H     47.437800    9.315890  102.285000
  C     49.306600   10.191200  104.294000
  H     49.681700   10.716800  105.192000
  H     49.745800   10.668500  103.430000
  C     49.773300    8.682180  104.341000
  H     49.403400    8.231550  103.353000
  H     50.872200    8.582260  104.231000
  C     49.400800    8.053380  105.680000
  H     48.350200    8.071630  105.835000
  H     49.739800    7.044150  105.848000
  H     49.681800    8.711100  106.498000
  S     42.893200    9.941400  102.825000
  C     42.185500    9.821060  101.263000
  C     43.159000    9.606240  100.299000
  C     44.485100    9.583130  100.840000
  C     44.582700    9.954680  102.189000
  H     42.878700    9.609480   99.189300
  C     45.646900    9.325320   99.977300
  H     45.877200    8.217810  100.024000
  H     46.475100    9.868840  100.413000
  C     45.512400    9.607170   98.441600
  H     44.766300    9.027640   97.936400
  H     46.467800    9.159370   97.968600
  C     45.421400   11.092900   98.047000
  H     46.405900   11.409200   98.126700
  H     44.708800   11.717200   98.580600
  H     45.332400   11.111200   97.010200
  H     47.428800   11.601500  105.824000
  H     41.139400    9.827220  101.015000

 Total Charge           Charge          ....    0
 Multiplicity           Mult            ....    1
 Number of Electrons    NEL             ....  134
 Basis Dimension        Dim             ....  322

ORBITAL ENERGIES
----------------

  NO   OCC          E(Eh)            E(eV)
   0   2.0000     -88.966069     -2420.8898
   1   2.0000     -88.963427     -2420.8179
   2   2.0000     -10.336739      -281.2770
   3   2.0000     -10.331424      -281.1323
   4   2.0000     -10.317083      -280.7421
   5   2.0000     -10.309144      -280.5261
   6   2.0000     -10.304371      -280.3962
   7   2.0000     -10.301562      -280.3198
   8   2.0000     -10.301165      -280.3090
   9   2.0000     -10.300829      -280.2998
  10   2.0000     -10.298176      -280.2276
  11   2.0000     -10.294903      -280.1385
  12   2.0000     -10.294186      -280.1190
  13   2.0000     -10.293350      -280.0963
  14   2.0000     -10.273920      -279.5676
  15   2.0000     -10.266452      -279.3644
  16   2.0000      -8.079839      -219.8636
  17   2.0000      -8.077979      -219.8130
  18   2.0000      -6.038541      -164.3170
  19   2.0000      -6.036640      -164.2653
  20   2.0000      -6.034781      -164.2147
  21   2.0000      -6.032503      -164.1527
  22   2.0000      -6.030137      -164.0884
  23   2.0000      -6.028595      -164.0464
  24   2.0000      -1.004460       -27.3327
  25   2.0000      -0.982335       -26.7307
  26   2.0000      -0.909565       -24.7505
  27   2.0000      -0.907684       -24.6993
  28   2.0000      -0.871769       -23.7220
  29   2.0000      -0.854518       -23.2526
  30   2.0000      -0.840367       -22.8676
  31   2.0000      -0.815500       -22.1909
  32   2.0000      -0.786365       -21.3981
  33   2.0000      -0.777025       -21.1439
  34   2.0000      -0.715460       -19.4687
  35   2.0000      -0.701119       -19.0784
  36   2.0000      -0.697891       -18.9906
  37   2.0000      -0.651446       -17.7267
  38   2.0000      -0.638895       -17.3852
  39   2.0000      -0.625312       -17.0156
  40   2.0000      -0.596164       -16.2224
  41   2.0000      -0.560717       -15.2579
  42   2.0000      -0.557078       -15.1589
  43   2.0000      -0.554124       -15.0785
  44   2.0000      -0.539610       -14.6835
  45   2.0000      -0.537444       -14.6246
  46   2.0000      -0.525748       -14.3063
  47   2.0000      -0.513765       -13.9802
  48   2.0000      -0.499425       -13.5900
  49   2.0000      -0.496130       -13.5004
  50   2.0000      -0.491202       -13.3663
  51   2.0000      -0.482552       -13.1309
  52   2.0000      -0.472499       -12.8574
  53   2.0000      -0.463568       -12.6143
  54   2.0000      -0.457969       -12.4620
  55   2.0000      -0.447401       -12.1744
  56   2.0000      -0.445882       -12.1331
  57   2.0000      -0.444151       -12.0860
  58   2.0000      -0.432850       -11.7785
  59   2.0000      -0.427533       -11.6338
  60   2.0000      -0.420146       -11.4328
  61   2.0000      -0.411948       -11.2097
  62   2.0000      -0.407764       -11.0958
  63   2.0000      -0.361170        -9.8279
  64   2.0000      -0.334709        -9.1079
  65   2.0000      -0.326005        -8.8711
  66   2.0000      -0.281681        -7.6649
  67   0.0000       0.017296         0.4707
  68   0.0000       0.075660         2.0588
  69   0.0000       0.101544         2.7631
  70   0.0000       0.119698         3.2571
  71   0.0000       0.136502         3.7144

MULLIKEN ATOMIC CHARGES
-----------------------
   0 S :    0.090419
   1 C :   -0.107598
   2 C :   -0.060266
   3 C :   -0.027247
   4 C :   -0.092622
   5 H :    0.007742
   6 C :    0.046126
   7 H :    0.024140
   8 H :    0.038402
   9 C :   -0.097232
  10 H :    0.036376
  11 H :    0.036489
  12 C :   -0.012685
  13 H :    0.023760
  14 H :    0.040500
  15 H :    0.016807
  16 S :    0.082981
  17 C :   -0.066945
  18 C :   -0.071111
  19 C :   -0.058278
  20 C :   -0.115310
  21 H :    0.051205
  22 C :    0.043382
  23 H :    0.052633
  24 H :    0.024551
  25 C :   -0.131259
  26 H :    0.024696
  27 H :    0.028680
  28 C :    0.023956
  29 H :    0.007027
  30 H :    0.055226
  31 H :    0.009093
  32 H :    0.021778
  33 H :    0.054584
Sum of atomic charges:   -0.0000000

LOEWDIN ATOMIC CHARGES
----------------------
   0 S :    0.366030
   1 C :   -0.169874
   2 C :   -0.061532
   3 C :   -0.068834
   4 C :   -0.166778
   5 H :    0.024993
   6 C :   -0.024950
   7 H :    0.029352
   8 H :    0.032766
   9 C :   -0.045564
  10 H :    0.028332
  11 H :    0.026729
  12 C :   -0.066478
  13 H :    0.024549
  14 H :    0.026141
  15 H :    0.028269
  16 S :    0.388809
  17 C :   -0.188133
  18 C :   -0.087184
  19 C :   -0.058433
  20 C :   -0.183037
  21 H :    0.046601
  22 C :   -0.039751
  23 H :    0.045960
  24 H :    0.028703
  25 C :   -0.043131
  26 H :    0.013211
  27 H :    0.033699
  28 C :   -0.059798
  29 H :    0.021261
  30 H :    0.030235
  31 H :    0.021651
  32 H :    0.014708
  33 H :    0.031479

  Mayer bond orders larger than 0.100000
B(  0-S ,  1-C ) :   1.1070 B(  0-S ,  4-C ) :   1.1185 B(  1-C ,  2-C ) :   1.6755
B(  1-C , 32-H ) :   0.9621 B(  2-C ,  3-C ) :   1.2013 B(  2-C ,  6-C ) :   1.0089
B(  3-C ,  4-C ) :   1.5968 B(  3-C ,  5-H ) :   0.9872 B(  4-C , 20-C ) :   1.0975
B(  6-C ,  7-H ) :   0.9480 B(  6-C ,  8-H ) :   0.9392 B(  6-C ,  9-C ) :   1.0678
B(  9-C , 10-H ) :   0.9554 B(  9-C , 11-H ) :   0.9577 B(  9-C , 12-C ) :   1.0590
B( 12-C , 13-H ) :   0.9755 B( 12-C , 14-H ) :   0.9756 B( 12-C , 15-H ) :   0.9679
B( 16-S , 17-C ) :   1.1637 B( 16-S , 20-C ) :   1.1101 B( 17-C , 18-C ) :   1.6001
B( 17-C , 33-H ) :   0.9651 B( 18-C , 19-C ) :   1.2510 B( 18-C , 21-H ) :   0.9726
B( 19-C , 20-C ) :   1.5685 B( 19-C , 22-C ) :   1.0616 B( 22-C , 23-H ) :   0.9157
B( 22-C , 24-H ) :   0.9289 B( 22-C , 25-C ) :   1.0819 B( 25-C , 26-H ) :   0.9522
B( 25-C , 27-H ) :   0.9542 B( 25-C , 28-C ) :   1.0700 B( 28-C , 29-H ) :   0.9691
B( 28-C , 30-H ) :   0.9776 B( 28-C , 31-H ) :   0.9664

Dispersion correction           -0.014017623
FINAL SINGLE POINT ENERGY     -1339.866828487421

DIPOLE MOMENT
-------------
                                X             Y             Z
Electronic contribution:    -21.39917       6.62254      11.79945
Nuclear contribution   :     21.95887      -6.84784     -12.28848
                        -----------------------------------------
Total Dipole Moment    :      0.55970      -0.22529      -0.48902
                        -----------------------------------------
Magnitude (a.u.)       :      0.77663
Magnitude (Debye)      :      1.97405

Rotational constants in cm-1:     0.019549     0.008207     0.006554
Rotational constants in MHz :   586.060074   246.049035   196.469087

                             ****ORCA TERMINATED NORMALLY****
TOTAL RUN TIME: 0 days 0 hours 0 minutes 30 seconds 17 msec
