                         Program Version 4.2.1 -  RELEASE  -
|  1> ! wB97X-D3 SP def2-SVP
|  2> %pal
|  3> nprocs 16
|  4> end
|  5>
|  6> * xyz 0 1
|  7> S 	 -2.97894 	 76.1733 	 50.0659
|  8> C 	 -1.54266 	 75.623 	 49.1913
|  9> C 	 -0.404093 	 75.9597 	 49.8985
| 10> C 	 -0.752343 	 76.4888 	 51.1773
| 11> C 	 -2.07463 	 76.7671 	 51.4325
| 12> H 	 -0.0429503 	 76.731 	 51.9441
| 13> C 	 1.0149 	 75.7041 	 49.416
| 14> H 	 1.01305 	 75.5127 	 48.3143
| 15> H 	 1.2783 	 74.6994 	 49.7209
| 16> C 	 2.13977 	 76.6944 	 49.8961
| 17> H 	 1.61395 	 77.6301 	 50.0231
| 18> H 	 2.53295 	 76.3645 	 50.8085
| 19> C 	 3.32855 	 76.6001 	 49.0057
| 20> H 	 4.12793 	 77.2183 	 49.2293
| 21> H 	 3.55043 	 75.5577 	 48.9274
| 22> H 	 3.0312 	 76.9892 	 48.0197
| 23> S 	 -3.73778 	 78.5746 	 52.7939
| 24> C 	 -3.7049 	 78.548 	 54.551
| 25> C 	 -2.99661 	 77.4243 	 55.0051
| 26> C 	 -2.30713 	 76.6442 	 54.0196
| 27> C 	 -2.65416 	 77.1509 	 52.7255
| 28> H 	 -3.04028 	 77.2701 	 56.1227
| 29> C 	 -1.33667 	 75.5238 	 54.2327
| 30> H 	 -1.0352 	 74.9109 	 53.3636
| 31> H 	 -1.95719 	 74.8132 	 54.7621
| 32> C 	 -0.148325 	 75.9312 	 55.1996
| 33> H 	 0.450245 	 75.0899 	 55.5555
| 34> H 	 -0.524012 	 76.428 	 56.0547
| 35> C 	 0.753713 	 76.9364 	 54.6273
| 36> H 	 1.40847 	 76.6017 	 53.8522
| 37> H 	 1.46152 	 77.3329 	 55.3673
| 38> H 	 0.286953 	 77.8371 	 54.2612
| 39> H 	 -1.57328 	 75.2787 	 48.207
| 40> H 	 -4.20473 	 79.1713 	 55.2071
| 41> *
| 42>
| 43>                          ****END OF INPUT****

CARTESIAN COORDINATES (ANGSTROEM)
---------------------------------
  S     -2.978940   76.173300   50.065900
  C     -1.542660   75.623000   49.191300
  C     -0.404093   75.959700   49.898500
  C     -0.752343   76.488800   51.177300
  C     -2.074630   76.767100   51.432500
  H     -0.042950   76.731000   51.944100
  C      1.014900   75.704100   49.416000
  H      1.013050   75.512700   48.314300
  H      1.278300   74.699400   49.720900
  C      2.139770   76.694400   49.896100
  H      1.613950   77.630100   50.023100
  H      2.532950   76.364500   50.808500
  C      3.328550   76.600100   49.005700
  H      4.127930   77.218300   49.229300
  H      3.550430   75.557700   48.927400
  H      3.031200   76.989200   48.019700
  S     -3.737780   78.574600   52.793900
  C     -3.704900   78.548000   54.551000
  C     -2.996610   77.424300   55.005100
  C     -2.307130   76.644200   54.019600
  C     -2.654160   77.150900   52.725500
  H     -3.040280   77.270100   56.122700
  C     -1.336670   75.523800   54.232700
  H     -1.035200   74.910900   53.363600
  H     -1.957190   74.813200   54.762100
  C     -0.148325   75.931200   55.199600
  H      0.450245   75.089900   55.555500
  H     -0.524012   76.428000   56.054700
  C      0.753713   76.936400   54.627300
  H      1.408470   76.601700   53.852200
  H      1.461520   77.332900   55.367300
  H      0.286953   77.837100   54.261200
  H     -1.573280   75.278700   48.207000
  H     -4.204730   79.171300   55.207100

 Total Charge           Charge          ....    0
 Multiplicity           Mult            ....    1
 Number of Electrons    NEL             ....  134
 Basis Dimension        Dim             ....  322

ORBITAL ENERGIES
----------------

  NO   OCC          E(Eh)            E(eV)
   0   2.0000     -88.969627     -2420.9866
   1   2.0000     -88.960243     -2420.7313
   2   2.0000     -10.334020      -281.2030
   3   2.0000     -10.325675      -280.9759
   4   2.0000     -10.318822      -280.7894
   5   2.0000     -10.315130      -280.6889
   6   2.0000     -10.310185      -280.5544
   7   2.0000     -10.304622      -280.4030
   8   2.0000     -10.301873      -280.3282
   9   2.0000     -10.297196      -280.2010
  10   2.0000     -10.295688      -280.1599
  11   2.0000     -10.287529      -279.9379
  12   2.0000     -10.286134      -279.8999
  13   2.0000     -10.281800      -279.7820
  14   2.0000     -10.271066      -279.4899
  15   2.0000     -10.268064      -279.4082
  16   2.0000      -8.083268      -219.9569
  17   2.0000      -8.074957      -219.7308
  18   2.0000      -6.041778      -164.4051
  19   2.0000      -6.037904      -164.2997
  20   2.0000      -6.034125      -164.1969
  21   2.0000      -6.033522      -164.1805
  22   2.0000      -6.029366      -164.0674
  23   2.0000      -6.025752      -163.9690
  24   2.0000      -1.000975       -27.2379
  25   2.0000      -0.978850       -26.6359
  26   2.0000      -0.914551       -24.8862
  27   2.0000      -0.913846       -24.8670
  28   2.0000      -0.871851       -23.7243
  29   2.0000      -0.856086       -23.2953
  30   2.0000      -0.844207       -22.9720
  31   2.0000      -0.814381       -22.1604
  32   2.0000      -0.785654       -21.3787
  33   2.0000      -0.773273       -21.0418
  34   2.0000      -0.714471       -19.4417
  35   2.0000      -0.704420       -19.1683
  36   2.0000      -0.696426       -18.9507
  37   2.0000      -0.649020       -17.6607
  38   2.0000      -0.645348       -17.5608
  39   2.0000      -0.619865       -16.8674
  40   2.0000      -0.601684       -16.3727
  41   2.0000      -0.579712       -15.7748
  42   2.0000      -0.562316       -15.3014
  43   2.0000      -0.554797       -15.0968
  44   2.0000      -0.545622       -14.8471
  45   2.0000      -0.535380       -14.5684
  46   2.0000      -0.522983       -14.2311
  47   2.0000      -0.509825       -13.8730
  48   2.0000      -0.503993       -13.7144
  49   2.0000      -0.501231       -13.6392
  50   2.0000      -0.487881       -13.2759
  51   2.0000      -0.479655       -13.0521
  52   2.0000      -0.473960       -12.8971
  53   2.0000      -0.467454       -12.7201
  54   2.0000      -0.456288       -12.4162
  55   2.0000      -0.453582       -12.3426
  56   2.0000      -0.441821       -12.0226
  57   2.0000      -0.434424       -11.8213
  58   2.0000      -0.431221       -11.7341
  59   2.0000      -0.425045       -11.5661
  60   2.0000      -0.421573       -11.4716
  61   2.0000      -0.417136       -11.3509
  62   2.0000      -0.410875       -11.1805
  63   2.0000      -0.342551        -9.3213
  64   2.0000      -0.330265        -8.9870
  65   2.0000      -0.325927        -8.8689
  66   2.0000      -0.291460        -7.9310
  67   0.0000       0.029201         0.7946
  68   0.0000       0.066431         1.8077
  69   0.0000       0.117096         3.1863
  70   0.0000       0.121341         3.3019
  71   0.0000       0.123407         3.3581

MULLIKEN ATOMIC CHARGES
-----------------------
   0 S :    0.091137
   1 C :   -0.114564
   2 C :   -0.066592
   3 C :   -0.006336
   4 C :   -0.102299
   5 H :   -0.020407
   6 C :    0.036692
   7 H :    0.016513
   8 H :    0.027757
   9 C :   -0.046531
  10 H :    0.040751
  11 H :    0.017802
  12 C :   -0.005019
  13 H :    0.020634
  14 H :    0.027841
  15 H :    0.018792
  16 S :    0.113304
  17 C :   -0.065534
  18 C :   -0.078536
  19 C :   -0.020846
  20 C :   -0.172734
  21 H :    0.041301
  22 C :    0.065448
  23 H :    0.052275
  24 H :    0.027760
  25 C :   -0.036114
  26 H :    0.031613
  27 H :    0.016728
  28 C :   -0.058405
  29 H :    0.025086
  30 H :    0.022802
  31 H :    0.038866
  32 H :    0.029167
  33 H :    0.031647
Sum of atomic charges:    0.0000000

LOEWDIN ATOMIC CHARGES
----------------------
   0 S :    0.397014
   1 C :   -0.180925
   2 C :   -0.063649
   3 C :   -0.067347
   4 C :   -0.201946
   5 H :    0.024008
   6 C :   -0.035654
   7 H :    0.032466
   8 H :    0.031450
   9 C :   -0.033983
  10 H :    0.024497
  11 H :    0.017890
  12 C :   -0.052465
  13 H :    0.017457
  14 H :    0.026196
  15 H :    0.026292
  16 S :    0.394703
  17 C :   -0.175338
  18 C :   -0.077274
  19 C :   -0.044818
  20 C :   -0.189854
  21 H :    0.039628
  22 C :   -0.034690
  23 H :    0.041185
  24 H :    0.036535
  25 C :   -0.032845
  26 H :    0.028300
  27 H :    0.021536
  28 C :   -0.072633
  29 H :    0.016058
  30 H :    0.030075
  31 H :    0.025791
  32 H :    0.015988
  33 H :    0.016352

  Mayer bond orders larger than 0.100000
B(  0-S ,  1-C ) :   1.1474 B(  0-S ,  4-C ) :   1.1457 B(  1-C ,  2-C ) :   1.5888
B(  1-C , 32-H ) :   0.9752 B(  2-C ,  3-C ) :   1.2435 B(  2-C ,  6-C ) :   1.0263
B(  3-C ,  4-C ) :   1.5697 B(  3-C ,  5-H ) :   0.9987 B(  4-C , 20-C ) :   1.0240
B(  6-C ,  7-H ) :   0.9449 B(  6-C ,  8-H ) :   0.9262 B(  6-C ,  9-C ) :   1.0463
B(  9-C , 10-H ) :   0.9684 B(  9-C , 11-H ) :   0.9445 B(  9-C , 12-C ) :   1.0857
B( 12-C , 13-H ) :   0.9718 B( 12-C , 14-H ) :   0.9707 B( 12-C , 15-H ) :   0.9740
B( 16-S , 17-C ) :   1.1501 B( 16-S , 20-C ) :   1.1454 B( 17-C , 18-C ) :   1.6201
B( 17-C , 20-C ) :   0.1072 B( 17-C , 33-H ) :   0.9750 B( 18-C , 19-C ) :   1.2338
B( 18-C , 21-H ) :   0.9752 B( 19-C , 20-C ) :   1.5582 B( 19-C , 22-C ) :   1.0342
B( 22-C , 23-H ) :   0.9418 B( 22-C , 24-H ) :   0.9208 B( 22-C , 25-C ) :   1.0628
B( 25-C , 26-H ) :   0.9546 B( 25-C , 27-H ) :   0.9552 B( 25-C , 28-C ) :   1.0962
B( 28-C , 29-H ) :   0.9632 B( 28-C , 30-H ) :   0.9634 B( 28-C , 31-H ) :   0.9647

Dispersion correction           -0.015084838
FINAL SINGLE POINT ENERGY     -1339.860607834358

DIPOLE MOMENT
-------------
                                X             Y             Z
Electronic contribution:    -29.84136       5.73230      -3.41382
Nuclear contribution   :     30.58268      -5.98131       3.82602
                        -----------------------------------------
Total Dipole Moment    :      0.74131      -0.24902       0.41221
                        -----------------------------------------
Magnitude (a.u.)       :      0.88401
Magnitude (Debye)      :      2.24697

Rotational constants in cm-1:     0.018474     0.009169     0.007022
Rotational constants in MHz :   553.828978   274.883852   210.512751

                             ****ORCA TERMINATED NORMALLY****
TOTAL RUN TIME: 0 days 0 hours 0 minutes 35 seconds 357 msec
