                         Program Version 4.2.1 -  RELEASE  -
|  1> ! wB97X-D3 SP def2-SVP
|  2> %pal
|  3> nprocs 16
|  4> end
|  5>
|  6> * xyz 0 1
|  7> S 	 -51.7487 	 40.4332 	 110.239
|  8> C 	 -50.3634 	 39.697 	 109.428
|  9> C 	 -50.5941 	 38.4356 	 108.93
| 10> C 	 -51.9282 	 38.0855 	 109.289
| 11> C 	 -52.6904 	 39.0469 	 109.972
| 12> H 	 -52.3192 	 37.1214 	 109.004
| 13> C 	 -49.74 	 37.7223 	 107.903
| 14> H 	 -49.3681 	 36.8353 	 108.358
| 15> H 	 -48.9164 	 38.4982 	 107.639
| 16> C 	 -50.4716 	 37.4898 	 106.541
| 17> H 	 -51.3458 	 36.778 	 106.725
| 18> H 	 -50.9492 	 38.3695 	 106.148
| 19> C 	 -49.6896 	 36.837 	 105.481
| 20> H 	 -48.7962 	 37.462 	 105.279
| 21> H 	 -49.3649 	 35.8467 	 105.718
| 22> H 	 -50.2125 	 36.8303 	 104.577
| 23> S 	 -54.3974 	 38.4263 	 112.047
| 24> C 	 -56.173 	 38.7214 	 111.762
| 25> C 	 -56.3615 	 39.0131 	 110.482
| 26> C 	 -55.2044 	 39.1365 	 109.674
| 27> C 	 -54.0564 	 38.9492 	 110.407
| 28> H 	 -57.3083 	 39.1295 	 110.151
| 29> C 	 -55.3817 	 39.389 	 108.199
| 30> H 	 -54.6212 	 40.0296 	 107.823
| 31> H 	 -56.2951 	 39.9558 	 108.158
| 32> C 	 -55.4587 	 38.0915 	 107.357
| 33> H 	 -56.1754 	 37.3698 	 107.86
| 34> H 	 -54.5316 	 37.6083 	 107.245
| 35> C 	 -56.0931 	 38.4617 	 106.049
| 36> H 	 -56.3493 	 37.5295 	 105.496
| 37> H 	 -55.339 	 39.1114 	 105.533
| 38> H 	 -57.0564 	 39.0262 	 106.206
| 39> H 	 -49.3576 	 40.0953 	 109.397
| 40> H 	 -56.951 	 38.6286 	 112.476
| 41> *
| 42>
| 43>                          ****END OF INPUT****

CARTESIAN COORDINATES (ANGSTROEM)
---------------------------------
  S    -51.748700   40.433200  110.239000
  C    -50.363400   39.697000  109.428000
  C    -50.594100   38.435600  108.930000
  C    -51.928200   38.085500  109.289000
  C    -52.690400   39.046900  109.972000
  H    -52.319200   37.121400  109.004000
  C    -49.740000   37.722300  107.903000
  H    -49.368100   36.835300  108.358000
  H    -48.916400   38.498200  107.639000
  C    -50.471600   37.489800  106.541000
  H    -51.345800   36.778000  106.725000
  H    -50.949200   38.369500  106.148000
  C    -49.689600   36.837000  105.481000
  H    -48.796200   37.462000  105.279000
  H    -49.364900   35.846700  105.718000
  H    -50.212500   36.830300  104.577000
  S    -54.397400   38.426300  112.047000
  C    -56.173000   38.721400  111.762000
  C    -56.361500   39.013100  110.482000
  C    -55.204400   39.136500  109.674000
  C    -54.056400   38.949200  110.407000
  H    -57.308300   39.129500  110.151000
  C    -55.381700   39.389000  108.199000
  H    -54.621200   40.029600  107.823000
  H    -56.295100   39.955800  108.158000
  C    -55.458700   38.091500  107.357000
  H    -56.175400   37.369800  107.860000
  H    -54.531600   37.608300  107.245000
  C    -56.093100   38.461700  106.049000
  H    -56.349300   37.529500  105.496000
  H    -55.339000   39.111400  105.533000
  H    -57.056400   39.026200  106.206000
  H    -49.357600   40.095300  109.397000
  H    -56.951000   38.628600  112.476000

 Total Charge           Charge          ....    0
 Multiplicity           Mult            ....    1
 Number of Electrons    NEL             ....  134
 Basis Dimension        Dim             ....  322

ORBITAL ENERGIES
----------------

  NO   OCC          E(Eh)            E(eV)
   0   2.0000     -88.967213     -2420.9209
   1   2.0000     -88.959632     -2420.7146
   2   2.0000     -10.322323      -280.8847
   3   2.0000     -10.320358      -280.8312
   4   2.0000     -10.312957      -280.6298
   5   2.0000     -10.311036      -280.5775
   6   2.0000     -10.304322      -280.3949
   7   2.0000     -10.296993      -280.1954
   8   2.0000     -10.295350      -280.1507
   9   2.0000     -10.291171      -280.0370
  10   2.0000     -10.290931      -280.0305
  11   2.0000     -10.285445      -279.8812
  12   2.0000     -10.284790      -279.8634
  13   2.0000     -10.284366      -279.8518
  14   2.0000     -10.277437      -279.6633
  15   2.0000     -10.271810      -279.5102
  16   2.0000      -8.082382      -219.9328
  17   2.0000      -8.073615      -219.6942
  18   2.0000      -6.040747      -164.3771
  19   2.0000      -6.036797      -164.2696
  20   2.0000      -6.033293      -164.1743
  21   2.0000      -6.032312      -164.1476
  22   2.0000      -6.028380      -164.0406
  23   2.0000      -6.024059      -163.9230
  24   2.0000      -1.007509       -27.4157
  25   2.0000      -0.984306       -26.7843
  26   2.0000      -0.917320       -24.9616
  27   2.0000      -0.912441       -24.8288
  28   2.0000      -0.878201       -23.8971
  29   2.0000      -0.852838       -23.2069
  30   2.0000      -0.848343       -23.0846
  31   2.0000      -0.813606       -22.1394
  32   2.0000      -0.786825       -21.4106
  33   2.0000      -0.766860       -20.8673
  34   2.0000      -0.710351       -19.3296
  35   2.0000      -0.697074       -18.9684
  36   2.0000      -0.691590       -18.8191
  37   2.0000      -0.666379       -18.1331
  38   2.0000      -0.637105       -17.3365
  39   2.0000      -0.619913       -16.8687
  40   2.0000      -0.599039       -16.3007
  41   2.0000      -0.577080       -15.7031
  42   2.0000      -0.570459       -15.5230
  43   2.0000      -0.563456       -15.3324
  44   2.0000      -0.536904       -14.6099
  45   2.0000      -0.528363       -14.3775
  46   2.0000      -0.526314       -14.3217
  47   2.0000      -0.512737       -13.9523
  48   2.0000      -0.509242       -13.8572
  49   2.0000      -0.500239       -13.6122
  50   2.0000      -0.492163       -13.3924
  51   2.0000      -0.473624       -12.8880
  52   2.0000      -0.463558       -12.6141
  53   2.0000      -0.461852       -12.5676
  54   2.0000      -0.455343       -12.3905
  55   2.0000      -0.454006       -12.3541
  56   2.0000      -0.449075       -12.2200
  57   2.0000      -0.440387       -11.9835
  58   2.0000      -0.436002       -11.8642
  59   2.0000      -0.430411       -11.7121
  60   2.0000      -0.421249       -11.4628
  61   2.0000      -0.412733       -11.2310
  62   2.0000      -0.405526       -11.0349
  63   2.0000      -0.338029        -9.1982
  64   2.0000      -0.329994        -8.9796
  65   2.0000      -0.313504        -8.5309
  66   2.0000      -0.311433        -8.4745
  67   0.0000       0.046601         1.2681
  68   0.0000       0.057536         1.5656
  69   0.0000       0.112926         3.0729
  70   0.0000       0.118431         3.2227
  71   0.0000       0.132203         3.5974

MULLIKEN ATOMIC CHARGES
-----------------------
   0 S :    0.136753
   1 C :   -0.130722
   2 C :   -0.086337
   3 C :    0.038521
   4 C :   -0.185872
   5 H :   -0.001843
   6 C :    0.075195
   7 H :    0.035453
   8 H :    0.034757
   9 C :   -0.116641
  10 H :    0.027603
  11 H :    0.031251
  12 C :    0.008349
  13 H :    0.018362
  14 H :    0.024313
  15 H :    0.022099
  16 S :    0.092636
  17 C :   -0.068947
  18 C :    0.014248
  19 C :   -0.006486
  20 C :   -0.191465
  21 H :   -0.031777
  22 C :    0.104073
  23 H :    0.018972
  24 H :    0.007905
  25 C :   -0.060060
  26 H :    0.029626
  27 H :    0.026101
  28 C :   -0.066161
  29 H :    0.042256
  30 H :    0.037678
  31 H :    0.038116
  32 H :    0.042786
  33 H :    0.039260
Sum of atomic charges:    0.0000000

LOEWDIN ATOMIC CHARGES
----------------------
   0 S :    0.433234
   1 C :   -0.194718
   2 C :   -0.070870
   3 C :   -0.057702
   4 C :   -0.223109
   5 H :    0.022214
   6 C :   -0.024294
   7 H :    0.028326
   8 H :    0.041151
   9 C :   -0.044457
  10 H :    0.025572
  11 H :    0.025214
  12 C :   -0.058566
  13 H :    0.025962
  14 H :    0.021880
  15 H :    0.022649
  16 S :    0.367017
  17 C :   -0.146799
  18 C :   -0.060947
  19 C :   -0.049344
  20 C :   -0.203432
  21 H :    0.013692
  22 C :   -0.022543
  23 H :    0.027006
  24 H :    0.027706
  25 C :   -0.035247
  26 H :    0.028090
  27 H :    0.017516
  28 C :   -0.070748
  29 H :    0.028066
  30 H :    0.028922
  31 H :    0.028638
  32 H :    0.024986
  33 H :    0.024938

  Mayer bond orders larger than 0.100000
B(  0-S ,  1-C ) :   1.1549 B(  0-S ,  4-C ) :   1.1669 B(  1-C ,  2-C ) :   1.6161
B(  1-C , 32-H ) :   0.9565 B(  2-C ,  3-C ) :   1.2612 B(  2-C ,  6-C ) :   1.0193
B(  3-C ,  4-C ) :   1.5655 B(  3-C ,  5-H ) :   0.9946 B(  4-C , 20-C ) :   1.0239
B(  6-C ,  7-H ) :   0.9301 B(  6-C ,  8-H ) :   0.9474 B(  6-C ,  9-C ) :   1.0618
B(  9-C , 10-H ) :   0.9469 B(  9-C , 11-H ) :   0.9564 B(  9-C , 12-C ) :   1.1082
B( 12-C , 13-H ) :   0.9678 B( 12-C , 14-H ) :   0.9707 B( 12-C , 15-H ) :   0.9676
B( 16-S , 17-C ) :   1.1143 B( 16-S , 20-C ) :   1.1340 B( 17-C , 18-C ) :   1.6566
B( 17-C , 33-H ) :   0.9713 B( 18-C , 19-C ) :   1.2115 B( 18-C , 21-H ) :   1.0021
B( 19-C , 20-C ) :   1.6290 B( 19-C , 22-C ) :   1.0477 B( 22-C , 23-H ) :   0.9171
B( 22-C , 24-H ) :   0.9363 B( 22-C , 25-C ) :   1.0615 B( 25-C , 26-H ) :   0.9577
B( 25-C , 27-H ) :   0.9514 B( 25-C , 28-C ) :   1.0816 B( 28-C , 29-H ) :   0.9726
B( 28-C , 30-H ) :   0.9708 B( 28-C , 31-H ) :   0.9757

Dispersion correction           -0.014437202
FINAL SINGLE POINT ENERGY     -1339.866649379766

DIPOLE MOMENT
-------------
                                X             Y             Z
Electronic contribution:     -1.14780       9.76710      29.54109
Nuclear contribution   :      1.00546     -10.01887     -30.25759
                        -----------------------------------------
Total Dipole Moment    :     -0.14234      -0.25177      -0.71649
                        -----------------------------------------
Magnitude (a.u.)       :      0.77267
Magnitude (Debye)      :      1.96396

Rotational constants in cm-1:     0.017352     0.009343     0.006912
Rotational constants in MHz :   520.202075   280.106645   207.222655

                             ****ORCA TERMINATED NORMALLY****
TOTAL RUN TIME: 0 days 0 hours 0 minutes 30 seconds 763 msec
