                         Program Version 4.2.1 -  RELEASE  -
|  1> ! wB97X-D3 SP def2-SVP
|  2> %pal
|  3> nprocs 16
|  4> end
|  5>
|  6> * xyz 0 1
|  7> S 	 -110.194 	 47.0275 	 130.529
|  8> C 	 -108.958 	 48.2523 	 130.873
|  9> C 	 -107.728 	 48.0114 	 130.255
| 10> C 	 -107.828 	 46.7511 	 129.554
| 11> C 	 -108.996 	 46.1353 	 129.604
| 12> H 	 -107.092 	 46.2326 	 128.942
| 13> C 	 -106.446 	 48.7596 	 130.484
| 14> H 	 -106.595 	 49.7876 	 130.319
| 15> H 	 -105.683 	 48.485 	 129.731
| 16> C 	 -105.801 	 48.5555 	 131.896
| 17> H 	 -106.547 	 48.8595 	 132.719
| 18> H 	 -105.688 	 47.4712 	 132.044
| 19> C 	 -104.448 	 49.2923 	 131.949
| 20> H 	 -103.865 	 48.9078 	 131.07
| 21> H 	 -104.54 	 50.374 	 131.805
| 22> H 	 -103.932 	 48.9446 	 132.769
| 23> S 	 -110.544 	 45.3959 	 127.518
| 24> C 	 -110.525 	 43.7477 	 126.965
| 25> C 	 -109.65 	 42.9642 	 127.702
| 26> C 	 -108.851 	 43.658 	 128.615
| 27> C 	 -109.345 	 44.988 	 128.737
| 28> H 	 -109.677 	 41.9169 	 127.622
| 29> C 	 -107.851 	 42.9669 	 129.513
| 30> H 	 -108.149 	 41.8886 	 129.607
| 31> H 	 -108.066 	 43.3758 	 130.529
| 32> C 	 -106.409 	 42.9745 	 129.171
| 33> H 	 -105.922 	 42.5218 	 130.032
| 34> H 	 -106.007 	 43.9837 	 129.198
| 35> C 	 -106.134 	 42.3306 	 127.769
| 36> H 	 -106.594 	 41.3243 	 127.663
| 37> H 	 -105.077 	 42.1966 	 127.538
| 38> H 	 -106.601 	 43.0255 	 126.964
| 39> H 	 -109.255 	 49.0808 	 131.577
| 40> H 	 -111.144 	 43.3709 	 126.191
| 41> *
| 42>
| 43>                          ****END OF INPUT****

CARTESIAN COORDINATES (ANGSTROEM)
---------------------------------
  S    -110.194000   47.027500  130.529000
  C    -108.958000   48.252300  130.873000
  C    -107.728000   48.011400  130.255000
  C    -107.828000   46.751100  129.554000
  C    -108.996000   46.135300  129.604000
  H    -107.092000   46.232600  128.942000
  C    -106.446000   48.759600  130.484000
  H    -106.595000   49.787600  130.319000
  H    -105.683000   48.485000  129.731000
  C    -105.801000   48.555500  131.896000
  H    -106.547000   48.859500  132.719000
  H    -105.688000   47.471200  132.044000
  C    -104.448000   49.292300  131.949000
  H    -103.865000   48.907800  131.070000
  H    -104.540000   50.374000  131.805000
  H    -103.932000   48.944600  132.769000
  S    -110.544000   45.395900  127.518000
  C    -110.525000   43.747700  126.965000
  C    -109.650000   42.964200  127.702000
  C    -108.851000   43.658000  128.615000
  C    -109.345000   44.988000  128.737000
  H    -109.677000   41.916900  127.622000
  C    -107.851000   42.966900  129.513000
  H    -108.149000   41.888600  129.607000
  H    -108.066000   43.375800  130.529000
  C    -106.409000   42.974500  129.171000
  H    -105.922000   42.521800  130.032000
  H    -106.007000   43.983700  129.198000
  C    -106.134000   42.330600  127.769000
  H    -106.594000   41.324300  127.663000
  H    -105.077000   42.196600  127.538000
  H    -106.601000   43.025500  126.964000
  H    -109.255000   49.080800  131.577000
  H    -111.144000   43.370900  126.191000

 Total Charge           Charge          ....    0
 Multiplicity           Mult            ....    1
 Number of Electrons    NEL             ....  134
 Basis Dimension        Dim             ....  322

ORBITAL ENERGIES
----------------

  NO   OCC          E(Eh)            E(eV)
   0   2.0000     -88.965894     -2420.8850
   1   2.0000     -88.964382     -2420.8439
   2   2.0000     -10.327782      -281.0332
   3   2.0000     -10.322736      -280.8959
   4   2.0000     -10.319808      -280.8162
   5   2.0000     -10.309217      -280.5280
   6   2.0000     -10.306669      -280.4587
   7   2.0000     -10.302110      -280.3347
   8   2.0000     -10.296253      -280.1753
   9   2.0000     -10.293209      -280.0925
  10   2.0000     -10.291541      -280.0471
  11   2.0000     -10.288825      -279.9732
  12   2.0000     -10.287494      -279.9369
  13   2.0000     -10.286771      -279.9173
  14   2.0000     -10.285154      -279.8733
  15   2.0000     -10.280162      -279.7374
  16   2.0000      -8.080578      -219.8837
  17   2.0000      -8.079006      -219.8409
  18   2.0000      -6.038871      -164.3260
  19   2.0000      -6.037470      -164.2879
  20   2.0000      -6.035104      -164.2235
  21   2.0000      -6.033705      -164.1854
  22   2.0000      -6.031555      -164.1270
  23   2.0000      -6.029642      -164.0749
  24   2.0000      -1.005494       -27.3609
  25   2.0000      -0.982063       -26.7233
  26   2.0000      -0.913258       -24.8510
  27   2.0000      -0.909501       -24.7488
  28   2.0000      -0.865772       -23.5589
  29   2.0000      -0.850054       -23.1311
  30   2.0000      -0.846609       -23.0374
  31   2.0000      -0.811999       -22.0956
  32   2.0000      -0.781690       -21.2709
  33   2.0000      -0.769343       -20.9349
  34   2.0000      -0.705355       -19.1937
  35   2.0000      -0.701036       -19.0761
  36   2.0000      -0.684499       -18.6262
  37   2.0000      -0.662915       -18.0388
  38   2.0000      -0.647213       -17.6116
  39   2.0000      -0.615084       -16.7373
  40   2.0000      -0.593455       -16.1487
  41   2.0000      -0.567114       -15.4320
  42   2.0000      -0.558302       -15.1922
  43   2.0000      -0.553869       -15.0715
  44   2.0000      -0.545613       -14.8469
  45   2.0000      -0.530812       -14.4441
  46   2.0000      -0.515725       -14.0336
  47   2.0000      -0.505344       -13.7511
  48   2.0000      -0.498509       -13.5651
  49   2.0000      -0.489676       -13.3248
  50   2.0000      -0.484111       -13.1733
  51   2.0000      -0.477004       -12.9799
  52   2.0000      -0.467095       -12.7103
  53   2.0000      -0.463807       -12.6208
  54   2.0000      -0.455235       -12.3876
  55   2.0000      -0.448939       -12.2162
  56   2.0000      -0.445790       -12.1306
  57   2.0000      -0.440837       -11.9958
  58   2.0000      -0.436910       -11.8889
  59   2.0000      -0.428691       -11.6653
  60   2.0000      -0.421333       -11.4651
  61   2.0000      -0.419067       -11.4034
  62   2.0000      -0.413824       -11.2607
  63   2.0000      -0.344994        -9.3878
  64   2.0000      -0.331250        -9.0138
  65   2.0000      -0.325582        -8.8595
  66   2.0000      -0.292602        -7.9621
  67   0.0000       0.036968         1.0059
  68   0.0000       0.062914         1.7120
  69   0.0000       0.114237         3.1085
  70   0.0000       0.118337         3.2201
  71   0.0000       0.129059         3.5119

MULLIKEN ATOMIC CHARGES
-----------------------
   0 S :    0.100456
   1 C :   -0.162434
   2 C :   -0.039519
   3 C :    0.027196
   4 C :   -0.149789
   5 H :    0.010751
   6 C :    0.067910
   7 H :    0.016092
   8 H :    0.019780
   9 C :   -0.114423
  10 H :    0.039566
  11 H :    0.032350
  12 C :   -0.008073
  13 H :    0.023384
  14 H :    0.044056
  15 H :    0.025420
  16 S :    0.120616
  17 C :   -0.082937
  18 C :   -0.027896
  19 C :   -0.005594
  20 C :   -0.195595
  21 H :   -0.000129
  22 C :    0.011611
  23 H :    0.025755
  24 H :    0.040720
  25 C :   -0.020667
  26 H :    0.027418
  27 H :    0.018569
  28 C :   -0.095055
  29 H :    0.033578
  30 H :    0.040837
  31 H :    0.061886
  32 H :    0.072511
  33 H :    0.041650
Sum of atomic charges:    0.0000000

LOEWDIN ATOMIC CHARGES
----------------------
   0 S :    0.382394
   1 C :   -0.186376
   2 C :   -0.060795
   3 C :   -0.062333
   4 C :   -0.203645
   5 H :    0.033207
   6 C :   -0.034795
   7 H :    0.023830
   8 H :    0.032045
   9 C :   -0.039767
  10 H :    0.028294
  11 H :    0.024576
  12 C :   -0.060759
  13 H :    0.031438
  14 H :    0.029691
  15 H :    0.016931
  16 S :    0.418287
  17 C :   -0.191336
  18 C :   -0.065076
  19 C :   -0.060745
  20 C :   -0.188886
  21 H :    0.022717
  22 C :   -0.039043
  23 H :    0.034450
  24 H :    0.039317
  25 C :   -0.044245
  26 H :    0.027504
  27 H :    0.020420
  28 C :   -0.074101
  29 H :    0.025188
  30 H :    0.024656
  31 H :    0.041595
  32 H :    0.034882
  33 H :    0.020481

  Mayer bond orders larger than 0.100000
B(  0-S ,  1-C ) :   1.1392 B(  0-S ,  4-C ) :   1.1212 B(  1-C ,  2-C ) :   1.6134
B(  1-C , 32-H ) :   0.9639 B(  2-C ,  3-C ) :   1.1983 B(  2-C ,  6-C ) :   1.0360
B(  3-C ,  4-C ) :   1.6527 B(  3-C ,  5-H ) :   0.9856 B(  4-C , 20-C ) :   0.9989
B(  6-C ,  7-H ) :   0.9322 B(  6-C ,  8-H ) :   0.9416 B(  6-C ,  9-C ) :   1.0541
B(  9-C , 10-H ) :   0.9550 B(  9-C , 11-H ) :   0.9576 B(  9-C , 12-C ) :   1.0735
B( 12-C , 13-H ) :   0.9707 B( 12-C , 14-H ) :   0.9758 B( 12-C , 15-H ) :   0.9728
B( 16-S , 17-C ) :   1.1555 B( 16-S , 20-C ) :   1.1786 B( 17-C , 18-C ) :   1.5907
B( 17-C , 20-C ) :   0.1123 B( 17-C , 33-H ) :   0.9727 B( 18-C , 19-C ) :   1.2640
B( 18-C , 21-H ) :   0.9936 B( 19-C , 20-C ) :   1.5614 B( 19-C , 22-C ) :   1.0244
B( 22-C , 23-H ) :   0.9425 B( 22-C , 24-H ) :   0.9335 B( 22-C , 25-C ) :   1.0838
B( 25-C , 26-H ) :   0.9481 B( 25-C , 27-H ) :   0.9498 B( 25-C , 28-C ) :   1.0603
B( 28-C , 29-H ) :   0.9767 B( 28-C , 30-H ) :   0.9764 B( 28-C , 31-H ) :   0.9703

Dispersion correction           -0.014333187
FINAL SINGLE POINT ENERGY     -1339.875494820165

DIPOLE MOMENT
-------------
                                X             Y             Z
Electronic contribution:    -27.80049       2.53151      -6.48117
Nuclear contribution   :     28.41242      -2.64388       6.64139
                        -----------------------------------------
Total Dipole Moment    :      0.61194      -0.11238       0.16022
                        -----------------------------------------
Magnitude (a.u.)       :      0.64247
Magnitude (Debye)      :      1.63302

Rotational constants in cm-1:     0.018965     0.008493     0.006407
Rotational constants in MHz :   568.564577   254.627766   192.082612

                             ****ORCA TERMINATED NORMALLY****
TOTAL RUN TIME: 0 days 0 hours 0 minutes 33 seconds 919 msec
