                         Program Version 4.2.1 -  RELEASE  -
|  1> ! wB97X-D3 SP def2-SVP
|  2> %pal
|  3> nprocs 16
|  4> end
|  5>
|  6> * xyz 0 1
|  7> S 	 -101.268 	 50.9538 	 123.387
|  8> C 	 -100.858 	 51.2812 	 121.719
|  9> C 	 -100.859 	 52.6428 	 121.499
| 10> C 	 -101.343 	 53.3638 	 122.636
| 11> C 	 -101.749 	 52.6296 	 123.658
| 12> H 	 -101.432 	 54.4464 	 122.676
| 13> C 	 -100.392 	 53.307 	 120.242
| 14> H 	 -101.254 	 53.8045 	 119.793
| 15> H 	 -100.043 	 52.5509 	 119.53
| 16> C 	 -99.2458 	 54.3044 	 120.439
| 17> H 	 -99.6951 	 55.3252 	 120.642
| 18> H 	 -98.5325 	 54.0214 	 121.176
| 19> C 	 -98.4278 	 54.5326 	 119.142
| 20> H 	 -97.6606 	 55.2609 	 119.138
| 21> H 	 -97.9945 	 53.6794 	 118.674
| 22> H 	 -99.1868 	 54.806 	 118.444
| 23> S 	 -100.77 	 53.8551 	 125.931
| 24> C 	 -101.865 	 54.1563 	 127.233
| 25> C 	 -103.156 	 53.9352 	 126.892
| 26> C 	 -103.293 	 53.4911 	 125.545
| 27> C 	 -102.058 	 53.221 	 124.966
| 28> H 	 -103.884 	 54.1358 	 127.618
| 29> C 	 -104.693 	 53.3837 	 124.922
| 30> H 	 -104.576 	 53.8895 	 123.955
| 31> H 	 -105.467 	 53.8994 	 125.502
| 32> C 	 -105.292 	 52.0487 	 124.762
| 33> H 	 -104.585 	 51.4644 	 124.172
| 34> H 	 -106.254 	 52.0795 	 124.243
| 35> C 	 -105.576 	 51.3141 	 126.045
| 36> H 	 -106.119 	 50.3827 	 125.836
| 37> H 	 -106.325 	 51.9275 	 126.698
| 38> H 	 -104.734 	 51.0957 	 126.675
| 39> H 	 -100.561 	 50.5953 	 121.025
| 40> H 	 -101.554 	 54.4954 	 128.248
| 41> *
| 42>
| 43>                          ****END OF INPUT****

CARTESIAN COORDINATES (ANGSTROEM)
---------------------------------
  S    -101.268000   50.953800  123.387000
  C    -100.858000   51.281200  121.719000
  C    -100.859000   52.642800  121.499000
  C    -101.343000   53.363800  122.636000
  C    -101.749000   52.629600  123.658000
  H    -101.432000   54.446400  122.676000
  C    -100.392000   53.307000  120.242000
  H    -101.254000   53.804500  119.793000
  H    -100.043000   52.550900  119.530000
  C    -99.245800   54.304400  120.439000
  H    -99.695100   55.325200  120.642000
  H    -98.532500   54.021400  121.176000
  C    -98.427800   54.532600  119.142000
  H    -97.660600   55.260900  119.138000
  H    -97.994500   53.679400  118.674000
  H    -99.186800   54.806000  118.444000
  S    -100.770000   53.855100  125.931000
  C    -101.865000   54.156300  127.233000
  C    -103.156000   53.935200  126.892000
  C    -103.293000   53.491100  125.545000
  C    -102.058000   53.221000  124.966000
  H    -103.884000   54.135800  127.618000
  C    -104.693000   53.383700  124.922000
  H    -104.576000   53.889500  123.955000
  H    -105.467000   53.899400  125.502000
  C    -105.292000   52.048700  124.762000
  H    -104.585000   51.464400  124.172000
  H    -106.254000   52.079500  124.243000
  C    -105.576000   51.314100  126.045000
  H    -106.119000   50.382700  125.836000
  H    -106.325000   51.927500  126.698000
  H    -104.734000   51.095700  126.675000
  H    -100.561000   50.595300  121.025000
  H    -101.554000   54.495400  128.248000

 Total Charge           Charge          ....    0
 Multiplicity           Mult            ....    1
 Number of Electrons    NEL             ....  134
 Basis Dimension        Dim             ....  322

ORBITAL ENERGIES
----------------

  NO   OCC          E(Eh)            E(eV)
   0   2.0000     -88.964851     -2420.8567
   1   2.0000     -88.963005     -2420.8064
   2   2.0000     -10.322940      -280.9015
   3   2.0000     -10.322131      -280.8795
   4   2.0000     -10.313046      -280.6322
   5   2.0000     -10.309288      -280.5300
   6   2.0000     -10.303413      -280.3701
   7   2.0000     -10.298352      -280.2324
   8   2.0000     -10.293077      -280.0889
   9   2.0000     -10.290477      -280.0181
  10   2.0000     -10.287452      -279.9358
  11   2.0000     -10.286372      -279.9064
  12   2.0000     -10.284188      -279.8470
  13   2.0000     -10.276274      -279.6316
  14   2.0000     -10.274955      -279.5957
  15   2.0000     -10.269543      -279.4485
  16   2.0000      -8.080390      -219.8786
  17   2.0000      -8.077603      -219.8027
  18   2.0000      -6.038829      -164.3249
  19   2.0000      -6.036204      -164.2535
  20   2.0000      -6.034833      -164.2162
  21   2.0000      -6.032243      -164.1457
  22   2.0000      -6.031133      -164.1155
  23   2.0000      -6.028132      -164.0338
  24   2.0000      -1.012216       -27.5438
  25   2.0000      -0.990622       -26.9562
  26   2.0000      -0.915129       -24.9019
  27   2.0000      -0.914112       -24.8743
  28   2.0000      -0.875103       -23.8128
  29   2.0000      -0.848537       -23.0899
  30   2.0000      -0.847236       -23.0545
  31   2.0000      -0.820215       -22.3192
  32   2.0000      -0.783633       -21.3237
  33   2.0000      -0.773173       -21.0391
  34   2.0000      -0.710788       -19.3415
  35   2.0000      -0.699160       -19.0251
  36   2.0000      -0.683242       -18.5920
  37   2.0000      -0.660112       -17.9626
  38   2.0000      -0.645622       -17.5683
  39   2.0000      -0.622577       -16.9412
  40   2.0000      -0.594924       -16.1887
  41   2.0000      -0.579432       -15.7671
  42   2.0000      -0.566679       -15.4201
  43   2.0000      -0.555058       -15.1039
  44   2.0000      -0.552925       -15.0458
  45   2.0000      -0.529497       -14.4084
  46   2.0000      -0.518093       -14.0980
  47   2.0000      -0.513410       -13.9706
  48   2.0000      -0.501109       -13.6359
  49   2.0000      -0.497281       -13.5317
  50   2.0000      -0.485996       -13.2246
  51   2.0000      -0.479895       -13.0586
  52   2.0000      -0.469999       -12.7893
  53   2.0000      -0.465363       -12.6632
  54   2.0000      -0.463965       -12.6251
  55   2.0000      -0.451606       -12.2888
  56   2.0000      -0.442754       -12.0480
  57   2.0000      -0.439143       -11.9497
  58   2.0000      -0.432689       -11.7741
  59   2.0000      -0.422202       -11.4887
  60   2.0000      -0.415132       -11.2963
  61   2.0000      -0.413315       -11.2469
  62   2.0000      -0.406289       -11.0557
  63   2.0000      -0.338332        -9.2065
  64   2.0000      -0.331895        -9.0313
  65   2.0000      -0.318604        -8.6697
  66   2.0000      -0.313458        -8.5296
  67   0.0000       0.047548         1.2939
  68   0.0000       0.053100         1.4449
  69   0.0000       0.110513         3.0072
  70   0.0000       0.124360         3.3840
  71   0.0000       0.132639         3.6093

MULLIKEN ATOMIC CHARGES
-----------------------
   0 S :    0.102003
   1 C :   -0.078806
   2 C :   -0.088676
   3 C :    0.011686
   4 C :   -0.122473
   5 H :    0.016678
   6 C :    0.079630
   7 H :    0.039484
   8 H :    0.012674
   9 C :   -0.081834
  10 H :    0.041484
  11 H :    0.038097
  12 C :   -0.036947
  13 H :    0.029162
  14 H :    0.018110
  15 H :    0.011215
  16 S :    0.130326
  17 C :   -0.109782
  18 C :   -0.012282
  19 C :   -0.030984
  20 C :   -0.201593
  21 H :   -0.002484
  22 C :    0.099215
  23 H :    0.032765
  24 H :    0.011090
  25 C :   -0.045073
  26 H :    0.022403
  27 H :    0.029349
  28 C :   -0.086217
  29 H :    0.036922
  30 H :    0.019841
  31 H :    0.041392
  32 H :    0.008773
  33 H :    0.064852
Sum of atomic charges:   -0.0000000

LOEWDIN ATOMIC CHARGES
----------------------
   0 S :    0.394226
   1 C :   -0.175057
   2 C :   -0.061821
   3 C :   -0.059050
   4 C :   -0.196195
   5 H :    0.033309
   6 C :   -0.032656
   7 H :    0.035357
   8 H :    0.029074
   9 C :   -0.035185
  10 H :    0.032879
  11 H :    0.020427
  12 C :   -0.064355
  13 H :    0.021222
  14 H :    0.018482
  15 H :    0.021623
  16 S :    0.425114
  17 C :   -0.193795
  18 C :   -0.070039
  19 C :   -0.046694
  20 C :   -0.210800
  21 H :    0.025306
  22 C :   -0.032076
  23 H :    0.036390
  24 H :    0.029165
  25 C :   -0.046965
  26 H :    0.020839
  27 H :    0.028601
  28 C :   -0.069918
  29 H :    0.028391
  30 H :    0.026270
  31 H :    0.020914
  32 H :    0.010406
  33 H :    0.036611

  Mayer bond orders larger than 0.100000
B(  0-S ,  1-C ) :   1.1349 B(  0-S ,  4-C ) :   1.1254 B(  1-C ,  2-C ) :   1.6225
B(  1-C , 32-H ) :   0.9801 B(  2-C ,  3-C ) :   1.2052 B(  2-C ,  6-C ) :   1.0426
B(  3-C ,  4-C ) :   1.6204 B(  3-C ,  5-H ) :   1.0016 B(  4-C , 20-C ) :   1.0133
B(  6-C ,  7-H ) :   0.9279 B(  6-C ,  8-H ) :   0.9443 B(  6-C ,  9-C ) :   1.0528
B(  9-C , 10-H ) :   0.9510 B(  9-C , 11-H ) :   0.9669 B(  9-C , 12-C ) :   1.0809
B( 12-C , 13-H ) :   0.9769 B( 12-C , 14-H ) :   0.9750 B( 12-C , 15-H ) :   0.9723
B( 16-S , 17-C ) :   1.1580 B( 16-S , 20-C ) :   1.1522 B( 17-C , 18-C ) :   1.6232
B( 17-C , 33-H ) :   0.9592 B( 18-C , 19-C ) :   1.2315 B( 18-C , 21-H ) :   1.0036
B( 19-C , 20-C ) :   1.5971 B( 19-C , 22-C ) :   1.0294 B( 22-C , 23-H ) :   0.9235
B( 22-C , 24-H ) :   0.9368 B( 22-C , 25-C ) :   1.0947 B( 25-C , 26-H ) :   0.9463
B( 25-C , 27-H ) :   0.9497 B( 25-C , 28-C ) :   1.0824 B( 28-C , 29-H ) :   0.9726
B( 28-C , 30-H ) :   0.9700 B( 28-C , 31-H ) :   0.9746

Dispersion correction           -0.014384005
FINAL SINGLE POINT ENERGY     -1339.870748095009

DIPOLE MOMENT
-------------
                                X             Y             Z
Electronic contribution:      6.88999      -4.31492      13.10380
Nuclear contribution   :     -6.98990       4.65980     -13.42120
                        -----------------------------------------
Total Dipole Moment    :     -0.09991       0.34488      -0.31740
                        -----------------------------------------
Magnitude (a.u.)       :      0.47924
Magnitude (Debye)      :      1.21812

Rotational constants in cm-1:     0.022318     0.007702     0.006718
Rotational constants in MHz :   669.081648   230.894680   201.400397

                             ****ORCA TERMINATED NORMALLY****
TOTAL RUN TIME: 0 days 0 hours 0 minutes 32 seconds 986 msec
