                         Program Version 4.2.1 -  RELEASE  -
|  1> ! wB97X-D3 SP def2-SVP
|  2> %pal
|  3> nprocs 16
|  4> end
|  5>
|  6> * xyz 0 1
|  7> S 	 2.58982 	 -0.375299 	 80.1516
|  8> C 	 3.40939 	 0.37161 	 81.5037
|  9> C 	 4.02631 	 -0.592577 	 82.3162
| 10> C 	 3.71384 	 -1.97173 	 81.9269
| 11> C 	 2.97996 	 -2.03238 	 80.7221
| 12> H 	 4.02603 	 -2.92991 	 82.3243
| 13> C 	 4.68489 	 -0.21533 	 83.6429
| 14> H 	 5.52684 	 0.399977 	 83.3443
| 15> H 	 5.16997 	 -1.09547 	 84.1275
| 16> C 	 3.8643 	 0.521361 	 84.6685
| 17> H 	 4.62055 	 0.804148 	 85.3712
| 18> H 	 3.3677 	 1.46776 	 84.3546
| 19> C 	 2.84655 	 -0.479909 	 85.3129
| 20> H 	 3.51599 	 -1.25794 	 85.7922
| 21> H 	 2.2397 	 0.0151439 	 86.0379
| 22> H 	 2.13165 	 -0.800071 	 84.5365
| 23> S 	 2.79369 	 -3.12594 	 78.1555
| 24> C 	 2.16494 	 -4.71373 	 77.9894
| 25> C 	 1.836 	 -5.24393 	 79.1902
| 26> C 	 2.00794 	 -4.32038 	 80.3161
| 27> C 	 2.66793 	 -3.18624 	 79.9373
| 28> H 	 1.49509 	 -6.23385 	 79.2133
| 29> C 	 1.7008 	 -4.74864 	 81.7536
| 30> H 	 0.836155 	 -5.32502 	 81.8369
| 31> H 	 1.37229 	 -3.93797 	 82.2904
| 32> C 	 2.80092 	 -5.51849 	 82.5196
| 33> H 	 3.38195 	 -4.77006 	 83.0202
| 34> H 	 3.44329 	 -6.00368 	 81.799
| 35> C 	 2.28601 	 -6.37124 	 83.55
| 36> H 	 3.09453 	 -6.68864 	 84.241
| 37> H 	 1.78785 	 -7.23165 	 83.1678
| 38> H 	 1.64284 	 -5.87408 	 84.2225
| 39> H 	 3.74548 	 1.39183 	 81.6342
| 40> H 	 2.1326 	 -5.20945 	 77.0263
| 41> *
| 42>
| 43>                          ****END OF INPUT****

CARTESIAN COORDINATES (ANGSTROEM)
---------------------------------
  S      2.589820   -0.375299   80.151600
  C      3.409390    0.371610   81.503700
  C      4.026310   -0.592577   82.316200
  C      3.713840   -1.971730   81.926900
  C      2.979960   -2.032380   80.722100
  H      4.026030   -2.929910   82.324300
  C      4.684890   -0.215330   83.642900
  H      5.526840    0.399977   83.344300
  H      5.169970   -1.095470   84.127500
  C      3.864300    0.521361   84.668500
  H      4.620550    0.804148   85.371200
  H      3.367700    1.467760   84.354600
  C      2.846550   -0.479909   85.312900
  H      3.515990   -1.257940   85.792200
  H      2.239700    0.015144   86.037900
  H      2.131650   -0.800071   84.536500
  S      2.793690   -3.125940   78.155500
  C      2.164940   -4.713730   77.989400
  C      1.836000   -5.243930   79.190200
  C      2.007940   -4.320380   80.316100
  C      2.667930   -3.186240   79.937300
  H      1.495090   -6.233850   79.213300
  C      1.700800   -4.748640   81.753600
  H      0.836155   -5.325020   81.836900
  H      1.372290   -3.937970   82.290400
  C      2.800920   -5.518490   82.519600
  H      3.381950   -4.770060   83.020200
  H      3.443290   -6.003680   81.799000
  C      2.286010   -6.371240   83.550000
  H      3.094530   -6.688640   84.241000
  H      1.787850   -7.231650   83.167800
  H      1.642840   -5.874080   84.222500
  H      3.745480    1.391830   81.634200
  H      2.132600   -5.209450   77.026300

 Total Charge           Charge          ....    0
 Multiplicity           Mult            ....    1
 Number of Electrons    NEL             ....  134
 Basis Dimension        Dim             ....  322

ORBITAL ENERGIES
----------------

  NO   OCC          E(Eh)            E(eV)
   0   2.0000     -88.967533     -2420.9296
   1   2.0000     -88.961356     -2420.7616
   2   2.0000     -10.332794      -281.1696
   3   2.0000     -10.325797      -280.9792
   4   2.0000     -10.314619      -280.6751
   5   2.0000     -10.314036      -280.6592
   6   2.0000     -10.306881      -280.4645
   7   2.0000     -10.306377      -280.4508
   8   2.0000     -10.300941      -280.3028
   9   2.0000     -10.291925      -280.0575
  10   2.0000     -10.289945      -280.0036
  11   2.0000     -10.286354      -279.9059
  12   2.0000     -10.280601      -279.7494
  13   2.0000     -10.278962      -279.7048
  14   2.0000     -10.278022      -279.6792
  15   2.0000     -10.269731      -279.4536
  16   2.0000      -8.081146      -219.8992
  17   2.0000      -8.076691      -219.7779
  18   2.0000      -6.039824      -164.3520
  19   2.0000      -6.035702      -164.2398
  20   2.0000      -6.035275      -164.2282
  21   2.0000      -6.031892      -164.1361
  22   2.0000      -6.031177      -164.1167
  23   2.0000      -6.027249      -164.0098
  24   2.0000      -1.004243       -27.3268
  25   2.0000      -0.976965       -26.5846
  26   2.0000      -0.923029       -25.1169
  27   2.0000      -0.912198       -24.8222
  28   2.0000      -0.874462       -23.7953
  29   2.0000      -0.855290       -23.2736
  30   2.0000      -0.838824       -22.8256
  31   2.0000      -0.814355       -22.1597
  32   2.0000      -0.788269       -21.4499
  33   2.0000      -0.771889       -21.0042
  34   2.0000      -0.708565       -19.2810
  35   2.0000      -0.701309       -19.0836
  36   2.0000      -0.699033       -19.0217
  37   2.0000      -0.664014       -18.0687
  38   2.0000      -0.635711       -17.2986
  39   2.0000      -0.612359       -16.6631
  40   2.0000      -0.598281       -16.2800
  41   2.0000      -0.577827       -15.7235
  42   2.0000      -0.575577       -15.6622
  43   2.0000      -0.552325       -15.0295
  44   2.0000      -0.541131       -14.7249
  45   2.0000      -0.531646       -14.4668
  46   2.0000      -0.522581       -14.2201
  47   2.0000      -0.512356       -13.9419
  48   2.0000      -0.505337       -13.7509
  49   2.0000      -0.504250       -13.7213
  50   2.0000      -0.490369       -13.3436
  51   2.0000      -0.472776       -12.8649
  52   2.0000      -0.471056       -12.8181
  53   2.0000      -0.464709       -12.6454
  54   2.0000      -0.460167       -12.5218
  55   2.0000      -0.457492       -12.4490
  56   2.0000      -0.444677       -12.1003
  57   2.0000      -0.434867       -11.8333
  58   2.0000      -0.427448       -11.6315
  59   2.0000      -0.421613       -11.4727
  60   2.0000      -0.417070       -11.3491
  61   2.0000      -0.415938       -11.3183
  62   2.0000      -0.413688       -11.2570
  63   2.0000      -0.352682        -9.5970
  64   2.0000      -0.329395        -8.9633
  65   2.0000      -0.326055        -8.8724
  66   2.0000      -0.290730        -7.9112
  67   0.0000       0.024513         0.6670
  68   0.0000       0.071537         1.9466
  69   0.0000       0.112262         3.0548
  70   0.0000       0.120688         3.2841
  71   0.0000       0.130847         3.5605

MULLIKEN ATOMIC CHARGES
-----------------------
   0 S :    0.112039
   1 C :   -0.106366
   2 C :   -0.106531
   3 C :    0.037186
   4 C :   -0.156198
   5 H :    0.000827
   6 C :    0.033335
   7 H :    0.028338
   8 H :    0.022248
   9 C :   -0.062807
  10 H :    0.022642
  11 H :    0.035069
  12 C :   -0.057341
  13 H :    0.038455
  14 H :    0.026536
  15 H :    0.052506
  16 S :    0.093487
  17 C :   -0.086215
  18 C :   -0.002748
  19 C :   -0.053816
  20 C :   -0.147092
  21 H :   -0.002002
  22 C :    0.115451
  23 H :   -0.009721
  24 H :   -0.001346
  25 C :   -0.040588
  26 H :    0.019021
  27 H :    0.030170
  28 C :   -0.023906
  29 H :    0.028274
  30 H :    0.027612
  31 H :    0.014816
  32 H :    0.055773
  33 H :    0.062893
Sum of atomic charges:    0.0000000

LOEWDIN ATOMIC CHARGES
----------------------
   0 S :    0.392282
   1 C :   -0.209097
   2 C :   -0.059745
   3 C :   -0.062063
   4 C :   -0.175343
   5 H :    0.028814
   6 C :   -0.040309
   7 H :    0.030832
   8 H :    0.032688
   9 C :   -0.041891
  10 H :    0.021692
  11 H :    0.025238
  12 C :   -0.064865
  13 H :    0.032404
  14 H :    0.018152
  15 H :    0.032173
  16 S :    0.392450
  17 C :   -0.183650
  18 C :   -0.068698
  19 C :   -0.041540
  20 C :   -0.192184
  21 H :    0.022535
  22 C :   -0.025255
  23 H :    0.022543
  24 H :    0.022014
  25 C :   -0.036450
  26 H :    0.020033
  27 H :    0.024909
  28 C :   -0.060309
  29 H :    0.034316
  30 H :    0.021105
  31 H :    0.021332
  32 H :    0.033183
  33 H :    0.032706

  Mayer bond orders larger than 0.100000
B(  0-S ,  1-C ) :   1.1314 B(  0-S ,  4-C ) :   1.1347 B(  1-C ,  2-C ) :   1.6164
B(  1-C , 32-H ) :   0.9625 B(  2-C ,  3-C ) :   1.2187 B(  2-C ,  6-C ) :   1.0236
B(  3-C ,  4-C ) :   1.5673 B(  3-C ,  5-H ) :   0.9895 B(  4-C , 20-C ) :   1.0921
B(  6-C ,  7-H ) :   0.9307 B(  6-C ,  8-H ) :   0.9456 B(  6-C ,  9-C ) :   1.0795
B(  9-C , 10-H ) :   0.9520 B(  9-C , 11-H ) :   0.9536 B(  9-C , 12-C ) :   1.0670
B( 12-C , 13-H ) :   0.9754 B( 12-C , 14-H ) :   0.9760 B( 12-C , 15-H ) :   0.9771
B( 16-S , 17-C ) :   1.1503 B( 16-S , 20-C ) :   1.1097 B( 17-C , 18-C ) :   1.6344
B( 17-C , 33-H ) :   0.9667 B( 18-C , 19-C ) :   1.1938 B( 18-C , 21-H ) :   1.0026
B( 19-C , 20-C ) :   1.6162 B( 19-C , 22-C ) :   1.0630 B( 22-C , 23-H ) :   0.9319
B( 22-C , 24-H ) :   0.9074 B( 22-C , 25-C ) :   1.0491 B( 25-C , 26-H ) :   0.9397
B( 25-C , 27-H ) :   0.9598 B( 25-C , 28-C ) :   1.1112 B( 28-C , 29-H ) :   0.9638
B( 28-C , 30-H ) :   0.9703 B( 28-C , 31-H ) :   0.9659

Dispersion correction           -0.014541686
FINAL SINGLE POINT ENERGY     -1339.863482054685

DIPOLE MOMENT
-------------
                                X             Y             Z
Electronic contribution:     -1.63896       7.29243     -29.92367
Nuclear contribution   :      1.75291      -7.65238      30.53404
                        -----------------------------------------
Total Dipole Moment    :      0.11395      -0.35995       0.61037
                        -----------------------------------------
Magnitude (a.u.)       :      0.71770
Magnitude (Debye)      :      1.82425

Rotational constants in cm-1:     0.017900     0.009619     0.006644
Rotational constants in MHz :   536.619798   288.367058   199.187853

                             ****ORCA TERMINATED NORMALLY****
TOTAL RUN TIME: 0 days 0 hours 0 minutes 37 seconds 270 msec
