                         Program Version 4.2.1 -  RELEASE  -
|  1> ! wB97X-D3 SP def2-SVP
|  2> %pal
|  3> nprocs 16
|  4> end
|  5>
|  6> * xyz 0 1
|  7> S 	 39.8697 	 9.37242 	 89.5906
|  8> C 	 40.3666 	 9.9926 	 88.0623
|  9> C 	 39.4975 	 9.7265 	 87.0367
| 10> C 	 38.4631 	 8.75848 	 87.4747
| 11> C 	 38.4867 	 8.63039 	 88.8856
| 12> H 	 37.6288 	 8.36453 	 86.9903
| 13> C 	 39.5848 	 10.181 	 85.5789
| 14> H 	 40.5252 	 10.6997 	 85.5012
| 15> H 	 38.769 	 10.9038 	 85.4798
| 16> C 	 39.5005 	 9.0092 	 84.5147
| 17> H 	 38.5086 	 8.56407 	 84.5266
| 18> H 	 39.6957 	 9.20935 	 83.4298
| 19> C 	 40.5889 	 7.88949 	 84.7136
| 20> H 	 40.4963 	 7.33293 	 85.6298
| 21> H 	 40.5102 	 7.16482 	 83.8841
| 22> H 	 41.5573 	 8.33437 	 84.552
| 23> S 	 36.8557 	 8.47971 	 91.1277
| 24> C 	 36.0724 	 6.96701 	 91.4065
| 25> C 	 36.2152 	 6.0247 	 90.4446
| 26> C 	 37.1136 	 6.49499 	 89.4109
| 27> C 	 37.5287 	 7.8379 	 89.6362
| 28> H 	 35.7157 	 5.0445 	 90.4058
| 29> C 	 37.6268 	 5.49578 	 88.3915
| 30> H 	 38.2531 	 5.95947 	 87.6401
| 31> H 	 36.7473 	 5.03881 	 87.95
| 32> C 	 38.5122 	 4.41743 	 89.0402
| 33> H 	 37.9202 	 3.93038 	 89.8197
| 34> H 	 39.4538 	 4.8824 	 89.4693
| 35> C 	 38.8171 	 3.35141 	 87.9789
| 36> H 	 39.4944 	 3.76718 	 87.1383
| 37> H 	 37.9247 	 2.88625 	 87.5819
| 38> H 	 39.3244 	 2.5454 	 88.4802
| 39> H 	 41.1544 	 10.6416 	 87.9266
| 40> H 	 35.4513 	 6.78029 	 92.2718
| 41> *
| 42>
| 43>                          ****END OF INPUT****

CARTESIAN COORDINATES (ANGSTROEM)
---------------------------------
  S     39.869700    9.372420   89.590600
  C     40.366600    9.992600   88.062300
  C     39.497500    9.726500   87.036700
  C     38.463100    8.758480   87.474700
  C     38.486700    8.630390   88.885600
  H     37.628800    8.364530   86.990300
  C     39.584800   10.181000   85.578900
  H     40.525200   10.699700   85.501200
  H     38.769000   10.903800   85.479800
  C     39.500500    9.009200   84.514700
  H     38.508600    8.564070   84.526600
  H     39.695700    9.209350   83.429800
  C     40.588900    7.889490   84.713600
  H     40.496300    7.332930   85.629800
  H     40.510200    7.164820   83.884100
  H     41.557300    8.334370   84.552000
  S     36.855700    8.479710   91.127700
  C     36.072400    6.967010   91.406500
  C     36.215200    6.024700   90.444600
  C     37.113600    6.494990   89.410900
  C     37.528700    7.837900   89.636200
  H     35.715700    5.044500   90.405800
  C     37.626800    5.495780   88.391500
  H     38.253100    5.959470   87.640100
  H     36.747300    5.038810   87.950000
  C     38.512200    4.417430   89.040200
  H     37.920200    3.930380   89.819700
  H     39.453800    4.882400   89.469300
  C     38.817100    3.351410   87.978900
  H     39.494400    3.767180   87.138300
  H     37.924700    2.886250   87.581900
  H     39.324400    2.545400   88.480200
  H     41.154400   10.641600   87.926600
  H     35.451300    6.780290   92.271800

 Total Charge           Charge          ....    0
 Multiplicity           Mult            ....    1
 Number of Electrons    NEL             ....  134
 Basis Dimension        Dim             ....  322

ORBITAL ENERGIES
----------------

  NO   OCC          E(Eh)            E(eV)
   0   2.0000     -88.967362     -2420.9250
   1   2.0000     -88.966215     -2420.8938
   2   2.0000     -10.327261      -281.0191
   3   2.0000     -10.326411      -280.9959
   4   2.0000     -10.313320      -280.6397
   5   2.0000     -10.305630      -280.4305
   6   2.0000     -10.305066      -280.4151
   7   2.0000     -10.304102      -280.3889
   8   2.0000     -10.298920      -280.2479
   9   2.0000     -10.296439      -280.1803
  10   2.0000     -10.293862      -280.1102
  11   2.0000     -10.292504      -280.0733
  12   2.0000     -10.289451      -279.9902
  13   2.0000     -10.287770      -279.9444
  14   2.0000     -10.281164      -279.7647
  15   2.0000     -10.275931      -279.6223
  16   2.0000      -8.082429      -219.9341
  17   2.0000      -8.081905      -219.9198
  18   2.0000      -6.040870      -164.3804
  19   2.0000      -6.040340      -164.3660
  20   2.0000      -6.037002      -164.2752
  21   2.0000      -6.036312      -164.2564
  22   2.0000      -6.033141      -164.1701
  23   2.0000      -6.032665      -164.1572
  24   2.0000      -1.005599       -27.3637
  25   2.0000      -0.983877       -26.7727
  26   2.0000      -0.910864       -24.7859
  27   2.0000      -0.903422       -24.5834
  28   2.0000      -0.868729       -23.6393
  29   2.0000      -0.850123       -23.1330
  30   2.0000      -0.842398       -22.9228
  31   2.0000      -0.812215       -22.1015
  32   2.0000      -0.782686       -21.2980
  33   2.0000      -0.768915       -20.9232
  34   2.0000      -0.705638       -19.2014
  35   2.0000      -0.694786       -18.9061
  36   2.0000      -0.689595       -18.7648
  37   2.0000      -0.658820       -17.9274
  38   2.0000      -0.644574       -17.5398
  39   2.0000      -0.614461       -16.7203
  40   2.0000      -0.596440       -16.2300
  41   2.0000      -0.568210       -15.4618
  42   2.0000      -0.560830       -15.2610
  43   2.0000      -0.550375       -14.9765
  44   2.0000      -0.544728       -14.8228
  45   2.0000      -0.516990       -14.0680
  46   2.0000      -0.515950       -14.0397
  47   2.0000      -0.511628       -13.9221
  48   2.0000      -0.503717       -13.7068
  49   2.0000      -0.495511       -13.4835
  50   2.0000      -0.487131       -13.2555
  51   2.0000      -0.481770       -13.1096
  52   2.0000      -0.463702       -12.6180
  53   2.0000      -0.458779       -12.4840
  54   2.0000      -0.458176       -12.4676
  55   2.0000      -0.454023       -12.3546
  56   2.0000      -0.443371       -12.0647
  57   2.0000      -0.439773       -11.9668
  58   2.0000      -0.436183       -11.8691
  59   2.0000      -0.425946       -11.5906
  60   2.0000      -0.422776       -11.5043
  61   2.0000      -0.417565       -11.3625
  62   2.0000      -0.413832       -11.2609
  63   2.0000      -0.347516        -9.4564
  64   2.0000      -0.331691        -9.0258
  65   2.0000      -0.327222        -8.9042
  66   2.0000      -0.287701        -7.8287
  67   0.0000       0.033242         0.9046
  68   0.0000       0.077772         2.1163
  69   0.0000       0.110740         3.0134
  70   0.0000       0.119284         3.2459
  71   0.0000       0.128996         3.5102

MULLIKEN ATOMIC CHARGES
-----------------------
   0 S :    0.124951
   1 C :   -0.084447
   2 C :   -0.117218
   3 C :    0.031679
   4 C :   -0.156123
   5 H :    0.000392
   6 C :    0.116815
   7 H :    0.012150
   8 H :    0.049992
   9 C :   -0.108401
  10 H :    0.032218
  11 H :    0.040069
  12 C :   -0.062183
  13 H :    0.046971
  14 H :    0.026690
  15 H :    0.027332
  16 S :    0.116436
  17 C :   -0.078660
  18 C :   -0.040118
  19 C :   -0.039247
  20 C :   -0.176824
  21 H :    0.031606
  22 C :    0.075584
  23 H :    0.015776
  24 H :    0.022171
  25 C :   -0.105138
  26 H :    0.024241
  27 H :    0.053349
  28 C :   -0.044882
  29 H :    0.047769
  30 H :    0.025183
  31 H :    0.028775
  32 H :    0.011741
  33 H :    0.051351
Sum of atomic charges:    0.0000000

LOEWDIN ATOMIC CHARGES
----------------------
   0 S :    0.425755
   1 C :   -0.202608
   2 C :   -0.051540
   3 C :   -0.058783
   4 C :   -0.200476
   5 H :    0.019334
   6 C :   -0.027044
   7 H :    0.025693
   8 H :    0.038166
   9 C :   -0.044960
  10 H :    0.019537
  11 H :    0.033238
  12 C :   -0.064237
  13 H :    0.020563
  14 H :    0.027018
  15 H :    0.022253
  16 S :    0.408441
  17 C :   -0.185826
  18 C :   -0.074710
  19 C :   -0.046461
  20 C :   -0.209277
  21 H :    0.037940
  22 C :   -0.033188
  23 H :    0.026084
  24 H :    0.029403
  25 C :   -0.038122
  26 H :    0.019876
  27 H :    0.036180
  28 C :   -0.069711
  29 H :    0.034940
  30 H :    0.021862
  31 H :    0.023039
  32 H :    0.010865
  33 H :    0.026759

  Mayer bond orders larger than 0.100000
B(  0-S ,  1-C ) :   1.1259 B(  0-S ,  4-C ) :   1.1631 B(  1-C ,  2-C ) :   1.6478
B(  1-C , 32-H ) :   0.9688 B(  2-C ,  3-C ) :   1.1946 B(  2-C ,  6-C ) :   1.0136
B(  3-C ,  4-C ) :   1.5793 B(  3-C ,  5-H ) :   0.9963 B(  4-C , 20-C ) :   1.0579
B(  6-C ,  7-H ) :   0.9436 B(  6-C ,  8-H ) :   0.9386 B(  6-C ,  9-C ) :   1.0515
B(  9-C , 10-H ) :   0.9572 B(  9-C , 11-H ) :   0.9653 B(  9-C , 12-C ) :   1.0690
B( 12-C , 13-H ) :   0.9755 B( 12-C , 14-H ) :   0.9763 B( 12-C , 15-H ) :   0.9782
B( 16-S , 17-C ) :   1.1541 B( 16-S , 20-C ) :   1.1291 B( 17-C , 18-C ) :   1.6286
B( 17-C , 33-H ) :   0.9622 B( 18-C , 19-C ) :   1.2280 B( 18-C , 21-H ) :   0.9830
B( 19-C , 20-C ) :   1.5917 B( 19-C , 22-C ) :   1.0497 B( 22-C , 23-H ) :   0.9335
B( 22-C , 24-H ) :   0.9293 B( 22-C , 25-C ) :   1.0703 B( 25-C , 26-H ) :   0.9528
B( 25-C , 27-H ) :   0.9531 B( 25-C , 28-C ) :   1.0875 B( 28-C , 29-H ) :   0.9726
B( 28-C , 30-H ) :   0.9718 B( 28-C , 31-H ) :   0.9727

Dispersion correction           -0.014623425
FINAL SINGLE POINT ENERGY     -1339.880593097577

DIPOLE MOMENT
-------------
                                X             Y             Z
Electronic contribution:     -6.50653      16.91039      23.65775
Nuclear contribution   :      6.44093     -17.31987     -24.10434
                        -----------------------------------------
Total Dipole Moment    :     -0.06560      -0.40948      -0.44660
                        -----------------------------------------
Magnitude (a.u.)       :      0.60944
Magnitude (Debye)      :      1.54909

Rotational constants in cm-1:     0.017082     0.009773     0.007124
Rotational constants in MHz :   512.099609   292.983435   213.578344

                             ****ORCA TERMINATED NORMALLY****
TOTAL RUN TIME: 0 days 0 hours 0 minutes 30 seconds 719 msec
