                         Program Version 4.2.1 -  RELEASE  -
|  1> ! wB97X-D3 SP def2-SVP
|  2> %pal
|  3> nprocs 16
|  4> end
|  5>
|  6> * xyz 0 1
|  7> S 	 6.11285 	 8.63863 	 81.1108
|  8> C 	 7.33664 	 9.34538 	 80.1071
|  9> C 	 7.34892 	 10.73 	 80.126
| 10> C 	 6.35732 	 11.2241 	 81.04
| 11> C 	 5.62901 	 10.2636 	 81.6622
| 12> H 	 6.11214 	 12.2613 	 81.2462
| 13> C 	 8.1108 	 11.6894 	 79.2418
| 14> H 	 8.25358 	 11.2152 	 78.244
| 15> H 	 9.11147 	 11.6716 	 79.6439
| 16> C 	 7.75069 	 13.1701 	 79.1507
| 17> H 	 6.73897 	 13.1204 	 78.7951
| 18> H 	 7.89718 	 13.5533 	 80.1424
| 19> C 	 8.73511 	 13.8053 	 78.1775
| 20> H 	 9.74569 	 13.6925 	 78.7278
| 21> H 	 8.75807 	 13.1915 	 77.2268
| 22> H 	 8.58188 	 14.8284 	 77.9623
| 23> S 	 3.06268 	 10.7532 	 82.1385
| 24> C 	 2.38021 	 10.8267 	 83.8033
| 25> C 	 3.41303 	 10.7805 	 84.7233
| 26> C 	 4.73862 	 10.5403 	 84.1525
| 27> C 	 4.66694 	 10.5254 	 82.7379
| 28> H 	 3.1098 	 10.9206 	 85.7426
| 29> C 	 6.0046 	 10.32 	 84.9315
| 30> H 	 6.83633 	 10.0068 	 84.2745
| 31> H 	 5.8272 	 9.56233 	 85.6783
| 32> C 	 6.37636 	 11.5898 	 85.7039
| 33> H 	 7.15738 	 11.3639 	 86.4838
| 34> H 	 5.53207 	 11.8722 	 86.3528
| 35> C 	 6.855 	 12.7419 	 84.7894
| 36> H 	 7.63216 	 12.5013 	 84.0928
| 37> H 	 7.09738 	 13.5954 	 85.3459
| 38> H 	 5.96915 	 12.984 	 84.2324
| 39> H 	 8.05527 	 8.84267 	 79.4173
| 40> H 	 1.31107 	 10.9022 	 84.03
| 41> *
| 42>
| 43>                          ****END OF INPUT****

CARTESIAN COORDINATES (ANGSTROEM)
---------------------------------
  S      6.112850    8.638630   81.110800
  C      7.336640    9.345380   80.107100
  C      7.348920   10.730000   80.126000
  C      6.357320   11.224100   81.040000
  C      5.629010   10.263600   81.662200
  H      6.112140   12.261300   81.246200
  C      8.110800   11.689400   79.241800
  H      8.253580   11.215200   78.244000
  H      9.111470   11.671600   79.643900
  C      7.750690   13.170100   79.150700
  H      6.738970   13.120400   78.795100
  H      7.897180   13.553300   80.142400
  C      8.735110   13.805300   78.177500
  H      9.745690   13.692500   78.727800
  H      8.758070   13.191500   77.226800
  H      8.581880   14.828400   77.962300
  S      3.062680   10.753200   82.138500
  C      2.380210   10.826700   83.803300
  C      3.413030   10.780500   84.723300
  C      4.738620   10.540300   84.152500
  C      4.666940   10.525400   82.737900
  H      3.109800   10.920600   85.742600
  C      6.004600   10.320000   84.931500
  H      6.836330   10.006800   84.274500
  H      5.827200    9.562330   85.678300
  C      6.376360   11.589800   85.703900
  H      7.157380   11.363900   86.483800
  H      5.532070   11.872200   86.352800
  C      6.855000   12.741900   84.789400
  H      7.632160   12.501300   84.092800
  H      7.097380   13.595400   85.345900
  H      5.969150   12.984000   84.232400
  H      8.055270    8.842670   79.417300
  H      1.311070   10.902200   84.030000

 Total Charge           Charge          ....    0
 Multiplicity           Mult            ....    1
 Number of Electrons    NEL             ....  134
 Basis Dimension        Dim             ....  322

ORBITAL ENERGIES
----------------

  NO   OCC          E(Eh)            E(eV)
   0   2.0000     -88.968881     -2420.9663
   1   2.0000     -88.961244     -2420.7585
   2   2.0000     -10.325747      -280.9779
   3   2.0000     -10.325535      -280.9721
   4   2.0000     -10.321477      -280.8617
   5   2.0000     -10.315137      -280.6891
   6   2.0000     -10.310679      -280.5679
   7   2.0000     -10.300037      -280.2782
   8   2.0000     -10.298968      -280.2492
   9   2.0000     -10.290232      -280.0115
  10   2.0000     -10.289993      -280.0049
  11   2.0000     -10.289449      -279.9901
  12   2.0000     -10.289106      -279.9808
  13   2.0000     -10.288032      -279.9516
  14   2.0000     -10.287278      -279.9311
  15   2.0000     -10.265349      -279.3343
  16   2.0000      -8.082919      -219.9474
  17   2.0000      -8.075723      -219.7516
  18   2.0000      -6.041514      -164.3980
  19   2.0000      -6.037554      -164.2902
  20   2.0000      -6.034284      -164.2012
  21   2.0000      -6.033600      -164.1826
  22   2.0000      -6.030171      -164.0893
  23   2.0000      -6.026535      -163.9903
  24   2.0000      -1.002455       -27.2782
  25   2.0000      -0.978456       -26.6251
  26   2.0000      -0.919350       -25.0168
  27   2.0000      -0.907897       -24.7051
  28   2.0000      -0.870925       -23.6991
  29   2.0000      -0.849772       -23.1235
  30   2.0000      -0.838987       -22.8300
  31   2.0000      -0.815754       -22.1978
  32   2.0000      -0.779822       -21.2200
  33   2.0000      -0.768940       -20.9239
  34   2.0000      -0.711514       -19.3613
  35   2.0000      -0.695805       -18.9338
  36   2.0000      -0.686851       -18.6902
  37   2.0000      -0.653968       -17.7954
  38   2.0000      -0.637860       -17.3570
  39   2.0000      -0.620083       -16.8733
  40   2.0000      -0.594103       -16.1664
  41   2.0000      -0.586609       -15.9624
  42   2.0000      -0.566930       -15.4269
  43   2.0000      -0.554510       -15.0890
  44   2.0000      -0.535338       -14.5673
  45   2.0000      -0.522904       -14.2290
  46   2.0000      -0.520106       -14.1528
  47   2.0000      -0.504233       -13.7209
  48   2.0000      -0.500278       -13.6133
  49   2.0000      -0.490844       -13.3565
  50   2.0000      -0.484535       -13.1849
  51   2.0000      -0.478200       -13.0125
  52   2.0000      -0.472049       -12.8451
  53   2.0000      -0.468280       -12.7425
  54   2.0000      -0.453384       -12.3372
  55   2.0000      -0.450810       -12.2672
  56   2.0000      -0.439430       -11.9575
  57   2.0000      -0.436503       -11.8779
  58   2.0000      -0.433669       -11.8007
  59   2.0000      -0.429871       -11.6974
  60   2.0000      -0.428620       -11.6634
  61   2.0000      -0.419486       -11.4148
  62   2.0000      -0.406425       -11.0594
  63   2.0000      -0.336655        -9.1608
  64   2.0000      -0.332702        -9.0533
  65   2.0000      -0.310280        -8.4431
  66   2.0000      -0.309232        -8.4146
  67   0.0000       0.048516         1.3202
  68   0.0000       0.050965         1.3868
  69   0.0000       0.114531         3.1165
  70   0.0000       0.121739         3.3127
  71   0.0000       0.124152         3.3784

MULLIKEN ATOMIC CHARGES
-----------------------
   0 S :    0.133080
   1 C :   -0.139671
   2 C :   -0.050129
   3 C :    0.018871
   4 C :   -0.154681
   5 H :    0.018531
   6 C :   -0.010280
   7 H :    0.025349
   8 H :    0.020118
   9 C :   -0.038144
  10 H :    0.038751
  11 H :    0.039881
  12 C :   -0.045038
  13 H :    0.035158
  14 H :    0.041031
  15 H :    0.035114
  16 S :    0.098034
  17 C :   -0.109670
  18 C :   -0.039896
  19 C :   -0.020616
  20 C :   -0.209898
  21 H :    0.018701
  22 C :    0.110075
  23 H :    0.038550
  24 H :    0.026500
  25 C :   -0.131039
  26 H :    0.028081
  27 H :    0.026143
  28 C :   -0.002696
  29 H :    0.031203
  30 H :    0.021053
  31 H :    0.028118
  32 H :    0.052220
  33 H :    0.067197
Sum of atomic charges:    0.0000000

LOEWDIN ATOMIC CHARGES
----------------------
   0 S :    0.403149
   1 C :   -0.211438
   2 C :   -0.066512
   3 C :   -0.059557
   4 C :   -0.200559
   5 H :    0.033454
   6 C :   -0.042071
   7 H :    0.031514
   8 H :    0.029511
   9 C :   -0.038322
  10 H :    0.024114
  11 H :    0.025919
  12 C :   -0.060789
  13 H :    0.036070
  14 H :    0.032604
  15 H :    0.018128
  16 S :    0.396653
  17 C :   -0.175181
  18 C :   -0.070549
  19 C :   -0.050262
  20 C :   -0.207782
  21 H :    0.029541
  22 C :   -0.029348
  23 H :    0.035990
  24 H :    0.032738
  25 C :   -0.042857
  26 H :    0.022297
  27 H :    0.022425
  28 C :   -0.058714
  29 H :    0.023380
  30 H :    0.019179
  31 H :    0.025704
  32 H :    0.037510
  33 H :    0.034064

  Mayer bond orders larger than 0.100000
B(  0-S ,  1-C ) :   1.1384 B(  0-S ,  4-C ) :   1.1216 B(  1-C ,  2-C ) :   1.6423
B(  1-C , 32-H ) :   0.9580 B(  2-C ,  3-C ) :   1.2279 B(  2-C ,  6-C ) :   0.9920
B(  3-C ,  4-C ) :   1.6174 B(  3-C ,  5-H ) :   0.9849 B(  4-C , 20-C ) :   0.9989
B(  6-C ,  7-H ) :   0.9438 B(  6-C ,  8-H ) :   0.9248 B(  6-C ,  9-C ) :   1.0752
B(  9-C , 10-H ) :   0.9532 B(  9-C , 11-H ) :   0.9425 B(  9-C , 12-C ) :   1.0805
B( 12-C , 13-H ) :   0.9724 B( 12-C , 14-H ) :   0.9739 B( 12-C , 15-H ) :   0.9730
B( 16-S , 17-C ) :   1.1356 B( 16-S , 20-C ) :   1.1661 B( 17-C , 18-C ) :   1.6385
B( 17-C , 33-H ) :   0.9673 B( 18-C , 19-C ) :   1.1937 B( 18-C , 21-H ) :   0.9907
B( 19-C , 20-C ) :   1.5921 B( 19-C , 22-C ) :   1.0535 B( 22-C , 23-H ) :   0.9362
B( 22-C , 24-H ) :   0.9255 B( 22-C , 25-C ) :   1.0719 B( 25-C , 26-H ) :   0.9567
B( 25-C , 27-H ) :   0.9577 B( 25-C , 28-C ) :   1.0662 B( 28-C , 29-H ) :   0.9750
B( 28-C , 30-H ) :   0.9710 B( 28-C , 31-H ) :   0.9734

Dispersion correction           -0.014856068
FINAL SINGLE POINT ENERGY     -1339.876516056531

DIPOLE MOMENT
-------------
                                X             Y             Z
Electronic contribution:    -18.14676     -18.15497      -1.02702
Nuclear contribution   :     18.48160      18.56980       1.17116
                        -----------------------------------------
Total Dipole Moment    :      0.33484       0.41483       0.14414
                        -----------------------------------------
Magnitude (a.u.)       :      0.55225
Magnitude (Debye)      :      1.40371

Rotational constants in cm-1:     0.018699     0.008327     0.007493
Rotational constants in MHz :   560.576375   249.635166   224.648288

                             ****ORCA TERMINATED NORMALLY****
TOTAL RUN TIME: 0 days 0 hours 0 minutes 34 seconds 147 msec
