                         Program Version 4.2.1 -  RELEASE  -
|  1> ! wB97X-D3 SP def2-SVP
|  2> %pal
|  3> nprocs 16
|  4> end
|  5>
|  6> * xyz 0 1
|  7> S 	 -68.423 	 61.2671 	 128.003
|  8> C 	 -68.418 	 61.4442 	 129.789
|  9> C 	 -67.9599 	 60.2798 	 130.384
| 10> C 	 -67.6986 	 59.2751 	 129.414
| 11> C 	 -68.1209 	 59.5496 	 128.168
| 12> H 	 -67.205 	 58.2679 	 129.526
| 13> C 	 -67.8705 	 60.1236 	 131.914
| 14> H 	 -68.0473 	 59.0332 	 131.964
| 15> H 	 -68.7891 	 60.6582 	 132.299
| 16> C 	 -66.5829 	 60.5049 	 132.602
| 17> H 	 -66.52 	 60.3148 	 133.696
| 18> H 	 -65.77 	 59.9211 	 132.207
| 19> C 	 -66.339 	 61.9636 	 132.339
| 20> H 	 -66.277 	 62.224 	 131.299
| 21> H 	 -67.2141 	 62.5263 	 132.88
| 22> H 	 -65.4323 	 62.3194 	 132.749
| 23> S 	 -66.3272 	 58.8998 	 126.176
| 24> C 	 -66.7097 	 57.5338 	 125.145
| 25> C 	 -67.8142 	 56.8355 	 125.571
| 26> C 	 -68.5013 	 57.5266 	 126.652
| 27> C 	 -67.8578 	 58.7298 	 127.025
| 28> H 	 -68.1261 	 55.902 	 125.079
| 29> C 	 -69.7709 	 56.9521 	 127.348
| 30> H 	 -70.388 	 56.524 	 126.604
| 31> H 	 -70.3443 	 57.7247 	 127.785
| 32> C 	 -69.4061 	 55.885 	 128.426
| 33> H 	 -69.2315 	 56.3386 	 129.4
| 34> H 	 -68.4459 	 55.3686 	 128.117
| 35> C 	 -70.601 	 54.888 	 128.703
| 36> H 	 -70.4325 	 54.0858 	 129.431
| 37> H 	 -70.9983 	 54.4897 	 127.724
| 38> H 	 -71.427 	 55.3082 	 129.217
| 39> H 	 -68.6371 	 62.3028 	 130.46
| 40> H 	 -66.0727 	 57.2294 	 124.383
| 41> *
| 42>
| 43>                          ****END OF INPUT****

CARTESIAN COORDINATES (ANGSTROEM)
---------------------------------
  S    -68.423000   61.267100  128.003000
  C    -68.418000   61.444200  129.789000
  C    -67.959900   60.279800  130.384000
  C    -67.698600   59.275100  129.414000
  C    -68.120900   59.549600  128.168000
  H    -67.205000   58.267900  129.526000
  C    -67.870500   60.123600  131.914000
  H    -68.047300   59.033200  131.964000
  H    -68.789100   60.658200  132.299000
  C    -66.582900   60.504900  132.602000
  H    -66.520000   60.314800  133.696000
  H    -65.770000   59.921100  132.207000
  C    -66.339000   61.963600  132.339000
  H    -66.277000   62.224000  131.299000
  H    -67.214100   62.526300  132.880000
  H    -65.432300   62.319400  132.749000
  S    -66.327200   58.899800  126.176000
  C    -66.709700   57.533800  125.145000
  C    -67.814200   56.835500  125.571000
  C    -68.501300   57.526600  126.652000
  C    -67.857800   58.729800  127.025000
  H    -68.126100   55.902000  125.079000
  C    -69.770900   56.952100  127.348000
  H    -70.388000   56.524000  126.604000
  H    -70.344300   57.724700  127.785000
  C    -69.406100   55.885000  128.426000
  H    -69.231500   56.338600  129.400000
  H    -68.445900   55.368600  128.117000
  C    -70.601000   54.888000  128.703000
  H    -70.432500   54.085800  129.431000
  H    -70.998300   54.489700  127.724000
  H    -71.427000   55.308200  129.217000
  H    -68.637100   62.302800  130.460000
  H    -66.072700   57.229400  124.383000

 Total Charge           Charge          ....    0
 Multiplicity           Mult            ....    1
 Number of Electrons    NEL             ....  134
 Basis Dimension        Dim             ....  322

ORBITAL ENERGIES
----------------

  NO   OCC          E(Eh)            E(eV)
   0   2.0000     -88.965430     -2420.8724
   1   2.0000     -88.965111     -2420.8637
   2   2.0000     -10.324128      -280.9338
   3   2.0000     -10.320614      -280.8382
   4   2.0000     -10.319289      -280.8021
   5   2.0000     -10.314858      -280.6815
   6   2.0000     -10.310929      -280.5746
   7   2.0000     -10.301794      -280.3261
   8   2.0000     -10.299388      -280.2606
   9   2.0000     -10.299045      -280.2513
  10   2.0000     -10.295309      -280.1496
  11   2.0000     -10.295267      -280.1485
  12   2.0000     -10.288814      -279.9729
  13   2.0000     -10.287077      -279.9256
  14   2.0000     -10.281524      -279.7745
  15   2.0000     -10.276039      -279.6252
  16   2.0000      -8.079808      -219.8628
  17   2.0000      -8.079445      -219.8529
  18   2.0000      -6.038248      -164.3091
  19   2.0000      -6.038114      -164.3054
  20   2.0000      -6.034459      -164.2060
  21   2.0000      -6.034251      -164.2003
  22   2.0000      -6.030507      -164.0984
  23   2.0000      -6.029851      -164.0806
  24   2.0000      -1.007350       -27.4114
  25   2.0000      -0.980645       -26.6847
  26   2.0000      -0.918329       -24.9890
  27   2.0000      -0.899587       -24.4790
  28   2.0000      -0.872269       -23.7357
  29   2.0000      -0.845588       -23.0096
  30   2.0000      -0.841704       -22.9039
  31   2.0000      -0.813654       -22.1407
  32   2.0000      -0.782801       -21.3011
  33   2.0000      -0.772191       -21.0124
  34   2.0000      -0.710181       -19.3250
  35   2.0000      -0.699718       -19.0403
  36   2.0000      -0.694093       -18.8872
  37   2.0000      -0.659090       -17.9348
  38   2.0000      -0.637434       -17.3454
  39   2.0000      -0.613217       -16.6865
  40   2.0000      -0.596075       -16.2200
  41   2.0000      -0.568346       -15.4655
  42   2.0000      -0.560360       -15.2482
  43   2.0000      -0.557184       -15.1617
  44   2.0000      -0.547494       -14.8981
  45   2.0000      -0.517750       -14.0887
  46   2.0000      -0.514868       -14.0103
  47   2.0000      -0.511760       -13.9257
  48   2.0000      -0.504320       -13.7232
  49   2.0000      -0.496790       -13.5184
  50   2.0000      -0.483103       -13.1459
  51   2.0000      -0.475483       -12.9386
  52   2.0000      -0.466288       -12.6884
  53   2.0000      -0.460449       -12.5294
  54   2.0000      -0.457256       -12.4426
  55   2.0000      -0.452557       -12.3147
  56   2.0000      -0.445437       -12.1210
  57   2.0000      -0.436073       -11.8662
  58   2.0000      -0.433578       -11.7983
  59   2.0000      -0.425169       -11.5694
  60   2.0000      -0.422123       -11.4865
  61   2.0000      -0.414178       -11.2704
  62   2.0000      -0.413935       -11.2637
  63   2.0000      -0.339852        -9.2478
  64   2.0000      -0.326474        -8.8838
  65   2.0000      -0.323148        -8.7933
  66   2.0000      -0.307676        -8.3723
  67   0.0000       0.036866         1.0032
  68   0.0000       0.052993         1.4420
  69   0.0000       0.112917         3.0726
  70   0.0000       0.115531         3.1438
  71   0.0000       0.120063         3.2671

MULLIKEN ATOMIC CHARGES
-----------------------
   0 S :    0.101794
   1 C :   -0.109967
   2 C :   -0.117304
   3 C :    0.016001
   4 C :   -0.175251
   5 H :    0.040062
   6 C :    0.037923
   7 H :    0.027088
   8 H :    0.042761
   9 C :   -0.015236
  10 H :    0.039635
  11 H :    0.019451
  12 C :   -0.075786
  13 H :    0.045300
  14 H :    0.031350
  15 H :    0.019820
  16 S :    0.109101
  17 C :   -0.070061
  18 C :   -0.028713
  19 C :   -0.075492
  20 C :   -0.159938
  21 H :    0.031925
  22 C :    0.125998
  23 H :    0.011612
  24 H :    0.024631
  25 C :   -0.090165
  26 H :    0.032861
  27 H :    0.047218
  28 C :   -0.065811
  29 H :    0.031827
  30 H :    0.035356
  31 H :    0.019133
  32 H :    0.056429
  33 H :    0.036447
Sum of atomic charges:    0.0000000

LOEWDIN ATOMIC CHARGES
----------------------
   0 S :    0.386036
   1 C :   -0.185685
   2 C :   -0.069998
   3 C :   -0.061900
   4 C :   -0.205012
   5 H :    0.043444
   6 C :   -0.033734
   7 H :    0.032429
   8 H :    0.037963
   9 C :   -0.045172
  10 H :    0.031913
  11 H :    0.023007
  12 C :   -0.066558
  13 H :    0.023410
  14 H :    0.032498
  15 H :    0.016711
  16 S :    0.400256
  17 C :   -0.168414
  18 C :   -0.073588
  19 C :   -0.043262
  20 C :   -0.209543
  21 H :    0.037633
  22 C :   -0.020314
  23 H :    0.023133
  24 H :    0.028252
  25 C :   -0.038735
  26 H :    0.023242
  27 H :    0.029955
  28 C :   -0.077058
  29 H :    0.028622
  30 H :    0.026926
  31 H :    0.020180
  32 H :    0.038203
  33 H :    0.015162

  Mayer bond orders larger than 0.100000
B(  0-S ,  1-C ) :   1.1293 B(  0-S ,  4-C ) :   1.1202 B(  1-C ,  2-C ) :   1.6306
B(  1-C , 32-H ) :   0.9585 B(  2-C ,  3-C ) :   1.2231 B(  2-C ,  6-C ) :   0.9879
B(  3-C ,  4-C ) :   1.6271 B(  3-C ,  5-H ) :   0.9792 B(  4-C , 20-C ) :   1.0288
B(  6-C ,  7-H ) :   0.9410 B(  6-C ,  8-H ) :   0.9497 B(  6-C ,  9-C ) :   1.0704
B(  9-C , 10-H ) :   0.9548 B(  9-C , 11-H ) :   0.9469 B(  9-C , 12-C ) :   1.0815
B( 12-C , 13-H ) :   0.9710 B( 12-C , 14-H ) :   0.9734 B( 12-C , 15-H ) :   0.9703
B( 16-S , 17-C ) :   1.1561 B( 16-S , 20-C ) :   1.1402 B( 17-C , 18-C ) :   1.6160
B( 17-C , 33-H ) :   0.9757 B( 18-C , 19-C ) :   1.2326 B( 18-C , 21-H ) :   0.9880
B( 19-C , 20-C ) :   1.6067 B( 19-C , 22-C ) :   1.0470 B( 22-C , 23-H ) :   0.9436
B( 22-C , 24-H ) :   0.9291 B( 22-C , 25-C ) :   1.0442 B( 25-C , 26-H ) :   0.9535
B( 25-C , 27-H ) :   0.9664 B( 25-C , 28-C ) :   1.0660 B( 28-C , 29-H ) :   0.9743
B( 28-C , 30-H ) :   0.9789 B( 28-C , 31-H ) :   0.9739

Dispersion correction           -0.014615299
FINAL SINGLE POINT ENERGY     -1339.859917739069

DIPOLE MOMENT
-------------
                                X             Y             Z
Electronic contribution:      6.10005      10.58675     -21.03587
Nuclear contribution   :     -6.06042     -11.06864      21.53638
                        -----------------------------------------
Total Dipole Moment    :      0.03963      -0.48189       0.50051
                        -----------------------------------------
Magnitude (a.u.)       :      0.69591
Magnitude (Debye)      :      1.76887

Rotational constants in cm-1:     0.018485     0.008537     0.006858
Rotational constants in MHz :   554.178489   255.942411   205.583135

                             ****ORCA TERMINATED NORMALLY****
TOTAL RUN TIME: 0 days 0 hours 0 minutes 36 seconds 20 msec
