                         Program Version 4.2.1 -  RELEASE  -
|  1> ! wB97X-D3 SP def2-SVP
|  2> %pal
|  3> nprocs 16
|  4> end
|  5>
|  6> * xyz 0 1
|  7> S 	 -31.7202 	 53.1993 	 112.995
|  8> C 	 -32.6059 	 53.9525 	 111.729
|  9> C 	 -32.6712 	 53.2156 	 110.601
| 10> C 	 -32.0679 	 51.9273 	 110.8
| 11> C 	 -31.4593 	 51.7762 	 112.043
| 12> H 	 -31.9813 	 51.0893 	 110.123
| 13> C 	 -33.1996 	 53.6045 	 109.268
| 14> H 	 -32.345 	 53.7479 	 108.559
| 15> H 	 -33.5899 	 54.5999 	 109.418
| 16> C 	 -34.3024 	 52.691 	 108.769
| 17> H 	 -34.0803 	 51.5937 	 108.817
| 18> H 	 -35.1803 	 52.7741 	 109.397
| 19> C 	 -34.5707 	 53.0659 	 107.307
| 20> H 	 -33.735 	 52.9634 	 106.606
| 21> H 	 -35.4703 	 52.5813 	 106.89
| 22> H 	 -34.5846 	 54.134 	 107.166
| 23> S 	 -31.783 	 49.5645 	 113.641
| 24> C 	 -30.5964 	 48.2644 	 113.551
| 25> C 	 -29.5731 	 48.5813 	 112.665
| 26> C 	 -29.6571 	 49.8753 	 112.114
| 27> C 	 -30.7928 	 50.5435 	 112.491
| 28> H 	 -28.9082 	 47.8013 	 112.461
| 29> C 	 -28.5349 	 50.3876 	 111.267
| 30> H 	 -27.5792 	 50.0326 	 111.599
| 31> H 	 -28.5164 	 51.4817 	 111.509
| 32> C 	 -28.835 	 50.1605 	 109.786
| 33> H 	 -29.5073 	 50.9255 	 109.382
| 34> H 	 -29.4239 	 49.1365 	 109.703
| 35> C 	 -27.4901 	 49.8861 	 109.063
| 36> H 	 -26.9222 	 50.8207 	 109.03
| 37> H 	 -27.5665 	 49.5555 	 108.036
| 38> H 	 -26.8967 	 49.1758 	 109.551
| 39> H 	 -32.9794 	 54.9563 	 111.772
| 40> H 	 -30.6321 	 47.2363 	 113.875
| 41> *
| 42>
| 43>                          ****END OF INPUT****

CARTESIAN COORDINATES (ANGSTROEM)
---------------------------------
  S    -31.720200   53.199300  112.995000
  C    -32.605900   53.952500  111.729000
  C    -32.671200   53.215600  110.601000
  C    -32.067900   51.927300  110.800000
  C    -31.459300   51.776200  112.043000
  H    -31.981300   51.089300  110.123000
  C    -33.199600   53.604500  109.268000
  H    -32.345000   53.747900  108.559000
  H    -33.589900   54.599900  109.418000
  C    -34.302400   52.691000  108.769000
  H    -34.080300   51.593700  108.817000
  H    -35.180300   52.774100  109.397000
  C    -34.570700   53.065900  107.307000
  H    -33.735000   52.963400  106.606000
  H    -35.470300   52.581300  106.890000
  H    -34.584600   54.134000  107.166000
  S    -31.783000   49.564500  113.641000
  C    -30.596400   48.264400  113.551000
  C    -29.573100   48.581300  112.665000
  C    -29.657100   49.875300  112.114000
  C    -30.792800   50.543500  112.491000
  H    -28.908200   47.801300  112.461000
  C    -28.534900   50.387600  111.267000
  H    -27.579200   50.032600  111.599000
  H    -28.516400   51.481700  111.509000
  C    -28.835000   50.160500  109.786000
  H    -29.507300   50.925500  109.382000
  H    -29.423900   49.136500  109.703000
  C    -27.490100   49.886100  109.063000
  H    -26.922200   50.820700  109.030000
  H    -27.566500   49.555500  108.036000
  H    -26.896700   49.175800  109.551000
  H    -32.979400   54.956300  111.772000
  H    -30.632100   47.236300  113.875000

 Total Charge           Charge          ....    0
 Multiplicity           Mult            ....    1
 Number of Electrons    NEL             ....  134
 Basis Dimension        Dim             ....  322

ORBITAL ENERGIES
----------------

  NO   OCC          E(Eh)            E(eV)
   0   2.0000     -88.965633     -2420.8780
   1   2.0000     -88.963470     -2420.8191
   2   2.0000     -10.327126      -281.0154
   3   2.0000     -10.326901      -281.0093
   4   2.0000     -10.315071      -280.6873
   5   2.0000     -10.307669      -280.4859
   6   2.0000     -10.299961      -280.2762
   7   2.0000     -10.297101      -280.1984
   8   2.0000     -10.294656      -280.1318
   9   2.0000     -10.293215      -280.0926
  10   2.0000     -10.291676      -280.0508
  11   2.0000     -10.290723      -280.0248
  12   2.0000     -10.288831      -279.9733
  13   2.0000     -10.284745      -279.8621
  14   2.0000     -10.278041      -279.6797
  15   2.0000     -10.274715      -279.5892
  16   2.0000      -8.081175      -219.9000
  17   2.0000      -8.077125      -219.7898
  18   2.0000      -6.039624      -164.3465
  19   2.0000      -6.035748      -164.2410
  20   2.0000      -6.035528      -164.2351
  21   2.0000      -6.031998      -164.1390
  22   2.0000      -6.031774      -164.1329
  23   2.0000      -6.027826      -164.0255
  24   2.0000      -1.007713       -27.4213
  25   2.0000      -0.984749       -26.7964
  26   2.0000      -0.918782       -25.0013
  27   2.0000      -0.909626       -24.7522
  28   2.0000      -0.870174       -23.6786
  29   2.0000      -0.849798       -23.1242
  30   2.0000      -0.847428       -23.0597
  31   2.0000      -0.814234       -22.1564
  32   2.0000      -0.781196       -21.2574
  33   2.0000      -0.772059       -21.0088
  34   2.0000      -0.713955       -19.4277
  35   2.0000      -0.704247       -19.1635
  36   2.0000      -0.692893       -18.8546
  37   2.0000      -0.662205       -18.0195
  38   2.0000      -0.647060       -17.6074
  39   2.0000      -0.618889       -16.8408
  40   2.0000      -0.592003       -16.1092
  41   2.0000      -0.574788       -15.6408
  42   2.0000      -0.562044       -15.2940
  43   2.0000      -0.555467       -15.1150
  44   2.0000      -0.535691       -14.5769
  45   2.0000      -0.519599       -14.1390
  46   2.0000      -0.517559       -14.0835
  47   2.0000      -0.510995       -13.9049
  48   2.0000      -0.506863       -13.7925
  49   2.0000      -0.500346       -13.6151
  50   2.0000      -0.497096       -13.5267
  51   2.0000      -0.476876       -12.9765
  52   2.0000      -0.473198       -12.8764
  53   2.0000      -0.465746       -12.6736
  54   2.0000      -0.455948       -12.4070
  55   2.0000      -0.449845       -12.2409
  56   2.0000      -0.447034       -12.1644
  57   2.0000      -0.444611       -12.0985
  58   2.0000      -0.435657       -11.8548
  59   2.0000      -0.424351       -11.5472
  60   2.0000      -0.421380       -11.4663
  61   2.0000      -0.411795       -11.2055
  62   2.0000      -0.403246       -10.9729
  63   2.0000      -0.336186        -9.1481
  64   2.0000      -0.328830        -8.9479
  65   2.0000      -0.325893        -8.8680
  66   2.0000      -0.304355        -8.2819
  67   0.0000       0.042200         1.1483
  68   0.0000       0.059393         1.6162
  69   0.0000       0.118482         3.2241
  70   0.0000       0.119345         3.2475
  71   0.0000       0.135504         3.6872

MULLIKEN ATOMIC CHARGES
-----------------------
   0 S :    0.125970
   1 C :   -0.114376
   2 C :   -0.083977
   3 C :    0.039809
   4 C :   -0.188894
   5 H :    0.013718
   6 C :    0.076347
   7 H :    0.047135
   8 H :    0.006262
   9 C :   -0.075554
  10 H :    0.043677
  11 H :    0.033111
  12 C :   -0.032524
  13 H :    0.018005
  14 H :    0.043897
  15 H :    0.007411
  16 S :    0.101183
  17 C :   -0.074441
  18 C :   -0.055772
  19 C :   -0.006668
  20 C :   -0.185726
  21 H :   -0.002747
  22 C :    0.092516
  23 H :    0.019561
  24 H :    0.036520
  25 C :   -0.110723
  26 H :    0.048397
  27 H :    0.043989
  28 C :   -0.029164
  29 H :    0.027796
  30 H :    0.029428
  31 H :    0.021025
  32 H :    0.034059
  33 H :    0.050750
Sum of atomic charges:    0.0000000

LOEWDIN ATOMIC CHARGES
----------------------
   0 S :    0.424181
   1 C :   -0.202093
   2 C :   -0.070605
   3 C :   -0.055015
   4 C :   -0.213160
   5 H :    0.028615
   6 C :   -0.031666
   7 H :    0.039074
   8 H :    0.028272
   9 C :   -0.038732
  10 H :    0.029283
  11 H :    0.028256
  12 C :   -0.075063
  13 H :    0.027316
  14 H :    0.028396
  15 H :    0.022100
  16 S :    0.380408
  17 C :   -0.180581
  18 C :   -0.069794
  19 C :   -0.052371
  20 C :   -0.183360
  21 H :    0.022081
  22 C :   -0.029137
  23 H :    0.026527
  24 H :    0.040274
  25 C :   -0.041020
  26 H :    0.026342
  27 H :    0.031705
  28 C :   -0.063393
  29 H :    0.026243
  30 H :    0.023364
  31 H :    0.016725
  32 H :    0.025413
  33 H :    0.031415

  Mayer bond orders larger than 0.100000
B(  0-S ,  1-C ) :   1.1394 B(  0-S ,  4-C ) :   1.1579 B(  1-C ,  2-C ) :   1.6354
B(  1-C , 32-H ) :   0.9626 B(  2-C ,  3-C ) :   1.2153 B(  2-C ,  6-C ) :   1.0234
B(  3-C ,  4-C ) :   1.5933 B(  3-C ,  5-H ) :   0.9907 B(  4-C , 20-C ) :   1.0084
B(  6-C ,  7-H ) :   0.9436 B(  6-C ,  8-H ) :   0.9247 B(  6-C ,  9-C ) :   1.0519
B(  9-C , 10-H ) :   0.9615 B(  9-C , 11-H ) :   0.9517 B(  9-C , 12-C ) :   1.0760
B( 12-C , 13-H ) :   0.9709 B( 12-C , 14-H ) :   0.9740 B( 12-C , 15-H ) :   0.9641
B( 16-S , 17-C ) :   1.1436 B( 16-S , 20-C ) :   1.1263 B( 17-C , 18-C ) :   1.6462
B( 17-C , 33-H ) :   0.9616 B( 18-C , 19-C ) :   1.2105 B( 18-C , 21-H ) :   0.9969
B( 19-C , 20-C ) :   1.6367 B( 19-C , 22-C ) :   1.0356 B( 22-C , 23-H ) :   0.9518
B( 22-C , 24-H ) :   0.9234 B( 22-C , 25-C ) :   1.0288 B( 25-C , 26-H ) :   0.9520
B( 25-C , 27-H ) :   0.9675 B( 25-C , 28-C ) :   1.0654 B( 28-C , 29-H ) :   0.9719
B( 28-C , 30-H ) :   0.9752 B( 28-C , 31-H ) :   0.9791

Dispersion correction           -0.014265325
FINAL SINGLE POINT ENERGY     -1339.870828594189

DIPOLE MOMENT
-------------
                                X             Y             Z
Electronic contribution:     -3.34251      -0.94531      28.32708
Nuclear contribution   :      3.53176       0.90848     -29.05042
                        -----------------------------------------
Total Dipole Moment    :      0.18925      -0.03684      -0.72334
                        -----------------------------------------
Magnitude (a.u.)       :      0.74859
Magnitude (Debye)      :      1.90277

Rotational constants in cm-1:     0.016594     0.008728     0.007047
Rotational constants in MHz :   497.481049   261.662657   211.266936

                             ****ORCA TERMINATED NORMALLY****
TOTAL RUN TIME: 0 days 0 hours 0 minutes 29 seconds 728 msec
