                         Program Version 4.2.1 -  RELEASE  -
|  1> ! wB97X-D3 SP def2-SVP
|  2> %pal
|  3> nprocs 16
|  4> end
|  5>
|  6> * xyz 0 1
|  7> S 	 53.9374 	 2.09619 	 81.8651
|  8> C 	 52.2763 	 1.73193 	 82.2438
|  9> C 	 51.7114 	 0.946848 	 81.2476
| 10> C 	 52.6993 	 0.58803 	 80.227
| 11> C 	 53.9209 	 1.15665 	 80.3547
| 12> H 	 52.5196 	 0.142931 	 79.2294
| 13> C 	 50.3164 	 0.413462 	 81.1929
| 14> H 	 50.2185 	 0.127168 	 80.1379
| 15> H 	 49.7811 	 1.30576 	 81.4794
| 16> C 	 50.0568 	 -0.882318 	 82.0028
| 17> H 	 50.8125 	 -1.53624 	 81.639
| 18> H 	 50.3524 	 -0.638904 	 83.0262
| 19> C 	 48.5779 	 -1.34499 	 81.9884
| 20> H 	 48.3886 	 -1.90584 	 80.99
| 21> H 	 48.3257 	 -2.11291 	 82.7358
| 22> H 	 47.9174 	 -0.504509 	 82.2324
| 23> S 	 56.6228 	 0.782987 	 80.209
| 24> C 	 57.3541 	 0.988148 	 78.5933
| 25> C 	 56.4351 	 1.30151 	 77.5906
| 26> C 	 55.089 	 1.41014 	 78.103
| 27> C 	 55.0473 	 1.13482 	 79.4751
| 28> H 	 56.7084 	 1.2222 	 76.5534
| 29> C 	 53.8967 	 1.5328 	 77.2204
| 30> H 	 54.0157 	 2.17644 	 76.382
| 31> H 	 53.0713 	 1.93968 	 77.8239
| 32> C 	 53.393 	 0.154571 	 76.6291
| 33> H 	 53.1604 	 -0.503472 	 77.474
| 34> H 	 54.1184 	 -0.32668 	 75.9369
| 35> C 	 52.1392 	 0.238726 	 75.7927
| 36> H 	 52.3844 	 0.589411 	 74.7883
| 37> H 	 51.4393 	 0.746758 	 76.339
| 38> H 	 51.705 	 -0.718354 	 75.7417
| 39> H 	 51.8124 	 1.98788 	 83.1827
| 40> H 	 58.3446 	 0.784572 	 78.4286
| 41> *
| 42>
| 43>                          ****END OF INPUT****

CARTESIAN COORDINATES (ANGSTROEM)
---------------------------------
  S     53.937400    2.096190   81.865100
  C     52.276300    1.731930   82.243800
  C     51.711400    0.946848   81.247600
  C     52.699300    0.588030   80.227000
  C     53.920900    1.156650   80.354700
  H     52.519600    0.142931   79.229400
  C     50.316400    0.413462   81.192900
  H     50.218500    0.127168   80.137900
  H     49.781100    1.305760   81.479400
  C     50.056800   -0.882318   82.002800
  H     50.812500   -1.536240   81.639000
  H     50.352400   -0.638904   83.026200
  C     48.577900   -1.344990   81.988400
  H     48.388600   -1.905840   80.990000
  H     48.325700   -2.112910   82.735800
  H     47.917400   -0.504509   82.232400
  S     56.622800    0.782987   80.209000
  C     57.354100    0.988148   78.593300
  C     56.435100    1.301510   77.590600
  C     55.089000    1.410140   78.103000
  C     55.047300    1.134820   79.475100
  H     56.708400    1.222200   76.553400
  C     53.896700    1.532800   77.220400
  H     54.015700    2.176440   76.382000
  H     53.071300    1.939680   77.823900
  C     53.393000    0.154571   76.629100
  H     53.160400   -0.503472   77.474000
  H     54.118400   -0.326680   75.936900
  C     52.139200    0.238726   75.792700
  H     52.384400    0.589411   74.788300
  H     51.439300    0.746758   76.339000
  H     51.705000   -0.718354   75.741700
  H     51.812400    1.987880   83.182700
  H     58.344600    0.784572   78.428600

 Total Charge           Charge          ....    0
 Multiplicity           Mult            ....    1
 Number of Electrons    NEL             ....  134
 Basis Dimension        Dim             ....  322

ORBITAL ENERGIES
----------------

  NO   OCC          E(Eh)            E(eV)
   0   2.0000     -88.970277     -2421.0043
   1   2.0000     -88.959924     -2420.7226
   2   2.0000     -10.328083      -281.0414
   3   2.0000     -10.324714      -280.9498
   4   2.0000     -10.318169      -280.7717
   5   2.0000     -10.313973      -280.6575
   6   2.0000     -10.308293      -280.5029
   7   2.0000     -10.302429      -280.3434
   8   2.0000     -10.298935      -280.2483
   9   2.0000     -10.293162      -280.0912
  10   2.0000     -10.293057      -280.0883
  11   2.0000     -10.291233      -280.0387
  12   2.0000     -10.291185      -280.0374
  13   2.0000     -10.288721      -279.9703
  14   2.0000     -10.287444      -279.9356
  15   2.0000     -10.268261      -279.4136
  16   2.0000      -8.084060      -219.9784
  17   2.0000      -8.074678      -219.7231
  18   2.0000      -6.042558      -164.4264
  19   2.0000      -6.038867      -164.3259
  20   2.0000      -6.034729      -164.2133
  21   2.0000      -6.033309      -164.1747
  22   2.0000      -6.029104      -164.0603
  23   2.0000      -6.025366      -163.9586
  24   2.0000      -1.004012       -27.3205
  25   2.0000      -0.978253       -26.6196
  26   2.0000      -0.912787       -24.8382
  27   2.0000      -0.910940       -24.7879
  28   2.0000      -0.871350       -23.7106
  29   2.0000      -0.860245       -23.4084
  30   2.0000      -0.842748       -22.9323
  31   2.0000      -0.817648       -22.2493
  32   2.0000      -0.784959       -21.3598
  33   2.0000      -0.768392       -20.9090
  34   2.0000      -0.706309       -19.2196
  35   2.0000      -0.703883       -19.1536
  36   2.0000      -0.695802       -18.9337
  37   2.0000      -0.668347       -18.1866
  38   2.0000      -0.643670       -17.5151
  39   2.0000      -0.615367       -16.7450
  40   2.0000      -0.599004       -16.2997
  41   2.0000      -0.582707       -15.8563
  42   2.0000      -0.567346       -15.4383
  43   2.0000      -0.556901       -15.1540
  44   2.0000      -0.530713       -14.4414
  45   2.0000      -0.526495       -14.3267
  46   2.0000      -0.516317       -14.0497
  47   2.0000      -0.514117       -13.9898
  48   2.0000      -0.509150       -13.8547
  49   2.0000      -0.500274       -13.6131
  50   2.0000      -0.499139       -13.5823
  51   2.0000      -0.478327       -13.0159
  52   2.0000      -0.470183       -12.7943
  53   2.0000      -0.467898       -12.7322
  54   2.0000      -0.455616       -12.3979
  55   2.0000      -0.453558       -12.3419
  56   2.0000      -0.440781       -11.9943
  57   2.0000      -0.440098       -11.9757
  58   2.0000      -0.431818       -11.7504
  59   2.0000      -0.427711       -11.6386
  60   2.0000      -0.423328       -11.5194
  61   2.0000      -0.417441       -11.3591
  62   2.0000      -0.409202       -11.1350
  63   2.0000      -0.347537        -9.4570
  64   2.0000      -0.333270        -9.0687
  65   2.0000      -0.324487        -8.8297
  66   2.0000      -0.292225        -7.9518
  67   0.0000       0.027656         0.7526
  68   0.0000       0.067249         1.8299
  69   0.0000       0.101784         2.7697
  70   0.0000       0.113617         3.0917
  71   0.0000       0.125867         3.4250

MULLIKEN ATOMIC CHARGES
-----------------------
   0 S :    0.094883
   1 C :   -0.118208
   2 C :   -0.122069
   3 C :    0.018101
   4 C :   -0.136940
   5 H :   -0.001307
   6 C :    0.067929
   7 H :    0.016661
   8 H :    0.032423
   9 C :   -0.047209
  10 H :    0.023359
  11 H :    0.017509
  12 C :   -0.059422
  13 H :    0.047383
  14 H :    0.038374
  15 H :    0.042724
  16 S :    0.110793
  17 C :   -0.062443
  18 C :   -0.018599
  19 C :    0.000896
  20 C :   -0.176223
  21 H :    0.023541
  22 C :    0.062480
  23 H :    0.014359
  24 H :    0.035360
  25 C :   -0.131727
  26 H :    0.032578
  27 H :    0.031085
  28 C :    0.030628
  29 H :    0.040417
  30 H :   -0.000193
  31 H :    0.016628
  32 H :    0.048642
  33 H :    0.027585
Sum of atomic charges:    0.0000000

LOEWDIN ATOMIC CHARGES
----------------------
   0 S :    0.387048
   1 C :   -0.198332
   2 C :   -0.063251
   3 C :   -0.078309
   4 C :   -0.184937
   5 H :    0.031460
   6 C :   -0.034702
   7 H :    0.030245
   8 H :    0.031079
   9 C :   -0.038016
  10 H :    0.022779
  11 H :    0.020774
  12 C :   -0.074879
  13 H :    0.037299
  14 H :    0.027959
  15 H :    0.029959
  16 S :    0.388750
  17 C :   -0.153001
  18 C :   -0.059910
  19 C :   -0.044559
  20 C :   -0.192949
  21 H :    0.032453
  22 C :   -0.033474
  23 H :    0.025778
  24 H :    0.034822
  25 C :   -0.036853
  26 H :    0.018297
  27 H :    0.026198
  28 C :   -0.054552
  29 H :    0.028644
  30 H :    0.012084
  31 H :    0.025711
  32 H :    0.028216
  33 H :    0.008171

  Mayer bond orders larger than 0.100000
B(  0-S ,  1-C ) :   1.1338 B(  0-S ,  4-C ) :   1.1276 B(  1-C ,  2-C ) :   1.6147
B(  1-C , 32-H ) :   0.9723 B(  2-C ,  3-C ) :   1.2138 B(  2-C ,  6-C ) :   1.0192
B(  3-C ,  4-C ) :   1.6199 B(  3-C ,  5-H ) :   0.9776 B(  4-C , 20-C ) :   1.0540
B(  6-C ,  7-H ) :   0.9371 B(  6-C ,  8-H ) :   0.9358 B(  6-C ,  9-C ) :   1.0604
B(  9-C , 10-H ) :   0.9564 B(  9-C , 11-H ) :   0.9575 B(  9-C , 12-C ) :   1.0708
B( 12-C , 13-H ) :   0.9750 B( 12-C , 14-H ) :   0.9754 B( 12-C , 15-H ) :   0.9733
B( 16-S , 17-C ) :   1.1418 B( 16-S , 20-C ) :   1.1319 B( 17-C , 18-C ) :   1.6287
B( 17-C , 20-C ) :   0.1013 B( 17-C , 33-H ) :   0.9775 B( 18-C , 19-C ) :   1.2146
B( 18-C , 21-H ) :   0.9870 B( 19-C , 20-C ) :   1.5897 B( 19-C , 22-C ) :   1.0786
B( 22-C , 23-H ) :   0.9297 B( 22-C , 24-H ) :   0.9220 B( 22-C , 25-C ) :   1.0539
B( 25-C , 26-H ) :   0.9515 B( 25-C , 27-H ) :   0.9556 B( 25-C , 28-C ) :   1.0907
B( 28-C , 29-H ) :   0.9755 B( 28-C , 30-H ) :   0.9663 B( 28-C , 31-H ) :   0.9669

Dispersion correction           -0.014267155
FINAL SINGLE POINT ENERGY     -1339.865727003934

DIPOLE MOMENT
-------------
                                X             Y             Z
Electronic contribution:     26.72171      11.10845      11.91861
Nuclear contribution   :    -27.16700     -11.43424     -12.42715
                        -----------------------------------------
Total Dipole Moment    :     -0.44528      -0.32579      -0.50853
                        -----------------------------------------
Magnitude (a.u.)       :      0.75035
Magnitude (Debye)      :      1.90724

Rotational constants in cm-1:     0.018208     0.008709     0.006467
Rotational constants in MHz :   545.854378   261.079089   193.882965

                             ****ORCA TERMINATED NORMALLY****
TOTAL RUN TIME: 0 days 0 hours 0 minutes 28 seconds 891 msec
