                         Program Version 4.2.1 -  RELEASE  -
|  1> ! wB97X-D3 SP def2-SVP
|  2> %pal
|  3> nprocs 16
|  4> end
|  5>
|  6> * xyz 0 1
|  7> S 	 46.5792 	 19.0181 	 104.536
|  8> C 	 47.2951 	 19.1244 	 102.969
|  9> C 	 46.9896 	 18.0578 	 102.123
| 10> C 	 46.1899 	 17.0758 	 102.799
| 11> C 	 45.9881 	 17.3949 	 104.177
| 12> H 	 45.78 	 16.205 	 102.303
| 13> C 	 47.4821 	 17.9702 	 100.653
| 14> H 	 48.0117 	 17.0244 	 100.715
| 15> H 	 48.3015 	 18.6267 	 100.426
| 16> C 	 46.453 	 18.2058 	 99.4957
| 17> H 	 45.5847 	 17.5524 	 99.6727
| 18> H 	 46.0416 	 19.1745 	 99.5876
| 19> C 	 47.068 	 18.1857 	 98.0972
| 20> H 	 46.4487 	 18.7035 	 97.3075
| 21> H 	 47.9927 	 18.7275 	 98.031
| 22> H 	 47.1531 	 17.1183 	 97.6627
| 23> S 	 43.8917 	 17.2493 	 105.869
| 24> C 	 43.4252 	 15.7798 	 106.547
| 25> C 	 44.4238 	 14.7789 	 106.371
| 26> C 	 45.494 	 15.2216 	 105.536
| 27> C 	 45.2958 	 16.5347 	 105.13
| 28> H 	 44.3303 	 13.8303 	 106.849
| 29> C 	 46.5358 	 14.2712 	 104.914
| 30> H 	 47.0966 	 13.769 	 105.724
| 31> H 	 47.2542 	 14.8868 	 104.303
| 32> C 	 45.8733 	 13.2276 	 103.961
| 33> H 	 46.6907 	 12.7723 	 103.492
| 34> H 	 45.3092 	 13.6864 	 103.153
| 35> C 	 45.1135 	 12.0078 	 104.544
| 36> H 	 44.9252 	 11.2302 	 103.755
| 37> H 	 44.1094 	 12.3079 	 104.841
| 38> H 	 45.6297 	 11.49 	 105.323
| 39> H 	 48.0292 	 19.9008 	 102.546
| 40> H 	 42.6818 	 15.6574 	 107.322
| 41> *
| 42>
| 43>                          ****END OF INPUT****

CARTESIAN COORDINATES (ANGSTROEM)
---------------------------------
  S     46.579200   19.018100  104.536000
  C     47.295100   19.124400  102.969000
  C     46.989600   18.057800  102.123000
  C     46.189900   17.075800  102.799000
  C     45.988100   17.394900  104.177000
  H     45.780000   16.205000  102.303000
  C     47.482100   17.970200  100.653000
  H     48.011700   17.024400  100.715000
  H     48.301500   18.626700  100.426000
  C     46.453000   18.205800   99.495700
  H     45.584700   17.552400   99.672700
  H     46.041600   19.174500   99.587600
  C     47.068000   18.185700   98.097200
  H     46.448700   18.703500   97.307500
  H     47.992700   18.727500   98.031000
  H     47.153100   17.118300   97.662700
  S     43.891700   17.249300  105.869000
  C     43.425200   15.779800  106.547000
  C     44.423800   14.778900  106.371000
  C     45.494000   15.221600  105.536000
  C     45.295800   16.534700  105.130000
  H     44.330300   13.830300  106.849000
  C     46.535800   14.271200  104.914000
  H     47.096600   13.769000  105.724000
  H     47.254200   14.886800  104.303000
  C     45.873300   13.227600  103.961000
  H     46.690700   12.772300  103.492000
  H     45.309200   13.686400  103.153000
  C     45.113500   12.007800  104.544000
  H     44.925200   11.230200  103.755000
  H     44.109400   12.307900  104.841000
  H     45.629700   11.490000  105.323000
  H     48.029200   19.900800  102.546000
  H     42.681800   15.657400  107.322000

 Total Charge           Charge          ....    0
 Multiplicity           Mult            ....    1
 Number of Electrons    NEL             ....  134
 Basis Dimension        Dim             ....  322

ORBITAL ENERGIES
----------------

  NO   OCC          E(Eh)            E(eV)
   0   2.0000     -88.972784     -2421.0726
   1   2.0000     -88.964414     -2420.8448
   2   2.0000     -10.334136      -281.2061
   3   2.0000     -10.322694      -280.8948
   4   2.0000     -10.316939      -280.7382
   5   2.0000     -10.313667      -280.6492
   6   2.0000     -10.303463      -280.3715
   7   2.0000     -10.303285      -280.3666
   8   2.0000     -10.300518      -280.2913
   9   2.0000     -10.300404      -280.2882
  10   2.0000     -10.295370      -280.1513
  11   2.0000     -10.293451      -280.0990
  12   2.0000     -10.290093      -280.0077
  13   2.0000     -10.289675      -279.9963
  14   2.0000     -10.284223      -279.8479
  15   2.0000     -10.279856      -279.7291
  16   2.0000      -8.087127      -220.0619
  17   2.0000      -8.080604      -219.8844
  18   2.0000      -6.045610      -164.5094
  19   2.0000      -6.041709      -164.4033
  20   2.0000      -6.038836      -164.3251
  21   2.0000      -6.037925      -164.3003
  22   2.0000      -6.034820      -164.2158
  23   2.0000      -6.031659      -164.1298
  24   2.0000      -1.006767       -27.3955
  25   2.0000      -0.982696       -26.7405
  26   2.0000      -0.905466       -24.6390
  27   2.0000      -0.904112       -24.6021
  28   2.0000      -0.865178       -23.5427
  29   2.0000      -0.852146       -23.1881
  30   2.0000      -0.846303       -23.0291
  31   2.0000      -0.806988       -21.9593
  32   2.0000      -0.784636       -21.3510
  33   2.0000      -0.769055       -20.9270
  34   2.0000      -0.708438       -19.2776
  35   2.0000      -0.701096       -19.0778
  36   2.0000      -0.690541       -18.7906
  37   2.0000      -0.663012       -18.0415
  38   2.0000      -0.631567       -17.1858
  39   2.0000      -0.619273       -16.8513
  40   2.0000      -0.591315       -16.0905
  41   2.0000      -0.561838       -15.2884
  42   2.0000      -0.558014       -15.1843
  43   2.0000      -0.548635       -14.9291
  44   2.0000      -0.536713       -14.6047
  45   2.0000      -0.521369       -14.1872
  46   2.0000      -0.515198       -14.0192
  47   2.0000      -0.508408       -13.8345
  48   2.0000      -0.503661       -13.7053
  49   2.0000      -0.497066       -13.5258
  50   2.0000      -0.491607       -13.3773
  51   2.0000      -0.475333       -12.9345
  52   2.0000      -0.471349       -12.8260
  53   2.0000      -0.465183       -12.6583
  54   2.0000      -0.458852       -12.4860
  55   2.0000      -0.453652       -12.3445
  56   2.0000      -0.445131       -12.1126
  57   2.0000      -0.439024       -11.9464
  58   2.0000      -0.436014       -11.8646
  59   2.0000      -0.428191       -11.6517
  60   2.0000      -0.425192       -11.5701
  61   2.0000      -0.410477       -11.1696
  62   2.0000      -0.408222       -11.1083
  63   2.0000      -0.339918        -9.2496
  64   2.0000      -0.332338        -9.0434
  65   2.0000      -0.330216        -8.9856
  66   2.0000      -0.288691        -7.8557
  67   0.0000       0.032156         0.8750
  68   0.0000       0.063040         1.7154
  69   0.0000       0.115306         3.1376
  70   0.0000       0.120886         3.2895
  71   0.0000       0.130020         3.5380

MULLIKEN ATOMIC CHARGES
-----------------------
   0 S :    0.136078
   1 C :   -0.134027
   2 C :   -0.115012
   3 C :    0.030504
   4 C :   -0.156881
   5 H :    0.014852
   6 C :    0.063528
   7 H :    0.031387
   8 H :   -0.000879
   9 C :   -0.028129
  10 H :    0.031610
  11 H :    0.021243
  12 C :   -0.087832
  13 H :    0.038179
  14 H :    0.032085
  15 H :    0.047498
  16 S :    0.123355
  17 C :   -0.081989
  18 C :   -0.069909
  19 C :   -0.002375
  20 C :   -0.191730
  21 H :    0.015360
  22 C :    0.049216
  23 H :    0.033713
  24 H :    0.044167
  25 C :   -0.053217
  26 H :    0.014706
  27 H :    0.029903
  28 C :   -0.062749
  29 H :    0.034499
  30 H :    0.035748
  31 H :    0.028593
  32 H :    0.070290
  33 H :    0.058219
Sum of atomic charges:    0.0000000

LOEWDIN ATOMIC CHARGES
----------------------
   0 S :    0.417791
   1 C :   -0.225213
   2 C :   -0.068034
   3 C :   -0.057998
   4 C :   -0.197643
   5 H :    0.030076
   6 C :   -0.033416
   7 H :    0.032690
   8 H :    0.023170
   9 C :   -0.039372
  10 H :    0.026511
  11 H :    0.023558
  12 C :   -0.076039
  13 H :    0.032792
  14 H :    0.022365
  15 H :    0.034471
  16 S :    0.442108
  17 C :   -0.211557
  18 C :   -0.069135
  19 C :   -0.055149
  20 C :   -0.209291
  21 H :    0.025626
  22 C :   -0.027715
  23 H :    0.033336
  24 H :    0.038093
  25 C :   -0.037881
  26 H :    0.018679
  27 H :    0.024735
  28 C :   -0.067985
  29 H :    0.033638
  30 H :    0.021882
  31 H :    0.019713
  32 H :    0.047261
  33 H :    0.027934

  Mayer bond orders larger than 0.100000
B(  0-S ,  1-C ) :   1.1431 B(  0-S ,  4-C ) :   1.1598 B(  1-C ,  2-C ) :   1.6161
B(  1-C , 32-H ) :   0.9492 B(  2-C ,  3-C ) :   1.2661 B(  2-C ,  6-C ) :   1.0106
B(  3-C ,  4-C ) :   1.5286 B(  3-C ,  5-H ) :   0.9949 B(  4-C , 20-C ) :   1.0362
B(  6-C ,  7-H ) :   0.9433 B(  6-C ,  8-H ) :   0.9412 B(  6-C ,  9-C ) :   1.0479
B(  9-C , 10-H ) :   0.9601 B(  9-C , 11-H ) :   0.9530 B(  9-C , 12-C ) :   1.0771
B( 12-C , 13-H ) :   0.9757 B( 12-C , 14-H ) :   0.9720 B( 12-C , 15-H ) :   0.9764
B( 16-S , 17-C ) :   1.1879 B( 16-S , 20-C ) :   1.1650 B( 17-C , 18-C ) :   1.5694
B( 17-C , 20-C ) :   0.1062 B( 17-C , 33-H ) :   0.9647 B( 18-C , 19-C ) :   1.2585
B( 18-C , 21-H ) :   0.9908 B( 19-C , 20-C ) :   1.5740 B( 19-C , 22-C ) :   1.0457
B( 22-C , 23-H ) :   0.9329 B( 22-C , 24-H ) :   0.9358 B( 22-C , 25-C ) :   1.0673
B( 25-C , 26-H ) :   0.9540 B( 25-C , 27-H ) :   0.9539 B( 25-C , 28-C ) :   1.0799
B( 28-C , 29-H ) :   0.9709 B( 28-C , 30-H ) :   0.9727 B( 28-C , 31-H ) :   0.9754

Dispersion correction           -0.014175263
FINAL SINGLE POINT ENERGY     -1339.868472751330

DIPOLE MOMENT
-------------
                                X             Y             Z
Electronic contribution:     -6.36366      16.64283      23.01936
Nuclear contribution   :      6.57339     -17.05973     -23.47327
                        -----------------------------------------
Total Dipole Moment    :      0.20973      -0.41690      -0.45391
                        -----------------------------------------
Magnitude (a.u.)       :      0.65102
Magnitude (Debye)      :      1.65476

Rotational constants in cm-1:     0.018595     0.007977     0.006260
Rotational constants in MHz :   557.473440   239.145744   187.675290

                             ****ORCA TERMINATED NORMALLY****
TOTAL RUN TIME: 0 days 0 hours 0 minutes 29 seconds 709 msec
