                         Program Version 4.2.1 -  RELEASE  -
|  1> ! wB97X-D3 SP def2-SVP
|  2> %pal
|  3> nprocs 16
|  4> end
|  5>
|  6> * xyz 0 1
|  7> S 	 -0.735107 	 17.9531 	 51.9379
|  8> C 	 0.0126864 	 17.4802 	 50.4558
|  9> C 	 0.239132 	 18.5648 	 49.6835
| 10> C 	 -0.170191 	 19.7837 	 50.2548
| 11> C 	 -0.690163 	 19.6502 	 51.4883
| 12> H 	 -0.0300732 	 20.7266 	 49.7789
| 13> C 	 1.03566 	 18.5028 	 48.3934
| 14> H 	 0.423114 	 17.9461 	 47.7412
| 15> H 	 1.96258 	 17.8739 	 48.506
| 16> C 	 1.41856 	 19.7343 	 47.7082
| 17> H 	 0.502496 	 20.2543 	 47.3937
| 18> H 	 2.01098 	 20.3953 	 48.4042
| 19> C 	 2.22881 	 19.4555 	 46.3323
| 20> H 	 2.68297 	 20.4045 	 45.9823
| 21> H 	 3.14882 	 18.9353 	 46.5952
| 22> H 	 1.65489 	 18.9227 	 45.5788
| 23> S 	 -2.93434 	 20.3218 	 52.9971
| 24> C 	 -3.16206 	 22.0552 	 53.2518
| 25> C 	 -2.12259 	 22.7916 	 52.8846
| 26> C 	 -1.1052 	 22.1062 	 52.2115
| 27> C 	 -1.3964 	 20.7107 	 52.2205
| 28> H 	 -2.1506 	 23.9148 	 53.0478
| 29> C 	 -0.0326091 	 22.8391 	 51.4766
| 30> H 	 -0.534665 	 23.2125 	 50.6364
| 31> H 	 0.653567 	 22.0951 	 50.9701
| 32> C 	 0.855421 	 23.9796 	 52.1538
| 33> H 	 0.35281 	 24.9238 	 52.2806
| 34> H 	 1.56767 	 24.251 	 51.3936
| 35> C 	 1.52199 	 23.5171 	 53.465
| 36> H 	 2.0255 	 24.3111 	 53.978
| 37> H 	 2.39772 	 22.9061 	 53.3466
| 38> H 	 0.761994 	 23.1569 	 54.156
| 39> H 	 0.448178 	 16.4645 	 50.1516
| 40> H 	 -4.07618 	 22.5361 	 53.6526
| 41> *
| 42>
| 43>                          ****END OF INPUT****

CARTESIAN COORDINATES (ANGSTROEM)
---------------------------------
  S     -0.735107   17.953100   51.937900
  C      0.012686   17.480200   50.455800
  C      0.239132   18.564800   49.683500
  C     -0.170191   19.783700   50.254800
  C     -0.690163   19.650200   51.488300
  H     -0.030073   20.726600   49.778900
  C      1.035660   18.502800   48.393400
  H      0.423114   17.946100   47.741200
  H      1.962580   17.873900   48.506000
  C      1.418560   19.734300   47.708200
  H      0.502496   20.254300   47.393700
  H      2.010980   20.395300   48.404200
  C      2.228810   19.455500   46.332300
  H      2.682970   20.404500   45.982300
  H      3.148820   18.935300   46.595200
  H      1.654890   18.922700   45.578800
  S     -2.934340   20.321800   52.997100
  C     -3.162060   22.055200   53.251800
  C     -2.122590   22.791600   52.884600
  C     -1.105200   22.106200   52.211500
  C     -1.396400   20.710700   52.220500
  H     -2.150600   23.914800   53.047800
  C     -0.032609   22.839100   51.476600
  H     -0.534665   23.212500   50.636400
  H      0.653567   22.095100   50.970100
  C      0.855421   23.979600   52.153800
  H      0.352810   24.923800   52.280600
  H      1.567670   24.251000   51.393600
  C      1.521990   23.517100   53.465000
  H      2.025500   24.311100   53.978000
  H      2.397720   22.906100   53.346600
  H      0.761994   23.156900   54.156000
  H      0.448178   16.464500   50.151600
  H     -4.076180   22.536100   53.652600

 Total Charge           Charge          ....    0
 Multiplicity           Mult            ....    1
 Number of Electrons    NEL             ....  134
 Basis Dimension        Dim             ....  322

ORBITAL ENERGIES
----------------

  NO   OCC          E(Eh)            E(eV)
   0   2.0000     -88.967636     -2420.9325
   1   2.0000     -88.964406     -2420.8446
   2   2.0000     -10.330455      -281.1060
   3   2.0000     -10.324836      -280.9531
   4   2.0000     -10.312255      -280.6107
   5   2.0000     -10.310674      -280.5677
   6   2.0000     -10.302869      -280.3553
   7   2.0000     -10.295237      -280.1476
   8   2.0000     -10.294178      -280.1188
   9   2.0000     -10.293044      -280.0880
  10   2.0000     -10.290942      -280.0308
  11   2.0000     -10.288432      -279.9625
  12   2.0000     -10.288233      -279.9570
  13   2.0000     -10.283910      -279.8394
  14   2.0000     -10.282351      -279.7970
  15   2.0000     -10.272770      -279.5363
  16   2.0000      -8.081840      -219.9180
  17   2.0000      -8.079379      -219.8511
  18   2.0000      -6.040368      -164.3668
  19   2.0000      -6.037992      -164.3021
  20   2.0000      -6.036685      -164.2665
  21   2.0000      -6.033879      -164.1902
  22   2.0000      -6.032354      -164.1487
  23   2.0000      -6.030000      -164.0846
  24   2.0000      -1.011087       -27.5131
  25   2.0000      -0.989085       -26.9144
  26   2.0000      -0.916015       -24.9260
  27   2.0000      -0.904082       -24.6013
  28   2.0000      -0.871512       -23.7150
  29   2.0000      -0.853902       -23.2359
  30   2.0000      -0.843147       -22.9432
  31   2.0000      -0.817663       -22.2497
  32   2.0000      -0.785662       -21.3790
  33   2.0000      -0.773644       -21.0519
  34   2.0000      -0.718580       -19.5535
  35   2.0000      -0.702767       -19.1233
  36   2.0000      -0.686582       -18.6828
  37   2.0000      -0.651076       -17.7167
  38   2.0000      -0.633960       -17.2509
  39   2.0000      -0.625914       -17.0320
  40   2.0000      -0.594651       -16.1813
  41   2.0000      -0.577626       -15.7180
  42   2.0000      -0.563048       -15.3213
  43   2.0000      -0.554695       -15.0940
  44   2.0000      -0.542972       -14.7750
  45   2.0000      -0.520679       -14.1684
  46   2.0000      -0.516067       -14.0429
  47   2.0000      -0.503568       -13.7028
  48   2.0000      -0.496772       -13.5179
  49   2.0000      -0.494772       -13.4634
  50   2.0000      -0.490793       -13.3552
  51   2.0000      -0.480101       -13.0642
  52   2.0000      -0.469572       -12.7777
  53   2.0000      -0.464707       -12.6453
  54   2.0000      -0.460238       -12.5237
  55   2.0000      -0.449549       -12.2328
  56   2.0000      -0.445346       -12.1185
  57   2.0000      -0.442153       -12.0316
  58   2.0000      -0.436729       -11.8840
  59   2.0000      -0.428516       -11.6605
  60   2.0000      -0.422616       -11.5000
  61   2.0000      -0.416301       -11.3281
  62   2.0000      -0.408570       -11.1178
  63   2.0000      -0.359312        -9.7774
  64   2.0000      -0.334969        -9.1150
  65   2.0000      -0.327253        -8.9050
  66   2.0000      -0.282177        -7.6784
  67   0.0000       0.029827         0.8116
  68   0.0000       0.078325         2.1313
  69   0.0000       0.107799         2.9334
  70   0.0000       0.124960         3.4003
  71   0.0000       0.140432         3.8214

MULLIKEN ATOMIC CHARGES
-----------------------
   0 S :    0.103128
   1 C :   -0.152487
   2 C :   -0.065545
   3 C :   -0.008943
   4 C :   -0.101244
   5 H :   -0.002414
   6 C :    0.072313
   7 H :    0.014821
   8 H :    0.030661
   9 C :   -0.130294
  10 H :    0.039121
  11 H :    0.039789
  12 C :   -0.044999
  13 H :    0.034137
  14 H :    0.024593
  15 H :    0.049665
  16 S :    0.109583
  17 C :   -0.102083
  18 C :   -0.042716
  19 C :   -0.050753
  20 C :   -0.143064
  21 H :    0.036816
  22 C :    0.027750
  23 H :    0.030945
  24 H :    0.034756
  25 C :   -0.036219
  26 H :    0.022777
  27 H :    0.019505
  28 C :   -0.031138
  29 H :    0.013336
  30 H :    0.029148
  31 H :    0.050057
  32 H :    0.069555
  33 H :    0.059445
Sum of atomic charges:    0.0000000

LOEWDIN ATOMIC CHARGES
----------------------
   0 S :    0.405261
   1 C :   -0.217557
   2 C :   -0.067734
   3 C :   -0.070315
   4 C :   -0.182272
   5 H :    0.024795
   6 C :   -0.043493
   7 H :    0.027347
   8 H :    0.035010
   9 C :   -0.046676
  10 H :    0.024308
  11 H :    0.026765
  12 C :   -0.063636
  13 H :    0.031317
  14 H :    0.023303
  15 H :    0.026936
  16 S :    0.389107
  17 C :   -0.184941
  18 C :   -0.081215
  19 C :   -0.058340
  20 C :   -0.185751
  21 H :    0.044109
  22 C :   -0.037616
  23 H :    0.029577
  24 H :    0.037467
  25 C :   -0.033671
  26 H :    0.020200
  27 H :    0.025851
  28 C :   -0.068023
  29 H :    0.024457
  30 H :    0.027511
  31 H :    0.031569
  32 H :    0.049502
  33 H :    0.036849

  Mayer bond orders larger than 0.100000
B(  0-S ,  1-C ) :   1.1237 B(  0-S ,  4-C ) :   1.1476 B(  1-C ,  2-C ) :   1.6374
B(  1-C , 32-H ) :   0.9590 B(  2-C ,  3-C ) :   1.2723 B(  2-C ,  6-C ) :   0.9907
B(  3-C ,  4-C ) :   1.5472 B(  3-C ,  5-H ) :   0.9860 B(  4-C , 20-C ) :   1.0455
B(  6-C ,  7-H ) :   0.9227 B(  6-C ,  8-H ) :   0.9414 B(  6-C ,  9-C ) :   1.1051
B(  9-C , 10-H ) :   0.9431 B(  9-C , 11-H ) :   0.9493 B(  9-C , 12-C ) :   1.0734
B( 12-C , 13-H ) :   0.9737 B( 12-C , 14-H ) :   0.9746 B( 12-C , 15-H ) :   0.9775
B( 16-S , 17-C ) :   1.1263 B( 16-S , 20-C ) :   1.1392 B( 17-C , 18-C ) :   1.6601
B( 17-C , 33-H ) :   0.9577 B( 18-C , 19-C ) :   1.2357 B( 18-C , 21-H ) :   0.9765
B( 19-C , 20-C ) :   1.5788 B( 19-C , 22-C ) :   1.0473 B( 22-C , 23-H ) :   0.9275
B( 22-C , 24-H ) :   0.9229 B( 22-C , 25-C ) :   1.0599 B( 25-C , 26-H ) :   0.9559
B( 25-C , 27-H ) :   0.9514 B( 25-C , 28-C ) :   1.0804 B( 28-C , 29-H ) :   0.9691
B( 28-C , 30-H ) :   0.9742 B( 28-C , 31-H ) :   0.9742

Dispersion correction           -0.013925606
FINAL SINGLE POINT ENERGY     -1339.861025464236

DIPOLE MOMENT
-------------
                                X             Y             Z
Electronic contribution:    -20.71601     -14.39311      16.75489
Nuclear contribution   :     21.12929      14.97033     -17.31804
                        -----------------------------------------
Total Dipole Moment    :      0.41328       0.57722      -0.56315
                        -----------------------------------------
Magnitude (a.u.)       :      0.90615
Magnitude (Debye)      :      2.30326

Rotational constants in cm-1:     0.017006     0.008984     0.006676
Rotational constants in MHz :   509.825490   269.344659   200.150386

                             ****ORCA TERMINATED NORMALLY****
TOTAL RUN TIME: 0 days 0 hours 0 minutes 34 seconds 718 msec
