                         Program Version 4.2.1 -  RELEASE  -
|  1> ! wB97X-D3 SP def2-SVP
|  2> %pal
|  3> nprocs 16
|  4> end
|  5>
|  6> * xyz 0 1
|  7> S 	 -1.38509 	 47.0257 	 45.4998
|  8> C 	 -0.231525 	 48.0022 	 46.348
|  9> C 	 -0.847188 	 49.0586 	 46.9277
| 10> C 	 -2.27791 	 49.0843 	 46.6124
| 11> C 	 -2.77849 	 48.0568 	 45.8339
| 12> H 	 -2.956 	 49.9582 	 46.8378
| 13> C 	 -0.206733 	 50.166 	 47.7712
| 14> H 	 -0.44553 	 51.1358 	 47.3476
| 15> H 	 0.869291 	 50.1182 	 47.5264
| 16> C 	 -0.385068 	 49.9089 	 49.3314
| 17> H 	 -0.106064 	 48.8759 	 49.6551
| 18> H 	 0.237619 	 50.5777 	 49.9573
| 19> C 	 -1.84689 	 50.0303 	 49.7068
| 20> H 	 -2.1479 	 51.0185 	 49.3839
| 21> H 	 -2.48044 	 49.3137 	 49.1547
| 22> H 	 -2.1567 	 49.971 	 50.7512
| 23> S 	 -4.33384 	 48.5169 	 43.6501
| 24> C 	 -6.03168 	 47.959 	 43.6793
| 25> C 	 -6.28149 	 47.1648 	 44.8086
| 26> C 	 -5.1472 	 47.0908 	 45.7251
| 27> C 	 -4.10423 	 47.8916 	 45.253
| 28> H 	 -7.25853 	 46.6871 	 44.7343
| 29> C 	 -5.30099 	 46.3667 	 47.0608
| 30> H 	 -4.27941 	 46.3604 	 47.5292
| 31> H 	 -5.40561 	 45.3265 	 46.7749
| 32> C 	 -6.4554 	 46.6906 	 47.973
| 33> H 	 -6.43724 	 45.8817 	 48.6515
| 34> H 	 -7.27546 	 46.4719 	 47.3711
| 35> C 	 -6.5545 	 48.0237 	 48.673
| 36> H 	 -5.61326 	 48.2904 	 49.1491
| 37> H 	 -7.37409 	 47.9859 	 49.375
| 38> H 	 -6.8199 	 48.7582 	 47.876
| 39> H 	 0.811751 	 47.9119 	 46.4517
| 40> H 	 -6.76332 	 47.9256 	 42.8151
| 41> *
| 42>
| 43>                          ****END OF INPUT****

CARTESIAN COORDINATES (ANGSTROEM)
---------------------------------
  S     -1.385090   47.025700   45.499800
  C     -0.231525   48.002200   46.348000
  C     -0.847188   49.058600   46.927700
  C     -2.277910   49.084300   46.612400
  C     -2.778490   48.056800   45.833900
  H     -2.956000   49.958200   46.837800
  C     -0.206733   50.166000   47.771200
  H     -0.445530   51.135800   47.347600
  H      0.869291   50.118200   47.526400
  C     -0.385068   49.908900   49.331400
  H     -0.106064   48.875900   49.655100
  H      0.237619   50.577700   49.957300
  C     -1.846890   50.030300   49.706800
  H     -2.147900   51.018500   49.383900
  H     -2.480440   49.313700   49.154700
  H     -2.156700   49.971000   50.751200
  S     -4.333840   48.516900   43.650100
  C     -6.031680   47.959000   43.679300
  C     -6.281490   47.164800   44.808600
  C     -5.147200   47.090800   45.725100
  C     -4.104230   47.891600   45.253000
  H     -7.258530   46.687100   44.734300
  C     -5.300990   46.366700   47.060800
  H     -4.279410   46.360400   47.529200
  H     -5.405610   45.326500   46.774900
  C     -6.455400   46.690600   47.973000
  H     -6.437240   45.881700   48.651500
  H     -7.275460   46.471900   47.371100
  C     -6.554500   48.023700   48.673000
  H     -5.613260   48.290400   49.149100
  H     -7.374090   47.985900   49.375000
  H     -6.819900   48.758200   47.876000
  H      0.811751   47.911900   46.451700
  H     -6.763320   47.925600   42.815100

 Total Charge           Charge          ....    0
 Multiplicity           Mult            ....    1
 Number of Electrons    NEL             ....  134
 Basis Dimension        Dim             ....  322

ORBITAL ENERGIES
----------------

  NO   OCC          E(Eh)            E(eV)
   0   2.0000     -88.969014     -2420.9699
   1   2.0000     -88.961226     -2420.7580
   2   2.0000     -10.329038      -281.0674
   3   2.0000     -10.328554      -281.0543
   4   2.0000     -10.325769      -280.9785
   5   2.0000     -10.312014      -280.6042
   6   2.0000     -10.309963      -280.5483
   7   2.0000     -10.300402      -280.2882
   8   2.0000     -10.299944      -280.2757
   9   2.0000     -10.299462      -280.2626
  10   2.0000     -10.297504      -280.2093
  11   2.0000     -10.296170      -280.1730
  12   2.0000     -10.291658      -280.0502
  13   2.0000     -10.276841      -279.6470
  14   2.0000     -10.275175      -279.6017
  15   2.0000     -10.271474      -279.5010
  16   2.0000      -8.083206      -219.9552
  17   2.0000      -8.076021      -219.7597
  18   2.0000      -6.041759      -164.4046
  19   2.0000      -6.037895      -164.2995
  20   2.0000      -6.034769      -164.2144
  21   2.0000      -6.033824      -164.1887
  22   2.0000      -6.030314      -164.0932
  23   2.0000      -6.026687      -163.9945
  24   2.0000      -1.003527       -27.3074
  25   2.0000      -0.981136       -26.6981
  26   2.0000      -0.914203       -24.8767
  27   2.0000      -0.905405       -24.6373
  28   2.0000      -0.870429       -23.6856
  29   2.0000      -0.849093       -23.1050
  30   2.0000      -0.837121       -22.7792
  31   2.0000      -0.816379       -22.2148
  32   2.0000      -0.786005       -21.3883
  33   2.0000      -0.773118       -21.0376
  34   2.0000      -0.710126       -19.3235
  35   2.0000      -0.698718       -19.0131
  36   2.0000      -0.692812       -18.8524
  37   2.0000      -0.652111       -17.7448
  38   2.0000      -0.638706       -17.3801
  39   2.0000      -0.612480       -16.6664
  40   2.0000      -0.590451       -16.0670
  41   2.0000      -0.572909       -15.5896
  42   2.0000      -0.552954       -15.0467
  43   2.0000      -0.544012       -14.8033
  44   2.0000      -0.541898       -14.7458
  45   2.0000      -0.539106       -14.6698
  46   2.0000      -0.521085       -14.1794
  47   2.0000      -0.508505       -13.8371
  48   2.0000      -0.505222       -13.7478
  49   2.0000      -0.496340       -13.5061
  50   2.0000      -0.488305       -13.2875
  51   2.0000      -0.478378       -13.0173
  52   2.0000      -0.469752       -12.7826
  53   2.0000      -0.461385       -12.5549
  54   2.0000      -0.457650       -12.4533
  55   2.0000      -0.444790       -12.1034
  56   2.0000      -0.441305       -12.0085
  57   2.0000      -0.432022       -11.7559
  58   2.0000      -0.427179       -11.6241
  59   2.0000      -0.422229       -11.4894
  60   2.0000      -0.421113       -11.4591
  61   2.0000      -0.413392       -11.2490
  62   2.0000      -0.409438       -11.1414
  63   2.0000      -0.334876        -9.1124
  64   2.0000      -0.325522        -8.8579
  65   2.0000      -0.321909        -8.7596
  66   2.0000      -0.316032        -8.5997
  67   0.0000       0.043192         1.1753
  68   0.0000       0.054499         1.4830
  69   0.0000       0.107492         2.9250
  70   0.0000       0.121260         3.2997
  71   0.0000       0.130161         3.5418

MULLIKEN ATOMIC CHARGES
-----------------------
   0 S :    0.105742
   1 C :   -0.075505
   2 C :   -0.129743
   3 C :    0.019733
   4 C :   -0.177061
   5 H :    0.034022
   6 C :    0.057471
   7 H :    0.040154
   8 H :    0.014042
   9 C :   -0.049360
  10 H :    0.034003
  11 H :    0.037609
  12 C :   -0.069110
  13 H :    0.012397
  14 H :    0.046690
  15 H :    0.033973
  16 S :    0.124180
  17 C :   -0.125914
  18 C :   -0.065934
  19 C :   -0.006889
  20 C :   -0.183958
  21 H :    0.031303
  22 C :    0.049295
  23 H :    0.028980
  24 H :    0.025581
  25 C :   -0.021521
  26 H :    0.010175
  27 H :    0.001453
  28 C :   -0.018061
  29 H :    0.038876
  30 H :    0.033374
  31 H :    0.041535
  32 H :    0.024785
  33 H :    0.077683
Sum of atomic charges:   -0.0000000

LOEWDIN ATOMIC CHARGES
----------------------
   0 S :    0.398755
   1 C :   -0.189865
   2 C :   -0.071535
   3 C :   -0.067851
   4 C :   -0.205482
   5 H :    0.038010
   6 C :   -0.030383
   7 H :    0.032819
   8 H :    0.030663
   9 C :   -0.036904
  10 H :    0.029529
  11 H :    0.025291
  12 C :   -0.074603
  13 H :    0.018442
  14 H :    0.027930
  15 H :    0.024694
  16 S :    0.406331
  17 C :   -0.190870
  18 C :   -0.076970
  19 C :   -0.046203
  20 C :   -0.211892
  21 H :    0.035498
  22 C :   -0.034657
  23 H :    0.032359
  24 H :    0.037626
  25 C :   -0.039067
  26 H :    0.022254
  27 H :    0.016453
  28 C :   -0.058131
  29 H :    0.027195
  30 H :    0.026922
  31 H :    0.034510
  32 H :    0.025974
  33 H :    0.043158

  Mayer bond orders larger than 0.100000
B(  0-S ,  1-C ) :   1.1370 B(  0-S ,  4-C ) :   1.1262 B(  1-C ,  2-C ) :   1.6502
B(  1-C , 32-H ) :   0.9655 B(  2-C ,  3-C ) :   1.2228 B(  2-C ,  6-C ) :   1.0143
B(  3-C ,  4-C ) :   1.6146 B(  3-C ,  5-H ) :   0.9775 B(  4-C , 20-C ) :   1.0253
B(  6-C ,  7-H ) :   0.9515 B(  6-C ,  8-H ) :   0.9387 B(  6-C ,  9-C ) :   1.0465
B(  9-C , 10-H ) :   0.9580 B(  9-C , 11-H ) :   0.9601 B(  9-C , 12-C ) :   1.0753
B( 12-C , 13-H ) :   0.9728 B( 12-C , 14-H ) :   0.9686 B( 12-C , 15-H ) :   0.9725
B( 16-S , 17-C ) :   1.1370 B( 16-S , 20-C ) :   1.1520 B( 17-C , 18-C ) :   1.6570
B( 17-C , 33-H ) :   0.9560 B( 18-C , 19-C ) :   1.1906 B( 18-C , 21-H ) :   0.9835
B( 19-C , 20-C ) :   1.6019 B( 19-C , 22-C ) :   1.0433 B( 22-C , 23-H ) :   0.9289
B( 22-C , 24-H ) :   0.9226 B( 22-C , 25-C ) :   1.0821 B( 25-C , 26-H ) :   0.9421
B( 25-C , 27-H ) :   0.9440 B( 25-C , 28-C ) :   1.0768 B( 28-C , 29-H ) :   0.9755
B( 28-C , 30-H ) :   0.9705 B( 28-C , 31-H ) :   0.9733

Dispersion correction           -0.014917063
FINAL SINGLE POINT ENERGY     -1339.865160178141

DIPOLE MOMENT
-------------
                                X             Y             Z
Electronic contribution:      5.27014      -5.60995     -25.40008
Nuclear contribution   :     -5.50561       5.63656      25.79763
                        -----------------------------------------
Total Dipole Moment    :     -0.23546       0.02662       0.39755
                        -----------------------------------------
Magnitude (a.u.)       :      0.46282
Magnitude (Debye)      :      1.17638

Rotational constants in cm-1:     0.018038     0.009429     0.007315
Rotational constants in MHz :   540.772273   282.676022   219.301958

                             ****ORCA TERMINATED NORMALLY****
TOTAL RUN TIME: 0 days 0 hours 0 minutes 34 seconds 453 msec
