                         Program Version 4.2.1 -  RELEASE  -
|  1> ! wB97X-D3 SP def2-SVP
|  2> %pal
|  3> nprocs 16
|  4> end
|  5>
|  6> * xyz 0 1
|  7> S 	 -40.6787 	 56.4647 	 109.499
|  8> C 	 -42.3102 	 56.8693 	 109.541
|  9> C 	 -42.9304 	 56.6493 	 108.301
| 10> C 	 -42.0699 	 55.8769 	 107.481
| 11> C 	 -40.8587 	 55.6826 	 107.924
| 12> H 	 -42.3243 	 55.4292 	 106.456
| 13> C 	 -44.3271 	 57.1155 	 107.871
| 14> H 	 -44.8107 	 57.609 	 108.704
| 15> H 	 -44.9432 	 56.2721 	 107.527
| 16> C 	 -44.259 	 58.1974 	 106.749
| 17> H 	 -43.7875 	 59.179 	 107.094
| 18> H 	 -43.6384 	 58.055 	 105.888
| 19> C 	 -45.7182 	 58.4821 	 106.256
| 20> H 	 -46.1415 	 57.5265 	 105.827
| 21> H 	 -46.2627 	 58.7592 	 107.16
| 22> H 	 -45.7471 	 59.2878 	 105.535
| 23> S 	 -38.426 	 56.2299 	 107.107
| 24> C 	 -37.4086 	 54.9814 	 106.342
| 25> C 	 -38.1025 	 53.8331 	 106.122
| 26> C 	 -39.4445 	 53.9218 	 106.647
| 27> C 	 -39.6908 	 55.0994 	 107.307
| 28> H 	 -37.6262 	 52.9474 	 105.722
| 29> C 	 -40.4851 	 52.8289 	 106.603
| 30> H 	 -40.7732 	 52.7899 	 105.518
| 31> H 	 -41.483 	 53.1859 	 107.014
| 32> C 	 -40.1308 	 51.5224 	 107.234
| 33> H 	 -40.1159 	 51.6701 	 108.308
| 34> H 	 -39.1268 	 51.2805 	 106.91
| 35> C 	 -41.0217 	 50.4019 	 106.788
| 36> H 	 -42.0518 	 50.4929 	 107.152
| 37> H 	 -40.6928 	 49.3817 	 107.124
| 38> H 	 -41.1663 	 50.3932 	 105.625
| 39> H 	 -42.6761 	 57.5334 	 110.345
| 40> H 	 -36.3639 	 55.2027 	 106.171
| 41> *
| 42>
| 43>                          ****END OF INPUT****

CARTESIAN COORDINATES (ANGSTROEM)
---------------------------------
  S    -40.678700   56.464700  109.499000
  C    -42.310200   56.869300  109.541000
  C    -42.930400   56.649300  108.301000
  C    -42.069900   55.876900  107.481000
  C    -40.858700   55.682600  107.924000
  H    -42.324300   55.429200  106.456000
  C    -44.327100   57.115500  107.871000
  H    -44.810700   57.609000  108.704000
  H    -44.943200   56.272100  107.527000
  C    -44.259000   58.197400  106.749000
  H    -43.787500   59.179000  107.094000
  H    -43.638400   58.055000  105.888000
  C    -45.718200   58.482100  106.256000
  H    -46.141500   57.526500  105.827000
  H    -46.262700   58.759200  107.160000
  H    -45.747100   59.287800  105.535000
  S    -38.426000   56.229900  107.107000
  C    -37.408600   54.981400  106.342000
  C    -38.102500   53.833100  106.122000
  C    -39.444500   53.921800  106.647000
  C    -39.690800   55.099400  107.307000
  H    -37.626200   52.947400  105.722000
  C    -40.485100   52.828900  106.603000
  H    -40.773200   52.789900  105.518000
  H    -41.483000   53.185900  107.014000
  C    -40.130800   51.522400  107.234000
  H    -40.115900   51.670100  108.308000
  H    -39.126800   51.280500  106.910000
  C    -41.021700   50.401900  106.788000
  H    -42.051800   50.492900  107.152000
  H    -40.692800   49.381700  107.124000
  H    -41.166300   50.393200  105.625000
  H    -42.676100   57.533400  110.345000
  H    -36.363900   55.202700  106.171000

 Total Charge           Charge          ....    0
 Multiplicity           Mult            ....    1
 Number of Electrons    NEL             ....  134
 Basis Dimension        Dim             ....  322

ORBITAL ENERGIES
----------------

  NO   OCC          E(Eh)            E(eV)
   0   2.0000     -88.960482     -2420.7378
   1   2.0000     -88.959328     -2420.7064
   2   2.0000     -10.318698      -280.7860
   3   2.0000     -10.318184      -280.7721
   4   2.0000     -10.316973      -280.7391
   5   2.0000     -10.313233      -280.6373
   6   2.0000     -10.303576      -280.3746
   7   2.0000     -10.301317      -280.3131
   8   2.0000     -10.299929      -280.2753
   9   2.0000     -10.297410      -280.2068
  10   2.0000     -10.292223      -280.0656
  11   2.0000     -10.291234      -280.0387
  12   2.0000     -10.290938      -280.0307
  13   2.0000     -10.286946      -279.9220
  14   2.0000     -10.283026      -279.8154
  15   2.0000     -10.281351      -279.7698
  16   2.0000      -8.076768      -219.7800
  17   2.0000      -8.074953      -219.7306
  18   2.0000      -6.035086      -164.2230
  19   2.0000      -6.033443      -164.1783
  20   2.0000      -6.031153      -164.1160
  21   2.0000      -6.029354      -164.0671
  22   2.0000      -6.027523      -164.0172
  23   2.0000      -6.025648      -163.9662
  24   2.0000      -1.017931       -27.6993
  25   2.0000      -0.990631       -26.9564
  26   2.0000      -0.914571       -24.8867
  27   2.0000      -0.906526       -24.6678
  28   2.0000      -0.876646       -23.8547
  29   2.0000      -0.853859       -23.2347
  30   2.0000      -0.845233       -23.0000
  31   2.0000      -0.820339       -22.3226
  32   2.0000      -0.775843       -21.1118
  33   2.0000      -0.763824       -20.7847
  34   2.0000      -0.703781       -19.1508
  35   2.0000      -0.697823       -18.9887
  36   2.0000      -0.691530       -18.8175
  37   2.0000      -0.663876       -18.0650
  38   2.0000      -0.649582       -17.6760
  39   2.0000      -0.621633       -16.9155
  40   2.0000      -0.600561       -16.3421
  41   2.0000      -0.567357       -15.4386
  42   2.0000      -0.563165       -15.3245
  43   2.0000      -0.555358       -15.1121
  44   2.0000      -0.530309       -14.4304
  45   2.0000      -0.525638       -14.3033
  46   2.0000      -0.518889       -14.1197
  47   2.0000      -0.507948       -13.8220
  48   2.0000      -0.505881       -13.7657
  49   2.0000      -0.500048       -13.6070
  50   2.0000      -0.495011       -13.4699
  51   2.0000      -0.474376       -12.9084
  52   2.0000      -0.467022       -12.7083
  53   2.0000      -0.466679       -12.6990
  54   2.0000      -0.453515       -12.3408
  55   2.0000      -0.449513       -12.2319
  56   2.0000      -0.444312       -12.0904
  57   2.0000      -0.441535       -12.0148
  58   2.0000      -0.434840       -11.8326
  59   2.0000      -0.420922       -11.4539
  60   2.0000      -0.417211       -11.3529
  61   2.0000      -0.415589       -11.3088
  62   2.0000      -0.407376       -11.0853
  63   2.0000      -0.355633        -9.6773
  64   2.0000      -0.330834        -9.0025
  65   2.0000      -0.325085        -8.8460
  66   2.0000      -0.295614        -8.0441
  67   0.0000       0.040158         1.0928
  68   0.0000       0.070570         1.9203
  69   0.0000       0.113955         3.1009
  70   0.0000       0.125328         3.4104
  71   0.0000       0.133364         3.6290

MULLIKEN ATOMIC CHARGES
-----------------------
   0 S :    0.106043
   1 C :   -0.121023
   2 C :   -0.103799
   3 C :    0.019343
   4 C :   -0.157142
   5 H :    0.035106
   6 C :    0.087912
   7 H :    0.019919
   8 H :    0.038874
   9 C :   -0.116592
  10 H :    0.030524
  11 H :    0.027885
  12 C :   -0.054187
  13 H :    0.040798
  14 H :    0.030130
  15 H :    0.037675
  16 S :    0.089583
  17 C :   -0.097395
  18 C :   -0.017962
  19 C :   -0.037301
  20 C :   -0.138260
  21 H :    0.025700
  22 C :    0.007039
  23 H :    0.030640
  24 H :    0.025239
  25 C :   -0.012854
  26 H :    0.039639
  27 H :    0.017712
  28 C :   -0.085097
  29 H :    0.028477
  30 H :    0.042749
  31 H :    0.037600
  32 H :    0.063747
  33 H :    0.059276
Sum of atomic charges:   -0.0000000

LOEWDIN ATOMIC CHARGES
----------------------
   0 S :    0.418411
   1 C :   -0.218228
   2 C :   -0.066900
   3 C :   -0.070630
   4 C :   -0.195938
   5 H :    0.045662
   6 C :   -0.024991
   7 H :    0.031048
   8 H :    0.033377
   9 C :   -0.046975
  10 H :    0.029696
  11 H :    0.016496
  12 C :   -0.065478
  13 H :    0.029153
  14 H :    0.023162
  15 H :    0.022983
  16 S :    0.401660
  17 C :   -0.167309
  18 C :   -0.067202
  19 C :   -0.061341
  20 C :   -0.206672
  21 H :    0.034818
  22 C :   -0.042805
  23 H :    0.034067
  24 H :    0.034082
  25 C :   -0.044637
  26 H :    0.031933
  27 H :    0.021717
  28 C :   -0.074674
  29 H :    0.022541
  30 H :    0.029657
  31 H :    0.034240
  32 H :    0.032854
  33 H :    0.026222

  Mayer bond orders larger than 0.100000
B(  0-S ,  1-C ) :   1.1677 B(  0-S ,  4-C ) :   1.1320 B(  1-C ,  2-C ) :   1.6012
B(  1-C , 32-H ) :   0.9618 B(  2-C ,  3-C ) :   1.2253 B(  2-C ,  6-C ) :   1.0313
B(  3-C ,  4-C ) :   1.6460 B(  3-C ,  5-H ) :   0.9781 B(  4-C , 20-C ) :   0.9876
B(  6-C ,  7-H ) :   0.9382 B(  6-C ,  8-H ) :   0.9478 B(  6-C ,  9-C ) :   1.0399
B(  9-C , 10-H ) :   0.9544 B(  9-C , 11-H ) :   0.9651 B(  9-C , 12-C ) :   1.0731
B( 12-C , 13-H ) :   0.9768 B( 12-C , 14-H ) :   0.9755 B( 12-C , 15-H ) :   0.9754
B( 16-S , 17-C ) :   1.1396 B( 16-S , 20-C ) :   1.1522 B( 17-C , 18-C ) :   1.6235
B( 17-C , 33-H ) :   0.9717 B( 18-C , 19-C ) :   1.2001 B( 18-C , 21-H ) :   0.9940
B( 19-C , 20-C ) :   1.6392 B( 19-C , 22-C ) :   1.0442 B( 22-C , 23-H ) :   0.9292
B( 22-C , 24-H ) :   0.9325 B( 22-C , 25-C ) :   1.0611 B( 25-C , 26-H ) :   0.9472
B( 25-C , 27-H ) :   0.9561 B( 25-C , 28-C ) :   1.0806 B( 28-C , 29-H ) :   0.9728
B( 28-C , 30-H ) :   0.9730 B( 28-C , 31-H ) :   0.9731

Dispersion correction           -0.013545651
FINAL SINGLE POINT ENERGY     -1339.877811149775

DIPOLE MOMENT
-------------
                                X             Y             Z
Electronic contribution:     21.06442       9.52248       9.61630
Nuclear contribution   :    -21.39750      -9.67909      -9.91710
                        -----------------------------------------
Total Dipole Moment    :     -0.33308      -0.15661      -0.30080
                        -----------------------------------------
Magnitude (a.u.)       :      0.47534
Magnitude (Debye)      :      1.20822

Rotational constants in cm-1:     0.017962     0.007909     0.006705
Rotational constants in MHz :   538.495581   237.119057   201.006539

                             ****ORCA TERMINATED NORMALLY****
TOTAL RUN TIME: 0 days 0 hours 0 minutes 27 seconds 414 msec
