                         Program Version 4.2.1 -  RELEASE  -
|  1> ! wB97X-D3 SP def2-SVP
|  2> %pal
|  3> nprocs 16
|  4> end
|  5>
|  6> * xyz 0 1
|  7> S 	 -5.10319 	 -15.6155 	 81.6065
|  8> C 	 -5.06362 	 -16.0771 	 83.2525
|  9> C 	 -5.5295 	 -15.1232 	 84.1599
| 10> C 	 -6.02456 	 -14.0065 	 83.4208
| 11> C 	 -6.01518 	 -14.2058 	 82.0515
| 12> H 	 -6.41443 	 -13.0575 	 83.7966
| 13> C 	 -5.49444 	 -15.2061 	 85.6574
| 14> H 	 -5.40745 	 -14.1931 	 85.9439
| 15> H 	 -4.52759 	 -15.6506 	 85.9664
| 16> C 	 -6.74745 	 -15.8527 	 86.2763
| 17> H 	 -7.68368 	 -15.2731 	 85.9969
| 18> H 	 -7.09206 	 -16.7852 	 85.8282
| 19> C 	 -6.52973 	 -15.8821 	 87.8313
| 20> H 	 -5.4348 	 -16.0364 	 88.0201
| 21> H 	 -6.60117 	 -14.835 	 88.2352
| 22> H 	 -7.14798 	 -16.6034 	 88.4133
| 23> S 	 -5.25256 	 -12.2903 	 80.1545
| 24> C 	 -6.48186 	 -11.5446 	 79.1632
| 25> C 	 -7.75603 	 -11.9556 	 79.6062
| 26> C 	 -7.71313 	 -12.9897 	 80.5489
| 27> C 	 -6.42196 	 -13.2318 	 81.0374
| 28> H 	 -8.60611 	 -11.5244 	 78.982
| 29> C 	 -9.01115 	 -13.5884 	 81.121
| 30> H 	 -8.82847 	 -14.3096 	 81.855
| 31> H 	 -9.42319 	 -14.188 	 80.3103
| 32> C 	 -10.0463 	 -12.6595 	 81.6511
| 33> H 	 -11.0213 	 -13.091 	 81.7109
| 34> H 	 -10.214 	 -11.9282 	 80.9045
| 35> C 	 -9.60206 	 -11.9742 	 82.9798
| 36> H 	 -10.1526 	 -11.0113 	 83.1071
| 37> H 	 -8.57758 	 -11.5436 	 82.8887
| 38> H 	 -9.67336 	 -12.3838 	 83.9988
| 39> H 	 -4.53892 	 -16.9385 	 83.5271
| 40> H 	 -6.35309 	 -10.9612 	 78.3031
| 41> *
| 42>
| 43>                          ****END OF INPUT****

CARTESIAN COORDINATES (ANGSTROEM)
---------------------------------
  S     -5.103190  -15.615500   81.606500
  C     -5.063620  -16.077100   83.252500
  C     -5.529500  -15.123200   84.159900
  C     -6.024560  -14.006500   83.420800
  C     -6.015180  -14.205800   82.051500
  H     -6.414430  -13.057500   83.796600
  C     -5.494440  -15.206100   85.657400
  H     -5.407450  -14.193100   85.943900
  H     -4.527590  -15.650600   85.966400
  C     -6.747450  -15.852700   86.276300
  H     -7.683680  -15.273100   85.996900
  H     -7.092060  -16.785200   85.828200
  C     -6.529730  -15.882100   87.831300
  H     -5.434800  -16.036400   88.020100
  H     -6.601170  -14.835000   88.235200
  H     -7.147980  -16.603400   88.413300
  S     -5.252560  -12.290300   80.154500
  C     -6.481860  -11.544600   79.163200
  C     -7.756030  -11.955600   79.606200
  C     -7.713130  -12.989700   80.548900
  C     -6.421960  -13.231800   81.037400
  H     -8.606110  -11.524400   78.982000
  C     -9.011150  -13.588400   81.121000
  H     -8.828470  -14.309600   81.855000
  H     -9.423190  -14.188000   80.310300
  C    -10.046300  -12.659500   81.651100
  H    -11.021300  -13.091000   81.710900
  H    -10.214000  -11.928200   80.904500
  C     -9.602060  -11.974200   82.979800
  H    -10.152600  -11.011300   83.107100
  H     -8.577580  -11.543600   82.888700
  H     -9.673360  -12.383800   83.998800
  H     -4.538920  -16.938500   83.527100
  H     -6.353090  -10.961200   78.303100

 Total Charge           Charge          ....    0
 Multiplicity           Mult            ....    1
 Number of Electrons    NEL             ....  134
 Basis Dimension        Dim             ....  322

ORBITAL ENERGIES
----------------

  NO   OCC          E(Eh)            E(eV)
   0   2.0000     -88.966723     -2420.9076
   1   2.0000     -88.966565     -2420.9033
   2   2.0000     -10.323081      -280.9053
   3   2.0000     -10.322595      -280.8921
   4   2.0000     -10.314209      -280.6639
   5   2.0000     -10.306388      -280.4511
   6   2.0000     -10.302124      -280.3350
   7   2.0000     -10.300274      -280.2847
   8   2.0000     -10.296824      -280.1908
   9   2.0000     -10.296129      -280.1719
  10   2.0000     -10.294544      -280.1288
  11   2.0000     -10.293586      -280.1027
  12   2.0000     -10.290236      -280.0116
  13   2.0000     -10.281610      -279.7768
  14   2.0000     -10.279808      -279.7278
  15   2.0000     -10.279195      -279.7111
  16   2.0000      -8.082432      -219.9341
  17   2.0000      -8.081125      -219.8986
  18   2.0000      -6.040593      -164.3729
  19   2.0000      -6.039433      -164.3413
  20   2.0000      -6.036938      -164.2734
  21   2.0000      -6.035529      -164.2351
  22   2.0000      -6.033376      -164.1765
  23   2.0000      -6.032241      -164.1456
  24   2.0000      -1.007720       -27.4214
  25   2.0000      -0.985708       -26.8225
  26   2.0000      -0.911942       -24.8152
  27   2.0000      -0.910137       -24.7661
  28   2.0000      -0.864560       -23.5259
  29   2.0000      -0.849996       -23.1296
  30   2.0000      -0.842736       -22.9320
  31   2.0000      -0.809982       -22.0407
  32   2.0000      -0.781723       -21.2718
  33   2.0000      -0.770023       -20.9534
  34   2.0000      -0.709290       -19.3008
  35   2.0000      -0.706403       -19.2222
  36   2.0000      -0.698614       -19.0103
  37   2.0000      -0.650462       -17.7000
  38   2.0000      -0.648927       -17.6582
  39   2.0000      -0.617262       -16.7966
  40   2.0000      -0.598677       -16.2908
  41   2.0000      -0.568418       -15.4675
  42   2.0000      -0.554933       -15.1005
  43   2.0000      -0.547808       -14.9066
  44   2.0000      -0.531482       -14.4624
  45   2.0000      -0.529144       -14.3987
  46   2.0000      -0.519500       -14.1363
  47   2.0000      -0.507396       -13.8069
  48   2.0000      -0.499809       -13.6005
  49   2.0000      -0.494952       -13.4683
  50   2.0000      -0.484854       -13.1936
  51   2.0000      -0.478120       -13.0103
  52   2.0000      -0.467389       -12.7183
  53   2.0000      -0.461756       -12.5650
  54   2.0000      -0.456943       -12.4341
  55   2.0000      -0.456650       -12.4261
  56   2.0000      -0.440119       -11.9762
  57   2.0000      -0.437800       -11.9131
  58   2.0000      -0.432916       -11.7803
  59   2.0000      -0.429889       -11.6979
  60   2.0000      -0.421544       -11.4708
  61   2.0000      -0.411201       -11.1893
  62   2.0000      -0.408784       -11.1236
  63   2.0000      -0.337967        -9.1966
  64   2.0000      -0.330587        -8.9957
  65   2.0000      -0.320348        -8.7171
  66   2.0000      -0.302500        -8.2314
  67   0.0000       0.039478         1.0743
  68   0.0000       0.058104         1.5811
  69   0.0000       0.114937         3.1276
  70   0.0000       0.126976         3.4552
  71   0.0000       0.133899         3.6436

MULLIKEN ATOMIC CHARGES
-----------------------
   0 S :    0.132685
   1 C :   -0.099348
   2 C :   -0.097195
   3 C :    0.034645
   4 C :   -0.185582
   5 H :    0.016275
   6 C :    0.088468
   7 H :    0.011244
   8 H :    0.031899
   9 C :   -0.072762
  10 H :    0.031474
  11 H :    0.029470
  12 C :   -0.058698
  13 H :    0.027239
  14 H :    0.034077
  15 H :    0.053865
  16 S :    0.124265
  17 C :   -0.096684
  18 C :   -0.073430
  19 C :   -0.029976
  20 C :   -0.182395
  21 H :    0.048708
  22 C :    0.108689
  23 H :    0.008485
  24 H :    0.021922
  25 C :   -0.001987
  26 H :    0.020950
  27 H :    0.006795
  28 C :   -0.095639
  29 H :    0.020745
  30 H :    0.036148
  31 H :    0.042491
  32 H :    0.022289
  33 H :    0.040868
Sum of atomic charges:   -0.0000000

LOEWDIN ATOMIC CHARGES
----------------------
   0 S :    0.435308
   1 C :   -0.196622
   2 C :   -0.062934
   3 C :   -0.052757
   4 C :   -0.208320
   5 H :    0.034001
   6 C :   -0.030169
   7 H :    0.028180
   8 H :    0.034419
   9 C :   -0.045682
  10 H :    0.031945
  11 H :    0.023933
  12 C :   -0.077640
  13 H :    0.027563
  14 H :    0.031383
  15 H :    0.029974
  16 S :    0.418266
  17 C :   -0.186096
  18 C :   -0.082949
  19 C :   -0.054619
  20 C :   -0.215448
  21 H :    0.044137
  22 C :   -0.027384
  23 H :    0.021406
  24 H :    0.034489
  25 C :   -0.033460
  26 H :    0.025966
  27 H :    0.019701
  28 C :   -0.084173
  29 H :    0.029406
  30 H :    0.029703
  31 H :    0.027094
  32 H :    0.011376
  33 H :    0.020002

  Mayer bond orders larger than 0.100000
B(  0-S ,  1-C ) :   1.1723 B(  0-S ,  4-C ) :   1.1636 B(  1-C ,  2-C ) :   1.5816
B(  1-C , 32-H ) :   0.9743 B(  2-C ,  3-C ) :   1.2557 B(  2-C ,  6-C ) :   1.0185
B(  3-C ,  4-C ) :   1.5791 B(  3-C ,  5-H ) :   0.9902 B(  4-C , 20-C ) :   1.0233
B(  6-C ,  7-H ) :   0.9348 B(  6-C ,  8-H ) :   0.9383 B(  6-C ,  9-C ) :   1.0485
B(  9-C , 10-H ) :   0.9535 B(  9-C , 11-H ) :   0.9643 B(  9-C , 12-C ) :   1.0549
B( 12-C , 13-H ) :   0.9739 B( 12-C , 14-H ) :   0.9739 B( 12-C , 15-H ) :   0.9761
B( 16-S , 17-C ) :   1.1734 B( 16-S , 20-C ) :   1.1605 B( 17-C , 18-C ) :   1.5852
B( 17-C , 20-C ) :   0.1112 B( 17-C , 33-H ) :   0.9737 B( 18-C , 19-C ) :   1.2685
B( 18-C , 21-H ) :   0.9756 B( 19-C , 20-C ) :   1.5617 B( 19-C , 22-C ) :   1.0383
B( 22-C , 23-H ) :   0.9325 B( 22-C , 24-H ) :   0.9232 B( 22-C , 25-C ) :   1.0901
B( 25-C , 26-H ) :   0.9482 B( 25-C , 27-H ) :   0.9485 B( 25-C , 28-C ) :   1.0604
B( 28-C , 29-H ) :   0.9715 B( 28-C , 30-H ) :   0.9726 B( 28-C , 31-H ) :   0.9798

Dispersion correction           -0.014686889
FINAL SINGLE POINT ENERGY     -1339.865416712430

DIPOLE MOMENT
-------------
                                X             Y             Z
Electronic contribution:     17.44858       0.15689     -23.57445
Nuclear contribution   :    -17.78677      -0.11246      23.87512
                        -----------------------------------------
Total Dipole Moment    :     -0.33818       0.04442       0.30067
                        -----------------------------------------
Magnitude (a.u.)       :      0.45469
Magnitude (Debye)      :      1.15573

Rotational constants in cm-1:     0.019735     0.008517     0.006673
Rotational constants in MHz :   591.638580   255.320002   200.038361

                             ****ORCA TERMINATED NORMALLY****
TOTAL RUN TIME: 0 days 0 hours 0 minutes 32 seconds 131 msec
