                         Program Version 4.2.1 -  RELEASE  -
|  1> ! wB97X-D3 SP def2-SVP
|  2> %pal
|  3> nprocs 16
|  4> end
|  5>
|  6> * xyz 0 1
|  7> S 	 31.9835 	 1.36028 	 70.1592
|  8> C 	 33.1445 	 2.4889 	 69.7469
|  9> C 	 33.6784 	 3.19189 	 70.8434
| 10> C 	 33.0808 	 2.76845 	 72.0403
| 11> C 	 32.1472 	 1.75721 	 71.8613
| 12> H 	 33.3739 	 3.186 	 72.9892
| 13> C 	 34.8374 	 4.14325 	 70.8346
| 14> H 	 34.8818 	 4.25261 	 69.6605
| 15> H 	 35.7539 	 3.64075 	 71.2281
| 16> C 	 34.6486 	 5.57854 	 71.5349
| 17> H 	 34.4858 	 5.38147 	 72.5996
| 18> H 	 35.4668 	 6.17316 	 71.3928
| 19> C 	 33.4961 	 6.46494 	 70.9554
| 20> H 	 32.5326 	 5.9449 	 70.7193
| 21> H 	 33.279 	 7.38238 	 71.5448
| 22> H 	 33.74 	 6.77315 	 69.9399
| 23> S 	 29.5233 	 1.03824 	 72.5253
| 24> C 	 29.3527 	 0.331408 	 74.1605
| 25> C 	 30.4987 	 0.305394 	 74.9135
| 26> C 	 31.5771 	 0.910199 	 74.2051
| 27> C 	 31.2487 	 1.23209 	 72.8857
| 28> H 	 30.5693 	 -0.0972042 	 75.9217
| 29> C 	 32.9721 	 1.02164 	 74.8317
| 30> H 	 33.5876 	 1.50602 	 74.1369
| 31> H 	 33.3229 	 0.0251174 	 74.7282
| 32> C 	 33.0446 	 1.67144 	 76.2187
| 33> H 	 33.9741 	 1.42385 	 76.6962
| 34> H 	 32.247 	 1.28524 	 76.839
| 35> C 	 32.9498 	 3.13507 	 76.3796
| 36> H 	 32.9577 	 3.36561 	 77.4486
| 37> H 	 32.0491 	 3.63817 	 76.036
| 38> H 	 33.8349 	 3.60564 	 75.9418
| 39> H 	 33.6069 	 2.59844 	 68.7635
| 40> H 	 28.3955 	 -0.1566 	 74.4164
| 41> *
| 42>
| 43>                          ****END OF INPUT****

CARTESIAN COORDINATES (ANGSTROEM)
---------------------------------
  S     31.983500    1.360280   70.159200
  C     33.144500    2.488900   69.746900
  C     33.678400    3.191890   70.843400
  C     33.080800    2.768450   72.040300
  C     32.147200    1.757210   71.861300
  H     33.373900    3.186000   72.989200
  C     34.837400    4.143250   70.834600
  H     34.881800    4.252610   69.660500
  H     35.753900    3.640750   71.228100
  C     34.648600    5.578540   71.534900
  H     34.485800    5.381470   72.599600
  H     35.466800    6.173160   71.392800
  C     33.496100    6.464940   70.955400
  H     32.532600    5.944900   70.719300
  H     33.279000    7.382380   71.544800
  H     33.740000    6.773150   69.939900
  S     29.523300    1.038240   72.525300
  C     29.352700    0.331408   74.160500
  C     30.498700    0.305394   74.913500
  C     31.577100    0.910199   74.205100
  C     31.248700    1.232090   72.885700
  H     30.569300   -0.097204   75.921700
  C     32.972100    1.021640   74.831700
  H     33.587600    1.506020   74.136900
  H     33.322900    0.025117   74.728200
  C     33.044600    1.671440   76.218700
  H     33.974100    1.423850   76.696200
  H     32.247000    1.285240   76.839000
  C     32.949800    3.135070   76.379600
  H     32.957700    3.365610   77.448600
  H     32.049100    3.638170   76.036000
  H     33.834900    3.605640   75.941800
  H     33.606900    2.598440   68.763500
  H     28.395500   -0.156600   74.416400

 Total Charge           Charge          ....    0
 Multiplicity           Mult            ....    1
 Number of Electrons    NEL             ....  134
 Basis Dimension        Dim             ....  322

ORBITAL ENERGIES
----------------

  NO   OCC          E(Eh)            E(eV)
   0   2.0000     -88.971034     -2421.0249
   1   2.0000     -88.966358     -2420.8977
   2   2.0000     -10.326732      -281.0047
   3   2.0000     -10.325161      -280.9619
   4   2.0000     -10.319766      -280.8151
   5   2.0000     -10.310601      -280.5657
   6   2.0000     -10.307430      -280.4794
   7   2.0000     -10.300477      -280.2902
   8   2.0000     -10.296068      -280.1703
   9   2.0000     -10.294857      -280.1373
  10   2.0000     -10.291851      -280.0555
  11   2.0000     -10.287695      -279.9424
  12   2.0000     -10.283639      -279.8320
  13   2.0000     -10.283368      -279.8247
  14   2.0000     -10.281026      -279.7609
  15   2.0000     -10.275119      -279.6002
  16   2.0000      -8.086795      -220.0529
  17   2.0000      -8.080209      -219.8737
  18   2.0000      -6.045122      -164.4961
  19   2.0000      -6.041093      -164.3865
  20   2.0000      -6.038698      -164.3213
  21   2.0000      -6.037768      -164.2960
  22   2.0000      -6.035144      -164.2246
  23   2.0000      -6.030748      -164.1050
  24   2.0000      -1.008731       -27.4490
  25   2.0000      -0.982632       -26.7388
  26   2.0000      -0.913766       -24.8648
  27   2.0000      -0.902511       -24.5586
  28   2.0000      -0.867586       -23.6082
  29   2.0000      -0.857465       -23.3328
  30   2.0000      -0.849914       -23.1273
  31   2.0000      -0.813295       -22.1309
  32   2.0000      -0.784767       -21.3546
  33   2.0000      -0.765838       -20.8395
  34   2.0000      -0.711095       -19.3499
  35   2.0000      -0.699946       -19.0465
  36   2.0000      -0.693427       -18.8691
  37   2.0000      -0.658138       -17.9089
  38   2.0000      -0.636292       -17.3144
  39   2.0000      -0.620393       -16.8817
  40   2.0000      -0.597772       -16.2662
  41   2.0000      -0.559945       -15.2369
  42   2.0000      -0.557455       -15.1691
  43   2.0000      -0.549599       -14.9553
  44   2.0000      -0.546898       -14.8819
  45   2.0000      -0.542907       -14.7732
  46   2.0000      -0.524093       -14.2613
  47   2.0000      -0.506905       -13.7936
  48   2.0000      -0.498698       -13.5703
  49   2.0000      -0.489140       -13.3102
  50   2.0000      -0.486741       -13.2449
  51   2.0000      -0.477990       -13.0068
  52   2.0000      -0.467690       -12.7265
  53   2.0000      -0.465135       -12.6570
  54   2.0000      -0.453555       -12.3419
  55   2.0000      -0.451776       -12.2934
  56   2.0000      -0.444177       -12.0867
  57   2.0000      -0.443600       -12.0710
  58   2.0000      -0.439433       -11.9576
  59   2.0000      -0.427240       -11.6258
  60   2.0000      -0.419157       -11.4058
  61   2.0000      -0.413960       -11.2644
  62   2.0000      -0.410984       -11.1834
  63   2.0000      -0.354149        -9.6369
  64   2.0000      -0.334560        -9.1038
  65   2.0000      -0.328821        -8.9477
  66   2.0000      -0.280148        -7.6232
  67   0.0000       0.028133         0.7656
  68   0.0000       0.073248         1.9932
  69   0.0000       0.105420         2.8686
  70   0.0000       0.118779         3.2321
  71   0.0000       0.127268         3.4631

MULLIKEN ATOMIC CHARGES
-----------------------
   0 S :    0.137946
   1 C :   -0.118755
   2 C :   -0.098227
   3 C :    0.033575
   4 C :   -0.173089
   5 H :    0.007119
   6 C :   -0.007464
   7 H :    0.027212
   8 H :    0.059925
   9 C :   -0.020208
  10 H :    0.035961
  11 H :    0.022230
  12 C :   -0.096926
  13 H :    0.043902
  14 H :    0.047613
  15 H :    0.019789
  16 S :    0.099803
  17 C :   -0.108557
  18 C :   -0.018460
  19 C :   -0.096099
  20 C :   -0.128127
  21 H :    0.029299
  22 C :    0.152685
  23 H :   -0.026258
  24 H :    0.028055
  25 C :   -0.051328
  26 H :    0.022954
  27 H :    0.017180
  28 C :   -0.047163
  29 H :    0.028529
  30 H :    0.037781
  31 H :    0.024417
  32 H :    0.049736
  33 H :    0.064949
Sum of atomic charges:    0.0000000

LOEWDIN ATOMIC CHARGES
----------------------
   0 S :    0.446601
   1 C :   -0.230974
   2 C :   -0.076223
   3 C :   -0.058942
   4 C :   -0.195175
   5 H :    0.027394
   6 C :   -0.038711
   7 H :    0.038788
   8 H :    0.038684
   9 C :   -0.029255
  10 H :    0.023285
  11 H :    0.015367
  12 C :   -0.076863
  13 H :    0.030776
  14 H :    0.031349
  15 H :    0.022262
  16 S :    0.371971
  17 C :   -0.171184
  18 C :   -0.069203
  19 C :   -0.052482
  20 C :   -0.194294
  21 H :    0.036585
  22 C :   -0.026474
  23 H :    0.018426
  24 H :    0.036976
  25 C :   -0.039757
  26 H :    0.027279
  27 H :    0.021688
  28 C :   -0.064246
  29 H :    0.031131
  30 H :    0.025138
  31 H :    0.021319
  32 H :    0.029749
  33 H :    0.029015

  Mayer bond orders larger than 0.100000
B(  0-S ,  1-C ) :   1.1695 B(  0-S ,  4-C ) :   1.1656 B(  1-C ,  2-C ) :   1.5673
B(  1-C , 32-H ) :   0.9555 B(  2-C ,  3-C ) :   1.2986 B(  2-C ,  6-C ) :   1.0090
B(  3-C ,  4-C ) :   1.5229 B(  3-C ,  5-H ) :   0.9869 B(  4-C , 20-C ) :   1.0591
B(  6-C ,  7-H ) :   0.9441 B(  6-C ,  8-H ) :   0.9441 B(  6-C ,  9-C ) :   1.0580
B(  9-C , 10-H ) :   0.9590 B(  9-C , 11-H ) :   0.9592 B(  9-C , 12-C ) :   1.0629
B( 12-C , 13-H ) :   0.9775 B( 12-C , 14-H ) :   0.9762 B( 12-C , 15-H ) :   0.9748
B( 16-S , 17-C ) :   1.1348 B( 16-S , 20-C ) :   1.1255 B( 17-C , 18-C ) :   1.6273
B( 17-C , 33-H ) :   0.9623 B( 18-C , 19-C ) :   1.2276 B( 18-C , 21-H ) :   0.9868
B( 19-C , 20-C ) :   1.6091 B( 19-C , 22-C ) :   1.0264 B( 22-C , 23-H ) :   0.9233
B( 22-C , 24-H ) :   0.9233 B( 22-C , 25-C ) :   1.0582 B( 25-C , 26-H ) :   0.9499
B( 25-C , 27-H ) :   0.9575 B( 25-C , 28-C ) :   1.0982 B( 28-C , 29-H ) :   0.9683
B( 28-C , 30-H ) :   0.9729 B( 28-C , 31-H ) :   0.9699

Dispersion correction           -0.014599052
FINAL SINGLE POINT ENERGY     -1339.867489406661

DIPOLE MOMENT
-------------
                                X             Y             Z
Electronic contribution:    -17.12338     -18.50819     -13.36916
Nuclear contribution   :     17.64092      18.67453      13.80967
                        -----------------------------------------
Total Dipole Moment    :      0.51754       0.16634       0.44052
                        -----------------------------------------
Magnitude (a.u.)       :      0.69969
Magnitude (Debye)      :      1.77847

Rotational constants in cm-1:     0.017199     0.009780     0.007210
Rotational constants in MHz :   515.615473   293.206200   216.164377

                             ****ORCA TERMINATED NORMALLY****
TOTAL RUN TIME: 0 days 0 hours 0 minutes 30 seconds 710 msec
