                         Program Version 4.2.1 -  RELEASE  -
|  1> ! wB97X-D3 SP def2-SVP
|  2> %pal
|  3> nprocs 16
|  4> end
|  5>
|  6> * xyz 0 1
|  7> S 	 39.75 	 11.5839 	 89.2564
|  8> C 	 41.0011 	 11.8144 	 88.0803
|  9> C 	 40.6986 	 11.2474 	 86.878
| 10> C 	 39.4407 	 10.6636 	 86.93
| 11> C 	 38.8559 	 10.5968 	 88.1431
| 12> H 	 38.9224 	 10.1261 	 86.1036
| 13> C 	 41.3469 	 11.2985 	 85.5484
| 14> H 	 40.8314 	 10.8959 	 84.7208
| 15> H 	 42.1542 	 10.5499 	 85.738
| 16> C 	 41.8832 	 12.6311 	 85.1011
| 17> H 	 42.4548 	 12.8917 	 85.9179
| 18> H 	 42.6158 	 12.5346 	 84.2473
| 19> C 	 40.8953 	 13.799 	 84.8702
| 20> H 	 40.4659 	 14.1068 	 85.8422
| 21> H 	 41.4303 	 14.6845 	 84.5249
| 22> H 	 40.1118 	 13.6396 	 84.1512
| 23> S 	 38.5791 	 7.99755 	 88.6764
| 24> C 	 37.0566 	 7.36829 	 89.2538
| 25> C 	 35.9995 	 8.32396 	 89.1988
| 26> C 	 36.4786 	 9.55057 	 88.6746
| 27> C 	 37.841 	 9.60872 	 88.4649
| 28> H 	 35.0747 	 7.92845 	 89.4817
| 29> C 	 35.6803 	 10.8769 	 88.5423
| 30> H 	 36.2826 	 11.6075 	 89.1719
| 31> H 	 34.6987 	 10.8513 	 89.1247
| 32> C 	 35.5592 	 11.5805 	 87.1959
| 33> H 	 36.596 	 11.8532 	 86.8977
| 34> H 	 34.9369 	 12.4653 	 87.2229
| 35> C 	 35.0027 	 10.6528 	 86.0111
| 36> H 	 34.0087 	 10.201 	 86.2484
| 37> H 	 35.6749 	 9.79663 	 85.7863
| 38> H 	 34.9945 	 11.3422 	 85.0943
| 39> H 	 41.9375 	 12.2917 	 88.1504
| 40> H 	 36.8913 	 6.34194 	 89.6148
| 41> *
| 42>
| 43>                          ****END OF INPUT****

CARTESIAN COORDINATES (ANGSTROEM)
---------------------------------
  S     39.750000   11.583900   89.256400
  C     41.001100   11.814400   88.080300
  C     40.698600   11.247400   86.878000
  C     39.440700   10.663600   86.930000
  C     38.855900   10.596800   88.143100
  H     38.922400   10.126100   86.103600
  C     41.346900   11.298500   85.548400
  H     40.831400   10.895900   84.720800
  H     42.154200   10.549900   85.738000
  C     41.883200   12.631100   85.101100
  H     42.454800   12.891700   85.917900
  H     42.615800   12.534600   84.247300
  C     40.895300   13.799000   84.870200
  H     40.465900   14.106800   85.842200
  H     41.430300   14.684500   84.524900
  H     40.111800   13.639600   84.151200
  S     38.579100    7.997550   88.676400
  C     37.056600    7.368290   89.253800
  C     35.999500    8.323960   89.198800
  C     36.478600    9.550570   88.674600
  C     37.841000    9.608720   88.464900
  H     35.074700    7.928450   89.481700
  C     35.680300   10.876900   88.542300
  H     36.282600   11.607500   89.171900
  H     34.698700   10.851300   89.124700
  C     35.559200   11.580500   87.195900
  H     36.596000   11.853200   86.897700
  H     34.936900   12.465300   87.222900
  C     35.002700   10.652800   86.011100
  H     34.008700   10.201000   86.248400
  H     35.674900    9.796630   85.786300
  H     34.994500   11.342200   85.094300
  H     41.937500   12.291700   88.150400
  H     36.891300    6.341940   89.614800

 Total Charge           Charge          ....    0
 Multiplicity           Mult            ....    1
 Number of Electrons    NEL             ....  134
 Basis Dimension        Dim             ....  322

ORBITAL ENERGIES
----------------

  NO   OCC          E(Eh)            E(eV)
   0   2.0000     -88.969195     -2420.9749
   1   2.0000     -88.965496     -2420.8742
   2   2.0000     -10.325235      -280.9639
   3   2.0000     -10.322418      -280.8873
   4   2.0000     -10.321342      -280.8580
   5   2.0000     -10.310780      -280.5706
   6   2.0000     -10.309455      -280.5345
   7   2.0000     -10.299065      -280.2518
   8   2.0000     -10.296611      -280.1850
   9   2.0000     -10.292119      -280.0628
  10   2.0000     -10.288622      -279.9676
  11   2.0000     -10.287059      -279.9251
  12   2.0000     -10.285179      -279.8740
  13   2.0000     -10.283792      -279.8362
  14   2.0000     -10.283598      -279.8309
  15   2.0000     -10.278013      -279.6790
  16   2.0000      -8.084149      -219.9809
  17   2.0000      -8.079753      -219.8613
  18   2.0000      -6.042652      -164.4289
  19   2.0000      -6.038658      -164.3202
  20   2.0000      -6.038114      -164.3054
  21   2.0000      -6.034858      -164.2168
  22   2.0000      -6.034264      -164.2007
  23   2.0000      -6.030750      -164.1051
  24   2.0000      -1.015471       -27.6324
  25   2.0000      -0.985656       -26.8211
  26   2.0000      -0.920381       -25.0449
  27   2.0000      -0.896012       -24.3817
  28   2.0000      -0.870673       -23.6922
  29   2.0000      -0.853770       -23.2323
  30   2.0000      -0.840578       -22.8733
  31   2.0000      -0.811701       -22.0875
  32   2.0000      -0.788109       -21.4455
  33   2.0000      -0.769230       -20.9318
  34   2.0000      -0.715805       -19.4780
  35   2.0000      -0.701827       -19.0977
  36   2.0000      -0.680966       -18.5300
  37   2.0000      -0.663042       -18.0423
  38   2.0000      -0.642645       -17.4873
  39   2.0000      -0.611088       -16.6285
  40   2.0000      -0.591398       -16.0927
  41   2.0000      -0.579883       -15.7794
  42   2.0000      -0.555366       -15.1123
  43   2.0000      -0.552187       -15.0258
  44   2.0000      -0.542672       -14.7669
  45   2.0000      -0.534095       -14.5335
  46   2.0000      -0.519063       -14.1244
  47   2.0000      -0.510796       -13.8995
  48   2.0000      -0.498026       -13.5520
  49   2.0000      -0.486972       -13.2512
  50   2.0000      -0.482445       -13.1280
  51   2.0000      -0.479333       -13.0433
  52   2.0000      -0.475713       -12.9448
  53   2.0000      -0.465304       -12.6616
  54   2.0000      -0.462980       -12.5983
  55   2.0000      -0.446543       -12.1511
  56   2.0000      -0.440549       -11.9880
  57   2.0000      -0.438071       -11.9205
  58   2.0000      -0.431127       -11.7316
  59   2.0000      -0.422417       -11.4946
  60   2.0000      -0.417068       -11.3490
  61   2.0000      -0.407931       -11.1004
  62   2.0000      -0.403613       -10.9829
  63   2.0000      -0.338770        -9.2184
  64   2.0000      -0.330443        -8.9918
  65   2.0000      -0.320861        -8.7311
  66   2.0000      -0.305555        -8.3146
  67   0.0000       0.042182         1.1478
  68   0.0000       0.044867         1.2209
  69   0.0000       0.112880         3.0716
  70   0.0000       0.117284         3.1915
  71   0.0000       0.123675         3.3654

MULLIKEN ATOMIC CHARGES
-----------------------
   0 S :    0.138372
   1 C :   -0.101809
   2 C :   -0.078645
   3 C :    0.000108
   4 C :   -0.156767
   5 H :    0.025303
   6 C :    0.088689
   7 H :    0.012640
   8 H :    0.040857
   9 C :   -0.062922
  10 H :   -0.004856
  11 H :    0.034241
  12 C :   -0.041791
  13 H :    0.037862
  14 H :    0.029984
  15 H :    0.030190
  16 S :    0.120490
  17 C :   -0.118053
  18 C :   -0.035421
  19 C :    0.034680
  20 C :   -0.197801
  21 H :    0.000351
  22 C :    0.005799
  23 H :    0.040737
  24 H :    0.032821
  25 C :   -0.061118
  26 H :    0.039276
  27 H :    0.037436
  28 C :   -0.109612
  29 H :    0.040048
  30 H :    0.045674
  31 H :    0.045822
  32 H :    0.021303
  33 H :    0.066112
Sum of atomic charges:    0.0000000

LOEWDIN ATOMIC CHARGES
----------------------
   0 S :    0.424118
   1 C :   -0.198924
   2 C :   -0.067535
   3 C :   -0.064252
   4 C :   -0.217986
   5 H :    0.037018
   6 C :   -0.031614
   7 H :    0.022831
   8 H :    0.047413
   9 C :   -0.041909
  10 H :    0.010708
  11 H :    0.030414
  12 C :   -0.064186
  13 H :    0.030446
  14 H :    0.029065
  15 H :    0.020302
  16 S :    0.407957
  17 C :   -0.185217
  18 C :   -0.068371
  19 C :   -0.051945
  20 C :   -0.186310
  21 H :    0.025518
  22 C :   -0.045692
  23 H :    0.039479
  24 H :    0.031997
  25 C :   -0.042645
  26 H :    0.028376
  27 H :    0.025907
  28 C :   -0.080568
  29 H :    0.024565
  30 H :    0.025169
  31 H :    0.032759
  32 H :    0.021174
  33 H :    0.031940

  Mayer bond orders larger than 0.100000
B(  0-S ,  1-C ) :   1.1410 B(  0-S ,  4-C ) :   1.1395 B(  1-C ,  2-C ) :   1.6111
B(  1-C , 32-H ) :   0.9649 B(  2-C ,  3-C ) :   1.2549 B(  2-C ,  6-C ) :   0.9967
B(  3-C ,  4-C ) :   1.5718 B(  3-C ,  5-H ) :   0.9939 B(  4-C , 20-C ) :   1.0270
B(  6-C ,  7-H ) :   0.9516 B(  6-C ,  8-H ) :   0.9212 B(  6-C ,  9-C ) :   1.0811
B(  9-C , 10-H ) :   0.9526 B(  9-C , 11-H ) :   0.9531 B(  9-C , 12-C ) :   1.0765
B( 12-C , 13-H ) :   0.9727 B( 12-C , 14-H ) :   0.9724 B( 12-C , 15-H ) :   0.9787
B( 16-S , 17-C ) :   1.1797 B( 16-S , 20-C ) :   1.1337 B( 17-C , 18-C ) :   1.5952
B( 17-C , 20-C ) :   0.1124 B( 17-C , 33-H ) :   0.9626 B( 18-C , 19-C ) :   1.2174
B( 18-C , 21-H ) :   1.0112 B( 19-C , 20-C ) :   1.5966 B( 19-C , 22-C ) :   1.0161
B( 22-C , 23-H ) :   0.9418 B( 22-C , 24-H ) :   0.9467 B( 22-C , 25-C ) :   1.0704
B( 25-C , 26-H ) :   0.9522 B( 25-C , 27-H ) :   0.9560 B( 25-C , 28-C ) :   1.0668
B( 28-C , 29-H ) :   0.9774 B( 28-C , 30-H ) :   0.9743 B( 28-C , 31-H ) :   0.9772

Dispersion correction           -0.015264039
FINAL SINGLE POINT ENERGY     -1339.847315283565

DIPOLE MOMENT
-------------
                                X             Y             Z
Electronic contribution:      4.43236     -13.75595      19.14457
Nuclear contribution   :     -4.42432      13.81654     -19.46613
                        -----------------------------------------
Total Dipole Moment    :      0.00804       0.06059      -0.32156
                        -----------------------------------------
Magnitude (a.u.)       :      0.32732
Magnitude (Debye)      :      0.83197

Rotational constants in cm-1:     0.020517     0.008843     0.007504
Rotational constants in MHz :   615.077111   265.105900   224.962231

                             ****ORCA TERMINATED NORMALLY****
TOTAL RUN TIME: 0 days 0 hours 0 minutes 29 seconds 912 msec
