                         Program Version 4.2.1 -  RELEASE  -
|  1> ! wB97X-D3 SP def2-SVP
|  2> %pal
|  3> nprocs 16
|  4> end
|  5>
|  6> * xyz 0 1
|  7> S 	 -66.6498 	 38.2508 	 135.413
|  8> C 	 -65.0256 	 38.9333 	 135.272
|  9> C 	 -64.1736 	 38.3112 	 136.163
| 10> C 	 -64.797 	 37.3831 	 137.019
| 11> C 	 -66.1297 	 37.1517 	 136.676
| 12> H 	 -64.4425 	 36.8136 	 137.82
| 13> C 	 -62.6377 	 38.5792 	 136.301
| 14> H 	 -62.1478 	 37.5824 	 136.522
| 15> H 	 -62.4246 	 39.131 	 137.163
| 16> C 	 -61.9667 	 39.1425 	 135.074
| 17> H 	 -62.2179 	 38.534 	 134.218
| 18> H 	 -62.2986 	 40.1496 	 134.903
| 19> C 	 -60.3568 	 39.1205 	 135.227
| 20> H 	 -59.9077 	 38.2041 	 135.064
| 21> H 	 -60.0094 	 39.8153 	 134.385
| 22> H 	 -59.9839 	 39.502 	 136.225
| 23> S 	 -68.1664 	 36.7518 	 138.425
| 24> C 	 -68.8031 	 35.1993 	 138.821
| 25> C 	 -68.031 	 34.2008 	 138.246
| 26> C 	 -66.9786 	 34.7163 	 137.397
| 27> C 	 -67.0383 	 36.1643 	 137.292
| 28> H 	 -68.133 	 33.1918 	 138.444
| 29> C 	 -66.0962 	 33.8662 	 136.461
| 30> H 	 -65.2986 	 34.3885 	 136.034
| 31> H 	 -66.7799 	 33.5068 	 135.696
| 32> C 	 -65.6482 	 32.6214 	 137.076
| 33> H 	 -65.2008 	 32.1185 	 136.212
| 34> H 	 -66.5054 	 31.9726 	 137.417
| 35> C 	 -64.6969 	 32.7538 	 138.22
| 36> H 	 -65.0152 	 33.5259 	 138.916
| 37> H 	 -63.7233 	 33.015 	 137.851
| 38> H 	 -64.5034 	 31.8328 	 138.725
| 39> H 	 -64.615 	 39.7085 	 134.59
| 40> H 	 -69.5944 	 35.0195 	 139.561
| 41> *
| 42>
| 43>                          ****END OF INPUT****

CARTESIAN COORDINATES (ANGSTROEM)
---------------------------------
  S    -66.649800   38.250800  135.413000
  C    -65.025600   38.933300  135.272000
  C    -64.173600   38.311200  136.163000
  C    -64.797000   37.383100  137.019000
  C    -66.129700   37.151700  136.676000
  H    -64.442500   36.813600  137.820000
  C    -62.637700   38.579200  136.301000
  H    -62.147800   37.582400  136.522000
  H    -62.424600   39.131000  137.163000
  C    -61.966700   39.142500  135.074000
  H    -62.217900   38.534000  134.218000
  H    -62.298600   40.149600  134.903000
  C    -60.356800   39.120500  135.227000
  H    -59.907700   38.204100  135.064000
  H    -60.009400   39.815300  134.385000
  H    -59.983900   39.502000  136.225000
  S    -68.166400   36.751800  138.425000
  C    -68.803100   35.199300  138.821000
  C    -68.031000   34.200800  138.246000
  C    -66.978600   34.716300  137.397000
  C    -67.038300   36.164300  137.292000
  H    -68.133000   33.191800  138.444000
  C    -66.096200   33.866200  136.461000
  H    -65.298600   34.388500  136.034000
  H    -66.779900   33.506800  135.696000
  C    -65.648200   32.621400  137.076000
  H    -65.200800   32.118500  136.212000
  H    -66.505400   31.972600  137.417000
  C    -64.696900   32.753800  138.220000
  H    -65.015200   33.525900  138.916000
  H    -63.723300   33.015000  137.851000
  H    -64.503400   31.832800  138.725000
  H    -64.615000   39.708500  134.590000
  H    -69.594400   35.019500  139.561000

 Total Charge           Charge          ....    0
 Multiplicity           Mult            ....    1
 Number of Electrons    NEL             ....  134
 Basis Dimension        Dim             ....  322

ORBITAL ENERGIES
----------------

  NO   OCC          E(Eh)            E(eV)
   0   2.0000     -88.967899     -2420.9396
   1   2.0000     -88.964502     -2420.8472
   2   2.0000     -10.330477      -281.1066
   3   2.0000     -10.326062      -280.9864
   4   2.0000     -10.318857      -280.7904
   5   2.0000     -10.317081      -280.7421
   6   2.0000     -10.310030      -280.5502
   7   2.0000     -10.301088      -280.3068
   8   2.0000     -10.292803      -280.0814
   9   2.0000     -10.291857      -280.0557
  10   2.0000     -10.290170      -280.0098
  11   2.0000     -10.289315      -279.9865
  12   2.0000     -10.288686      -279.9694
  13   2.0000     -10.281715      -279.7797
  14   2.0000     -10.280620      -279.7499
  15   2.0000     -10.267117      -279.3825
  16   2.0000      -8.081949      -219.9210
  17   2.0000      -8.080329      -219.8769
  18   2.0000      -6.040460      -164.3693
  19   2.0000      -6.038630      -164.3195
  20   2.0000      -6.036527      -164.2622
  21   2.0000      -6.034440      -164.2055
  22   2.0000      -6.032755      -164.1596
  23   2.0000      -6.031487      -164.1251
  24   2.0000      -1.004897       -27.3446
  25   2.0000      -0.983740       -26.7689
  26   2.0000      -0.924263       -25.1505
  27   2.0000      -0.906937       -24.6790
  28   2.0000      -0.865599       -23.5541
  29   2.0000      -0.846685       -23.0395
  30   2.0000      -0.843836       -22.9619
  31   2.0000      -0.812977       -22.1222
  32   2.0000      -0.786968       -21.4145
  33   2.0000      -0.773256       -21.0414
  34   2.0000      -0.712330       -19.3835
  35   2.0000      -0.699032       -19.0216
  36   2.0000      -0.688713       -18.7408
  37   2.0000      -0.651936       -17.7401
  38   2.0000      -0.641808       -17.4645
  39   2.0000      -0.614596       -16.7240
  40   2.0000      -0.602619       -16.3981
  41   2.0000      -0.571470       -15.5505
  42   2.0000      -0.568983       -15.4828
  43   2.0000      -0.562097       -15.2954
  44   2.0000      -0.544384       -14.8135
  45   2.0000      -0.522509       -14.2182
  46   2.0000      -0.516722       -14.0607
  47   2.0000      -0.508421       -13.8348
  48   2.0000      -0.502432       -13.6719
  49   2.0000      -0.498544       -13.5661
  50   2.0000      -0.488770       -13.3001
  51   2.0000      -0.483217       -13.1490
  52   2.0000      -0.480046       -13.0627
  53   2.0000      -0.466410       -12.6917
  54   2.0000      -0.460569       -12.5327
  55   2.0000      -0.445764       -12.1299
  56   2.0000      -0.445262       -12.1162
  57   2.0000      -0.438562       -11.9339
  58   2.0000      -0.438109       -11.9215
  59   2.0000      -0.426106       -11.5949
  60   2.0000      -0.421122       -11.4593
  61   2.0000      -0.411770       -11.2048
  62   2.0000      -0.405915       -11.0455
  63   2.0000      -0.338653        -9.2152
  64   2.0000      -0.330357        -8.9895
  65   2.0000      -0.321532        -8.7493
  66   2.0000      -0.301332        -8.1996
  67   0.0000       0.037426         1.0184
  68   0.0000       0.060848         1.6558
  69   0.0000       0.115128         3.1328
  70   0.0000       0.122737         3.3398
  71   0.0000       0.132087         3.5943

MULLIKEN ATOMIC CHARGES
-----------------------
   0 S :    0.119357
   1 C :   -0.130177
   2 C :   -0.082688
   3 C :    0.069416
   4 C :   -0.186551
   5 H :   -0.009617
   6 C :    0.068870
   7 H :    0.027181
   8 H :    0.025539
   9 C :   -0.092732
  10 H :    0.036366
  11 H :    0.033796
  12 C :   -0.069355
  13 H :    0.028355
  14 H :    0.042501
  15 H :    0.041295
  16 S :    0.125742
  17 C :   -0.092006
  18 C :   -0.010742
  19 C :   -0.075193
  20 C :   -0.169358
  21 H :   -0.008690
  22 C :    0.138144
  23 H :    0.012462
  24 H :    0.039745
  25 C :   -0.129376
  26 H :    0.024619
  27 H :    0.030840
  28 C :   -0.007385
  29 H :    0.038802
  30 H :    0.009813
  31 H :    0.023664
  32 H :    0.059458
  33 H :    0.067904
Sum of atomic charges:   -0.0000000

LOEWDIN ATOMIC CHARGES
----------------------
   0 S :    0.405139
   1 C :   -0.208298
   2 C :   -0.064105
   3 C :   -0.053798
   4 C :   -0.197782
   5 H :    0.025086
   6 C :   -0.030734
   7 H :    0.035504
   8 H :    0.022383
   9 C :   -0.037973
  10 H :    0.025897
  11 H :    0.018507
  12 C :   -0.064207
  13 H :    0.011514
  14 H :    0.036235
  15 H :    0.029956
  16 S :    0.449924
  17 C :   -0.197427
  18 C :   -0.068436
  19 C :   -0.047884
  20 C :   -0.232616
  21 H :    0.016966
  22 C :   -0.024364
  23 H :    0.022986
  24 H :    0.042805
  25 C :   -0.051783
  26 H :    0.027915
  27 H :    0.024690
  28 C :   -0.064346
  29 H :    0.027022
  30 H :    0.021716
  31 H :    0.023883
  32 H :    0.039917
  33 H :    0.035710

  Mayer bond orders larger than 0.100000
B(  0-S ,  1-C ) :   1.1284 B(  0-S ,  4-C ) :   1.1581 B(  1-C ,  2-C ) :   1.6306
B(  1-C , 32-H ) :   0.9593 B(  2-C ,  3-C ) :   1.2351 B(  2-C ,  6-C ) :   0.9932
B(  3-C ,  4-C ) :   1.5765 B(  3-C ,  5-H ) :   1.0095 B(  4-C , 20-C ) :   1.0027
B(  6-C ,  7-H ) :   0.9498 B(  6-C ,  8-H ) :   0.9358 B(  6-C ,  9-C ) :   1.0770
B(  9-C , 10-H ) :   0.9595 B(  9-C , 11-H ) :   0.9520 B(  9-C , 12-C ) :   1.0703
B( 12-C , 13-H ) :   0.9799 B( 12-C , 14-H ) :   0.9771 B( 12-C , 15-H ) :   0.9776
B( 16-S , 17-C ) :   1.1863 B( 16-S , 20-C ) :   1.1906 B( 17-C , 18-C ) :   1.5509
B( 17-C , 20-C ) :   0.1064 B( 17-C , 33-H ) :   0.9671 B( 18-C , 19-C ) :   1.2858
B( 18-C , 21-H ) :   0.9995 B( 19-C , 20-C ) :   1.5185 B( 19-C , 22-C ) :   1.0359
B( 22-C , 23-H ) :   0.9377 B( 22-C , 24-H ) :   0.9291 B( 22-C , 25-C ) :   1.0835
B( 25-C , 26-H ) :   0.9513 B( 25-C , 27-H ) :   0.9498 B( 25-C , 28-C ) :   1.0836
B( 28-C , 29-H ) :   0.9720 B( 28-C , 30-H ) :   0.9685 B( 28-C , 31-H ) :   0.9711

Dispersion correction           -0.013982347
FINAL SINGLE POINT ENERGY     -1339.864520995661

DIPOLE MOMENT
-------------
                                X             Y             Z
Electronic contribution:    -26.81508       9.49362       2.92513
Nuclear contribution   :     27.40722      -9.89062      -2.86614
                        -----------------------------------------
Total Dipole Moment    :      0.59214      -0.39699       0.05899
                        -----------------------------------------
Magnitude (a.u.)       :      0.71534
Magnitude (Debye)      :      1.81826

Rotational constants in cm-1:     0.020173     0.007700     0.006171
Rotational constants in MHz :   604.767864   230.831131   185.007068

                             ****ORCA TERMINATED NORMALLY****
TOTAL RUN TIME: 0 days 0 hours 0 minutes 33 seconds 921 msec
