                         Program Version 4.2.1 -  RELEASE  -
|  1> ! wB97X-D3 SP def2-SVP
|  2> %pal
|  3> nprocs 16
|  4> end
|  5>
|  6> * xyz 0 1
|  7> S 	 -50.2729 	 63.4795 	 130.293
|  8> C 	 -49.2733 	 63.0312 	 128.91
|  9> C 	 -49.559 	 61.7406 	 128.379
| 10> C 	 -50.6391 	 61.1365 	 129.144
| 11> C 	 -51.0946 	 61.9355 	 130.182
| 12> H 	 -51.0071 	 60.1335 	 129.088
| 13> C 	 -49.0362 	 61.1733 	 127.045
| 14> H 	 -47.9397 	 61.1637 	 127.053
| 15> H 	 -49.3231 	 61.9577 	 126.248
| 16> C 	 -49.468 	 59.7648 	 126.534
| 17> H 	 -49.04 	 59.0592 	 127.284
| 18> H 	 -50.5689 	 59.6587 	 126.721
| 19> C 	 -49.0953 	 59.5066 	 125.067
| 20> H 	 -49.6351 	 60.175 	 124.336
| 21> H 	 -48.0129 	 59.605 	 125.005
| 22> H 	 -49.1845 	 58.4126 	 124.862
| 23> S 	 -51.5927 	 61.8717 	 132.803
| 24> C 	 -53.0109 	 61.1696 	 133.445
| 25> C 	 -53.7367 	 60.5894 	 132.444
| 26> C 	 -53.2793 	 60.81 	 131.084
| 27> C 	 -52.086 	 61.5326 	 131.161
| 28> H 	 -54.5997 	 60.0202 	 132.745
| 29> C 	 -53.9074 	 60.2366 	 129.865
| 30> H 	 -53.9071 	 59.1825 	 130.157
| 31> H 	 -53.2911 	 60.4288 	 128.963
| 32> C 	 -55.3336 	 60.7353 	 129.568
| 33> H 	 -55.8997 	 60.5251 	 130.397
| 34> H 	 -55.6484 	 60.3358 	 128.598
| 35> C 	 -55.3762 	 62.246 	 129.454
| 36> H 	 -55.1828 	 62.7771 	 130.4
| 37> H 	 -56.3652 	 62.5705 	 129.203
| 38> H 	 -54.6405 	 62.4552 	 128.733
| 39> H 	 -48.6912 	 63.728 	 128.368
| 40> H 	 -53.2252 	 61.0682 	 134.492
| 41> *
| 42>
| 43>                          ****END OF INPUT****

CARTESIAN COORDINATES (ANGSTROEM)
---------------------------------
  S    -50.272900   63.479500  130.293000
  C    -49.273300   63.031200  128.910000
  C    -49.559000   61.740600  128.379000
  C    -50.639100   61.136500  129.144000
  C    -51.094600   61.935500  130.182000
  H    -51.007100   60.133500  129.088000
  C    -49.036200   61.173300  127.045000
  H    -47.939700   61.163700  127.053000
  H    -49.323100   61.957700  126.248000
  C    -49.468000   59.764800  126.534000
  H    -49.040000   59.059200  127.284000
  H    -50.568900   59.658700  126.721000
  C    -49.095300   59.506600  125.067000
  H    -49.635100   60.175000  124.336000
  H    -48.012900   59.605000  125.005000
  H    -49.184500   58.412600  124.862000
  S    -51.592700   61.871700  132.803000
  C    -53.010900   61.169600  133.445000
  C    -53.736700   60.589400  132.444000
  C    -53.279300   60.810000  131.084000
  C    -52.086000   61.532600  131.161000
  H    -54.599700   60.020200  132.745000
  C    -53.907400   60.236600  129.865000
  H    -53.907100   59.182500  130.157000
  H    -53.291100   60.428800  128.963000
  C    -55.333600   60.735300  129.568000
  H    -55.899700   60.525100  130.397000
  H    -55.648400   60.335800  128.598000
  C    -55.376200   62.246000  129.454000
  H    -55.182800   62.777100  130.400000
  H    -56.365200   62.570500  129.203000
  H    -54.640500   62.455200  128.733000
  H    -48.691200   63.728000  128.368000
  H    -53.225200   61.068200  134.492000

 Total Charge           Charge          ....    0
 Multiplicity           Mult            ....    1
 Number of Electrons    NEL             ....  134
 Basis Dimension        Dim             ....  322

ORBITAL ENERGIES
----------------

  NO   OCC          E(Eh)            E(eV)
   0   2.0000     -88.970877     -2421.0206
   1   2.0000     -88.959984     -2420.7242
   2   2.0000     -10.327660      -281.0299
   3   2.0000     -10.323370      -280.9132
   4   2.0000     -10.313919      -280.6560
   5   2.0000     -10.312458      -280.6162
   6   2.0000     -10.309981      -280.5488
   7   2.0000     -10.305330      -280.4223
   8   2.0000     -10.303421      -280.3703
   9   2.0000     -10.298154      -280.2270
  10   2.0000     -10.293786      -280.1081
  11   2.0000     -10.292412      -280.0708
  12   2.0000     -10.292267      -280.0668
  13   2.0000     -10.291420      -280.0438
  14   2.0000     -10.277432      -279.6631
  15   2.0000     -10.263873      -279.2942
  16   2.0000      -8.084931      -220.0021
  17   2.0000      -8.075947      -219.7577
  18   2.0000      -6.043381      -164.4488
  19   2.0000      -6.039628      -164.3466
  20   2.0000      -6.035700      -164.2397
  21   2.0000      -6.034402      -164.2044
  22   2.0000      -6.030248      -164.0914
  23   2.0000      -6.026721      -163.9954
  24   2.0000      -1.007511       -27.4158
  25   2.0000      -0.979123       -26.6433
  26   2.0000      -0.918433       -24.9918
  27   2.0000      -0.905558       -24.6415
  28   2.0000      -0.868911       -23.6443
  29   2.0000      -0.854437       -23.2504
  30   2.0000      -0.844288       -22.9742
  31   2.0000      -0.811935       -22.0939
  32   2.0000      -0.782837       -21.3021
  33   2.0000      -0.771049       -20.9813
  34   2.0000      -0.709510       -19.3068
  35   2.0000      -0.695939       -18.9375
  36   2.0000      -0.689181       -18.7536
  37   2.0000      -0.656112       -17.8537
  38   2.0000      -0.638942       -17.3865
  39   2.0000      -0.619792       -16.8654
  40   2.0000      -0.603268       -16.4158
  41   2.0000      -0.566810       -15.4237
  42   2.0000      -0.561662       -15.2836
  43   2.0000      -0.558244       -15.1906
  44   2.0000      -0.549704       -14.9582
  45   2.0000      -0.523710       -14.2509
  46   2.0000      -0.512543       -13.9470
  47   2.0000      -0.506689       -13.7877
  48   2.0000      -0.502811       -13.6822
  49   2.0000      -0.497145       -13.5280
  50   2.0000      -0.489077       -13.3085
  51   2.0000      -0.478267       -13.0143
  52   2.0000      -0.475027       -12.9261
  53   2.0000      -0.468309       -12.7433
  54   2.0000      -0.458291       -12.4707
  55   2.0000      -0.451210       -12.2781
  56   2.0000      -0.442052       -12.0289
  57   2.0000      -0.433227       -11.7887
  58   2.0000      -0.430862       -11.7243
  59   2.0000      -0.427462       -11.6318
  60   2.0000      -0.423110       -11.5134
  61   2.0000      -0.417464       -11.3598
  62   2.0000      -0.411571       -11.1994
  63   2.0000      -0.350553        -9.5390
  64   2.0000      -0.329775        -8.9736
  65   2.0000      -0.326313        -8.8794
  66   2.0000      -0.284594        -7.7442
  67   0.0000       0.029719         0.8087
  68   0.0000       0.073113         1.9895
  69   0.0000       0.108277         2.9464
  70   0.0000       0.111181         3.0254
  71   0.0000       0.139310         3.7908

MULLIKEN ATOMIC CHARGES
-----------------------
   0 S :    0.124320
   1 C :   -0.107884
   2 C :   -0.061626
   3 C :   -0.002046
   4 C :   -0.137187
   5 H :    0.018509
   6 C :   -0.007940
   7 H :    0.037325
   8 H :    0.049658
   9 C :   -0.109880
  10 H :    0.039815
  11 H :    0.035433
  12 C :   -0.041485
  13 H :    0.060460
  14 H :    0.027669
  15 H :    0.041070
  16 S :    0.098133
  17 C :   -0.075284
  18 C :   -0.058267
  19 C :   -0.037431
  20 C :   -0.171096
  21 H :    0.011420
  22 C :    0.046692
  23 H :    0.043101
  24 H :    0.029765
  25 C :   -0.029927
  26 H :    0.006326
  27 H :    0.035627
  28 C :   -0.037854
  29 H :    0.042121
  30 H :    0.024173
  31 H :    0.019560
  32 H :    0.034236
  33 H :    0.052493
Sum of atomic charges:    0.0000000

LOEWDIN ATOMIC CHARGES
----------------------
   0 S :    0.406633
   1 C :   -0.195543
   2 C :   -0.052992
   3 C :   -0.069216
   4 C :   -0.193950
   5 H :    0.027579
   6 C :   -0.045869
   7 H :    0.030846
   8 H :    0.041138
   9 C :   -0.053467
  10 H :    0.029106
  11 H :    0.022828
  12 C :   -0.069677
  13 H :    0.037464
  14 H :    0.026237
  15 H :    0.035774
  16 S :    0.415943
  17 C :   -0.198182
  18 C :   -0.074476
  19 C :   -0.055996
  20 C :   -0.195950
  21 H :    0.026037
  22 C :   -0.035915
  23 H :    0.039731
  24 H :    0.032230
  25 C :   -0.028580
  26 H :    0.009932
  27 H :    0.028746
  28 C :   -0.056610
  29 H :    0.030130
  30 H :    0.021627
  31 H :    0.018112
  32 H :    0.016946
  33 H :    0.029384

  Mayer bond orders larger than 0.100000
B(  0-S ,  1-C ) :   1.1346 B(  0-S ,  4-C ) :   1.1506 B(  1-C ,  2-C ) :   1.6148
B(  1-C , 32-H ) :   0.9736 B(  2-C ,  3-C ) :   1.2357 B(  2-C ,  6-C ) :   1.0044
B(  3-C ,  4-C ) :   1.5789 B(  3-C ,  5-H ) :   0.9839 B(  4-C , 20-C ) :   1.0397
B(  6-C ,  7-H ) :   0.9397 B(  6-C ,  8-H ) :   0.9459 B(  6-C ,  9-C ) :   1.0667
B(  9-C , 10-H ) :   0.9543 B(  9-C , 11-H ) :   0.9505 B(  9-C , 12-C ) :   1.0778
B( 12-C , 13-H ) :   0.9728 B( 12-C , 14-H ) :   0.9727 B( 12-C , 15-H ) :   0.9699
B( 16-S , 17-C ) :   1.1452 B( 16-S , 20-C ) :   1.1582 B( 17-C , 18-C ) :   1.6238
B( 17-C , 33-H ) :   0.9708 B( 18-C , 19-C ) :   1.2115 B( 18-C , 21-H ) :   0.9894
B( 19-C , 20-C ) :   1.5824 B( 19-C , 22-C ) :   1.0327 B( 22-C , 23-H ) :   0.9305
B( 22-C , 24-H ) :   0.9326 B( 22-C , 25-C ) :   1.0782 B( 25-C , 26-H ) :   0.9537
B( 25-C , 27-H ) :   0.9573 B( 25-C , 28-C ) :   1.0851 B( 28-C , 29-H ) :   0.9681
B( 28-C , 30-H ) :   0.9722 B( 28-C , 31-H ) :   0.9791

Dispersion correction           -0.014196092
FINAL SINGLE POINT ENERGY     -1339.873969228770

DIPOLE MOMENT
-------------
                                X             Y             Z
Electronic contribution:      7.10134      12.25465      23.85748
Nuclear contribution   :     -7.30758     -12.74407     -24.33404
                        -----------------------------------------
Total Dipole Moment    :     -0.20624      -0.48942      -0.47656
                        -----------------------------------------
Magnitude (a.u.)       :      0.71356
Magnitude (Debye)      :      1.81373

Rotational constants in cm-1:     0.018382     0.008524     0.006850
Rotational constants in MHz :   551.082624   255.557135   205.366103

                             ****ORCA TERMINATED NORMALLY****
TOTAL RUN TIME: 0 days 0 hours 0 minutes 32 seconds 896 msec
