                         Program Version 4.2.1 -  RELEASE  -
|  1> ! wB97X-D3 SP def2-SVP
|  2> %pal
|  3> nprocs 16
|  4> end
|  5>
|  6> * xyz 0 1
|  7> S 	 64.3438 	 -6.19801 	 88.3017
|  8> C 	 63.1623 	 -4.93438 	 88.7049
|  9> C 	 63.3016 	 -3.87365 	 87.878
| 10> C 	 64.4689 	 -3.94084 	 87.1234
| 11> C 	 65.2227 	 -5.13619 	 87.2018
| 12> H 	 64.8192 	 -3.12796 	 86.5436
| 13> C 	 62.4683 	 -2.63707 	 87.8997
| 14> H 	 62.985 	 -1.82502 	 87.4113
| 15> H 	 62.4596 	 -2.36971 	 88.9457
| 16> C 	 61.1426 	 -2.84642 	 87.1429
| 17> H 	 61.3288 	 -3.08717 	 86.089
| 18> H 	 60.6768 	 -3.68832 	 87.6323
| 19> C 	 60.2404 	 -1.65778 	 87.332
| 20> H 	 59.7656 	 -1.60915 	 88.2759
| 21> H 	 60.7947 	 -0.717102 	 87.1843
| 22> H 	 59.428 	 -1.79701 	 86.5963
| 23> S 	 67.8648 	 -5.75832 	 87.6808
| 24> C 	 68.9055 	 -6.0246 	 86.2981
| 25> C 	 68.408 	 -5.36601 	 85.2014
| 26> C 	 67.0801 	 -4.90379 	 85.3769
| 27> C 	 66.5533 	 -5.31224 	 86.5901
| 28> H 	 68.9874 	 -5.23341 	 84.3253
| 29> C 	 66.3744 	 -4.11265 	 84.3011
| 30> H 	 65.3458 	 -4.47985 	 84.3599
| 31> H 	 66.7692 	 -4.52006 	 83.3491
| 32> C 	 66.381 	 -2.59958 	 84.3324
| 33> H 	 65.758 	 -2.20681 	 85.1026
| 34> H 	 65.7881 	 -2.19839 	 83.5071
| 35> C 	 67.747 	 -1.91788 	 84.3629
| 36> H 	 67.7545 	 -0.802692 	 84.347
| 37> H 	 68.4709 	 -2.30988 	 83.5758
| 38> H 	 68.1277 	 -2.1556 	 85.3714
| 39> H 	 62.4772 	 -5.11439 	 89.5367
| 40> H 	 69.8969 	 -6.41658 	 86.5634
| 41> *
| 42>
| 43>                          ****END OF INPUT****

CARTESIAN COORDINATES (ANGSTROEM)
---------------------------------
  S     64.343800   -6.198010   88.301700
  C     63.162300   -4.934380   88.704900
  C     63.301600   -3.873650   87.878000
  C     64.468900   -3.940840   87.123400
  C     65.222700   -5.136190   87.201800
  H     64.819200   -3.127960   86.543600
  C     62.468300   -2.637070   87.899700
  H     62.985000   -1.825020   87.411300
  H     62.459600   -2.369710   88.945700
  C     61.142600   -2.846420   87.142900
  H     61.328800   -3.087170   86.089000
  H     60.676800   -3.688320   87.632300
  C     60.240400   -1.657780   87.332000
  H     59.765600   -1.609150   88.275900
  H     60.794700   -0.717102   87.184300
  H     59.428000   -1.797010   86.596300
  S     67.864800   -5.758320   87.680800
  C     68.905500   -6.024600   86.298100
  C     68.408000   -5.366010   85.201400
  C     67.080100   -4.903790   85.376900
  C     66.553300   -5.312240   86.590100
  H     68.987400   -5.233410   84.325300
  C     66.374400   -4.112650   84.301100
  H     65.345800   -4.479850   84.359900
  H     66.769200   -4.520060   83.349100
  C     66.381000   -2.599580   84.332400
  H     65.758000   -2.206810   85.102600
  H     65.788100   -2.198390   83.507100
  C     67.747000   -1.917880   84.362900
  H     67.754500   -0.802692   84.347000
  H     68.470900   -2.309880   83.575800
  H     68.127700   -2.155600   85.371400
  H     62.477200   -5.114390   89.536700
  H     69.896900   -6.416580   86.563400

 Total Charge           Charge          ....    0
 Multiplicity           Mult            ....    1
 Number of Electrons    NEL             ....  134
 Basis Dimension        Dim             ....  322

ORBITAL ENERGIES
----------------

  NO   OCC          E(Eh)            E(eV)
   0   2.0000     -88.965309     -2420.8691
   1   2.0000     -88.958239     -2420.6767
   2   2.0000     -10.331853      -281.1440
   3   2.0000     -10.327434      -281.0238
   4   2.0000     -10.316998      -280.7398
   5   2.0000     -10.315150      -280.6895
   6   2.0000     -10.301200      -280.3099
   7   2.0000     -10.293591      -280.1029
   8   2.0000     -10.292355      -280.0692
   9   2.0000     -10.291037      -280.0334
  10   2.0000     -10.287375      -279.9337
  11   2.0000     -10.287263      -279.9306
  12   2.0000     -10.286792      -279.9178
  13   2.0000     -10.286502      -279.9099
  14   2.0000     -10.285595      -279.8853
  15   2.0000     -10.275925      -279.6221
  16   2.0000      -8.079292      -219.8487
  17   2.0000      -8.073583      -219.6934
  18   2.0000      -6.037821      -164.2975
  19   2.0000      -6.033812      -164.1884
  20   2.0000      -6.032006      -164.1392
  21   2.0000      -6.030151      -164.0887
  22   2.0000      -6.028360      -164.0400
  23   2.0000      -6.024030      -163.9222
  24   2.0000      -1.005560       -27.3627
  25   2.0000      -0.987373       -26.8678
  26   2.0000      -0.917577       -24.9685
  27   2.0000      -0.911919       -24.8146
  28   2.0000      -0.869534       -23.6612
  29   2.0000      -0.851908       -23.1816
  30   2.0000      -0.848270       -23.0826
  31   2.0000      -0.810868       -22.0648
  32   2.0000      -0.783964       -21.3327
  33   2.0000      -0.773991       -21.0614
  34   2.0000      -0.710034       -19.3210
  35   2.0000      -0.703026       -19.1303
  36   2.0000      -0.693265       -18.8647
  37   2.0000      -0.666467       -18.1355
  38   2.0000      -0.642714       -17.4891
  39   2.0000      -0.615669       -16.7532
  40   2.0000      -0.591814       -16.1041
  41   2.0000      -0.578890       -15.7524
  42   2.0000      -0.562114       -15.2959
  43   2.0000      -0.554628       -15.0922
  44   2.0000      -0.551605       -15.0099
  45   2.0000      -0.533061       -14.5053
  46   2.0000      -0.522979       -14.2310
  47   2.0000      -0.512282       -13.9399
  48   2.0000      -0.499016       -13.5789
  49   2.0000      -0.495155       -13.4739
  50   2.0000      -0.490576       -13.3493
  51   2.0000      -0.485934       -13.2229
  52   2.0000      -0.471091       -12.8190
  53   2.0000      -0.465669       -12.6715
  54   2.0000      -0.461303       -12.5527
  55   2.0000      -0.448776       -12.2118
  56   2.0000      -0.444609       -12.0984
  57   2.0000      -0.438478       -11.9316
  58   2.0000      -0.430613       -11.7176
  59   2.0000      -0.427766       -11.6401
  60   2.0000      -0.418652       -11.3921
  61   2.0000      -0.415117       -11.2959
  62   2.0000      -0.407453       -11.0874
  63   2.0000      -0.341304        -9.2874
  64   2.0000      -0.333137        -9.0651
  65   2.0000      -0.324303        -8.8247
  66   2.0000      -0.289742        -7.8843
  67   0.0000       0.017853         0.4858
  68   0.0000       0.073946         2.0122
  69   0.0000       0.102403         2.7865
  70   0.0000       0.121317         3.3012
  71   0.0000       0.133598         3.6354

MULLIKEN ATOMIC CHARGES
-----------------------
   0 S :    0.105303
   1 C :   -0.166538
   2 C :   -0.037478
   3 C :    0.046836
   4 C :   -0.133567
   5 H :   -0.057122
   6 C :    0.066725
   7 H :    0.006224
   8 H :    0.031694
   9 C :   -0.076698
  10 H :    0.038441
  11 H :    0.023480
  12 C :   -0.011349
  13 H :    0.023939
  14 H :    0.027854
  15 H :    0.033323
  16 S :    0.087102
  17 C :   -0.097463
  18 C :   -0.010448
  19 C :   -0.048119
  20 C :   -0.157021
  21 H :    0.004856
  22 C :    0.069493
  23 H :    0.031145
  24 H :    0.023544
  25 C :   -0.020964
  26 H :    0.011220
  27 H :    0.019753
  28 C :   -0.090345
  29 H :    0.042349
  30 H :    0.044826
  31 H :    0.042873
  32 H :    0.059067
  33 H :    0.067064
Sum of atomic charges:   -0.0000000

LOEWDIN ATOMIC CHARGES
----------------------
   0 S :    0.393480
   1 C :   -0.182669
   2 C :   -0.071022
   3 C :   -0.057364
   4 C :   -0.198694
   5 H :    0.016823
   6 C :   -0.028918
   7 H :    0.023257
   8 H :    0.033019
   9 C :   -0.034849
  10 H :    0.029533
  11 H :    0.022872
  12 C :   -0.062754
  13 H :    0.020255
  14 H :    0.024949
  15 H :    0.030369
  16 S :    0.392205
  17 C :   -0.177570
  18 C :   -0.067106
  19 C :   -0.058796
  20 C :   -0.186746
  21 H :    0.026298
  22 C :   -0.032849
  23 H :    0.038007
  24 H :    0.033257
  25 C :   -0.045030
  26 H :    0.017642
  27 H :    0.027279
  28 C :   -0.075442
  29 H :    0.030907
  30 H :    0.030749
  31 H :    0.029719
  32 H :    0.030475
  33 H :    0.028711

  Mayer bond orders larger than 0.100000
B(  0-S ,  1-C ) :   1.1455 B(  0-S ,  4-C ) :   1.1542 B(  1-C ,  2-C ) :   1.5616
B(  1-C , 32-H ) :   0.9730 B(  2-C ,  3-C ) :   1.2936 B(  2-C ,  6-C ) :   1.0136
B(  3-C ,  4-C ) :   1.5166 B(  3-C ,  5-H ) :   0.9981 B(  4-C , 20-C ) :   1.0599
B(  6-C ,  7-H ) :   0.9365 B(  6-C ,  8-H ) :   0.9452 B(  6-C ,  9-C ) :   1.0543
B(  9-C , 10-H ) :   0.9553 B(  9-C , 11-H ) :   0.9586 B(  9-C , 12-C ) :   1.0873
B( 12-C , 13-H ) :   0.9748 B( 12-C , 14-H ) :   0.9713 B( 12-C , 15-H ) :   0.9729
B( 16-S , 17-C ) :   1.1535 B( 16-S , 20-C ) :   1.1512 B( 17-C , 18-C ) :   1.5724
B( 17-C , 20-C ) :   0.1040 B( 17-C , 33-H ) :   0.9714 B( 18-C , 19-C ) :   1.2411
B( 18-C , 21-H ) :   1.0034 B( 19-C , 20-C ) :   1.5790 B( 19-C , 22-C ) :   1.0338
B( 22-C , 23-H ) :   0.9240 B( 22-C , 24-H ) :   0.9364 B( 22-C , 25-C ) :   1.0809
B( 25-C , 26-H ) :   0.9442 B( 25-C , 27-H ) :   0.9419 B( 25-C , 28-C ) :   1.0705
B( 28-C , 29-H ) :   0.9730 B( 28-C , 30-H ) :   0.9759 B( 28-C , 31-H ) :   0.9730

Dispersion correction           -0.014625453
FINAL SINGLE POINT ENERGY     -1339.866137785947

DIPOLE MOMENT
-------------
                                X             Y             Z
Electronic contribution:     13.06133     -23.31737      12.47048
Nuclear contribution   :    -13.28048      24.00848     -12.70991
                        -----------------------------------------
Total Dipole Moment    :     -0.21916       0.69111      -0.23943
                        -----------------------------------------
Magnitude (a.u.)       :      0.76354
Magnitude (Debye)      :      1.94076

Rotational constants in cm-1:     0.019972     0.008618     0.006421
Rotational constants in MHz :   598.755584   258.363892   192.489905

                             ****ORCA TERMINATED NORMALLY****
TOTAL RUN TIME: 0 days 0 hours 0 minutes 30 seconds 907 msec
