                         Program Version 4.2.1 -  RELEASE  -
|  1> ! wB97X-D3 SP def2-SVP
|  2> %pal
|  3> nprocs 16
|  4> end
|  5>
|  6> * xyz 0 1
|  7> S 	 -111.908 	 53.1001 	 111.859
|  8> C 	 -111.001 	 53.9016 	 110.601
|  9> C 	 -109.671 	 53.9623 	 110.945
| 10> C 	 -109.363 	 53.43 	 112.172
| 11> C 	 -110.468 	 52.9693 	 112.823
| 12> H 	 -108.404 	 53.3888 	 112.584
| 13> C 	 -108.546 	 54.4192 	 109.982
| 14> H 	 -108.924 	 54.1548 	 108.949
| 15> H 	 -107.598 	 53.8737 	 110.019
| 16> C 	 -108.247 	 55.9123 	 110.141
| 17> H 	 -107.676 	 56.1257 	 109.349
| 18> H 	 -109.215 	 56.3533 	 110.095
| 19> C 	 -107.547 	 56.2564 	 111.415
| 20> H 	 -108.194 	 55.8955 	 112.291
| 21> H 	 -106.487 	 55.8573 	 111.494
| 22> H 	 -107.545 	 57.3236 	 111.426
| 23> S 	 -110.142 	 53.399 	 115.507
| 24> C 	 -109.933 	 52.0138 	 116.533
| 25> C 	 -110.016 	 50.8177 	 115.823
| 26> C 	 -110.19 	 51.0421 	 114.436
| 27> C 	 -110.426 	 52.407 	 114.151
| 28> H 	 -109.696 	 49.8781 	 116.319
| 29> C 	 -110.109 	 49.937 	 113.44
| 30> H 	 -109.155 	 49.4364 	 113.615
| 31> H 	 -110.048 	 50.3789 	 112.428
| 32> C 	 -111.333 	 48.9654 	 113.52
| 33> H 	 -111.441 	 48.5917 	 114.58
| 34> H 	 -111.101 	 48.1426 	 112.931
| 35> C 	 -112.641 	 49.493 	 113.084
| 36> H 	 -112.768 	 49.3726 	 112.009
| 37> H 	 -112.772 	 50.553 	 113.129
| 38> H 	 -113.587 	 48.9094 	 113.358
| 39> H 	 -111.361 	 54.113 	 109.619
| 40> H 	 -109.843 	 52.0216 	 117.622
| 41> *
| 42>
| 43>                          ****END OF INPUT****

CARTESIAN COORDINATES (ANGSTROEM)
---------------------------------
  S    -111.908000   53.100100  111.859000
  C    -111.001000   53.901600  110.601000
  C    -109.671000   53.962300  110.945000
  C    -109.363000   53.430000  112.172000
  C    -110.468000   52.969300  112.823000
  H    -108.404000   53.388800  112.584000
  C    -108.546000   54.419200  109.982000
  H    -108.924000   54.154800  108.949000
  H    -107.598000   53.873700  110.019000
  C    -108.247000   55.912300  110.141000
  H    -107.676000   56.125700  109.349000
  H    -109.215000   56.353300  110.095000
  C    -107.547000   56.256400  111.415000
  H    -108.194000   55.895500  112.291000
  H    -106.487000   55.857300  111.494000
  H    -107.545000   57.323600  111.426000
  S    -110.142000   53.399000  115.507000
  C    -109.933000   52.013800  116.533000
  C    -110.016000   50.817700  115.823000
  C    -110.190000   51.042100  114.436000
  C    -110.426000   52.407000  114.151000
  H    -109.696000   49.878100  116.319000
  C    -110.109000   49.937000  113.440000
  H    -109.155000   49.436400  113.615000
  H    -110.048000   50.378900  112.428000
  C    -111.333000   48.965400  113.520000
  H    -111.441000   48.591700  114.580000
  H    -111.101000   48.142600  112.931000
  C    -112.641000   49.493000  113.084000
  H    -112.768000   49.372600  112.009000
  H    -112.772000   50.553000  113.129000
  H    -113.587000   48.909400  113.358000
  H    -111.361000   54.113000  109.619000
  H    -109.843000   52.021600  117.622000

 Total Charge           Charge          ....    0
 Multiplicity           Mult            ....    1
 Number of Electrons    NEL             ....  134
 Basis Dimension        Dim             ....  322

ORBITAL ENERGIES
----------------

  NO   OCC          E(Eh)            E(eV)
   0   2.0000     -88.969661     -2420.9876
   1   2.0000     -88.968469     -2420.9551
   2   2.0000     -10.321409      -280.8598
   3   2.0000     -10.317210      -280.7456
   4   2.0000     -10.316352      -280.7222
   5   2.0000     -10.309740      -280.5423
   6   2.0000     -10.298778      -280.2440
   7   2.0000     -10.293218      -280.0927
   8   2.0000     -10.293115      -280.0899
   9   2.0000     -10.291191      -280.0375
  10   2.0000     -10.290236      -280.0116
  11   2.0000     -10.281040      -279.7613
  12   2.0000     -10.280834      -279.7557
  13   2.0000     -10.280231      -279.7393
  14   2.0000     -10.269247      -279.4404
  15   2.0000     -10.268126      -279.4099
  16   2.0000      -8.084040      -219.9779
  17   2.0000      -8.083801      -219.9714
  18   2.0000      -6.042416      -164.4225
  19   2.0000      -6.042172      -164.4159
  20   2.0000      -6.038548      -164.3173
  21   2.0000      -6.038144      -164.3062
  22   2.0000      -6.035022      -164.2213
  23   2.0000      -6.034766      -164.2143
  24   2.0000      -1.014037       -27.5934
  25   2.0000      -0.990232       -26.9456
  26   2.0000      -0.915643       -24.9159
  27   2.0000      -0.910091       -24.7648
  28   2.0000      -0.871239       -23.7076
  29   2.0000      -0.853601       -23.2277
  30   2.0000      -0.852250       -23.1909
  31   2.0000      -0.813152       -22.1270
  32   2.0000      -0.783319       -21.3152
  33   2.0000      -0.767739       -20.8912
  34   2.0000      -0.706043       -19.2124
  35   2.0000      -0.695654       -18.9297
  36   2.0000      -0.694063       -18.8864
  37   2.0000      -0.654944       -17.8219
  38   2.0000      -0.647185       -17.6108
  39   2.0000      -0.619259       -16.8509
  40   2.0000      -0.597077       -16.2473
  41   2.0000      -0.580061       -15.7842
  42   2.0000      -0.554078       -15.0772
  43   2.0000      -0.549851       -14.9622
  44   2.0000      -0.542903       -14.7732
  45   2.0000      -0.536696       -14.6042
  46   2.0000      -0.516478       -14.0541
  47   2.0000      -0.514603       -14.0031
  48   2.0000      -0.498873       -13.5750
  49   2.0000      -0.495795       -13.4913
  50   2.0000      -0.488634       -13.2964
  51   2.0000      -0.480140       -13.0653
  52   2.0000      -0.471184       -12.8216
  53   2.0000      -0.467503       -12.7214
  54   2.0000      -0.458421       -12.4743
  55   2.0000      -0.446603       -12.1527
  56   2.0000      -0.443650       -12.0723
  57   2.0000      -0.441854       -12.0235
  58   2.0000      -0.428304       -11.6547
  59   2.0000      -0.426605       -11.6085
  60   2.0000      -0.418731       -11.3943
  61   2.0000      -0.410224       -11.1628
  62   2.0000      -0.401602       -10.9282
  63   2.0000      -0.341126        -9.2825
  64   2.0000      -0.332301        -9.0424
  65   2.0000      -0.320390        -8.7183
  66   2.0000      -0.303733        -8.2650
  67   0.0000       0.043971         1.1965
  68   0.0000       0.056082         1.5261
  69   0.0000       0.106629         2.9015
  70   0.0000       0.119445         3.2503
  71   0.0000       0.135056         3.6751

MULLIKEN ATOMIC CHARGES
-----------------------
   0 S :    0.119962
   1 C :   -0.109953
   2 C :   -0.075669
   3 C :    0.061840
   4 C :   -0.188825
   5 H :   -0.007741
   6 C :    0.006597
   7 H :    0.022468
   8 H :    0.022710
   9 C :    0.015843
  10 H :   -0.000339
  11 H :    0.017330
  12 C :   -0.076309
  13 H :    0.048325
  14 H :    0.041914
  15 H :    0.033041
  16 S :    0.135273
  17 C :   -0.111570
  18 C :   -0.036198
  19 C :   -0.057377
  20 C :   -0.162553
  21 H :    0.035755
  22 C :    0.071834
  23 H :    0.031237
  24 H :    0.031641
  25 C :   -0.032106
  26 H :    0.033090
  27 H :    0.013901
  28 C :   -0.045206
  29 H :    0.005572
  30 H :    0.018272
  31 H :    0.040689
  32 H :    0.035537
  33 H :    0.061016
Sum of atomic charges:    0.0000000

LOEWDIN ATOMIC CHARGES
----------------------
   0 S :    0.426551
   1 C :   -0.200233
   2 C :   -0.063773
   3 C :   -0.056953
   4 C :   -0.198632
   5 H :    0.025885
   6 C :   -0.029624
   7 H :    0.029874
   8 H :    0.024896
   9 C :   -0.031820
  10 H :    0.006818
  11 H :    0.023741
  12 C :   -0.068622
  13 H :    0.035913
  14 H :    0.030933
  15 H :    0.024014
  16 S :    0.442798
  17 C :   -0.195452
  18 C :   -0.077372
  19 C :   -0.051449
  20 C :   -0.232732
  21 H :    0.038760
  22 C :   -0.029248
  23 H :    0.035132
  24 H :    0.032089
  25 C :   -0.037400
  26 H :    0.028403
  27 H :    0.015945
  28 C :   -0.080273
  29 H :    0.024487
  30 H :    0.013278
  31 H :    0.039431
  32 H :    0.023011
  33 H :    0.031624

  Mayer bond orders larger than 0.100000
B(  0-S ,  1-C ) :   1.1446 B(  0-S ,  4-C ) :   1.1689 B(  1-C ,  2-C ) :   1.5988
B(  1-C ,  4-C ) :   0.1012 B(  1-C , 32-H ) :   0.9691 B(  2-C ,  3-C ) :   1.2681
B(  2-C ,  6-C ) :   1.0037 B(  3-C ,  4-C ) :   1.5481 B(  3-C ,  5-H ) :   1.0140
B(  4-C , 20-C ) :   1.0138 B(  6-C ,  7-H ) :   0.9459 B(  6-C ,  8-H ) :   0.9520
B(  6-C ,  9-C ) :   1.0683 B(  9-C , 10-H ) :   0.9490 B(  9-C , 11-H ) :   0.9494
B(  9-C , 12-C ) :   1.0927 B( 12-C , 13-H ) :   0.9673 B( 12-C , 14-H ) :   0.9715
B( 12-C , 15-H ) :   0.9711 B( 16-S , 17-C ) :   1.1777 B( 16-S , 20-C ) :   1.1635
B( 17-C , 18-C ) :   1.5882 B( 17-C , 20-C ) :   0.1018 B( 17-C , 33-H ) :   0.9631
B( 18-C , 19-C ) :   1.2797 B( 18-C , 21-H ) :   0.9789 B( 19-C , 20-C ) :   1.5470
B( 19-C , 22-C ) :   1.0513 B( 22-C , 23-H ) :   0.9297 B( 22-C , 24-H ) :   0.9294
B( 22-C , 25-C ) :   1.0702 B( 25-C , 26-H ) :   0.9591 B( 25-C , 27-H ) :   0.9549
B( 25-C , 28-C ) :   1.0723 B( 28-C , 29-H ) :   0.9660 B( 28-C , 30-H ) :   0.9750
B( 28-C , 31-H ) :   0.9686

Dispersion correction           -0.015647150
FINAL SINGLE POINT ENERGY     -1339.865188778422

DIPOLE MOMENT
-------------
                                X             Y             Z
Electronic contribution:     -7.21013       3.98847      10.91802
Nuclear contribution   :      7.70815      -4.24718     -11.21889
                        -----------------------------------------
Total Dipole Moment    :      0.49802      -0.25871      -0.30087
                        -----------------------------------------
Magnitude (a.u.)       :      0.63677
Magnitude (Debye)      :      1.61854

Rotational constants in cm-1:     0.020939     0.009183     0.007461
Rotational constants in MHz :   627.743058   275.293987   223.689413

                             ****ORCA TERMINATED NORMALLY****
TOTAL RUN TIME: 0 days 0 hours 0 minutes 32 seconds 915 msec
