                         Program Version 4.2.1 -  RELEASE  -
|  1> ! wB97X-D3 SP def2-SVP
|  2> %pal
|  3> nprocs 16
|  4> end
|  5>
|  6> * xyz 0 1
|  7> S 	 33.7232 	 -1.2189 	 67.1214
|  8> C 	 34.3508 	 0.390138 	 66.8679
|  9> C 	 33.5463 	 1.27662 	 67.5487
| 10> C 	 32.2563 	 0.75736 	 67.9057
| 11> C 	 32.2102 	 -0.599036 	 67.6463
| 12> H 	 31.4452 	 1.17546 	 68.4715
| 13> C 	 33.9065 	 2.70035 	 67.845
| 14> H 	 34.9391 	 2.75826 	 67.8715
| 15> H 	 33.5055 	 2.96494 	 68.7761
| 16> C 	 33.3247 	 3.68727 	 66.8331
| 17> H 	 32.3508 	 3.2146 	 66.4883
| 18> H 	 33.1688 	 4.63528 	 67.2635
| 19> C 	 34.2138 	 4.00174 	 65.6663
| 20> H 	 34.6401 	 3.08856 	 65.2331
| 21> H 	 33.6027 	 4.4234 	 64.8439
| 22> H 	 35.0978 	 4.54497 	 65.9015
| 23> S 	 31.1647 	 -3.02283 	 68.3496
| 24> C 	 29.4319 	 -3.42372 	 68.1669
| 25> C 	 28.7448 	 -2.29505 	 67.7401
| 26> C 	 29.6388 	 -1.16368 	 67.5297
| 27> C 	 30.9825 	 -1.36088 	 67.8214
| 28> H 	 27.7564 	 -2.28239 	 67.5642
| 29> C 	 28.9986 	 0.0405209 	 66.8562
| 30> H 	 28.6582 	 -0.246687 	 65.803
| 31> H 	 29.7635 	 0.788452 	 66.8604
| 32> C 	 27.6955 	 0.598561 	 67.4643
| 33> H 	 27.8742 	 0.726396 	 68.5822
| 34> H 	 26.817 	 -0.0381308 	 67.3097
| 35> C 	 27.5357 	 2.06614 	 66.962
| 36> H 	 28.342 	 2.75174 	 67.2658
| 37> H 	 26.6567 	 2.36936 	 67.3991
| 38> H 	 27.2906 	 2.07803 	 65.8758
| 39> H 	 35.3543 	 0.630218 	 66.465
| 40> H 	 28.9803 	 -4.34367 	 68.4857
| 41> *
| 42>
| 43>                          ****END OF INPUT****

CARTESIAN COORDINATES (ANGSTROEM)
---------------------------------
  S     33.723200   -1.218900   67.121400
  C     34.350800    0.390138   66.867900
  C     33.546300    1.276620   67.548700
  C     32.256300    0.757360   67.905700
  C     32.210200   -0.599036   67.646300
  H     31.445200    1.175460   68.471500
  C     33.906500    2.700350   67.845000
  H     34.939100    2.758260   67.871500
  H     33.505500    2.964940   68.776100
  C     33.324700    3.687270   66.833100
  H     32.350800    3.214600   66.488300
  H     33.168800    4.635280   67.263500
  C     34.213800    4.001740   65.666300
  H     34.640100    3.088560   65.233100
  H     33.602700    4.423400   64.843900
  H     35.097800    4.544970   65.901500
  S     31.164700   -3.022830   68.349600
  C     29.431900   -3.423720   68.166900
  C     28.744800   -2.295050   67.740100
  C     29.638800   -1.163680   67.529700
  C     30.982500   -1.360880   67.821400
  H     27.756400   -2.282390   67.564200
  C     28.998600    0.040521   66.856200
  H     28.658200   -0.246687   65.803000
  H     29.763500    0.788452   66.860400
  C     27.695500    0.598561   67.464300
  H     27.874200    0.726396   68.582200
  H     26.817000   -0.038131   67.309700
  C     27.535700    2.066140   66.962000
  H     28.342000    2.751740   67.265800
  H     26.656700    2.369360   67.399100
  H     27.290600    2.078030   65.875800
  H     35.354300    0.630218   66.465000
  H     28.980300   -4.343670   68.485700

 Total Charge           Charge          ....    0
 Multiplicity           Mult            ....    1
 Number of Electrons    NEL             ....  134
 Basis Dimension        Dim             ....  322

ORBITAL ENERGIES
----------------

  NO   OCC          E(Eh)            E(eV)
   0   2.0000     -88.968173     -2420.9471
   1   2.0000     -88.960404     -2420.7357
   2   2.0000     -10.330506      -281.1074
   3   2.0000     -10.330128      -281.0971
   4   2.0000     -10.322793      -280.8975
   5   2.0000     -10.316052      -280.7141
   6   2.0000     -10.304494      -280.3995
   7   2.0000     -10.301626      -280.3215
   8   2.0000     -10.294986      -280.1408
   9   2.0000     -10.292658      -280.0775
  10   2.0000     -10.290549      -280.0201
  11   2.0000     -10.290414      -280.0164
  12   2.0000     -10.282127      -279.7909
  13   2.0000     -10.277950      -279.6772
  14   2.0000     -10.277701      -279.6705
  15   2.0000     -10.272974      -279.5418
  16   2.0000      -8.083502      -219.9633
  17   2.0000      -8.074921      -219.7298
  18   2.0000      -6.042071      -164.4131
  19   2.0000      -6.038081      -164.3045
  20   2.0000      -6.033986      -164.1931
  21   2.0000      -6.033674      -164.1846
  22   2.0000      -6.029349      -164.0669
  23   2.0000      -6.025554      -163.9637
  24   2.0000      -1.011313       -27.5192
  25   2.0000      -0.983050       -26.7501
  26   2.0000      -0.920107       -25.0374
  27   2.0000      -0.905806       -24.6482
  28   2.0000      -0.873743       -23.7758
  29   2.0000      -0.854073       -23.2405
  30   2.0000      -0.844186       -22.9715
  31   2.0000      -0.819186       -22.2912
  32   2.0000      -0.784154       -21.3379
  33   2.0000      -0.769953       -20.9515
  34   2.0000      -0.708656       -19.2835
  35   2.0000      -0.696309       -18.9475
  36   2.0000      -0.695378       -18.9222
  37   2.0000      -0.665507       -18.1094
  38   2.0000      -0.645489       -17.5646
  39   2.0000      -0.621283       -16.9060
  40   2.0000      -0.593521       -16.1505
  41   2.0000      -0.578782       -15.7494
  42   2.0000      -0.572085       -15.5672
  43   2.0000      -0.553275       -15.0554
  44   2.0000      -0.545903       -14.8548
  45   2.0000      -0.531008       -14.4495
  46   2.0000      -0.525883       -14.3100
  47   2.0000      -0.511861       -13.9284
  48   2.0000      -0.508180       -13.8283
  49   2.0000      -0.503192       -13.6925
  50   2.0000      -0.490894       -13.3579
  51   2.0000      -0.484653       -13.1881
  52   2.0000      -0.474703       -12.9173
  53   2.0000      -0.468370       -12.7450
  54   2.0000      -0.456153       -12.4125
  55   2.0000      -0.446802       -12.1581
  56   2.0000      -0.443379       -12.0650
  57   2.0000      -0.435130       -11.8405
  58   2.0000      -0.431097       -11.7308
  59   2.0000      -0.429266       -11.6809
  60   2.0000      -0.417016       -11.3476
  61   2.0000      -0.413404       -11.2493
  62   2.0000      -0.402939       -10.9645
  63   2.0000      -0.357446        -9.7266
  64   2.0000      -0.330774        -9.0008
  65   2.0000      -0.323087        -8.7916
  66   2.0000      -0.287828        -7.8322
  67   0.0000       0.023796         0.6475
  68   0.0000       0.072463         1.9718
  69   0.0000       0.098831         2.6893
  70   0.0000       0.117187         3.1888
  71   0.0000       0.127912         3.4807

MULLIKEN ATOMIC CHARGES
-----------------------
   0 S :    0.126744
   1 C :   -0.137314
   2 C :   -0.109924
   3 C :   -0.007751
   4 C :   -0.103405
   5 H :    0.023732
   6 C :    0.153528
   7 H :   -0.005671
   8 H :    0.006573
   9 C :   -0.068331
  10 H :    0.037743
  11 H :    0.018548
  12 C :   -0.043527
  13 H :    0.006633
  14 H :    0.041175
  15 H :    0.026043
  16 S :    0.065231
  17 C :   -0.073589
  18 C :    0.023819
  19 C :   -0.059167
  20 C :   -0.135764
  21 H :   -0.027039
  22 C :    0.064473
  23 H :    0.048431
  24 H :   -0.001439
  25 C :   -0.144098
  26 H :    0.036626
  27 H :    0.044062
  28 C :   -0.017058
  29 H :    0.047649
  30 H :    0.007839
  31 H :    0.033305
  32 H :    0.063224
  33 H :    0.058701
Sum of atomic charges:   -0.0000000

LOEWDIN ATOMIC CHARGES
----------------------
   0 S :    0.420787
   1 C :   -0.209600
   2 C :   -0.053143
   3 C :   -0.068956
   4 C :   -0.194433
   5 H :    0.033484
   6 C :   -0.020691
   7 H :    0.017536
   8 H :    0.027309
   9 C :   -0.037048
  10 H :    0.032230
  11 H :    0.016859
  12 C :   -0.068006
  13 H :    0.019893
  14 H :    0.033644
  15 H :    0.019693
  16 S :    0.376866
  17 C :   -0.160684
  18 C :   -0.051718
  19 C :   -0.059196
  20 C :   -0.192713
  21 H :    0.009887
  22 C :   -0.036885
  23 H :    0.041681
  24 H :    0.018429
  25 C :   -0.044387
  26 H :    0.028548
  27 H :    0.022633
  28 C :   -0.060135
  29 H :    0.030992
  30 H :    0.013341
  31 H :    0.029159
  32 H :    0.036509
  33 H :    0.028117

  Mayer bond orders larger than 0.100000
B(  0-S ,  1-C ) :   1.1211 B(  0-S ,  4-C ) :   1.1616 B(  1-C ,  2-C ) :   1.6075
B(  1-C , 32-H ) :   0.9654 B(  2-C ,  3-C ) :   1.2145 B(  2-C ,  6-C ) :   1.0486
B(  3-C ,  4-C ) :   1.5556 B(  3-C ,  5-H ) :   0.9970 B(  4-C , 20-C ) :   1.0614
B(  6-C ,  7-H ) :   0.9351 B(  6-C ,  8-H ) :   0.9282 B(  6-C ,  9-C ) :   1.0619
B(  9-C , 10-H ) :   0.9571 B(  9-C , 11-H ) :   0.9551 B(  9-C , 12-C ) :   1.0898
B( 12-C , 13-H ) :   0.9701 B( 12-C , 14-H ) :   0.9708 B( 12-C , 15-H ) :   0.9736
B( 16-S , 17-C ) :   1.1456 B( 16-S , 20-C ) :   1.1110 B( 17-C , 18-C ) :   1.6036
B( 17-C , 33-H ) :   0.9708 B( 18-C , 19-C ) :   1.2250 B( 18-C , 21-H ) :   1.0100
B( 19-C , 20-C ) :   1.6037 B( 19-C , 22-C ) :   1.0487 B( 22-C , 23-H ) :   0.9312
B( 22-C , 24-H ) :   0.9395 B( 22-C , 25-C ) :   1.0540 B( 25-C , 26-H ) :   0.9588
B( 25-C , 27-H ) :   0.9523 B( 25-C , 28-C ) :   1.0875 B( 28-C , 29-H ) :   0.9744
B( 28-C , 30-H ) :   0.9713 B( 28-C , 31-H ) :   0.9711

Dispersion correction           -0.013911334
FINAL SINGLE POINT ENERGY     -1339.852561709210

DIPOLE MOMENT
-------------
                                X             Y             Z
Electronic contribution:      9.74631     -28.70752       6.74261
Nuclear contribution   :    -10.12454      29.32328      -6.72912
                        -----------------------------------------
Total Dipole Moment    :     -0.37822       0.61576       0.01348
                        -----------------------------------------
Magnitude (a.u.)       :      0.72277
Magnitude (Debye)      :      1.83714

Rotational constants in cm-1:     0.017365     0.009358     0.006384
Rotational constants in MHz :   520.576983   280.539932   191.402337

                             ****ORCA TERMINATED NORMALLY****
TOTAL RUN TIME: 0 days 0 hours 0 minutes 30 seconds 343 msec
