                         Program Version 4.2.1 -  RELEASE  -
|  1> ! wB97X-D3 SP def2-SVP
|  2> %pal
|  3> nprocs 16
|  4> end
|  5>
|  6> * xyz 0 1
|  7> S 	 -2.27497 	 -13.763 	 79.5531
|  8> C 	 -3.75199 	 -14.5857 	 79.9402
|  9> C 	 -4.57937 	 -14.0297 	 80.8537
| 10> C 	 -3.8789 	 -12.9275 	 81.4572
| 11> C 	 -2.59832 	 -12.64 	 80.8589
| 12> H 	 -4.21968 	 -12.3502 	 82.3343
| 13> C 	 -6.05963 	 -14.4688 	 81.2072
| 14> H 	 -6.30444 	 -15.4486 	 80.7931
| 15> H 	 -6.80082 	 -13.8523 	 80.7328
| 16> C 	 -6.37662 	 -14.5203 	 82.7066
| 17> H 	 -5.72982 	 -15.1444 	 83.332
| 18> H 	 -6.32927 	 -13.4837 	 83.0117
| 19> C 	 -7.84487 	 -14.9885 	 82.8752
| 20> H 	 -8.07299 	 -14.9937 	 83.9468
| 21> H 	 -8.55278 	 -14.3279 	 82.4422
| 22> H 	 -7.98775 	 -15.9883 	 82.5636
| 23> S 	 -0.189892 	 -12.4725 	 82.1191
| 24> C 	 0.451562 	 -10.915 	 82.6556
| 25> C 	 -0.452197 	 -9.89359 	 82.4638
| 26> C 	 -1.54266 	 -10.3434 	 81.6536
| 27> C 	 -1.58389 	 -11.6929 	 81.3536
| 28> H 	 -0.371166 	 -8.91663 	 82.8616
| 29> C 	 -2.53424 	 -9.27033 	 81.2541
| 30> H 	 -2.46564 	 -9.21709 	 80.2026
| 31> H 	 -2.13799 	 -8.3133 	 81.6239
| 32> C 	 -3.92679 	 -9.45229 	 81.7975
| 33> H 	 -4.45879 	 -10.3096 	 81.3489
| 34> H 	 -4.56776 	 -8.60185 	 81.3932
| 35> C 	 -4.07176 	 -9.57323 	 83.2632
| 36> H 	 -3.61683 	 -10.4701 	 83.6529
| 37> H 	 -5.10205 	 -9.53582 	 83.6569
| 38> H 	 -3.57957 	 -8.68317 	 83.74
| 39> H 	 -4.18106 	 -15.391 	 79.4369
| 40> H 	 1.41393 	 -10.703 	 83.1538
| 41> *
| 42>
| 43>                          ****END OF INPUT****

CARTESIAN COORDINATES (ANGSTROEM)
---------------------------------
  S     -2.274970  -13.763000   79.553100
  C     -3.751990  -14.585700   79.940200
  C     -4.579370  -14.029700   80.853700
  C     -3.878900  -12.927500   81.457200
  C     -2.598320  -12.640000   80.858900
  H     -4.219680  -12.350200   82.334300
  C     -6.059630  -14.468800   81.207200
  H     -6.304440  -15.448600   80.793100
  H     -6.800820  -13.852300   80.732800
  C     -6.376620  -14.520300   82.706600
  H     -5.729820  -15.144400   83.332000
  H     -6.329270  -13.483700   83.011700
  C     -7.844870  -14.988500   82.875200
  H     -8.072990  -14.993700   83.946800
  H     -8.552780  -14.327900   82.442200
  H     -7.987750  -15.988300   82.563600
  S     -0.189892  -12.472500   82.119100
  C      0.451562  -10.915000   82.655600
  C     -0.452197   -9.893590   82.463800
  C     -1.542660  -10.343400   81.653600
  C     -1.583890  -11.692900   81.353600
  H     -0.371166   -8.916630   82.861600
  C     -2.534240   -9.270330   81.254100
  H     -2.465640   -9.217090   80.202600
  H     -2.137990   -8.313300   81.623900
  C     -3.926790   -9.452290   81.797500
  H     -4.458790  -10.309600   81.348900
  H     -4.567760   -8.601850   81.393200
  C     -4.071760   -9.573230   83.263200
  H     -3.616830  -10.470100   83.652900
  H     -5.102050   -9.535820   83.656900
  H     -3.579570   -8.683170   83.740000
  H     -4.181060  -15.391000   79.436900
  H      1.413930  -10.703000   83.153800

 Total Charge           Charge          ....    0
 Multiplicity           Mult            ....    1
 Number of Electrons    NEL             ....  134
 Basis Dimension        Dim             ....  322

ORBITAL ENERGIES
----------------

  NO   OCC          E(Eh)            E(eV)
   0   2.0000     -88.972502     -2421.0649
   1   2.0000     -88.962197     -2420.7845
   2   2.0000     -10.335386      -281.2402
   3   2.0000     -10.326187      -280.9898
   4   2.0000     -10.319749      -280.8146
   5   2.0000     -10.305260      -280.4204
   6   2.0000     -10.303619      -280.3757
   7   2.0000     -10.303141      -280.3627
   8   2.0000     -10.300065      -280.2790
   9   2.0000     -10.299789      -280.2715
  10   2.0000     -10.289826      -280.0004
  11   2.0000     -10.289053      -279.9794
  12   2.0000     -10.284174      -279.8466
  13   2.0000     -10.282306      -279.7958
  14   2.0000     -10.276271      -279.6316
  15   2.0000     -10.275412      -279.6082
  16   2.0000      -8.087015      -220.0589
  17   2.0000      -8.076428      -219.7708
  18   2.0000      -6.045411      -164.5040
  19   2.0000      -6.041656      -164.4018
  20   2.0000      -6.037811      -164.2972
  21   2.0000      -6.035060      -164.2223
  22   2.0000      -6.030999      -164.1118
  23   2.0000      -6.027067      -164.0048
  24   2.0000      -1.002466       -27.2785
  25   2.0000      -0.982325       -26.7304
  26   2.0000      -0.913455       -24.8564
  27   2.0000      -0.911222       -24.7956
  28   2.0000      -0.870489       -23.6872
  29   2.0000      -0.847964       -23.0743
  30   2.0000      -0.845494       -23.0070
  31   2.0000      -0.810530       -22.0556
  32   2.0000      -0.785897       -21.3854
  33   2.0000      -0.775045       -21.0901
  34   2.0000      -0.711330       -19.3563
  35   2.0000      -0.698768       -19.0145
  36   2.0000      -0.684142       -18.6164
  37   2.0000      -0.664280       -18.0760
  38   2.0000      -0.639691       -17.4069
  39   2.0000      -0.615523       -16.7492
  40   2.0000      -0.587350       -15.9826
  41   2.0000      -0.577778       -15.7221
  42   2.0000      -0.568563       -15.4714
  43   2.0000      -0.561539       -15.2803
  44   2.0000      -0.545114       -14.8333
  45   2.0000      -0.523530       -14.2460
  46   2.0000      -0.509872       -13.8743
  47   2.0000      -0.505452       -13.7540
  48   2.0000      -0.504391       -13.7252
  49   2.0000      -0.492295       -13.3960
  50   2.0000      -0.486913       -13.2496
  51   2.0000      -0.481257       -13.0957
  52   2.0000      -0.469830       -12.7847
  53   2.0000      -0.467133       -12.7113
  54   2.0000      -0.462835       -12.5944
  55   2.0000      -0.452789       -12.3210
  56   2.0000      -0.446456       -12.1487
  57   2.0000      -0.442212       -12.0332
  58   2.0000      -0.434312       -11.8182
  59   2.0000      -0.429620       -11.6906
  60   2.0000      -0.420929       -11.4541
  61   2.0000      -0.412293       -11.2191
  62   2.0000      -0.402086       -10.9413
  63   2.0000      -0.338961        -9.2236
  64   2.0000      -0.332930        -9.0595
  65   2.0000      -0.323950        -8.8151
  66   2.0000      -0.298027        -8.1097
  67   0.0000       0.032008         0.8710
  68   0.0000       0.062389         1.6977
  69   0.0000       0.111825         3.0429
  70   0.0000       0.114903         3.1267
  71   0.0000       0.133835         3.6418

MULLIKEN ATOMIC CHARGES
-----------------------
   0 S :    0.139519
   1 C :   -0.077453
   2 C :   -0.074876
   3 C :    0.035838
   4 C :   -0.194833
   5 H :    0.016546
   6 C :    0.080733
   7 H :    0.007810
   8 H :    0.032200
   9 C :   -0.102655
  10 H :    0.045068
  11 H :    0.032422
  12 C :   -0.029700
  13 H :    0.027655
  14 H :    0.024658
  15 H :    0.025514
  16 S :    0.098529
  17 C :   -0.088155
  18 C :   -0.025276
  19 C :   -0.094219
  20 C :   -0.139587
  21 H :    0.011045
  22 C :    0.136913
  23 H :    0.029895
  24 H :    0.003748
  25 C :   -0.092949
  26 H :    0.026092
  27 H :    0.026335
  28 C :   -0.056416
  29 H :    0.046003
  30 H :    0.035403
  31 H :    0.021275
  32 H :    0.008621
  33 H :    0.064300
Sum of atomic charges:    0.0000000

LOEWDIN ATOMIC CHARGES
----------------------
   0 S :    0.421844
   1 C :   -0.190122
   2 C :   -0.064438
   3 C :   -0.051491
   4 C :   -0.209429
   5 H :    0.031082
   6 C :   -0.024189
   7 H :    0.025261
   8 H :    0.031356
   9 C :   -0.036166
  10 H :    0.028212
  11 H :    0.021955
  12 C :   -0.057941
  13 H :    0.029189
  14 H :    0.020198
  15 H :    0.018937
  16 S :    0.393834
  17 C :   -0.177579
  18 C :   -0.071961
  19 C :   -0.052696
  20 C :   -0.205355
  21 H :    0.026757
  22 C :   -0.023127
  23 H :    0.032288
  24 H :    0.027595
  25 C :   -0.055384
  26 H :    0.022604
  27 H :    0.029449
  28 C :   -0.070950
  29 H :    0.021590
  30 H :    0.030497
  31 H :    0.027067
  32 H :    0.014690
  33 H :    0.036422

  Mayer bond orders larger than 0.100000
B(  0-S ,  1-C ) :   1.1449 B(  0-S ,  4-C ) :   1.1544 B(  1-C ,  2-C ) :   1.6597
B(  1-C , 32-H ) :   0.9558 B(  2-C ,  3-C ) :   1.2449 B(  2-C ,  6-C ) :   0.9967
B(  3-C ,  4-C ) :   1.5621 B(  3-C ,  5-H ) :   0.9782 B(  4-C , 20-C ) :   1.0263
B(  6-C ,  7-H ) :   0.9457 B(  6-C ,  8-H ) :   0.9423 B(  6-C ,  9-C ) :   1.0593
B(  9-C , 10-H ) :   0.9625 B(  9-C , 11-H ) :   0.9511 B(  9-C , 12-C ) :   1.0917
B( 12-C , 13-H ) :   0.9726 B( 12-C , 14-H ) :   0.9735 B( 12-C , 15-H ) :   0.9758
B( 16-S , 17-C ) :   1.1617 B( 16-S , 20-C ) :   1.1195 B( 17-C , 18-C ) :   1.6021
B( 17-C , 33-H ) :   0.9607 B( 18-C , 19-C ) :   1.2496 B( 18-C , 21-H ) :   0.9945
B( 19-C , 20-C ) :   1.6193 B( 19-C , 22-C ) :   1.0207 B( 22-C , 23-H ) :   0.9294
B( 22-C , 24-H ) :   0.9348 B( 22-C , 25-C ) :   1.0793 B( 25-C , 26-H ) :   0.9469
B( 25-C , 27-H ) :   0.9479 B( 25-C , 28-C ) :   1.0825 B( 28-C , 29-H ) :   0.9639
B( 28-C , 30-H ) :   0.9716 B( 28-C , 31-H ) :   0.9695

Dispersion correction           -0.014945717
FINAL SINGLE POINT ENERGY     -1339.867634230745

DIPOLE MOMENT
-------------
                                X             Y             Z
Electronic contribution:     26.91921      -5.92566     -11.43571
Nuclear contribution   :    -27.56949       6.16609      11.71634
                        -----------------------------------------
Total Dipole Moment    :     -0.65028       0.24042       0.28063
                        -----------------------------------------
Magnitude (a.u.)       :      0.74795
Magnitude (Debye)      :      1.90113

Rotational constants in cm-1:     0.019096     0.008790     0.007088
Rotational constants in MHz :   572.493089   263.510541   212.500200

                             ****ORCA TERMINATED NORMALLY****
TOTAL RUN TIME: 0 days 0 hours 0 minutes 35 seconds 351 msec
