                         Program Version 4.2.1 -  RELEASE  -
|  1> ! wB97X-D3 SP def2-SVP
|  2> %pal
|  3> nprocs 16
|  4> end
|  5>
|  6> * xyz 0 1
|  7> S 	 -93.9637 	 43.0065 	 114.316
|  8> C 	 -93.3902 	 44.4269 	 115.146
|  9> C 	 -94.4473 	 45.2078 	 115.509
| 10> C 	 -95.689 	 44.479 	 115.479
| 11> C 	 -95.5507 	 43.2647 	 114.896
| 12> H 	 -96.6621 	 44.8103 	 115.766
| 13> C 	 -94.3737 	 46.6455 	 116.143
| 14> H 	 -95.2697 	 47.1386 	 115.674
| 15> H 	 -93.4983 	 47.0527 	 115.687
| 16> C 	 -94.3063 	 46.7096 	 117.702
| 17> H 	 -95.259 	 46.2502 	 118.015
| 18> H 	 -93.5358 	 46.046 	 118.063
| 19> C 	 -94.1965 	 48.1446 	 118.368
| 20> H 	 -95.2343 	 48.5321 	 118.32
| 21> H 	 -93.9475 	 48.0518 	 119.44
| 22> H 	 -93.6593 	 48.9307 	 117.887
| 23> S 	 -96.5773 	 41.4675 	 113.005
| 24> C 	 -97.9376 	 40.4517 	 113.365
| 25> C 	 -98.2979 	 40.754 	 114.68
| 26> C 	 -97.6443 	 41.8564 	 115.382
| 27> C 	 -96.5573 	 42.2552 	 114.638
| 28> H 	 -99.1117 	 40.1631 	 115.072
| 29> C 	 -97.9869 	 42.2706 	 116.782
| 30> H 	 -97.7598 	 43.3825 	 116.882
| 31> H 	 -97.2458 	 41.6893 	 117.33
| 32> C 	 -99.4148 	 41.8894 	 117.395
| 33> H 	 -99.405 	 40.7757 	 117.481
| 34> H 	 -100.075 	 42.1654 	 116.627
| 35> C 	 -99.6305 	 42.3031 	 118.862
| 36> H 	 -98.6546 	 42.2676 	 119.341
| 37> H 	 -100.28 	 41.6137 	 119.434
| 38> H 	 -100.119 	 43.2679 	 118.878
| 39> H 	 -92.3472 	 44.6869 	 115.284
| 40> H 	 -98.3557 	 39.6815 	 112.757
| 41> *
| 42>
| 43>                          ****END OF INPUT****

CARTESIAN COORDINATES (ANGSTROEM)
---------------------------------
  S    -93.963700   43.006500  114.316000
  C    -93.390200   44.426900  115.146000
  C    -94.447300   45.207800  115.509000
  C    -95.689000   44.479000  115.479000
  C    -95.550700   43.264700  114.896000
  H    -96.662100   44.810300  115.766000
  C    -94.373700   46.645500  116.143000
  H    -95.269700   47.138600  115.674000
  H    -93.498300   47.052700  115.687000
  C    -94.306300   46.709600  117.702000
  H    -95.259000   46.250200  118.015000
  H    -93.535800   46.046000  118.063000
  C    -94.196500   48.144600  118.368000
  H    -95.234300   48.532100  118.320000
  H    -93.947500   48.051800  119.440000
  H    -93.659300   48.930700  117.887000
  S    -96.577300   41.467500  113.005000
  C    -97.937600   40.451700  113.365000
  C    -98.297900   40.754000  114.680000
  C    -97.644300   41.856400  115.382000
  C    -96.557300   42.255200  114.638000
  H    -99.111700   40.163100  115.072000
  C    -97.986900   42.270600  116.782000
  H    -97.759800   43.382500  116.882000
  H    -97.245800   41.689300  117.330000
  C    -99.414800   41.889400  117.395000
  H    -99.405000   40.775700  117.481000
  H    -100.075000   42.165400  116.627000
  C    -99.630500   42.303100  118.862000
  H    -98.654600   42.267600  119.341000
  H    -100.280000   41.613700  119.434000
  H    -100.119000   43.267900  118.878000
  H    -92.347200   44.686900  115.284000
  H    -98.355700   39.681500  112.757000

 Total Charge           Charge          ....    0
 Multiplicity           Mult            ....    1
 Number of Electrons    NEL             ....  134
 Basis Dimension        Dim             ....  322

ORBITAL ENERGIES
----------------

  NO   OCC          E(Eh)            E(eV)
   0   2.0000     -88.962306     -2420.7874
   1   2.0000     -88.961202     -2420.7574
   2   2.0000     -10.328474      -281.0521
   3   2.0000     -10.322400      -280.8868
   4   2.0000     -10.316650      -280.7303
   5   2.0000     -10.311073      -280.5786
   6   2.0000     -10.307863      -280.4912
   7   2.0000     -10.302559      -280.3469
   8   2.0000     -10.301611      -280.3211
   9   2.0000     -10.298271      -280.2302
  10   2.0000     -10.295475      -280.1541
  11   2.0000     -10.294224      -280.1201
  12   2.0000     -10.293598      -280.1031
  13   2.0000     -10.289742      -279.9981
  14   2.0000     -10.285504      -279.8828
  15   2.0000     -10.284747      -279.8622
  16   2.0000      -8.078315      -219.8221
  17   2.0000      -8.075285      -219.7397
  18   2.0000      -6.036807      -164.2699
  19   2.0000      -6.033979      -164.1929
  20   2.0000      -6.032763      -164.1598
  21   2.0000      -6.029863      -164.0809
  22   2.0000      -6.028883      -164.0542
  23   2.0000      -6.025891      -163.9728
  24   2.0000      -1.011974       -27.5372
  25   2.0000      -0.982171       -26.7262
  26   2.0000      -0.906052       -24.6549
  27   2.0000      -0.901357       -24.5272
  28   2.0000      -0.870941       -23.6995
  29   2.0000      -0.852886       -23.2082
  30   2.0000      -0.842604       -22.9284
  31   2.0000      -0.812304       -22.1039
  32   2.0000      -0.782108       -21.2822
  33   2.0000      -0.774734       -21.0816
  34   2.0000      -0.710267       -19.3273
  35   2.0000      -0.703800       -19.1514
  36   2.0000      -0.699509       -19.0346
  37   2.0000      -0.654417       -17.8076
  38   2.0000      -0.641254       -17.4494
  39   2.0000      -0.618322       -16.8254
  40   2.0000      -0.591745       -16.1022
  41   2.0000      -0.574769       -15.6402
  42   2.0000      -0.561351       -15.2751
  43   2.0000      -0.552496       -15.0342
  44   2.0000      -0.529709       -14.4141
  45   2.0000      -0.527262       -14.3475
  46   2.0000      -0.518467       -14.1082
  47   2.0000      -0.513129       -13.9630
  48   2.0000      -0.507494       -13.8096
  49   2.0000      -0.502527       -13.6744
  50   2.0000      -0.491862       -13.3842
  51   2.0000      -0.484226       -13.1765
  52   2.0000      -0.476776       -12.9737
  53   2.0000      -0.468799       -12.7567
  54   2.0000      -0.457549       -12.4506
  55   2.0000      -0.453267       -12.3340
  56   2.0000      -0.444594       -12.0980
  57   2.0000      -0.441956       -12.0262
  58   2.0000      -0.430239       -11.7074
  59   2.0000      -0.421168       -11.4606
  60   2.0000      -0.414910       -11.2903
  61   2.0000      -0.410485       -11.1699
  62   2.0000      -0.407487       -11.0883
  63   2.0000      -0.355033        -9.6609
  64   2.0000      -0.330643        -8.9972
  65   2.0000      -0.323515        -8.8033
  66   2.0000      -0.287000        -7.8097
  67   0.0000       0.028860         0.7853
  68   0.0000       0.071862         1.9555
  69   0.0000       0.111228         3.0267
  70   0.0000       0.123184         3.3520
  71   0.0000       0.129607         3.5268

MULLIKEN ATOMIC CHARGES
-----------------------
   0 S :    0.112260
   1 C :   -0.127892
   2 C :   -0.093750
   3 C :    0.002533
   4 C :   -0.133911
   5 H :    0.004121
   6 C :    0.058062
   7 H :    0.039299
   8 H :    0.015629
   9 C :   -0.060408
  10 H :    0.026797
  11 H :    0.031270
  12 C :   -0.054911
  13 H :    0.027362
  14 H :    0.047641
  15 H :    0.035242
  16 S :    0.083906
  17 C :   -0.074801
  18 C :   -0.060918
  19 C :   -0.037529
  20 C :   -0.125379
  21 H :    0.012601
  22 C :    0.018128
  23 H :    0.038226
  24 H :    0.050005
  25 C :   -0.097482
  26 H :    0.036978
  27 H :    0.033190
  28 C :   -0.027059
  29 H :    0.036250
  30 H :    0.039430
  31 H :    0.040167
  32 H :    0.048678
  33 H :    0.056267
Sum of atomic charges:   -0.0000000

LOEWDIN ATOMIC CHARGES
----------------------
   0 S :    0.420265
   1 C :   -0.197373
   2 C :   -0.059011
   3 C :   -0.067171
   4 C :   -0.197901
   5 H :    0.025204
   6 C :   -0.030257
   7 H :    0.036461
   8 H :    0.021076
   9 C :   -0.038218
  10 H :    0.026583
  11 H :    0.021763
  12 C :   -0.072363
  13 H :    0.030363
  14 H :    0.032923
  15 H :    0.021436
  16 S :    0.376212
  17 C :   -0.190317
  18 C :   -0.074826
  19 C :   -0.059964
  20 C :   -0.177310
  21 H :    0.022843
  22 C :   -0.039928
  23 H :    0.035290
  24 H :    0.041116
  25 C :   -0.039282
  26 H :    0.029693
  27 H :    0.016133
  28 C :   -0.062449
  29 H :    0.030659
  30 H :    0.031181
  31 H :    0.026115
  32 H :    0.029685
  33 H :    0.031370

  Mayer bond orders larger than 0.100000
B(  0-S ,  1-C ) :   1.1312 B(  0-S ,  4-C ) :   1.1517 B(  1-C ,  2-C ) :   1.6316
B(  1-C , 32-H ) :   0.9733 B(  2-C ,  3-C ) :   1.2057 B(  2-C ,  6-C ) :   1.0116
B(  3-C ,  4-C ) :   1.5948 B(  3-C ,  5-H ) :   0.9944 B(  4-C , 20-C ) :   1.0455
B(  6-C ,  7-H ) :   0.9458 B(  6-C ,  8-H ) :   0.9413 B(  6-C ,  9-C ) :   1.0526
B(  9-C , 10-H ) :   0.9609 B(  9-C , 11-H ) :   0.9623 B(  9-C , 12-C ) :   1.0589
B( 12-C , 13-H ) :   0.9772 B( 12-C , 14-H ) :   0.9767 B( 12-C , 15-H ) :   0.9814
B( 16-S , 17-C ) :   1.1358 B( 16-S , 20-C ) :   1.1265 B( 17-C , 18-C ) :   1.6216
B( 17-C , 20-C ) :   0.1015 B( 17-C , 33-H ) :   0.9728 B( 18-C , 19-C ) :   1.2102
B( 18-C , 21-H ) :   0.9846 B( 19-C , 20-C ) :   1.6159 B( 19-C , 22-C ) :   1.0385
B( 22-C , 23-H ) :   0.9329 B( 22-C , 24-H ) :   0.9258 B( 22-C , 25-C ) :   1.0668
B( 25-C , 26-H ) :   0.9494 B( 25-C , 27-H ) :   0.9700 B( 25-C , 28-C ) :   1.0658
B( 28-C , 29-H ) :   0.9706 B( 28-C , 30-H ) :   0.9789 B( 28-C , 31-H ) :   0.9764

Dispersion correction           -0.013261239
FINAL SINGLE POINT ENERGY     -1339.857509313339

DIPOLE MOMENT
-------------
                                X             Y             Z
Electronic contribution:      9.27133     -15.68482     -26.60480
Nuclear contribution   :     -9.61897      15.93295      27.29137
                        -----------------------------------------
Total Dipole Moment    :     -0.34764       0.24813       0.68657
                        -----------------------------------------
Magnitude (a.u.)       :      0.80858
Magnitude (Debye)      :      2.05524

Rotational constants in cm-1:     0.016231     0.008582     0.005867
Rotational constants in MHz :   486.600993   257.282701   175.885636

                             ****ORCA TERMINATED NORMALLY****
TOTAL RUN TIME: 0 days 0 hours 0 minutes 30 seconds 221 msec
