                         Program Version 4.2.1 -  RELEASE  -
|  1> ! wB97X-D3 SP def2-SVP
|  2> %pal
|  3> nprocs 16
|  4> end
|  5>
|  6> * xyz 0 1
|  7> S 	 -20.1567 	 46.4603 	 57.9247
|  8> C 	 -19.4938 	 47.7101 	 59.0336
|  9> C 	 -20.2469 	 47.6991 	 60.2217
| 10> C 	 -21.2067 	 46.6487 	 60.2524
| 11> C 	 -21.2746 	 45.8257 	 59.1066
| 12> H 	 -21.7895 	 46.3554 	 61.1602
| 13> C 	 -20.0288 	 48.7047 	 61.358
| 14> H 	 -20.75 	 49.4711 	 61.1661
| 15> H 	 -19.0582 	 49.0821 	 61.3891
| 16> C 	 -20.3135 	 48.0508 	 62.7446
| 17> H 	 -20.3834 	 48.8755 	 63.5062
| 18> H 	 -21.3024 	 47.5709 	 62.742
| 19> C 	 -19.1001 	 47.1037 	 63.2044
| 20> H 	 -18.1915 	 47.6946 	 63.2071
| 21> H 	 -19.2971 	 46.7676 	 64.2124
| 22> H 	 -18.9771 	 46.2619 	 62.5624
| 23> S 	 -22.3426 	 43.7527 	 60.4514
| 24> C 	 -23.418 	 42.6157 	 59.6905
| 25> C 	 -23.5297 	 42.8716 	 58.3153
| 26> C 	 -22.752 	 44.0078 	 57.9174
| 27> C 	 -22.0132 	 44.5811 	 58.9553
| 28> H 	 -24.1447 	 42.237 	 57.72
| 29> C 	 -22.8586 	 44.4899 	 56.4404
| 30> H 	 -22.1208 	 45.3413 	 56.3842
| 31> H 	 -23.8675 	 44.9757 	 56.3653
| 32> C 	 -22.5752 	 43.5221 	 55.2703
| 33> H 	 -23.2083 	 42.6636 	 55.1917
| 34> H 	 -21.6378 	 42.9665 	 55.4315
| 35> C 	 -22.5777 	 44.1882 	 53.8678
| 36> H 	 -22.3372 	 43.5368 	 53.0322
| 37> H 	 -21.906 	 45.076 	 53.7049
| 38> H 	 -23.5603 	 44.5937 	 53.6059
| 39> H 	 -18.7074 	 48.4057 	 58.8189
| 40> H 	 -23.9629 	 41.8215 	 60.1254
| 41> *
| 42>
| 43>                          ****END OF INPUT****

CARTESIAN COORDINATES (ANGSTROEM)
---------------------------------
  S    -20.156700   46.460300   57.924700
  C    -19.493800   47.710100   59.033600
  C    -20.246900   47.699100   60.221700
  C    -21.206700   46.648700   60.252400
  C    -21.274600   45.825700   59.106600
  H    -21.789500   46.355400   61.160200
  C    -20.028800   48.704700   61.358000
  H    -20.750000   49.471100   61.166100
  H    -19.058200   49.082100   61.389100
  C    -20.313500   48.050800   62.744600
  H    -20.383400   48.875500   63.506200
  H    -21.302400   47.570900   62.742000
  C    -19.100100   47.103700   63.204400
  H    -18.191500   47.694600   63.207100
  H    -19.297100   46.767600   64.212400
  H    -18.977100   46.261900   62.562400
  S    -22.342600   43.752700   60.451400
  C    -23.418000   42.615700   59.690500
  C    -23.529700   42.871600   58.315300
  C    -22.752000   44.007800   57.917400
  C    -22.013200   44.581100   58.955300
  H    -24.144700   42.237000   57.720000
  C    -22.858600   44.489900   56.440400
  H    -22.120800   45.341300   56.384200
  H    -23.867500   44.975700   56.365300
  C    -22.575200   43.522100   55.270300
  H    -23.208300   42.663600   55.191700
  H    -21.637800   42.966500   55.431500
  C    -22.577700   44.188200   53.867800
  H    -22.337200   43.536800   53.032200
  H    -21.906000   45.076000   53.704900
  H    -23.560300   44.593700   53.605900
  H    -18.707400   48.405700   58.818900
  H    -23.962900   41.821500   60.125400

 Total Charge           Charge          ....    0
 Multiplicity           Mult            ....    1
 Number of Electrons    NEL             ....  134
 Basis Dimension        Dim             ....  322

ORBITAL ENERGIES
----------------

  NO   OCC          E(Eh)            E(eV)
   0   2.0000     -88.969830     -2420.9921
   1   2.0000     -88.967452     -2420.9274
   2   2.0000     -10.336133      -281.2605
   3   2.0000     -10.331664      -281.1389
   4   2.0000     -10.318213      -280.7729
   5   2.0000     -10.317757      -280.7604
   6   2.0000     -10.310188      -280.5545
   7   2.0000     -10.305458      -280.4258
   8   2.0000     -10.302738      -280.3517
   9   2.0000     -10.298148      -280.2269
  10   2.0000     -10.295653      -280.1590
  11   2.0000     -10.295243      -280.1478
  12   2.0000     -10.291550      -280.0473
  13   2.0000     -10.289364      -279.9878
  14   2.0000     -10.282128      -279.7909
  15   2.0000     -10.276985      -279.6510
  16   2.0000      -8.084456      -219.9892
  17   2.0000      -8.080819      -219.8903
  18   2.0000      -6.043036      -164.4394
  19   2.0000      -6.039442      -164.3416
  20   2.0000      -6.038837      -164.3251
  21   2.0000      -6.035381      -164.2311
  22   2.0000      -6.035291      -164.2286
  23   2.0000      -6.031678      -164.1303
  24   2.0000      -1.005291       -27.3554
  25   2.0000      -0.979357       -26.6497
  26   2.0000      -0.906830       -24.6761
  27   2.0000      -0.900027       -24.4910
  28   2.0000      -0.867553       -23.6073
  29   2.0000      -0.849612       -23.1191
  30   2.0000      -0.834746       -22.7146
  31   2.0000      -0.810910       -22.0660
  32   2.0000      -0.783158       -21.3108
  33   2.0000      -0.771703       -20.9991
  34   2.0000      -0.713749       -19.4221
  35   2.0000      -0.704801       -19.1786
  36   2.0000      -0.690447       -18.7880
  37   2.0000      -0.669227       -18.2106
  38   2.0000      -0.627611       -17.0782
  39   2.0000      -0.620982       -16.8978
  40   2.0000      -0.593455       -16.1487
  41   2.0000      -0.570527       -15.5248
  42   2.0000      -0.556454       -15.1419
  43   2.0000      -0.552662       -15.0387
  44   2.0000      -0.529947       -14.4206
  45   2.0000      -0.522931       -14.2297
  46   2.0000      -0.520010       -14.1502
  47   2.0000      -0.515211       -14.0196
  48   2.0000      -0.504619       -13.7314
  49   2.0000      -0.495421       -13.4811
  50   2.0000      -0.485134       -13.2012
  51   2.0000      -0.482300       -13.1241
  52   2.0000      -0.470868       -12.8130
  53   2.0000      -0.463972       -12.6253
  54   2.0000      -0.461744       -12.5647
  55   2.0000      -0.448391       -12.2013
  56   2.0000      -0.445064       -12.1108
  57   2.0000      -0.437810       -11.9134
  58   2.0000      -0.430494       -11.7143
  59   2.0000      -0.428580       -11.6623
  60   2.0000      -0.418274       -11.3818
  61   2.0000      -0.413982       -11.2650
  62   2.0000      -0.403991       -10.9931
  63   2.0000      -0.353930        -9.6309
  64   2.0000      -0.333713        -9.0808
  65   2.0000      -0.329737        -8.9726
  66   2.0000      -0.284456        -7.7404
  67   0.0000       0.019599         0.5333
  68   0.0000       0.076543         2.0828
  69   0.0000       0.106403         2.8954
  70   0.0000       0.121140         3.2964
  71   0.0000       0.130858         3.5608

MULLIKEN ATOMIC CHARGES
-----------------------
   0 S :    0.096328
   1 C :   -0.122669
   2 C :   -0.107386
   3 C :   -0.022734
   4 C :   -0.133629
   5 H :    0.035620
   6 C :    0.128955
   7 H :    0.043219
   8 H :    0.007830
   9 C :   -0.144200
  10 H :    0.033299
  11 H :    0.040247
  12 C :   -0.031013
  13 H :    0.027912
  14 H :    0.034841
  15 H :    0.041611
  16 S :    0.101088
  17 C :   -0.075064
  18 C :   -0.029235
  19 C :   -0.056895
  20 C :   -0.115329
  21 H :    0.012437
  22 C :    0.046920
  23 H :    0.020979
  24 H :    0.050343
  25 C :   -0.038968
  26 H :    0.018466
  27 H :    0.030731
  28 C :   -0.076711
  29 H :    0.033107
  30 H :    0.037340
  31 H :    0.024328
  32 H :    0.044728
  33 H :    0.043502
Sum of atomic charges:    0.0000000

LOEWDIN ATOMIC CHARGES
----------------------
   0 S :    0.398878
   1 C :   -0.189492
   2 C :   -0.057951
   3 C :   -0.087970
   4 C :   -0.192066
   5 H :    0.029328
   6 C :   -0.019366
   7 H :    0.034865
   8 H :    0.020413
   9 C :   -0.040637
  10 H :    0.026276
  11 H :    0.020581
  12 C :   -0.056795
  13 H :    0.024289
  14 H :    0.025218
  15 H :    0.022587
  16 S :    0.429966
  17 C :   -0.182497
  18 C :   -0.065283
  19 C :   -0.056198
  20 C :   -0.201932
  21 H :    0.027395
  22 C :   -0.037065
  23 H :    0.023732
  24 H :    0.040491
  25 C :   -0.045532
  26 H :    0.020167
  27 H :    0.030812
  28 C :   -0.073126
  29 H :    0.027041
  30 H :    0.029825
  31 H :    0.023607
  32 H :    0.026492
  33 H :    0.023946

  Mayer bond orders larger than 0.100000
B(  0-S ,  1-C ) :   1.1294 B(  0-S ,  4-C ) :   1.1569 B(  1-C ,  2-C ) :   1.5902
B(  1-C ,  4-C ) :   0.1055 B(  1-C , 32-H ) :   0.9754 B(  2-C ,  3-C ) :   1.2705
B(  2-C ,  6-C ) :   1.0083 B(  3-C ,  4-C ) :   1.5441 B(  3-C ,  5-H ) :   0.9670
B(  4-C , 20-C ) :   1.0611 B(  6-C ,  7-H ) :   0.9327 B(  6-C ,  8-H ) :   0.9456
B(  6-C ,  9-C ) :   1.0789 B(  9-C , 10-H ) :   0.9571 B(  9-C , 11-H ) :   0.9553
B(  9-C , 12-C ) :   1.0602 B( 12-C , 13-H ) :   0.9755 B( 12-C , 14-H ) :   0.9777
B( 12-C , 15-H ) :   0.9802 B( 16-S , 17-C ) :   1.1658 B( 16-S , 20-C ) :   1.1365
B( 17-C , 18-C ) :   1.5943 B( 17-C , 33-H ) :   0.9718 B( 18-C , 19-C ) :   1.2552
B( 18-C , 21-H ) :   0.9966 B( 19-C , 20-C ) :   1.5645 B( 19-C , 22-C ) :   1.0314
B( 22-C , 23-H ) :   0.9362 B( 22-C , 24-H ) :   0.9336 B( 22-C , 25-C ) :   1.0516
B( 25-C , 26-H ) :   0.9514 B( 25-C , 27-H ) :   0.9542 B( 25-C , 28-C ) :   1.0782
B( 28-C , 29-H ) :   0.9752 B( 28-C , 30-H ) :   0.9775 B( 28-C , 31-H ) :   0.9752

Dispersion correction           -0.013881267
FINAL SINGLE POINT ENERGY     -1339.879900618223

DIPOLE MOMENT
-------------
                                X             Y             Z
Electronic contribution:     -0.98149      -4.90869       2.65942
Nuclear contribution   :      0.78550       4.98409      -2.58413
                        -----------------------------------------
Total Dipole Moment    :     -0.19599       0.07540       0.07529
                        -----------------------------------------
Magnitude (a.u.)       :      0.22308
Magnitude (Debye)      :      0.56703

Rotational constants in cm-1:     0.022320     0.007965     0.006127
Rotational constants in MHz :   669.147187   238.778524   183.684505

                             ****ORCA TERMINATED NORMALLY****
TOTAL RUN TIME: 0 days 0 hours 0 minutes 33 seconds 45 msec
