                         Program Version 4.2.1 -  RELEASE  -
|  1> ! wB97X-D3 SP def2-SVP
|  2> %pal
|  3> nprocs 16
|  4> end
|  5>
|  6> * xyz 0 1
|  7> S 	 -20.4916 	 0.97735 	 81.5543
|  8> C 	 -19.1251 	 1.93799 	 81.9922
|  9> C 	 -18.0668 	 1.17601 	 82.4467
| 10> C 	 -18.3863 	 -0.227426 	 82.5649
| 11> C 	 -19.7391 	 -0.453244 	 82.165
| 12> H 	 -17.7327 	 -1.04 	 82.9131
| 13> C 	 -16.6932 	 1.63122 	 82.7907
| 14> H 	 -16.6532 	 1.55869 	 83.858
| 15> H 	 -16.6339 	 2.72484 	 82.6393
| 16> C 	 -15.6246 	 0.838325 	 82.0036
| 17> H 	 -15.8386 	 -0.248934 	 82.0308
| 18> H 	 -15.7728 	 1.06683 	 80.9565
| 19> C 	 -14.1589 	 1.04338 	 82.2774
| 20> H 	 -13.5509 	 0.725545 	 81.4872
| 21> H 	 -14.0652 	 2.08631 	 82.4415
| 22> H 	 -13.7625 	 0.531642 	 83.1536
| 23> S 	 -20.8887 	 -2.49834 	 83.5996
| 24> C 	 -21.6956 	 -3.82417 	 82.7809
| 25> C 	 -21.447 	 -3.71249 	 81.3807
| 26> C 	 -20.6517 	 -2.55025 	 81.0185
| 27> C 	 -20.4421 	 -1.72281 	 82.1408
| 28> H 	 -21.885 	 -4.41083 	 80.7129
| 29> C 	 -20.1863 	 -2.3565 	 79.6306
| 30> H 	 -19.3138 	 -1.72542 	 79.523
| 31> H 	 -20.952 	 -1.83366 	 79.1122
| 32> C 	 -19.8408 	 -3.64641 	 78.8628
| 33> H 	 -20.7003 	 -4.30633 	 78.8184
| 34> H 	 -19.0503 	 -4.10875 	 79.3811
| 35> C 	 -19.445 	 -3.50296 	 77.4156
| 36> H 	 -20.141 	 -2.90472 	 76.8791
| 37> H 	 -19.3336 	 -4.40439 	 76.83
| 38> H 	 -18.5408 	 -2.9449 	 77.3523
| 39> H 	 -19.0352 	 2.98764 	 81.7484
| 40> H 	 -22.4308 	 -4.51465 	 83.1872
| 41> *
| 42>
| 43>                          ****END OF INPUT****

CARTESIAN COORDINATES (ANGSTROEM)
---------------------------------
  S    -20.491600    0.977350   81.554300
  C    -19.125100    1.937990   81.992200
  C    -18.066800    1.176010   82.446700
  C    -18.386300   -0.227426   82.564900
  C    -19.739100   -0.453244   82.165000
  H    -17.732700   -1.040000   82.913100
  C    -16.693200    1.631220   82.790700
  H    -16.653200    1.558690   83.858000
  H    -16.633900    2.724840   82.639300
  C    -15.624600    0.838325   82.003600
  H    -15.838600   -0.248934   82.030800
  H    -15.772800    1.066830   80.956500
  C    -14.158900    1.043380   82.277400
  H    -13.550900    0.725545   81.487200
  H    -14.065200    2.086310   82.441500
  H    -13.762500    0.531642   83.153600
  S    -20.888700   -2.498340   83.599600
  C    -21.695600   -3.824170   82.780900
  C    -21.447000   -3.712490   81.380700
  C    -20.651700   -2.550250   81.018500
  C    -20.442100   -1.722810   82.140800
  H    -21.885000   -4.410830   80.712900
  C    -20.186300   -2.356500   79.630600
  H    -19.313800   -1.725420   79.523000
  H    -20.952000   -1.833660   79.112200
  C    -19.840800   -3.646410   78.862800
  H    -20.700300   -4.306330   78.818400
  H    -19.050300   -4.108750   79.381100
  C    -19.445000   -3.502960   77.415600
  H    -20.141000   -2.904720   76.879100
  H    -19.333600   -4.404390   76.830000
  H    -18.540800   -2.944900   77.352300
  H    -19.035200    2.987640   81.748400
  H    -22.430800   -4.514650   83.187200

 Total Charge           Charge          ....    0
 Multiplicity           Mult            ....    1
 Number of Electrons    NEL             ....  134
 Basis Dimension        Dim             ....  322

ORBITAL ENERGIES
----------------

  NO   OCC          E(Eh)            E(eV)
   0   2.0000     -88.967507     -2420.9290
   1   2.0000     -88.966149     -2420.8920
   2   2.0000     -10.328921      -281.0642
   3   2.0000     -10.321673      -280.8670
   4   2.0000     -10.319760      -280.8149
   5   2.0000     -10.309806      -280.5441
   6   2.0000     -10.304035      -280.3870
   7   2.0000     -10.299670      -280.2683
   8   2.0000     -10.299410      -280.2612
   9   2.0000     -10.295434      -280.1530
  10   2.0000     -10.291305      -280.0406
  11   2.0000     -10.286665      -279.9144
  12   2.0000     -10.283835      -279.8374
  13   2.0000     -10.278623      -279.6956
  14   2.0000     -10.269280      -279.4413
  15   2.0000     -10.268399      -279.4173
  16   2.0000      -8.082754      -219.9429
  17   2.0000      -8.081004      -219.8953
  18   2.0000      -6.041124      -164.3874
  19   2.0000      -6.039510      -164.3434
  20   2.0000      -6.037180      -164.2800
  21   2.0000      -6.035316      -164.2293
  22   2.0000      -6.033651      -164.1840
  23   2.0000      -6.031946      -164.1376
  24   2.0000      -1.005184       -27.3524
  25   2.0000      -0.982078       -26.7237
  26   2.0000      -0.915346       -24.9078
  27   2.0000      -0.914437       -24.8831
  28   2.0000      -0.868060       -23.6211
  29   2.0000      -0.853054       -23.2128
  30   2.0000      -0.851618       -23.1737
  31   2.0000      -0.810016       -22.0417
  32   2.0000      -0.786516       -21.4022
  33   2.0000      -0.771031       -20.9808
  34   2.0000      -0.710429       -19.3318
  35   2.0000      -0.705429       -19.1957
  36   2.0000      -0.691535       -18.8176
  37   2.0000      -0.655190       -17.8286
  38   2.0000      -0.640572       -17.4309
  39   2.0000      -0.617983       -16.8162
  40   2.0000      -0.599358       -16.3093
  41   2.0000      -0.573745       -15.6124
  42   2.0000      -0.566761       -15.4223
  43   2.0000      -0.557078       -15.1589
  44   2.0000      -0.535754       -14.5786
  45   2.0000      -0.527370       -14.3505
  46   2.0000      -0.519340       -14.1320
  47   2.0000      -0.515944       -14.0395
  48   2.0000      -0.509566       -13.8660
  49   2.0000      -0.507342       -13.8055
  50   2.0000      -0.491331       -13.3698
  51   2.0000      -0.474765       -12.9190
  52   2.0000      -0.469722       -12.7818
  53   2.0000      -0.464056       -12.6276
  54   2.0000      -0.459271       -12.4974
  55   2.0000      -0.456751       -12.4288
  56   2.0000      -0.448965       -12.2170
  57   2.0000      -0.434655       -11.8276
  58   2.0000      -0.430342       -11.7102
  59   2.0000      -0.427347       -11.6287
  60   2.0000      -0.422513       -11.4972
  61   2.0000      -0.415818       -11.3150
  62   2.0000      -0.414215       -11.2714
  63   2.0000      -0.330864        -9.0033
  64   2.0000      -0.329699        -8.9716
  65   2.0000      -0.321499        -8.7484
  66   2.0000      -0.298573        -8.1246
  67   0.0000       0.042128         1.1464
  68   0.0000       0.055040         1.4977
  69   0.0000       0.108756         2.9594
  70   0.0000       0.126968         3.4550
  71   0.0000       0.135423         3.6851

MULLIKEN ATOMIC CHARGES
-----------------------
   0 S :    0.130303
   1 C :   -0.121963
   2 C :   -0.111522
   3 C :    0.022576
   4 C :   -0.193992
   5 H :    0.034162
   6 C :    0.115970
   7 H :    0.031616
   8 H :    0.010433
   9 C :   -0.120313
  10 H :    0.028850
  11 H :    0.025516
  12 C :    0.015547
  13 H :    0.023999
  14 H :    0.015130
  15 H :    0.026437
  16 S :    0.128213
  17 C :   -0.107072
  18 C :   -0.040115
  19 C :   -0.023970
  20 C :   -0.173166
  21 H :    0.013477
  22 C :    0.111212
  23 H :    0.021416
  24 H :    0.020768
  25 C :   -0.092355
  26 H :    0.024704
  27 H :    0.026627
  28 C :   -0.007096
  29 H :    0.008472
  30 H :    0.034746
  31 H :    0.011284
  32 H :    0.044132
  33 H :    0.065976
Sum of atomic charges:   -0.0000000

LOEWDIN ATOMIC CHARGES
----------------------
   0 S :    0.433891
   1 C :   -0.214864
   2 C :   -0.061229
   3 C :   -0.061219
   4 C :   -0.203385
   5 H :    0.037085
   6 C :   -0.032730
   7 H :    0.031046
   8 H :    0.029428
   9 C :   -0.042950
  10 H :    0.024737
  11 H :    0.027847
  12 C :   -0.057611
  13 H :    0.022596
  14 H :    0.021708
  15 H :    0.025215
  16 S :    0.431239
  17 C :   -0.198250
  18 C :   -0.062326
  19 C :   -0.051212
  20 C :   -0.227980
  21 H :    0.022820
  22 C :   -0.032044
  23 H :    0.031296
  24 H :    0.030576
  25 C :   -0.032728
  26 H :    0.020217
  27 H :    0.020231
  28 C :   -0.059928
  29 H :    0.019606
  30 H :    0.028782
  31 H :    0.019298
  32 H :    0.026842
  33 H :    0.033997

  Mayer bond orders larger than 0.100000
B(  0-S ,  1-C ) :   1.1391 B(  0-S ,  4-C ) :   1.1834 B(  1-C ,  2-C ) :   1.6136
B(  1-C , 32-H ) :   0.9650 B(  2-C ,  3-C ) :   1.2366 B(  2-C ,  6-C ) :   1.0290
B(  3-C ,  4-C ) :   1.5576 B(  3-C ,  5-H ) :   0.9878 B(  4-C , 20-C ) :   1.0191
B(  6-C ,  7-H ) :   0.9328 B(  6-C ,  8-H ) :   0.9325 B(  6-C ,  9-C ) :   1.0470
B(  9-C , 10-H ) :   0.9574 B(  9-C , 11-H ) :   0.9529 B(  9-C , 12-C ) :   1.0913
B( 12-C , 13-H ) :   0.9716 B( 12-C , 14-H ) :   0.9706 B( 12-C , 15-H ) :   0.9732
B( 16-S , 17-C ) :   1.1632 B( 16-S , 20-C ) :   1.1639 B( 17-C , 18-C ) :   1.5857
B( 17-C , 20-C ) :   0.1049 B( 17-C , 33-H ) :   0.9671 B( 18-C , 19-C ) :   1.2531
B( 18-C , 21-H ) :   0.9896 B( 19-C , 20-C ) :   1.5543 B( 19-C , 22-C ) :   1.0581
B( 22-C , 23-H ) :   0.9285 B( 22-C , 24-H ) :   0.9145 B( 22-C , 25-C ) :   1.0683
B( 25-C , 26-H ) :   0.9476 B( 25-C , 27-H ) :   0.9609 B( 25-C , 28-C ) :   1.0955
B( 28-C , 29-H ) :   0.9691 B( 28-C , 30-H ) :   0.9731 B( 28-C , 31-H ) :   0.9699

Dispersion correction           -0.013782444
FINAL SINGLE POINT ENERGY     -1339.875926634931

DIPOLE MOMENT
-------------
                                X             Y             Z
Electronic contribution:    -21.02689       2.27588      15.21794
Nuclear contribution   :     21.43506      -2.34396     -15.63309
                        -----------------------------------------
Total Dipole Moment    :      0.40817      -0.06807      -0.41515
                        -----------------------------------------
Magnitude (a.u.)       :      0.58616
Magnitude (Debye)      :      1.48991

Rotational constants in cm-1:     0.016804     0.008091     0.006894
Rotational constants in MHz :   503.757817   242.571703   206.688646

                             ****ORCA TERMINATED NORMALLY****
TOTAL RUN TIME: 0 days 0 hours 0 minutes 32 seconds 680 msec
