                         Program Version 4.2.1 -  RELEASE  -
|  1> ! wB97X-D3 SP def2-SVP
|  2> %pal
|  3> nprocs 16
|  4> end
|  5>
|  6> * xyz 0 1
|  7> S 	 48.1279 	 5.62542 	 87.5197
|  8> C 	 48.2362 	 5.26821 	 85.8398
|  9> C 	 47.6363 	 4.02797 	 85.542
| 10> C 	 47.0921 	 3.35823 	 86.709
| 11> C 	 47.3259 	 4.11344 	 87.9128
| 12> H 	 46.5197 	 2.42909 	 86.7956
| 13> C 	 47.3894 	 3.47938 	 84.196
| 14> H 	 47.6327 	 4.22537 	 83.5004
| 15> H 	 46.3296 	 3.31701 	 84.1327
| 16> C 	 48.0408 	 2.12946 	 83.7004
| 17> H 	 47.7859 	 1.36407 	 84.3618
| 18> H 	 47.5141 	 1.81431 	 82.7821
| 19> C 	 49.5818 	 2.26816 	 83.5215
| 20> H 	 49.9756 	 1.29684 	 83.2072
| 21> H 	 49.8793 	 3.11924 	 82.8566
| 22> H 	 50.0069 	 2.45613 	 84.5565
| 23> S 	 46.2293 	 5.13216 	 90.237
| 24> C 	 45.4213 	 4.05113 	 91.3757
| 25> C 	 45.7182 	 2.7555 	 91.0437
| 26> C 	 46.2465 	 2.56208 	 89.7279
| 27> C 	 46.7542 	 3.77776 	 89.2559
| 28> H 	 45.3207 	 1.98664 	 91.6976
| 29> C 	 46.441 	 1.12231 	 89.148
| 30> H 	 45.8599 	 1.1117 	 88.2175
| 31> H 	 45.9773 	 0.37554 	 89.7439
| 32> C 	 47.8962 	 0.789023 	 88.9471
| 33> H 	 48.4113 	 0.971142 	 89.9227
| 34> H 	 48.401 	 1.25806 	 88.1488
| 35> C 	 48.0963 	 -0.723915 	 88.6083
| 36> H 	 49.1095 	 -1.11494 	 88.7933
| 37> H 	 47.7938 	 -0.997023 	 87.625
| 38> H 	 47.4395 	 -1.25192 	 89.3156
| 39> H 	 48.7204 	 5.89899 	 85.1159
| 40> H 	 44.9463 	 4.34308 	 92.3265
| 41> *
| 42>
| 43>                          ****END OF INPUT****

CARTESIAN COORDINATES (ANGSTROEM)
---------------------------------
  S     48.127900    5.625420   87.519700
  C     48.236200    5.268210   85.839800
  C     47.636300    4.027970   85.542000
  C     47.092100    3.358230   86.709000
  C     47.325900    4.113440   87.912800
  H     46.519700    2.429090   86.795600
  C     47.389400    3.479380   84.196000
  H     47.632700    4.225370   83.500400
  H     46.329600    3.317010   84.132700
  C     48.040800    2.129460   83.700400
  H     47.785900    1.364070   84.361800
  H     47.514100    1.814310   82.782100
  C     49.581800    2.268160   83.521500
  H     49.975600    1.296840   83.207200
  H     49.879300    3.119240   82.856600
  H     50.006900    2.456130   84.556500
  S     46.229300    5.132160   90.237000
  C     45.421300    4.051130   91.375700
  C     45.718200    2.755500   91.043700
  C     46.246500    2.562080   89.727900
  C     46.754200    3.777760   89.255900
  H     45.320700    1.986640   91.697600
  C     46.441000    1.122310   89.148000
  H     45.859900    1.111700   88.217500
  H     45.977300    0.375540   89.743900
  C     47.896200    0.789023   88.947100
  H     48.411300    0.971142   89.922700
  H     48.401000    1.258060   88.148800
  C     48.096300   -0.723915   88.608300
  H     49.109500   -1.114940   88.793300
  H     47.793800   -0.997023   87.625000
  H     47.439500   -1.251920   89.315600
  H     48.720400    5.898990   85.115900
  H     44.946300    4.343080   92.326500

 Total Charge           Charge          ....    0
 Multiplicity           Mult            ....    1
 Number of Electrons    NEL             ....  134
 Basis Dimension        Dim             ....  322

ORBITAL ENERGIES
----------------

  NO   OCC          E(Eh)            E(eV)
   0   2.0000     -88.970354     -2421.0064
   1   2.0000     -88.966550     -2420.9029
   2   2.0000     -10.338394      -281.3220
   3   2.0000     -10.334724      -281.2221
   4   2.0000     -10.319190      -280.7994
   5   2.0000     -10.315446      -280.6975
   6   2.0000     -10.309480      -280.5352
   7   2.0000     -10.305423      -280.4248
   8   2.0000     -10.300987      -280.3041
   9   2.0000     -10.298818      -280.2451
  10   2.0000     -10.294021      -280.1146
  11   2.0000     -10.288169      -279.9553
  12   2.0000     -10.286541      -279.9110
  13   2.0000     -10.284028      -279.8426
  14   2.0000     -10.283386      -279.8252
  15   2.0000     -10.276975      -279.6507
  16   2.0000      -8.084904      -220.0014
  17   2.0000      -8.081048      -219.8965
  18   2.0000      -6.043411      -164.4496
  19   2.0000      -6.039658      -164.3474
  20   2.0000      -6.039308      -164.3379
  21   2.0000      -6.035833      -164.2434
  22   2.0000      -6.035600      -164.2370
  23   2.0000      -6.031700      -164.1309
  24   2.0000      -1.003049       -27.2943
  25   2.0000      -0.981951       -26.7203
  26   2.0000      -0.912087       -24.8191
  27   2.0000      -0.908389       -24.7185
  28   2.0000      -0.864726       -23.5304
  29   2.0000      -0.849753       -23.1230
  30   2.0000      -0.843570       -22.9547
  31   2.0000      -0.811226       -22.0746
  32   2.0000      -0.781591       -21.2682
  33   2.0000      -0.772053       -21.0086
  34   2.0000      -0.709046       -19.2941
  35   2.0000      -0.703455       -19.1420
  36   2.0000      -0.690224       -18.7820
  37   2.0000      -0.661168       -17.9913
  38   2.0000      -0.637362       -17.3435
  39   2.0000      -0.618082       -16.8189
  40   2.0000      -0.594357       -16.1733
  41   2.0000      -0.575857       -15.6699
  42   2.0000      -0.564339       -15.3564
  43   2.0000      -0.548316       -14.9204
  44   2.0000      -0.533691       -14.5225
  45   2.0000      -0.522986       -14.2312
  46   2.0000      -0.520897       -14.1743
  47   2.0000      -0.516127       -14.0445
  48   2.0000      -0.499173       -13.5832
  49   2.0000      -0.496285       -13.5046
  50   2.0000      -0.492614       -13.4047
  51   2.0000      -0.488765       -13.3000
  52   2.0000      -0.471416       -12.8279
  53   2.0000      -0.464133       -12.6297
  54   2.0000      -0.455827       -12.4037
  55   2.0000      -0.446796       -12.1579
  56   2.0000      -0.441152       -12.0044
  57   2.0000      -0.436992       -11.8912
  58   2.0000      -0.429973       -11.7002
  59   2.0000      -0.427015       -11.6197
  60   2.0000      -0.425517       -11.5789
  61   2.0000      -0.418893       -11.3987
  62   2.0000      -0.415784       -11.3141
  63   2.0000      -0.357148        -9.7185
  64   2.0000      -0.333464        -9.0740
  65   2.0000      -0.324571        -8.8320
  66   2.0000      -0.282674        -7.6919
  67   0.0000       0.020269         0.5516
  68   0.0000       0.078513         2.1365
  69   0.0000       0.108582         2.9547
  70   0.0000       0.114902         3.1266
  71   0.0000       0.125487         3.4147

MULLIKEN ATOMIC CHARGES
-----------------------
   0 S :    0.114666
   1 C :   -0.112681
   2 C :   -0.086555
   3 C :    0.005551
   4 C :   -0.137617
   5 H :    0.008047
   6 C :    0.069526
   7 H :   -0.002451
   8 H :    0.030344
   9 C :   -0.046786
  10 H :    0.007200
  11 H :    0.027161
  12 C :   -0.078624
  13 H :    0.039061
  14 H :    0.044398
  15 H :    0.048771
  16 S :    0.093766
  17 C :   -0.106423
  18 C :   -0.020557
  19 C :   -0.088082
  20 C :   -0.102338
  21 H :    0.019866
  22 C :    0.080528
  23 H :    0.032275
  24 H :    0.003804
  25 C :   -0.065549
  26 H :    0.043109
  27 H :    0.040388
  28 C :   -0.054327
  29 H :    0.039967
  30 H :    0.023481
  31 H :    0.012829
  32 H :    0.047538
  33 H :    0.069712
Sum of atomic charges:   -0.0000000

LOEWDIN ATOMIC CHARGES
----------------------
   0 S :    0.419866
   1 C :   -0.212904
   2 C :   -0.060667
   3 C :   -0.066421
   4 C :   -0.190375
   5 H :    0.030712
   6 C :   -0.032845
   7 H :    0.020489
   8 H :    0.034877
   9 C :   -0.033708
  10 H :    0.011705
  11 H :    0.025828
  12 C :   -0.072010
  13 H :    0.025422
  14 H :    0.029314
  15 H :    0.034897
  16 S :    0.396541
  17 C :   -0.187484
  18 C :   -0.072493
  19 C :   -0.054987
  20 C :   -0.190800
  21 H :    0.030708
  22 C :   -0.024377
  23 H :    0.029821
  24 H :    0.025229
  25 C :   -0.037259
  26 H :    0.034449
  27 H :    0.020070
  28 C :   -0.064376
  29 H :    0.028887
  30 H :    0.016237
  31 H :    0.019942
  32 H :    0.028344
  33 H :    0.037368

  Mayer bond orders larger than 0.100000
B(  0-S ,  1-C ) :   1.1460 B(  0-S ,  4-C ) :   1.1711 B(  1-C ,  2-C ) :   1.5684
B(  1-C , 32-H ) :   0.9689 B(  2-C ,  3-C ) :   1.2560 B(  2-C ,  6-C ) :   1.0459
B(  3-C ,  4-C ) :   1.5298 B(  3-C ,  5-H ) :   0.9822 B(  4-C , 20-C ) :   1.0516
B(  6-C ,  7-H ) :   0.9374 B(  6-C ,  8-H ) :   0.9338 B(  6-C ,  9-C ) :   1.0693
B(  9-C , 10-H ) :   0.9553 B(  9-C , 11-H ) :   0.9549 B(  9-C , 12-C ) :   1.0667
B( 12-C , 13-H ) :   0.9748 B( 12-C , 14-H ) :   0.9772 B( 12-C , 15-H ) :   0.9758
B( 16-S , 17-C ) :   1.1417 B( 16-S , 20-C ) :   1.1436 B( 17-C , 18-C ) :   1.6307
B( 17-C , 33-H ) :   0.9619 B( 18-C , 19-C ) :   1.2452 B( 18-C , 21-H ) :   0.9799
B( 19-C , 20-C ) :   1.5851 B( 19-C , 22-C ) :   1.0335 B( 22-C , 23-H ) :   0.9248
B( 22-C , 24-H ) :   0.9329 B( 22-C , 25-C ) :   1.0709 B( 25-C , 26-H ) :   0.9553
B( 25-C , 27-H ) :   0.9519 B( 25-C , 28-C ) :   1.0782 B( 28-C , 29-H ) :   0.9766
B( 28-C , 30-H ) :   0.9768 B( 28-C , 31-H ) :   0.9761

Dispersion correction           -0.014492929
FINAL SINGLE POINT ENERGY     -1339.873114726932

DIPOLE MOMENT
-------------
                                X             Y             Z
Electronic contribution:     -6.41164      25.93183      16.57773
Nuclear contribution   :      6.20868     -26.57397     -16.80405
                        -----------------------------------------
Total Dipole Moment    :     -0.20297      -0.64214      -0.22632
                        -----------------------------------------
Magnitude (a.u.)       :      0.71046
Magnitude (Debye)      :      1.80586

Rotational constants in cm-1:     0.018256     0.009537     0.006794
Rotational constants in MHz :   547.295931   285.919660   203.666893

                             ****ORCA TERMINATED NORMALLY****
TOTAL RUN TIME: 0 days 0 hours 0 minutes 30 seconds 957 msec
