                         Program Version 4.2.1 -  RELEASE  -
|  1> ! wB97X-D3 SP def2-SVP
|  2> %pal
|  3> nprocs 16
|  4> end
|  5>
|  6> * xyz 0 1
|  7> S 	 41.4847 	 12.1161 	 78.8567
|  8> C 	 41.8862 	 10.6208 	 77.9632
|  9> C 	 42.7456 	 9.80086 	 78.7253
| 10> C 	 42.9771 	 10.3935 	 80.0636
| 11> C 	 42.337 	 11.6179 	 80.2987
| 12> H 	 43.5887 	 9.95697 	 80.8245
| 13> C 	 43.3028 	 8.45692 	 78.2419
| 14> H 	 43.3073 	 8.40015 	 77.1585
| 15> H 	 42.5805 	 7.73682 	 78.5935
| 16> C 	 44.6091 	 7.90039 	 78.8739
| 17> H 	 44.4334 	 7.56909 	 79.8876
| 18> H 	 44.8954 	 7.01235 	 78.3866
| 19> C 	 45.8006 	 8.79176 	 78.8343
| 20> H 	 46.1692 	 8.77323 	 77.8302
| 21> H 	 45.5711 	 9.87638 	 78.9731
| 22> H 	 46.5556 	 8.40872 	 79.508
| 23> S 	 42.6188 	 14.0823 	 81.2864
| 24> C 	 42.2323 	 14.4644 	 82.9249
| 25> C 	 42.0172 	 13.2764 	 83.5898
| 26> C 	 42.163 	 12.0384 	 82.8319
| 27> C 	 42.3595 	 12.3693 	 81.5049
| 28> H 	 41.8775 	 13.3597 	 84.6873
| 29> C 	 41.9656 	 10.6899 	 83.4518
| 30> H 	 41.5825 	 10.0068 	 82.679
| 31> H 	 41.309 	 10.7114 	 84.2511
| 32> C 	 43.2248 	 10.0136 	 83.9388
| 33> H 	 43.9747 	 10.1527 	 83.17
| 34> H 	 43.1428 	 8.89965 	 84.1613
| 35> C 	 43.8264 	 10.8326 	 85.0889
| 36> H 	 43.1919 	 10.8278 	 85.9556
| 37> H 	 44.1654 	 11.8961 	 84.733
| 38> H 	 44.7203 	 10.333 	 85.4728
| 39> H 	 41.5511 	 10.3621 	 76.9822
| 40> H 	 42.2131 	 15.4656 	 83.2658
| 41> *
| 42>
| 43>                          ****END OF INPUT****

CARTESIAN COORDINATES (ANGSTROEM)
---------------------------------
  S     41.484700   12.116100   78.856700
  C     41.886200   10.620800   77.963200
  C     42.745600    9.800860   78.725300
  C     42.977100   10.393500   80.063600
  C     42.337000   11.617900   80.298700
  H     43.588700    9.956970   80.824500
  C     43.302800    8.456920   78.241900
  H     43.307300    8.400150   77.158500
  H     42.580500    7.736820   78.593500
  C     44.609100    7.900390   78.873900
  H     44.433400    7.569090   79.887600
  H     44.895400    7.012350   78.386600
  C     45.800600    8.791760   78.834300
  H     46.169200    8.773230   77.830200
  H     45.571100    9.876380   78.973100
  H     46.555600    8.408720   79.508000
  S     42.618800   14.082300   81.286400
  C     42.232300   14.464400   82.924900
  C     42.017200   13.276400   83.589800
  C     42.163000   12.038400   82.831900
  C     42.359500   12.369300   81.504900
  H     41.877500   13.359700   84.687300
  C     41.965600   10.689900   83.451800
  H     41.582500   10.006800   82.679000
  H     41.309000   10.711400   84.251100
  C     43.224800   10.013600   83.938800
  H     43.974700   10.152700   83.170000
  H     43.142800    8.899650   84.161300
  C     43.826400   10.832600   85.088900
  H     43.191900   10.827800   85.955600
  H     44.165400   11.896100   84.733000
  H     44.720300   10.333000   85.472800
  H     41.551100   10.362100   76.982200
  H     42.213100   15.465600   83.265800

 Total Charge           Charge          ....    0
 Multiplicity           Mult            ....    1
 Number of Electrons    NEL             ....  134
 Basis Dimension        Dim             ....  322

ORBITAL ENERGIES
----------------

  NO   OCC          E(Eh)            E(eV)
   0   2.0000     -88.967480     -2420.9282
   1   2.0000     -88.960644     -2420.7422
   2   2.0000     -10.330405      -281.1046
   3   2.0000     -10.326971      -281.0112
   4   2.0000     -10.318487      -280.7803
   5   2.0000     -10.314567      -280.6736
   6   2.0000     -10.313457      -280.6434
   7   2.0000     -10.308546      -280.5098
   8   2.0000     -10.298990      -280.2498
   9   2.0000     -10.298192      -280.2280
  10   2.0000     -10.296142      -280.1723
  11   2.0000     -10.288963      -279.9769
  12   2.0000     -10.285504      -279.8828
  13   2.0000     -10.281606      -279.7767
  14   2.0000     -10.280193      -279.7383
  15   2.0000     -10.269859      -279.4571
  16   2.0000      -8.081288      -219.9030
  17   2.0000      -8.076478      -219.7721
  18   2.0000      -6.040011      -164.3571
  19   2.0000      -6.035823      -164.2431
  20   2.0000      -6.034988      -164.2204
  21   2.0000      -6.031953      -164.1378
  22   2.0000      -6.030728      -164.1044
  23   2.0000      -6.027261      -164.0101
  24   2.0000      -1.008759       -27.4497
  25   2.0000      -0.977102       -26.5883
  26   2.0000      -0.919149       -25.0113
  27   2.0000      -0.913909       -24.8687
  28   2.0000      -0.874627       -23.7998
  29   2.0000      -0.848664       -23.0933
  30   2.0000      -0.839224       -22.8364
  31   2.0000      -0.814001       -22.1501
  32   2.0000      -0.786154       -21.3923
  33   2.0000      -0.777633       -21.1605
  34   2.0000      -0.710616       -19.3369
  35   2.0000      -0.698548       -19.0084
  36   2.0000      -0.690089       -18.7783
  37   2.0000      -0.665497       -18.1091
  38   2.0000      -0.638037       -17.3619
  39   2.0000      -0.617882       -16.8134
  40   2.0000      -0.602011       -16.3816
  41   2.0000      -0.566110       -15.4046
  42   2.0000      -0.559440       -15.2231
  43   2.0000      -0.552279       -15.0283
  44   2.0000      -0.549128       -14.9425
  45   2.0000      -0.542747       -14.7689
  46   2.0000      -0.522838       -14.2271
  47   2.0000      -0.512834       -13.9549
  48   2.0000      -0.509232       -13.8569
  49   2.0000      -0.493918       -13.4402
  50   2.0000      -0.492492       -13.4014
  51   2.0000      -0.487895       -13.2763
  52   2.0000      -0.476068       -12.9545
  53   2.0000      -0.465078       -12.6554
  54   2.0000      -0.459820       -12.5123
  55   2.0000      -0.440465       -11.9857
  56   2.0000      -0.435410       -11.8481
  57   2.0000      -0.430534       -11.7154
  58   2.0000      -0.428094       -11.6490
  59   2.0000      -0.423519       -11.5245
  60   2.0000      -0.422118       -11.4864
  61   2.0000      -0.416954       -11.3459
  62   2.0000      -0.414809       -11.2875
  63   2.0000      -0.350261        -9.5311
  64   2.0000      -0.329366        -8.9625
  65   2.0000      -0.324421        -8.8279
  66   2.0000      -0.290877        -7.9152
  67   0.0000       0.025658         0.6982
  68   0.0000       0.073089         1.9889
  69   0.0000       0.114796         3.1238
  70   0.0000       0.121703         3.3117
  71   0.0000       0.125000         3.4014

MULLIKEN ATOMIC CHARGES
-----------------------
   0 S :    0.117746
   1 C :   -0.121163
   2 C :   -0.106645
   3 C :    0.024496
   4 C :   -0.125382
   5 H :   -0.001324
   6 C :    0.081937
   7 H :    0.026967
   8 H :    0.041147
   9 C :   -0.064849
  10 H :    0.016958
  11 H :    0.014442
  12 C :   -0.045208
  13 H :    0.016279
  14 H :    0.046724
  15 H :    0.035209
  16 S :    0.094135
  17 C :   -0.081978
  18 C :   -0.050906
  19 C :   -0.042693
  20 C :   -0.173141
  21 H :    0.031134
  22 C :    0.132338
  23 H :    0.028666
  24 H :    0.004516
  25 C :   -0.091077
  26 H :    0.027193
  27 H :    0.049368
  28 C :   -0.091550
  29 H :    0.021678
  30 H :    0.067886
  31 H :    0.025511
  32 H :    0.040553
  33 H :    0.051032
Sum of atomic charges:   -0.0000000

LOEWDIN ATOMIC CHARGES
----------------------
   0 S :    0.398051
   1 C :   -0.190399
   2 C :   -0.052861
   3 C :   -0.064325
   4 C :   -0.199077
   5 H :    0.022622
   6 C :   -0.030733
   7 H :    0.029369
   8 H :    0.040422
   9 C :   -0.042154
  10 H :    0.019437
  11 H :    0.023515
  12 C :   -0.068710
  13 H :    0.021611
  14 H :    0.031688
  15 H :    0.027366
  16 S :    0.410570
  17 C :   -0.188086
  18 C :   -0.073136
  19 C :   -0.051433
  20 C :   -0.192219
  21 H :    0.033730
  22 C :   -0.026706
  23 H :    0.036761
  24 H :    0.020056
  25 C :   -0.044708
  26 H :    0.020060
  27 H :    0.033410
  28 C :   -0.076225
  29 H :    0.015541
  30 H :    0.043490
  31 H :    0.023587
  32 H :    0.024498
  33 H :    0.024989

  Mayer bond orders larger than 0.100000
B(  0-S ,  1-C ) :   1.1253 B(  0-S ,  4-C ) :   1.1431 B(  1-C ,  2-C ) :   1.6143
B(  1-C , 32-H ) :   0.9734 B(  2-C ,  3-C ) :   1.2213 B(  2-C ,  6-C ) :   1.0166
B(  3-C ,  4-C ) :   1.5542 B(  3-C ,  5-H ) :   0.9969 B(  4-C , 20-C ) :   1.0753
B(  6-C ,  7-H ) :   0.9466 B(  6-C ,  8-H ) :   0.9297 B(  6-C ,  9-C ) :   1.0831
B(  9-C , 10-H ) :   0.9513 B(  9-C , 11-H ) :   0.9486 B(  9-C , 12-C ) :   1.0856
B( 12-C , 13-H ) :   0.9729 B( 12-C , 14-H ) :   0.9745 B( 12-C , 15-H ) :   0.9726
B( 16-S , 17-C ) :   1.1430 B( 16-S , 20-C ) :   1.1541 B( 17-C , 18-C ) :   1.6048
B( 17-C , 33-H ) :   0.9800 B( 18-C , 19-C ) :   1.2179 B( 18-C , 21-H ) :   0.9823
B( 19-C , 20-C ) :   1.5794 B( 19-C , 22-C ) :   1.0569 B( 22-C , 23-H ) :   0.9196
B( 22-C , 24-H ) :   0.9347 B( 22-C , 25-C ) :   1.0693 B( 25-C , 26-H ) :   0.9483
B( 25-C , 27-H ) :   0.9565 B( 25-C , 28-C ) :   1.0774 B( 28-C , 29-H ) :   0.9754
B( 28-C , 30-H ) :   0.9675 B( 28-C , 31-H ) :   0.9706

Dispersion correction           -0.014904026
FINAL SINGLE POINT ENERGY     -1339.873459974835

DIPOLE MOMENT
-------------
                                X             Y             Z
Electronic contribution:    -13.80838      22.18698      -9.31688
Nuclear contribution   :     14.01365     -22.84774       9.58849
                        -----------------------------------------
Total Dipole Moment    :      0.20527      -0.66076       0.27161
                        -----------------------------------------
Magnitude (a.u.)       :      0.74331
Magnitude (Debye)      :      1.88934

Rotational constants in cm-1:     0.018113     0.009671     0.007163
Rotational constants in MHz :   543.013003   289.937008   214.749061

                             ****ORCA TERMINATED NORMALLY****
TOTAL RUN TIME: 0 days 0 hours 0 minutes 29 seconds 311 msec
