                         Program Version 4.2.1 -  RELEASE  -
|  1> ! wB97X-D3 SP def2-SVP
|  2> %pal
|  3> nprocs 16
|  4> end
|  5>
|  6> * xyz 0 1
|  7> S 	 -6.80282 	 59.9181 	 57.152
|  8> C 	 -6.58521 	 59.4793 	 58.8341
|  9> C 	 -7.55705 	 60.1033 	 59.6239
| 10> C 	 -8.22877 	 61.1186 	 58.8387
| 11> C 	 -7.8631 	 61.1525 	 57.549
| 12> H 	 -8.89949 	 61.789 	 59.1571
| 13> C 	 -7.96025 	 59.9243 	 61.0443
| 14> H 	 -7.32637 	 59.0847 	 61.2905
| 15> H 	 -9.02938 	 59.6434 	 61.1738
| 16> C 	 -7.65282 	 60.9961 	 62.0544
| 17> H 	 -8.18788 	 61.8543 	 61.7083
| 18> H 	 -8.18229 	 60.8661 	 63.0275
| 19> C 	 -6.13436 	 61.4437 	 62.2548
| 20> H 	 -5.96063 	 62.0255 	 63.1073
| 21> H 	 -5.57219 	 60.4751 	 62.3779
| 22> H 	 -5.64181 	 62.032 	 61.5093
| 23> S 	 -9.50479 	 61.4587 	 55.2774
| 24> C 	 -9.85233 	 63.1739 	 54.749
| 25> C 	 -9.01809 	 64.1148 	 55.4155
| 26> C 	 -8.24072 	 63.4782 	 56.4247
| 27> C 	 -8.36654 	 62.0857 	 56.5085
| 28> H 	 -8.94946 	 65.1478 	 55.1227
| 29> C 	 -7.38076 	 64.3839 	 57.2435
| 30> H 	 -7.36039 	 63.9783 	 58.2308
| 31> H 	 -7.83949 	 65.3215 	 57.2159
| 32> C 	 -5.92711 	 64.3845 	 56.8071
| 33> H 	 -5.9539 	 64.3477 	 55.6956
| 34> H 	 -5.44083 	 63.5437 	 57.1696
| 35> C 	 -5.29633 	 65.6057 	 57.404
| 36> H 	 -5.49732 	 65.7018 	 58.4946
| 37> H 	 -5.61855 	 66.5089 	 56.8733
| 38> H 	 -4.22011 	 65.5501 	 57.3455
| 39> H 	 -6.12986 	 58.4967 	 58.9264
| 40> H 	 -10.4779 	 63.2789 	 53.9253
| 41> *
| 42>
| 43>                          ****END OF INPUT****

CARTESIAN COORDINATES (ANGSTROEM)
---------------------------------
  S     -6.802820   59.918100   57.152000
  C     -6.585210   59.479300   58.834100
  C     -7.557050   60.103300   59.623900
  C     -8.228770   61.118600   58.838700
  C     -7.863100   61.152500   57.549000
  H     -8.899490   61.789000   59.157100
  C     -7.960250   59.924300   61.044300
  H     -7.326370   59.084700   61.290500
  H     -9.029380   59.643400   61.173800
  C     -7.652820   60.996100   62.054400
  H     -8.187880   61.854300   61.708300
  H     -8.182290   60.866100   63.027500
  C     -6.134360   61.443700   62.254800
  H     -5.960630   62.025500   63.107300
  H     -5.572190   60.475100   62.377900
  H     -5.641810   62.032000   61.509300
  S     -9.504790   61.458700   55.277400
  C     -9.852330   63.173900   54.749000
  C     -9.018090   64.114800   55.415500
  C     -8.240720   63.478200   56.424700
  C     -8.366540   62.085700   56.508500
  H     -8.949460   65.147800   55.122700
  C     -7.380760   64.383900   57.243500
  H     -7.360390   63.978300   58.230800
  H     -7.839490   65.321500   57.215900
  C     -5.927110   64.384500   56.807100
  H     -5.953900   64.347700   55.695600
  H     -5.440830   63.543700   57.169600
  C     -5.296330   65.605700   57.404000
  H     -5.497320   65.701800   58.494600
  H     -5.618550   66.508900   56.873300
  H     -4.220110   65.550100   57.345500
  H     -6.129860   58.496700   58.926400
  H    -10.477900   63.278900   53.925300

 Total Charge           Charge          ....    0
 Multiplicity           Mult            ....    1
 Number of Electrons    NEL             ....  134
 Basis Dimension        Dim             ....  322

ORBITAL ENERGIES
----------------

  NO   OCC          E(Eh)            E(eV)
   0   2.0000     -88.966137     -2420.8917
   1   2.0000     -88.960567     -2420.7401
   2   2.0000     -10.329162      -281.0708
   3   2.0000     -10.326238      -280.9912
   4   2.0000     -10.320036      -280.8225
   5   2.0000     -10.316718      -280.7322
   6   2.0000     -10.307976      -280.4943
   7   2.0000     -10.301589      -280.3205
   8   2.0000     -10.300852      -280.3004
   9   2.0000     -10.292617      -280.0763
  10   2.0000     -10.291270      -280.0397
  11   2.0000     -10.278756      -279.6992
  12   2.0000     -10.278369      -279.6886
  13   2.0000     -10.275990      -279.6239
  14   2.0000     -10.275601      -279.6133
  15   2.0000     -10.275343      -279.6063
  16   2.0000      -8.079169      -219.8454
  17   2.0000      -8.077413      -219.7976
  18   2.0000      -6.037691      -164.2939
  19   2.0000      -6.035646      -164.2383
  20   2.0000      -6.034007      -164.1937
  21   2.0000      -6.031701      -164.1309
  22   2.0000      -6.029951      -164.0833
  23   2.0000      -6.028243      -164.0368
  24   2.0000      -1.010849       -27.5066
  25   2.0000      -0.977011       -26.5858
  26   2.0000      -0.917939       -24.9784
  27   2.0000      -0.914297       -24.8793
  28   2.0000      -0.864171       -23.5153
  29   2.0000      -0.851639       -23.1743
  30   2.0000      -0.846656       -23.0387
  31   2.0000      -0.813694       -22.1417
  32   2.0000      -0.787124       -21.4187
  33   2.0000      -0.770130       -20.9563
  34   2.0000      -0.713759       -19.4224
  35   2.0000      -0.703005       -19.1297
  36   2.0000      -0.689544       -18.7635
  37   2.0000      -0.666452       -18.1351
  38   2.0000      -0.654364       -17.8062
  39   2.0000      -0.622627       -16.9425
  40   2.0000      -0.599020       -16.3002
  41   2.0000      -0.576144       -15.6777
  42   2.0000      -0.565271       -15.3818
  43   2.0000      -0.553927       -15.0731
  44   2.0000      -0.539364       -14.6768
  45   2.0000      -0.525229       -14.2922
  46   2.0000      -0.518351       -14.1051
  47   2.0000      -0.514382       -13.9971
  48   2.0000      -0.508190       -13.8286
  49   2.0000      -0.499464       -13.5911
  50   2.0000      -0.486538       -13.2394
  51   2.0000      -0.483394       -13.1538
  52   2.0000      -0.468388       -12.7455
  53   2.0000      -0.454945       -12.3797
  54   2.0000      -0.454312       -12.3625
  55   2.0000      -0.450849       -12.2682
  56   2.0000      -0.447053       -12.1649
  57   2.0000      -0.445986       -12.1359
  58   2.0000      -0.435760       -11.8576
  59   2.0000      -0.425676       -11.5832
  60   2.0000      -0.420169       -11.4334
  61   2.0000      -0.414308       -11.2739
  62   2.0000      -0.402567       -10.9544
  63   2.0000      -0.338946        -9.2232
  64   2.0000      -0.328978        -8.9520
  65   2.0000      -0.327423        -8.9096
  66   2.0000      -0.301627        -8.2077
  67   0.0000       0.035753         0.9729
  68   0.0000       0.055463         1.5092
  69   0.0000       0.105418         2.8686
  70   0.0000       0.109517         2.9801
  71   0.0000       0.125833         3.4241

MULLIKEN ATOMIC CHARGES
-----------------------
   0 S :    0.098938
   1 C :   -0.122584
   2 C :   -0.097733
   3 C :    0.084390
   4 C :   -0.166782
   5 H :   -0.044040
   6 C :    0.083614
   7 H :    0.007046
   8 H :    0.051214
   9 C :   -0.073382
  10 H :    0.009603
  11 H :    0.035120
  12 C :   -0.042695
  13 H :    0.020462
  14 H :    0.030990
  15 H :    0.035108
  16 S :    0.081122
  17 C :   -0.083748
  18 C :   -0.017907
  19 C :   -0.070288
  20 C :   -0.136344
  21 H :    0.027893
  22 C :    0.113599
  23 H :    0.009273
  24 H :    0.004617
  25 C :   -0.040453
  26 H :    0.032782
  27 H :    0.018305
  28 C :   -0.044479
  29 H :    0.031305
  30 H :    0.032709
  31 H :    0.025945
  32 H :    0.063010
  33 H :    0.043390
Sum of atomic charges:   -0.0000000

LOEWDIN ATOMIC CHARGES
----------------------
   0 S :    0.432231
   1 C :   -0.203003
   2 C :   -0.050706
   3 C :   -0.051660
   4 C :   -0.213283
   5 H :    0.009800
   6 C :   -0.039028
   7 H :    0.026798
   8 H :    0.045475
   9 C :   -0.043949
  10 H :    0.015907
  11 H :    0.033263
  12 C :   -0.065269
  13 H :    0.019637
  14 H :    0.030185
  15 H :    0.024741
  16 S :    0.359447
  17 C :   -0.141717
  18 C :   -0.063647
  19 C :   -0.051152
  20 C :   -0.195393
  21 H :    0.033766
  22 C :   -0.024873
  23 H :    0.028661
  24 H :    0.020154
  25 C :   -0.029841
  26 H :    0.027249
  27 H :    0.017705
  28 C :   -0.064042
  29 H :    0.029526
  30 H :    0.025517
  31 H :    0.021929
  32 H :    0.025422
  33 H :    0.010149

  Mayer bond orders larger than 0.100000
B(  0-S ,  1-C ) :   1.1451 B(  0-S ,  4-C ) :   1.1769 B(  1-C ,  2-C ) :   1.6004
B(  1-C , 32-H ) :   0.9628 B(  2-C ,  3-C ) :   1.2048 B(  2-C ,  6-C ) :   1.0293
B(  3-C ,  4-C ) :   1.6093 B(  3-C ,  5-H ) :   1.0194 B(  4-C , 20-C ) :   0.9719
B(  6-C ,  7-H ) :   0.9336 B(  6-C ,  8-H ) :   0.9348 B(  6-C ,  9-C ) :   1.0806
B(  9-C , 10-H ) :   0.9513 B(  9-C , 11-H ) :   0.9550 B(  9-C , 12-C ) :   1.0565
B( 12-C , 13-H ) :   0.9758 B( 12-C , 14-H ) :   0.9794 B( 12-C , 15-H ) :   0.9770
B( 16-S , 17-C ) :   1.1590 B( 16-S , 20-C ) :   1.1262 B( 17-C , 18-C ) :   1.5779
B( 17-C , 20-C ) :   0.1116 B( 17-C , 33-H ) :   0.9781 B( 18-C , 19-C ) :   1.2407
B( 18-C , 21-H ) :   0.9906 B( 19-C , 20-C ) :   1.6127 B( 19-C , 22-C ) :   1.0542
B( 22-C , 23-H ) :   0.9069 B( 22-C , 24-H ) :   0.9397 B( 22-C , 25-C ) :   1.0666
B( 25-C , 26-H ) :   0.9591 B( 25-C , 27-H ) :   0.9486 B( 25-C , 28-C ) :   1.0908
B( 28-C , 29-H ) :   0.9672 B( 28-C , 30-H ) :   0.9764 B( 28-C , 31-H ) :   0.9725

Dispersion correction           -0.014479252
FINAL SINGLE POINT ENERGY     -1339.845638199469

DIPOLE MOMENT
-------------
                                X             Y             Z
Electronic contribution:    -11.34242     -14.42214     -21.13229
Nuclear contribution   :     11.29697      14.82497      21.54921
                        -----------------------------------------
Total Dipole Moment    :     -0.04546       0.40282       0.41691
                        -----------------------------------------
Magnitude (a.u.)       :      0.58151
Magnitude (Debye)      :      1.47807

Rotational constants in cm-1:     0.017412     0.009261     0.007293
Rotational constants in MHz :   521.987155   277.638162   218.627894

                             ****ORCA TERMINATED NORMALLY****
TOTAL RUN TIME: 0 days 0 hours 0 minutes 34 seconds 296 msec
