                         Program Version 4.2.1 -  RELEASE  -
|  1> ! wB97X-D3 SP def2-SVP
|  2> %pal
|  3> nprocs 16
|  4> end
|  5>
|  6> * xyz 0 1
|  7> S 	 -7.55406 	 29.1163 	 53.403
|  8> C 	 -7.14449 	 27.4171 	 53.5617
|  9> C 	 -5.85123 	 27.164 	 53.2063
| 10> C 	 -5.32227 	 28.2985 	 52.5453
| 11> C 	 -6.0409 	 29.3966 	 52.6823
| 12> H 	 -4.39749 	 28.4187 	 52.0615
| 13> C 	 -5.24578 	 25.7715 	 53.4509
| 14> H 	 -4.59856 	 25.5248 	 52.6256
| 15> H 	 -5.99205 	 24.9864 	 53.2736
| 16> C 	 -4.54114 	 25.5731 	 54.7857
| 17> H 	 -4.37653 	 24.4925 	 54.9711
| 18> H 	 -3.51895 	 25.9952 	 54.7132
| 19> C 	 -5.34408 	 26.1619 	 55.9984
| 20> H 	 -5.30945 	 27.1985 	 55.9292
| 21> H 	 -6.38885 	 25.8012 	 55.913
| 22> H 	 -4.88487 	 25.9586 	 57.004
| 23> S 	 -3.94208 	 31.2025 	 52.2218
| 24> C 	 -4.41743 	 32.749 	 51.6623
| 25> C 	 -5.66219 	 32.8689 	 51.107
| 26> C 	 -6.42041 	 31.6478 	 51.3699
| 27> C 	 -5.66849 	 30.6736 	 52.1012
| 28> H 	 -5.99929 	 33.7452 	 50.6226
| 29> C 	 -7.85628 	 31.492 	 51.0528
| 30> H 	 -7.94577 	 30.3705 	 50.954
| 31> H 	 -8.18559 	 31.7766 	 50.0758
| 32> C 	 -8.83624 	 32.2484 	 52.0435
| 33> H 	 -8.39448 	 32.1867 	 53.0284
| 34> H 	 -9.77332 	 31.7403 	 52.1312
| 35> C 	 -9.16507 	 33.7087 	 51.6053
| 36> H 	 -9.89012 	 34.2462 	 52.2082
| 37> H 	 -9.42715 	 33.7172 	 50.5781
| 38> H 	 -8.31331 	 34.4236 	 51.5286
| 39> H 	 -7.7314 	 26.7175 	 54.0999
| 40> H 	 -3.69724 	 33.5251 	 51.4775
| 41> *
| 42>
| 43>                          ****END OF INPUT****

CARTESIAN COORDINATES (ANGSTROEM)
---------------------------------
  S     -7.554060   29.116300   53.403000
  C     -7.144490   27.417100   53.561700
  C     -5.851230   27.164000   53.206300
  C     -5.322270   28.298500   52.545300
  C     -6.040900   29.396600   52.682300
  H     -4.397490   28.418700   52.061500
  C     -5.245780   25.771500   53.450900
  H     -4.598560   25.524800   52.625600
  H     -5.992050   24.986400   53.273600
  C     -4.541140   25.573100   54.785700
  H     -4.376530   24.492500   54.971100
  H     -3.518950   25.995200   54.713200
  C     -5.344080   26.161900   55.998400
  H     -5.309450   27.198500   55.929200
  H     -6.388850   25.801200   55.913000
  H     -4.884870   25.958600   57.004000
  S     -3.942080   31.202500   52.221800
  C     -4.417430   32.749000   51.662300
  C     -5.662190   32.868900   51.107000
  C     -6.420410   31.647800   51.369900
  C     -5.668490   30.673600   52.101200
  H     -5.999290   33.745200   50.622600
  C     -7.856280   31.492000   51.052800
  H     -7.945770   30.370500   50.954000
  H     -8.185590   31.776600   50.075800
  C     -8.836240   32.248400   52.043500
  H     -8.394480   32.186700   53.028400
  H     -9.773320   31.740300   52.131200
  C     -9.165070   33.708700   51.605300
  H     -9.890120   34.246200   52.208200
  H     -9.427150   33.717200   50.578100
  H     -8.313310   34.423600   51.528600
  H     -7.731400   26.717500   54.099900
  H     -3.697240   33.525100   51.477500

 Total Charge           Charge          ....    0
 Multiplicity           Mult            ....    1
 Number of Electrons    NEL             ....  134
 Basis Dimension        Dim             ....  322

ORBITAL ENERGIES
----------------

  NO   OCC          E(Eh)            E(eV)
   0   2.0000     -88.967148     -2420.9192
   1   2.0000     -88.965666     -2420.8789
   2   2.0000     -10.330498      -281.1071
   3   2.0000     -10.317210      -280.7456
   4   2.0000     -10.312632      -280.6210
   5   2.0000     -10.308689      -280.5137
   6   2.0000     -10.306453      -280.4529
   7   2.0000     -10.299334      -280.2591
   8   2.0000     -10.293004      -280.0869
   9   2.0000     -10.292465      -280.0722
  10   2.0000     -10.290968      -280.0315
  11   2.0000     -10.289837      -280.0007
  12   2.0000     -10.288195      -279.9560
  13   2.0000     -10.280849      -279.7561
  14   2.0000     -10.278669      -279.6968
  15   2.0000     -10.277274      -279.6588
  16   2.0000      -8.081682      -219.9137
  17   2.0000      -8.081027      -219.8959
  18   2.0000      -6.040187      -164.3618
  19   2.0000      -6.039413      -164.3408
  20   2.0000      -6.036478      -164.2609
  21   2.0000      -6.035581      -164.2365
  22   2.0000      -6.032240      -164.1456
  23   2.0000      -6.031733      -164.1318
  24   2.0000      -1.015935       -27.6450
  25   2.0000      -0.984292       -26.7839
  26   2.0000      -0.911426       -24.8012
  27   2.0000      -0.903625       -24.5889
  28   2.0000      -0.869926       -23.6719
  29   2.0000      -0.851606       -23.1734
  30   2.0000      -0.843954       -22.9652
  31   2.0000      -0.815721       -22.1969
  32   2.0000      -0.788003       -21.4426
  33   2.0000      -0.772305       -21.0155
  34   2.0000      -0.713406       -19.4128
  35   2.0000      -0.699293       -19.0287
  36   2.0000      -0.690657       -18.7937
  37   2.0000      -0.667413       -18.1612
  38   2.0000      -0.640131       -17.4188
  39   2.0000      -0.617416       -16.8007
  40   2.0000      -0.599605       -16.3161
  41   2.0000      -0.570644       -15.5280
  42   2.0000      -0.554210       -15.0808
  43   2.0000      -0.547145       -14.8886
  44   2.0000      -0.543254       -14.7827
  45   2.0000      -0.536296       -14.5933
  46   2.0000      -0.515748       -14.0342
  47   2.0000      -0.513113       -13.9625
  48   2.0000      -0.497661       -13.5421
  49   2.0000      -0.490086       -13.3359
  50   2.0000      -0.484369       -13.1803
  51   2.0000      -0.477596       -12.9961
  52   2.0000      -0.472650       -12.8614
  53   2.0000      -0.466750       -12.7009
  54   2.0000      -0.464437       -12.6380
  55   2.0000      -0.449083       -12.2202
  56   2.0000      -0.444394       -12.0926
  57   2.0000      -0.443406       -12.0657
  58   2.0000      -0.433598       -11.7988
  59   2.0000      -0.421877       -11.4799
  60   2.0000      -0.419139       -11.4054
  61   2.0000      -0.414610       -11.2821
  62   2.0000      -0.409087       -11.1318
  63   2.0000      -0.353465        -9.6183
  64   2.0000      -0.333697        -9.0803
  65   2.0000      -0.329757        -8.9731
  66   2.0000      -0.286853        -7.8057
  67   0.0000       0.028396         0.7727
  68   0.0000       0.073300         1.9946
  69   0.0000       0.101311         2.7568
  70   0.0000       0.118341         3.2202
  71   0.0000       0.134912         3.6711

MULLIKEN ATOMIC CHARGES
-----------------------
   0 S :    0.108894
   1 C :   -0.110413
   2 C :   -0.073670
   3 C :    0.006788
   4 C :   -0.111449
   5 H :   -0.012693
   6 C :    0.068580
   7 H :    0.015227
   8 H :    0.026235
   9 C :   -0.081939
  10 H :    0.034961
  11 H :    0.034848
  12 C :   -0.052813
  13 H :    0.036972
  14 H :    0.032743
  15 H :    0.041649
  16 S :    0.099950
  17 C :   -0.064022
  18 C :   -0.013785
  19 C :   -0.041968
  20 C :   -0.159090
  21 H :    0.007742
  22 C :    0.012409
  23 H :    0.043785
  24 H :    0.012120
  25 C :   -0.024519
  26 H :    0.028977
  27 H :    0.030149
  28 C :   -0.050582
  29 H :    0.041693
  30 H :    0.012556
  31 H :    0.018739
  32 H :    0.033974
  33 H :    0.047953
Sum of atomic charges:   -0.0000000

LOEWDIN ATOMIC CHARGES
----------------------
   0 S :    0.431140
   1 C :   -0.182910
   2 C :   -0.055873
   3 C :   -0.067761
   4 C :   -0.205527
   5 H :    0.019596
   6 C :   -0.035889
   7 H :    0.029873
   8 H :    0.033208
   9 C :   -0.042391
  10 H :    0.026636
  11 H :    0.025443
  12 C :   -0.064505
  13 H :    0.017299
  14 H :    0.026025
  15 H :    0.032412
  16 S :    0.394317
  17 C :   -0.185132
  18 C :   -0.064709
  19 C :   -0.045370
  20 C :   -0.179075
  21 H :    0.026540
  22 C :   -0.049588
  23 H :    0.035718
  24 H :    0.024895
  25 C :   -0.029913
  26 H :    0.019716
  27 H :    0.024580
  28 C :   -0.070793
  29 H :    0.028356
  30 H :    0.018751
  31 H :    0.025672
  32 H :    0.015927
  33 H :    0.023331

  Mayer bond orders larger than 0.100000
B(  0-S ,  1-C ) :   1.1349 B(  0-S ,  4-C ) :   1.1403 B(  1-C ,  2-C ) :   1.6245
B(  1-C , 32-H ) :   0.9678 B(  2-C ,  3-C ) :   1.2135 B(  2-C ,  6-C ) :   1.0142
B(  3-C ,  4-C ) :   1.6005 B(  3-C ,  5-H ) :   1.0015 B(  4-C , 20-C ) :   1.0429
B(  6-C ,  7-H ) :   0.9378 B(  6-C ,  8-H ) :   0.9430 B(  6-C ,  9-C ) :   1.0690
B(  9-C , 10-H ) :   0.9576 B(  9-C , 11-H ) :   0.9575 B(  9-C , 12-C ) :   1.0760
B( 12-C , 13-H ) :   0.9703 B( 12-C , 14-H ) :   0.9744 B( 12-C , 15-H ) :   0.9741
B( 16-S , 17-C ) :   1.1590 B( 16-S , 20-C ) :   1.1204 B( 17-C , 18-C ) :   1.6320
B( 17-C , 33-H ) :   0.9589 B( 18-C , 19-C ) :   1.2051 B( 18-C , 21-H ) :   0.9975
B( 19-C , 20-C ) :   1.5792 B( 19-C , 22-C ) :   1.0690 B( 22-C , 23-H ) :   0.9305
B( 22-C , 24-H ) :   0.9376 B( 22-C , 25-C ) :   1.0351 B( 25-C , 26-H ) :   0.9600
B( 25-C , 27-H ) :   0.9567 B( 25-C , 28-C ) :   1.0685 B( 28-C , 29-H ) :   0.9752
B( 28-C , 30-H ) :   0.9737 B( 28-C , 31-H ) :   0.9725

Dispersion correction           -0.015024480
FINAL SINGLE POINT ENERGY     -1339.862533727063

DIPOLE MOMENT
-------------
                                X             Y             Z
Electronic contribution:      7.61704       4.70460      -4.16306
Nuclear contribution   :     -7.68404      -4.78465       4.01566
                        -----------------------------------------
Total Dipole Moment    :     -0.06700      -0.08005      -0.14740
                        -----------------------------------------
Magnitude (a.u.)       :      0.18062
Magnitude (Debye)      :      0.45910

Rotational constants in cm-1:     0.024762     0.008013     0.006523
Rotational constants in MHz :   742.338783   240.234509   195.545509

                             ****ORCA TERMINATED NORMALLY****
TOTAL RUN TIME: 0 days 0 hours 0 minutes 35 seconds 258 msec
