                         Program Version 4.2.1 -  RELEASE  -
|  1> ! wB97X-D3 SP def2-SVP
|  2> %pal
|  3> nprocs 16
|  4> end
|  5>
|  6> * xyz 0 1
|  7> S 	 -41.999 	 54.6061 	 107.918
|  8> C 	 -40.4859 	 55.3412 	 107.49
|  9> C 	 -39.4406 	 54.3704 	 107.342
| 10> C 	 -39.9951 	 53.0592 	 107.427
| 11> C 	 -41.3223 	 53.045 	 107.558
| 12> H 	 -39.4725 	 52.1628 	 107.294
| 13> C 	 -37.9965 	 54.7437 	 107.193
| 14> H 	 -37.9294 	 55.8038 	 107.236
| 15> H 	 -37.6385 	 54.4721 	 106.165
| 16> C 	 -37.0336 	 54.154 	 108.223
| 17> H 	 -36.8521 	 53.0867 	 108.054
| 18> H 	 -36.0644 	 54.5746 	 108.02
| 19> C 	 -37.1141 	 54.2795 	 109.755
| 20> H 	 -37.4044 	 55.3165 	 110.034
| 21> H 	 -37.8917 	 53.6818 	 110.155
| 22> H 	 -36.1923 	 53.9482 	 110.234
| 23> S 	 -43.0321 	 51.9413 	 109.281
| 24> C 	 -43.8469 	 50.4909 	 108.769
| 25> C 	 -43.1138 	 49.8135 	 107.791
| 26> C 	 -42.1676 	 50.6107 	 107.158
| 27> C 	 -42.1149 	 51.8612 	 107.784
| 28> H 	 -43.3791 	 48.808 	 107.522
| 29> C 	 -41.3443 	 50.1651 	 105.977
| 30> H 	 -40.807 	 50.9579 	 105.511
| 31> H 	 -41.957 	 49.8186 	 105.147
| 32> C 	 -40.3211 	 49.033 	 106.274
| 33> H 	 -40.8623 	 48.2641 	 106.733
| 34> H 	 -39.6821 	 49.419 	 107.06
| 35> C 	 -39.751 	 48.5411 	 105.013
| 36> H 	 -39.2838 	 49.3002 	 104.43
| 37> H 	 -40.4936 	 48.0311 	 104.387
| 38> H 	 -38.9831 	 47.6667 	 105.117
| 39> H 	 -40.3658 	 56.3958 	 107.515
| 40> H 	 -44.7009 	 50.1144 	 109.365
| 41> *
| 42>
| 43>                          ****END OF INPUT****

CARTESIAN COORDINATES (ANGSTROEM)
---------------------------------
  S    -41.999000   54.606100  107.918000
  C    -40.485900   55.341200  107.490000
  C    -39.440600   54.370400  107.342000
  C    -39.995100   53.059200  107.427000
  C    -41.322300   53.045000  107.558000
  H    -39.472500   52.162800  107.294000
  C    -37.996500   54.743700  107.193000
  H    -37.929400   55.803800  107.236000
  H    -37.638500   54.472100  106.165000
  C    -37.033600   54.154000  108.223000
  H    -36.852100   53.086700  108.054000
  H    -36.064400   54.574600  108.020000
  C    -37.114100   54.279500  109.755000
  H    -37.404400   55.316500  110.034000
  H    -37.891700   53.681800  110.155000
  H    -36.192300   53.948200  110.234000
  S    -43.032100   51.941300  109.281000
  C    -43.846900   50.490900  108.769000
  C    -43.113800   49.813500  107.791000
  C    -42.167600   50.610700  107.158000
  C    -42.114900   51.861200  107.784000
  H    -43.379100   48.808000  107.522000
  C    -41.344300   50.165100  105.977000
  H    -40.807000   50.957900  105.511000
  H    -41.957000   49.818600  105.147000
  C    -40.321100   49.033000  106.274000
  H    -40.862300   48.264100  106.733000
  H    -39.682100   49.419000  107.060000
  C    -39.751000   48.541100  105.013000
  H    -39.283800   49.300200  104.430000
  H    -40.493600   48.031100  104.387000
  H    -38.983100   47.666700  105.117000
  H    -40.365800   56.395800  107.515000
  H    -44.700900   50.114400  109.365000

 Total Charge           Charge          ....    0
 Multiplicity           Mult            ....    1
 Number of Electrons    NEL             ....  134
 Basis Dimension        Dim             ....  322

ORBITAL ENERGIES
----------------

  NO   OCC          E(Eh)            E(eV)
   0   2.0000     -88.964996     -2420.8606
   1   2.0000     -88.963816     -2420.8285
   2   2.0000     -10.321454      -280.8610
   3   2.0000     -10.317311      -280.7483
   4   2.0000     -10.315526      -280.6997
   5   2.0000     -10.313670      -280.6492
   6   2.0000     -10.304262      -280.3932
   7   2.0000     -10.299997      -280.2772
   8   2.0000     -10.295565      -280.1566
   9   2.0000     -10.291348      -280.0418
  10   2.0000     -10.287330      -279.9325
  11   2.0000     -10.284571      -279.8574
  12   2.0000     -10.284350      -279.8514
  13   2.0000     -10.283380      -279.8250
  14   2.0000     -10.280449      -279.7453
  15   2.0000     -10.275942      -279.6226
  16   2.0000      -8.080269      -219.8753
  17   2.0000      -8.078994      -219.8406
  18   2.0000      -6.038629      -164.3194
  19   2.0000      -6.037213      -164.2809
  20   2.0000      -6.034826      -164.2160
  21   2.0000      -6.033773      -164.1873
  22   2.0000      -6.031035      -164.1128
  23   2.0000      -6.029686      -164.0761
  24   2.0000      -1.012414       -27.5492
  25   2.0000      -0.985114       -26.8063
  26   2.0000      -0.918720       -24.9997
  27   2.0000      -0.910687       -24.7810
  28   2.0000      -0.867596       -23.6085
  29   2.0000      -0.860583       -23.4177
  30   2.0000      -0.849518       -23.1166
  31   2.0000      -0.815254       -22.1842
  32   2.0000      -0.785540       -21.3756
  33   2.0000      -0.769280       -20.9332
  34   2.0000      -0.709202       -19.2984
  35   2.0000      -0.701457       -19.0876
  36   2.0000      -0.691838       -18.8259
  37   2.0000      -0.660938       -17.9850
  38   2.0000      -0.644841       -17.5470
  39   2.0000      -0.626278       -17.0419
  40   2.0000      -0.604161       -16.4401
  41   2.0000      -0.572594       -15.5811
  42   2.0000      -0.554639       -15.0925
  43   2.0000      -0.552018       -15.0212
  44   2.0000      -0.543922       -14.8009
  45   2.0000      -0.523940       -14.2571
  46   2.0000      -0.519987       -14.1496
  47   2.0000      -0.517380       -14.0786
  48   2.0000      -0.502164       -13.6646
  49   2.0000      -0.495763       -13.4904
  50   2.0000      -0.488170       -13.2838
  51   2.0000      -0.480789       -13.0829
  52   2.0000      -0.471782       -12.8378
  53   2.0000      -0.466063       -12.6822
  54   2.0000      -0.462756       -12.5922
  55   2.0000      -0.456636       -12.4257
  56   2.0000      -0.449716       -12.2374
  57   2.0000      -0.445964       -12.1353
  58   2.0000      -0.438834       -11.9413
  59   2.0000      -0.423975       -11.5370
  60   2.0000      -0.416343       -11.3293
  61   2.0000      -0.413190       -11.2435
  62   2.0000      -0.411764       -11.2047
  63   2.0000      -0.347114        -9.4454
  64   2.0000      -0.332622        -9.0511
  65   2.0000      -0.324894        -8.8408
  66   2.0000      -0.282919        -7.6986
  67   0.0000       0.025442         0.6923
  68   0.0000       0.066901         1.8205
  69   0.0000       0.099328         2.7029
  70   0.0000       0.127679         3.4743
  71   0.0000       0.131969         3.5911

MULLIKEN ATOMIC CHARGES
-----------------------
   0 S :    0.112535
   1 C :   -0.111876
   2 C :   -0.096252
   3 C :    0.048010
   4 C :   -0.136273
   5 H :   -0.014173
   6 C :    0.124848
   7 H :    0.003216
   8 H :    0.041223
   9 C :   -0.110097
  10 H :    0.021538
  11 H :    0.019204
  12 C :   -0.030701
  13 H :    0.027338
  14 H :    0.025146
  15 H :    0.038388
  16 S :    0.102439
  17 C :   -0.107996
  18 C :   -0.039209
  19 C :    0.016600
  20 C :   -0.168855
  21 H :    0.011878
  22 C :    0.041609
  23 H :    0.007799
  24 H :    0.017136
  25 C :   -0.026748
  26 H :    0.007125
  27 H :    0.027741
  28 C :   -0.051360
  29 H :    0.027181
  30 H :    0.029683
  31 H :    0.040858
  32 H :    0.036914
  33 H :    0.065130
Sum of atomic charges:   -0.0000000

LOEWDIN ATOMIC CHARGES
----------------------
   0 S :    0.414330
   1 C :   -0.197076
   2 C :   -0.056017
   3 C :   -0.054491
   4 C :   -0.199739
   5 H :    0.023607
   6 C :   -0.030257
   7 H :    0.025549
   8 H :    0.042419
   9 C :   -0.049703
  10 H :    0.022196
  11 H :    0.024233
  12 C :   -0.061519
  13 H :    0.026654
  14 H :    0.018319
  15 H :    0.030864
  16 S :    0.402341
  17 C :   -0.191597
  18 C :   -0.064461
  19 C :   -0.061754
  20 C :   -0.182583
  21 H :    0.027998
  22 C :   -0.027441
  23 H :    0.022287
  24 H :    0.029156
  25 C :   -0.036694
  26 H :    0.016914
  27 H :    0.023576
  28 C :   -0.068751
  29 H :    0.019622
  30 H :    0.029207
  31 H :    0.036952
  32 H :    0.016523
  33 H :    0.029332

  Mayer bond orders larger than 0.100000
B(  0-S ,  1-C ) :   1.1517 B(  0-S ,  4-C ) :   1.1478 B(  1-C ,  2-C ) :   1.5736
B(  1-C , 32-H ) :   0.9742 B(  2-C ,  3-C ) :   1.2336 B(  2-C ,  6-C ) :   1.0413
B(  3-C ,  4-C ) :   1.5708 B(  3-C ,  5-H ) :   1.0074 B(  4-C , 20-C ) :   1.0417
B(  6-C ,  7-H ) :   0.9317 B(  6-C ,  8-H ) :   0.9296 B(  6-C ,  9-C ) :   1.0748
B(  9-C , 10-H ) :   0.9531 B(  9-C , 11-H ) :   0.9553 B(  9-C , 12-C ) :   1.0769
B( 12-C , 13-H ) :   0.9745 B( 12-C , 14-H ) :   0.9743 B( 12-C , 15-H ) :   0.9725
B( 16-S , 17-C ) :   1.1491 B( 16-S , 20-C ) :   1.1664 B( 17-C , 18-C ) :   1.5839
B( 17-C , 20-C ) :   0.1094 B( 17-C , 33-H ) :   0.9692 B( 18-C , 19-C ) :   1.2447
B( 18-C , 21-H ) :   0.9944 B( 19-C , 20-C ) :   1.5760 B( 19-C , 22-C ) :   1.0507
B( 22-C , 23-H ) :   0.9313 B( 22-C , 24-H ) :   0.9333 B( 22-C , 25-C ) :   1.0543
B( 25-C , 26-H ) :   0.9503 B( 25-C , 27-H ) :   0.9524 B( 25-C , 28-C ) :   1.0891
B( 28-C , 29-H ) :   0.9737 B( 28-C , 30-H ) :   0.9677 B( 28-C , 31-H ) :   0.9692

Dispersion correction           -0.014104239
FINAL SINGLE POINT ENERGY     -1339.862577324088

DIPOLE MOMENT
-------------
                                X             Y             Z
Electronic contribution:    -24.06892      10.10295       8.00127
Nuclear contribution   :     24.60641     -10.41640      -8.16627
                        -----------------------------------------
Total Dipole Moment    :      0.53750      -0.31345      -0.16501
                        -----------------------------------------
Magnitude (a.u.)       :      0.64372
Magnitude (Debye)      :      1.63622

Rotational constants in cm-1:     0.016423     0.009591     0.007147
Rotational constants in MHz :   492.336864   287.542306   214.270513

                             ****ORCA TERMINATED NORMALLY****
TOTAL RUN TIME: 0 days 0 hours 0 minutes 30 seconds 391 msec
