                         Program Version 4.2.1 -  RELEASE  -
|  1> ! wB97X-D3 SP def2-SVP
|  2> %pal
|  3> nprocs 16
|  4> end
|  5>
|  6> * xyz 0 1
|  7> S 	 5.49957 	 21.5593 	 40.5684
|  8> C 	 5.79309 	 20.0352 	 39.8187
|  9> C 	 6.79682 	 20.0971 	 38.9058
| 10> C 	 7.23152 	 21.4412 	 38.7593
| 11> C 	 6.6438 	 22.3755 	 39.6114
| 12> H 	 7.99774 	 21.7184 	 38.1376
| 13> C 	 7.44069 	 18.9293 	 38.0953
| 14> H 	 6.79691 	 17.9871 	 38.1855
| 15> H 	 8.34812 	 18.8234 	 38.6225
| 16> C 	 7.71789 	 19.2112 	 36.6034
| 17> H 	 6.82688 	 19.3788 	 36.0778
| 18> H 	 8.35438 	 20.0594 	 36.4904
| 19> C 	 8.26337 	 17.9874 	 35.8517
| 20> H 	 8.48754 	 18.3482 	 34.8296
| 21> H 	 9.23326 	 17.5542 	 36.3313
| 22> H 	 7.54663 	 17.2371 	 35.5936
| 23> S 	 7.40493 	 24.3819 	 41.2943
| 24> C 	 8.06431 	 25.9174 	 40.6852
| 25> C 	 7.85147 	 26.0163 	 39.2885
| 26> C 	 7.24715 	 24.8327 	 38.744
| 27> C 	 6.98757 	 23.8301 	 39.685
| 28> H 	 8.32807 	 26.9063 	 38.7339
| 29> C 	 7.12921 	 24.6661 	 37.1775
| 30> H 	 6.60098 	 25.5049 	 36.7343
| 31> H 	 6.47069 	 23.7734 	 37.0107
| 32> C 	 8.47565 	 24.424 	 36.4979
| 33> H 	 8.83293 	 23.4276 	 36.7993
| 34> H 	 9.13447 	 25.1888 	 36.8098
| 35> C 	 8.41753 	 24.3419 	 34.9746
| 36> H 	 7.54442 	 23.7604 	 34.6211
| 37> H 	 9.34342 	 23.8435 	 34.6167
| 38> H 	 8.44204 	 25.335 	 34.5411
| 39> H 	 5.37083 	 19.0992 	 40.1838
| 40> H 	 8.45752 	 26.7653 	 41.2357
| 41> *
| 42>
| 43>                          ****END OF INPUT****

CARTESIAN COORDINATES (ANGSTROEM)
---------------------------------
  S      5.499570   21.559300   40.568400
  C      5.793090   20.035200   39.818700
  C      6.796820   20.097100   38.905800
  C      7.231520   21.441200   38.759300
  C      6.643800   22.375500   39.611400
  H      7.997740   21.718400   38.137600
  C      7.440690   18.929300   38.095300
  H      6.796910   17.987100   38.185500
  H      8.348120   18.823400   38.622500
  C      7.717890   19.211200   36.603400
  H      6.826880   19.378800   36.077800
  H      8.354380   20.059400   36.490400
  C      8.263370   17.987400   35.851700
  H      8.487540   18.348200   34.829600
  H      9.233260   17.554200   36.331300
  H      7.546630   17.237100   35.593600
  S      7.404930   24.381900   41.294300
  C      8.064310   25.917400   40.685200
  C      7.851470   26.016300   39.288500
  C      7.247150   24.832700   38.744000
  C      6.987570   23.830100   39.685000
  H      8.328070   26.906300   38.733900
  C      7.129210   24.666100   37.177500
  H      6.600980   25.504900   36.734300
  H      6.470690   23.773400   37.010700
  C      8.475650   24.424000   36.497900
  H      8.832930   23.427600   36.799300
  H      9.134470   25.188800   36.809800
  C      8.417530   24.341900   34.974600
  H      7.544420   23.760400   34.621100
  H      9.343420   23.843500   34.616700
  H      8.442040   25.335000   34.541100
  H      5.370830   19.099200   40.183800
  H      8.457520   26.765300   41.235700

 Total Charge           Charge          ....    0
 Multiplicity           Mult            ....    1
 Number of Electrons    NEL             ....  134
 Basis Dimension        Dim             ....  322

ORBITAL ENERGIES
----------------

  NO   OCC          E(Eh)            E(eV)
   0   2.0000     -88.967538     -2420.9298
   1   2.0000     -88.966240     -2420.8945
   2   2.0000     -10.335041      -281.2308
   3   2.0000     -10.331131      -281.1244
   4   2.0000     -10.324239      -280.9368
   5   2.0000     -10.311722      -280.5962
   6   2.0000     -10.309434      -280.5340
   7   2.0000     -10.306101      -280.4433
   8   2.0000     -10.300254      -280.2842
   9   2.0000     -10.299295      -280.2581
  10   2.0000     -10.295241      -280.1478
  11   2.0000     -10.287505      -279.9372
  12   2.0000     -10.285606      -279.8856
  13   2.0000     -10.285511      -279.8830
  14   2.0000     -10.283551      -279.8297
  15   2.0000     -10.281029      -279.7610
  16   2.0000      -8.082194      -219.9277
  17   2.0000      -8.081626      -219.9122
  18   2.0000      -6.040597      -164.3730
  19   2.0000      -6.040218      -164.3627
  20   2.0000      -6.036396      -164.2587
  21   2.0000      -6.036077      -164.2500
  22   2.0000      -6.033128      -164.1698
  23   2.0000      -6.032465      -164.1517
  24   2.0000      -1.010513       -27.4975
  25   2.0000      -0.983107       -26.7517
  26   2.0000      -0.911904       -24.8142
  27   2.0000      -0.906304       -24.6618
  28   2.0000      -0.868883       -23.6435
  29   2.0000      -0.850509       -23.1435
  30   2.0000      -0.844897       -22.9908
  31   2.0000      -0.812819       -22.1179
  32   2.0000      -0.782202       -21.2848
  33   2.0000      -0.772223       -21.0133
  34   2.0000      -0.707709       -19.2577
  35   2.0000      -0.695658       -18.9298
  36   2.0000      -0.690579       -18.7916
  37   2.0000      -0.659589       -17.9483
  38   2.0000      -0.642630       -17.4868
  39   2.0000      -0.622874       -16.9493
  40   2.0000      -0.588394       -16.0110
  41   2.0000      -0.576432       -15.6855
  42   2.0000      -0.569323       -15.4921
  43   2.0000      -0.564507       -15.3610
  44   2.0000      -0.526139       -14.3170
  45   2.0000      -0.519674       -14.1410
  46   2.0000      -0.515664       -14.0319
  47   2.0000      -0.510071       -13.8797
  48   2.0000      -0.508147       -13.8274
  49   2.0000      -0.500230       -13.6120
  50   2.0000      -0.490894       -13.3579
  51   2.0000      -0.479888       -13.0584
  52   2.0000      -0.476724       -12.9723
  53   2.0000      -0.469586       -12.7781
  54   2.0000      -0.460575       -12.5329
  55   2.0000      -0.448406       -12.2018
  56   2.0000      -0.442002       -12.0275
  57   2.0000      -0.434263       -11.8169
  58   2.0000      -0.430661       -11.7189
  59   2.0000      -0.428887       -11.6706
  60   2.0000      -0.421716       -11.4755
  61   2.0000      -0.415543       -11.3075
  62   2.0000      -0.413292       -11.2462
  63   2.0000      -0.346615        -9.4319
  64   2.0000      -0.332205        -9.0398
  65   2.0000      -0.330694        -8.9986
  66   2.0000      -0.296019        -8.0551
  67   0.0000       0.032378         0.8810
  68   0.0000       0.070897         1.9292
  69   0.0000       0.112712         3.0671
  70   0.0000       0.124270         3.3816
  71   0.0000       0.127486         3.4691

MULLIKEN ATOMIC CHARGES
-----------------------
   0 S :    0.120762
   1 C :   -0.142570
   2 C :   -0.069786
   3 C :    0.046092
   4 C :   -0.123950
   5 H :   -0.054642
   6 C :    0.079498
   7 H :    0.035560
   8 H :    0.033525
   9 C :   -0.057925
  10 H :    0.021608
  11 H :    0.030138
  12 C :   -0.077961
  13 H :    0.027172
  14 H :    0.047922
  15 H :    0.033731
  16 S :    0.101413
  17 C :   -0.102397
  18 C :   -0.081719
  19 C :   -0.032918
  20 C :   -0.142242
  21 H :    0.059631
  22 C :    0.037582
  23 H :    0.028940
  24 H :    0.031942
  25 C :   -0.059615
  26 H :    0.026505
  27 H :    0.019148
  28 C :   -0.050624
  29 H :    0.038639
  30 H :    0.035188
  31 H :    0.031484
  32 H :    0.047243
  33 H :    0.062628
Sum of atomic charges:    0.0000000

LOEWDIN ATOMIC CHARGES
----------------------
   0 S :    0.438908
   1 C :   -0.209623
   2 C :   -0.063659
   3 C :   -0.060012
   4 C :   -0.212977
   5 H :    0.008196
   6 C :   -0.024079
   7 H :    0.037843
   8 H :    0.028928
   9 C :   -0.036711
  10 H :    0.022927
  11 H :    0.019571
  12 C :   -0.071466
  13 H :    0.030197
  14 H :    0.033695
  15 H :    0.021774
  16 S :    0.400981
  17 C :   -0.184601
  18 C :   -0.083705
  19 C :   -0.057171
  20 C :   -0.193913
  21 H :    0.048343
  22 C :   -0.031400
  23 H :    0.026993
  24 H :    0.032266
  25 C :   -0.039188
  26 H :    0.023193
  27 H :    0.017356
  28 C :   -0.066488
  29 H :    0.028440
  30 H :    0.030304
  31 H :    0.022566
  32 H :    0.030046
  33 H :    0.032466

  Mayer bond orders larger than 0.100000
B(  0-S ,  1-C ) :   1.1524 B(  0-S ,  4-C ) :   1.1784 B(  1-C ,  2-C ) :   1.6085
B(  1-C , 32-H ) :   0.9641 B(  2-C ,  3-C ) :   1.2768 B(  2-C ,  6-C ) :   0.9964
B(  3-C ,  4-C ) :   1.5373 B(  3-C ,  5-H ) :   1.0128 B(  4-C , 20-C ) :   1.0014
B(  6-C ,  7-H ) :   0.9508 B(  6-C ,  8-H ) :   0.9315 B(  6-C ,  9-C ) :   1.0731
B(  9-C , 10-H ) :   0.9548 B(  9-C , 11-H ) :   0.9523 B(  9-C , 12-C ) :   1.0926
B( 12-C , 13-H ) :   0.9710 B( 12-C , 14-H ) :   0.9733 B( 12-C , 15-H ) :   0.9750
B( 16-S , 17-C ) :   1.1573 B( 16-S , 20-C ) :   1.1448 B( 17-C , 18-C ) :   1.6130
B( 17-C , 20-C ) :   0.1072 B( 17-C , 33-H ) :   0.9661 B( 18-C , 19-C ) :   1.2414
B( 18-C , 21-H ) :   0.9726 B( 19-C , 20-C ) :   1.6107 B( 19-C , 22-C ) :   1.0346
B( 22-C , 23-H ) :   0.9433 B( 22-C , 24-H ) :   0.9355 B( 22-C , 25-C ) :   1.0658
B( 25-C , 26-H ) :   0.9538 B( 25-C , 27-H ) :   0.9550 B( 25-C , 28-C ) :   1.0856
B( 28-C , 29-H ) :   0.9734 B( 28-C , 30-H ) :   0.9756 B( 28-C , 31-H ) :   0.9749

Dispersion correction           -0.014018586
FINAL SINGLE POINT ENERGY     -1339.872441618004

DIPOLE MOMENT
-------------
                                X             Y             Z
Electronic contribution:    -11.10470      10.14834      30.36167
Nuclear contribution   :     11.52903     -10.28892     -31.03487
                        -----------------------------------------
Total Dipole Moment    :      0.42433      -0.14058      -0.67321
                        -----------------------------------------
Magnitude (a.u.)       :      0.80810
Magnitude (Debye)      :      2.05403

Rotational constants in cm-1:     0.016293     0.009541     0.006473
Rotational constants in MHz :   488.456250   286.040569   194.059918

                             ****ORCA TERMINATED NORMALLY****
TOTAL RUN TIME: 0 days 0 hours 0 minutes 35 seconds 35 msec
