                         Program Version 4.2.1 -  RELEASE  -
|  1> ! wB97X-D3 SP def2-SVP
|  2> %pal
|  3> nprocs 16
|  4> end
|  5>
|  6> * xyz 0 1
|  7> S 	 1.49542 	 -25.7462 	 55.7363
|  8> C 	 0.0585784 	 -25.5224 	 56.8002
|  9> C 	 -0.265426 	 -24.1926 	 56.9586
| 10> C 	 0.702631 	 -23.3414 	 56.2908
| 11> C 	 1.5368 	 -24.0392 	 55.4252
| 12> H 	 0.655198 	 -22.2509 	 56.3672
| 13> C 	 -1.43555 	 -23.5005 	 57.7331
| 14> H 	 -1.04643 	 -22.7563 	 58.4432
| 15> H 	 -1.92352 	 -24.2743 	 58.3397
| 16> C 	 -2.55418 	 -22.9132 	 56.8601
| 17> H 	 -2.02709 	 -22.1301 	 56.3479
| 18> H 	 -2.83221 	 -23.5902 	 55.9589
| 19> C 	 -3.6136 	 -22.1017 	 57.555
| 20> H 	 -4.31449 	 -22.7988 	 58.0629
| 21> H 	 -3.14815 	 -21.3884 	 58.201
| 22> H 	 -4.089 	 -21.544 	 56.782
| 23> S 	 4.05175 	 -24.3999 	 54.3016
| 24> C 	 4.65905 	 -23.0175 	 53.3372
| 25> C 	 3.84465 	 -21.9927 	 53.1802
| 26> C 	 2.58291 	 -22.2723 	 53.8768
| 27> C 	 2.5642 	 -23.4656 	 54.5569
| 28> H 	 4.20232 	 -21.1387 	 52.6088
| 29> C 	 1.43093 	 -21.2572 	 53.7935
| 30> H 	 0.870486 	 -21.1749 	 54.7258
| 31> H 	 0.588166 	 -21.6783 	 53.1385
| 32> C 	 1.77775 	 -19.8442 	 53.2909
| 33> H 	 0.832026 	 -19.2958 	 53.2098
| 34> H 	 2.07985 	 -19.8225 	 52.2329
| 35> C 	 2.65835 	 -19.0357 	 54.2139
| 36> H 	 2.07789 	 -19.0537 	 55.1512
| 37> H 	 2.80692 	 -18.0438 	 53.7191
| 38> H 	 3.57257 	 -19.5816 	 54.3822
| 39> H 	 -0.492436 	 -26.3044 	 57.259
| 40> H 	 5.62173 	 -23.0283 	 52.9232
| 41> *
| 42>
| 43>                          ****END OF INPUT****

CARTESIAN COORDINATES (ANGSTROEM)
---------------------------------
  S      1.495420  -25.746200   55.736300
  C      0.058578  -25.522400   56.800200
  C     -0.265426  -24.192600   56.958600
  C      0.702631  -23.341400   56.290800
  C      1.536800  -24.039200   55.425200
  H      0.655198  -22.250900   56.367200
  C     -1.435550  -23.500500   57.733100
  H     -1.046430  -22.756300   58.443200
  H     -1.923520  -24.274300   58.339700
  C     -2.554180  -22.913200   56.860100
  H     -2.027090  -22.130100   56.347900
  H     -2.832210  -23.590200   55.958900
  C     -3.613600  -22.101700   57.555000
  H     -4.314490  -22.798800   58.062900
  H     -3.148150  -21.388400   58.201000
  H     -4.089000  -21.544000   56.782000
  S      4.051750  -24.399900   54.301600
  C      4.659050  -23.017500   53.337200
  C      3.844650  -21.992700   53.180200
  C      2.582910  -22.272300   53.876800
  C      2.564200  -23.465600   54.556900
  H      4.202320  -21.138700   52.608800
  C      1.430930  -21.257200   53.793500
  H      0.870486  -21.174900   54.725800
  H      0.588166  -21.678300   53.138500
  C      1.777750  -19.844200   53.290900
  H      0.832026  -19.295800   53.209800
  H      2.079850  -19.822500   52.232900
  C      2.658350  -19.035700   54.213900
  H      2.077890  -19.053700   55.151200
  H      2.806920  -18.043800   53.719100
  H      3.572570  -19.581600   54.382200
  H     -0.492436  -26.304400   57.259000
  H      5.621730  -23.028300   52.923200

 Total Charge           Charge          ....    0
 Multiplicity           Mult            ....    1
 Number of Electrons    NEL             ....  134
 Basis Dimension        Dim             ....  322

ORBITAL ENERGIES
----------------

  NO   OCC          E(Eh)            E(eV)
   0   2.0000     -88.968509     -2420.9562
   1   2.0000     -88.963967     -2420.8326
   2   2.0000     -10.331659      -281.1387
   3   2.0000     -10.327734      -281.0319
   4   2.0000     -10.316594      -280.7288
   5   2.0000     -10.311472      -280.5894
   6   2.0000     -10.309210      -280.5279
   7   2.0000     -10.306911      -280.4653
   8   2.0000     -10.299917      -280.2750
   9   2.0000     -10.298667      -280.2410
  10   2.0000     -10.295362      -280.1510
  11   2.0000     -10.294574      -280.1296
  12   2.0000     -10.288756      -279.9713
  13   2.0000     -10.286511      -279.9102
  14   2.0000     -10.280455      -279.7454
  15   2.0000     -10.280318      -279.7417
  16   2.0000      -8.082701      -219.9415
  17   2.0000      -8.078220      -219.8195
  18   2.0000      -6.041366      -164.3939
  19   2.0000      -6.037491      -164.2885
  20   2.0000      -6.036898      -164.2724
  21   2.0000      -6.033134      -164.1699
  22   2.0000      -6.033129      -164.1698
  23   2.0000      -6.028513      -164.0442
  24   2.0000      -1.004236       -27.3266
  25   2.0000      -0.979830       -26.6625
  26   2.0000      -0.913632       -24.8612
  27   2.0000      -0.909443       -24.7472
  28   2.0000      -0.875744       -23.8302
  29   2.0000      -0.851996       -23.1840
  30   2.0000      -0.842461       -22.9245
  31   2.0000      -0.816467       -22.2172
  32   2.0000      -0.786491       -21.4015
  33   2.0000      -0.775327       -21.0977
  34   2.0000      -0.706802       -19.2331
  35   2.0000      -0.693844       -18.8804
  36   2.0000      -0.691638       -18.8204
  37   2.0000      -0.658333       -17.9141
  38   2.0000      -0.636997       -17.3336
  39   2.0000      -0.624292       -16.9878
  40   2.0000      -0.601779       -16.3752
  41   2.0000      -0.570386       -15.5210
  42   2.0000      -0.564747       -15.3675
  43   2.0000      -0.552854       -15.0439
  44   2.0000      -0.537603       -14.6289
  45   2.0000      -0.528336       -14.3768
  46   2.0000      -0.517816       -14.0905
  47   2.0000      -0.513974       -13.9859
  48   2.0000      -0.499684       -13.5971
  49   2.0000      -0.497262       -13.5312
  50   2.0000      -0.493447       -13.4274
  51   2.0000      -0.484646       -13.1879
  52   2.0000      -0.477003       -12.9799
  53   2.0000      -0.462682       -12.5902
  54   2.0000      -0.458607       -12.4793
  55   2.0000      -0.452313       -12.3081
  56   2.0000      -0.444979       -12.1085
  57   2.0000      -0.438767       -11.9395
  58   2.0000      -0.430680       -11.7194
  59   2.0000      -0.428064       -11.6482
  60   2.0000      -0.422785       -11.5046
  61   2.0000      -0.411089       -11.1863
  62   2.0000      -0.401468       -10.9245
  63   2.0000      -0.359900        -9.7934
  64   2.0000      -0.334885        -9.1127
  65   2.0000      -0.328215        -8.9312
  66   2.0000      -0.286099        -7.7852
  67   0.0000       0.023086         0.6282
  68   0.0000       0.077178         2.1001
  69   0.0000       0.090989         2.4759
  70   0.0000       0.120480         3.2784
  71   0.0000       0.125547         3.4163

MULLIKEN ATOMIC CHARGES
-----------------------
   0 S :    0.093579
   1 C :   -0.107223
   2 C :   -0.079640
   3 C :   -0.012583
   4 C :   -0.113692
   5 H :    0.023716
   6 C :    0.062393
   7 H :    0.035667
   8 H :    0.012752
   9 C :   -0.122213
  10 H :    0.001090
  11 H :    0.051947
  12 C :    0.003065
  13 H :    0.042404
  14 H :    0.024255
  15 H :    0.031011
  16 S :    0.079991
  17 C :   -0.050719
  18 C :   -0.030144
  19 C :   -0.058510
  20 C :   -0.106475
  21 H :    0.034093
  22 C :    0.035454
  23 H :    0.007065
  24 H :    0.050286
  25 C :   -0.102684
  26 H :    0.020552
  27 H :    0.026508
  28 C :   -0.024647
  29 H :    0.028100
  30 H :    0.051089
  31 H :    0.032990
  32 H :    0.032225
  33 H :    0.028296
Sum of atomic charges:    0.0000000

LOEWDIN ATOMIC CHARGES
----------------------
   0 S :    0.385329
   1 C :   -0.177614
   2 C :   -0.054873
   3 C :   -0.066080
   4 C :   -0.186370
   5 H :    0.027974
   6 C :   -0.031760
   7 H :    0.033138
   8 H :    0.023852
   9 C :   -0.058916
  10 H :    0.015899
  11 H :    0.038769
  12 C :   -0.054355
  13 H :    0.027850
  14 H :    0.024759
  15 H :    0.028143
  16 S :    0.356438
  17 C :   -0.147495
  18 C :   -0.072019
  19 C :   -0.051114
  20 C :   -0.185839
  21 H :    0.042761
  22 C :   -0.041657
  23 H :    0.023438
  24 H :    0.047482
  25 C :   -0.055590
  26 H :    0.026801
  27 H :    0.019764
  28 C :   -0.063272
  29 H :    0.029593
  30 H :    0.035933
  31 H :    0.020373
  32 H :    0.021771
  33 H :    0.016887

  Mayer bond orders larger than 0.100000
B(  0-S ,  1-C ) :   1.1094 B(  0-S ,  4-C ) :   1.1408 B(  1-C ,  2-C ) :   1.6561
B(  1-C , 32-H ) :   0.9701 B(  2-C ,  3-C ) :   1.2199 B(  2-C ,  6-C ) :   1.0185
B(  3-C ,  4-C ) :   1.5788 B(  3-C ,  5-H ) :   0.9808 B(  4-C , 20-C ) :   1.0713
B(  6-C ,  7-H ) :   0.9424 B(  6-C ,  8-H ) :   0.9413 B(  6-C ,  9-C ) :   1.0582
B(  9-C , 10-H ) :   0.9519 B(  9-C , 11-H ) :   0.9524 B(  9-C , 12-C ) :   1.0790
B( 12-C , 13-H ) :   0.9766 B( 12-C , 14-H ) :   0.9689 B( 12-C , 15-H ) :   0.9725
B( 16-S , 17-C ) :   1.1172 B( 16-S , 20-C ) :   1.0963 B( 17-C , 18-C ) :   1.7070
B( 17-C , 33-H ) :   0.9600 B( 18-C , 19-C ) :   1.1612 B( 18-C , 21-H ) :   0.9842
B( 19-C , 20-C ) :   1.6804 B( 19-C , 22-C ) :   1.0261 B( 22-C , 23-H ) :   0.9366
B( 22-C , 24-H ) :   0.9222 B( 22-C , 25-C ) :   1.0955 B( 25-C , 26-H ) :   0.9483
B( 25-C , 27-H ) :   0.9438 B( 25-C , 28-C ) :   1.0690 B( 28-C , 29-H ) :   0.9703
B( 28-C , 30-H ) :   0.9710 B( 28-C , 31-H ) :   0.9777

Dispersion correction           -0.013943013
FINAL SINGLE POINT ENERGY     -1339.862677806048

DIPOLE MOMENT
-------------
                                X             Y             Z
Electronic contribution:     19.97272     -24.86531      -3.67262
Nuclear contribution   :    -20.38155      25.62713       3.62724
                        -----------------------------------------
Total Dipole Moment    :     -0.40883       0.76182      -0.04538
                        -----------------------------------------
Magnitude (a.u.)       :      0.86578
Magnitude (Debye)      :      2.20063

Rotational constants in cm-1:     0.017238     0.009212     0.006238
Rotational constants in MHz :   516.786479   276.178305   187.003369

                             ****ORCA TERMINATED NORMALLY****
TOTAL RUN TIME: 0 days 0 hours 0 minutes 34 seconds 751 msec
