                         Program Version 4.2.1 -  RELEASE  -
|  1> ! wB97X-D3 SP def2-SVP
|  2> %pal
|  3> nprocs 16
|  4> end
|  5>
|  6> * xyz 0 1
|  7> S 	 -97.3466 	 38.4256 	 124.029
|  8> C 	 -96.7792 	 37.3142 	 125.242
|  9> C 	 -95.4251 	 36.9911 	 125.138
| 10> C 	 -94.8092 	 37.6085 	 123.991
| 11> C 	 -95.6623 	 38.4161 	 123.295
| 12> H 	 -93.7677 	 37.3973 	 123.63
| 13> C 	 -94.7008 	 35.9705 	 125.966
| 14> H 	 -94.9543 	 34.9251 	 125.605
| 15> H 	 -95.0588 	 35.9611 	 126.99
| 16> C 	 -93.1482 	 36.0338 	 126.058
| 17> H 	 -92.7061 	 35.2564 	 126.73
| 18> H 	 -92.6766 	 35.8553 	 125.072
| 19> C 	 -92.763 	 37.3537 	 126.636
| 20> H 	 -92.9692 	 38.1828 	 125.976
| 21> H 	 -93.2252 	 37.617 	 127.608
| 22> H 	 -91.7088 	 37.4115 	 126.91
| 23> S 	 -94.9296 	 37.7008 	 120.708
| 24> C 	 -94.7619 	 38.9766 	 119.562
| 25> C 	 -94.8601 	 40.2325 	 120.143
| 26> C 	 -95.3137 	 40.1076 	 121.493
| 27> C 	 -95.4412 	 38.8374 	 121.957
| 28> H 	 -94.7197 	 41.0604 	 119.545
| 29> C 	 -95.4254 	 41.4352 	 122.267
| 30> H 	 -94.5989 	 42.1065 	 122.355
| 31> H 	 -95.3494 	 41.2493 	 123.303
| 32> C 	 -96.7493 	 42.2448 	 121.996
| 33> H 	 -96.6007 	 42.6084 	 121.029
| 34> H 	 -96.8386 	 43.2 	 122.522
| 35> C 	 -98.1051 	 41.4931 	 122.202
| 36> H 	 -98.9914 	 42.2136 	 122.184
| 37> H 	 -98.1441 	 41.2571 	 123.224
| 38> H 	 -98.284 	 40.6016 	 121.517
| 39> H 	 -97.5136 	 36.8221 	 125.915
| 40> H 	 -94.5146 	 38.7943 	 118.493
| 41> *
| 42>
| 43>                          ****END OF INPUT****

CARTESIAN COORDINATES (ANGSTROEM)
---------------------------------
  S    -97.346600   38.425600  124.029000
  C    -96.779200   37.314200  125.242000
  C    -95.425100   36.991100  125.138000
  C    -94.809200   37.608500  123.991000
  C    -95.662300   38.416100  123.295000
  H    -93.767700   37.397300  123.630000
  C    -94.700800   35.970500  125.966000
  H    -94.954300   34.925100  125.605000
  H    -95.058800   35.961100  126.990000
  C    -93.148200   36.033800  126.058000
  H    -92.706100   35.256400  126.730000
  H    -92.676600   35.855300  125.072000
  C    -92.763000   37.353700  126.636000
  H    -92.969200   38.182800  125.976000
  H    -93.225200   37.617000  127.608000
  H    -91.708800   37.411500  126.910000
  S    -94.929600   37.700800  120.708000
  C    -94.761900   38.976600  119.562000
  C    -94.860100   40.232500  120.143000
  C    -95.313700   40.107600  121.493000
  C    -95.441200   38.837400  121.957000
  H    -94.719700   41.060400  119.545000
  C    -95.425400   41.435200  122.267000
  H    -94.598900   42.106500  122.355000
  H    -95.349400   41.249300  123.303000
  C    -96.749300   42.244800  121.996000
  H    -96.600700   42.608400  121.029000
  H    -96.838600   43.200000  122.522000
  C    -98.105100   41.493100  122.202000
  H    -98.991400   42.213600  122.184000
  H    -98.144100   41.257100  123.224000
  H    -98.284000   40.601600  121.517000
  H    -97.513600   36.822100  125.915000
  H    -94.514600   38.794300  118.493000

 Total Charge           Charge          ....    0
 Multiplicity           Mult            ....    1
 Number of Electrons    NEL             ....  134
 Basis Dimension        Dim             ....  322

ORBITAL ENERGIES
----------------

  NO   OCC          E(Eh)            E(eV)
   0   2.0000     -88.966649     -2420.9056
   1   2.0000     -88.965859     -2420.8841
   2   2.0000     -10.327906      -281.0366
   3   2.0000     -10.320320      -280.8302
   4   2.0000     -10.319108      -280.7972
   5   2.0000     -10.318343      -280.7764
   6   2.0000     -10.304883      -280.4101
   7   2.0000     -10.301998      -280.3316
   8   2.0000     -10.300073      -280.2792
   9   2.0000     -10.295250      -280.1480
  10   2.0000     -10.292433      -280.0713
  11   2.0000     -10.287488      -279.9368
  12   2.0000     -10.283817      -279.8369
  13   2.0000     -10.281439      -279.7722
  14   2.0000     -10.278643      -279.6961
  15   2.0000     -10.270948      -279.4867
  16   2.0000      -8.080949      -219.8938
  17   2.0000      -8.080090      -219.8704
  18   2.0000      -6.039446      -164.3417
  19   2.0000      -6.038605      -164.3188
  20   2.0000      -6.035446      -164.2328
  21   2.0000      -6.034977      -164.2201
  22   2.0000      -6.031654      -164.1296
  23   2.0000      -6.030697      -164.1036
  24   2.0000      -1.007061       -27.4035
  25   2.0000      -0.980444       -26.6792
  26   2.0000      -0.911553       -24.8046
  27   2.0000      -0.897895       -24.4330
  28   2.0000      -0.874561       -23.7980
  29   2.0000      -0.846506       -23.0346
  30   2.0000      -0.842935       -22.9374
  31   2.0000      -0.813541       -22.1376
  32   2.0000      -0.784767       -21.3546
  33   2.0000      -0.767479       -20.8842
  34   2.0000      -0.708342       -19.2750
  35   2.0000      -0.699257       -19.0277
  36   2.0000      -0.688825       -18.7439
  37   2.0000      -0.664457       -18.0808
  38   2.0000      -0.635314       -17.2878
  39   2.0000      -0.624350       -16.9894
  40   2.0000      -0.604284       -16.4434
  41   2.0000      -0.563849       -15.3431
  42   2.0000      -0.550297       -14.9743
  43   2.0000      -0.542704       -14.7677
  44   2.0000      -0.538413       -14.6510
  45   2.0000      -0.532587       -14.4924
  46   2.0000      -0.516077       -14.0432
  47   2.0000      -0.510416       -13.8891
  48   2.0000      -0.501129       -13.6364
  49   2.0000      -0.495346       -13.4791
  50   2.0000      -0.481023       -13.0893
  51   2.0000      -0.472885       -12.8679
  52   2.0000      -0.467782       -12.7290
  53   2.0000      -0.462865       -12.5952
  54   2.0000      -0.460982       -12.5439
  55   2.0000      -0.445911       -12.1338
  56   2.0000      -0.442040       -12.0285
  57   2.0000      -0.435343       -11.8463
  58   2.0000      -0.426581       -11.6079
  59   2.0000      -0.423703       -11.5296
  60   2.0000      -0.416054       -11.3214
  61   2.0000      -0.411138       -11.1876
  62   2.0000      -0.402478       -10.9520
  63   2.0000      -0.345118        -9.3911
  64   2.0000      -0.332524        -9.0484
  65   2.0000      -0.328936        -8.9508
  66   2.0000      -0.292827        -7.9682
  67   0.0000       0.034914         0.9500
  68   0.0000       0.053156         1.4465
  69   0.0000       0.100298         2.7292
  70   0.0000       0.105431         2.8689
  71   0.0000       0.142448         3.8762

MULLIKEN ATOMIC CHARGES
-----------------------
   0 S :    0.103500
   1 C :   -0.137929
   2 C :   -0.074848
   3 C :   -0.014879
   4 C :   -0.144099
   5 H :    0.045427
   6 C :    0.043242
   7 H :    0.048573
   8 H :    0.022783
   9 C :   -0.083213
  10 H :    0.037653
  11 H :    0.034984
  12 C :   -0.056397
  13 H :    0.033963
  14 H :    0.025546
  15 H :    0.024346
  16 S :    0.117651
  17 C :   -0.118823
  18 C :    0.011157
  19 C :   -0.010218
  20 C :   -0.143581
  21 H :   -0.004655
  22 C :    0.071616
  23 H :    0.018330
  24 H :   -0.004317
  25 C :   -0.051094
  26 H :    0.004670
  27 H :    0.019948
  28 C :   -0.073684
  29 H :    0.032808
  30 H :    0.021222
  31 H :    0.064296
  32 H :    0.064507
  33 H :    0.071511
Sum of atomic charges:   -0.0000000

LOEWDIN ATOMIC CHARGES
----------------------
   0 S :    0.384934
   1 C :   -0.197259
   2 C :   -0.068036
   3 C :   -0.059513
   4 C :   -0.167076
   5 H :    0.043422
   6 C :   -0.038824
   7 H :    0.039803
   8 H :    0.029169
   9 C :   -0.047835
  10 H :    0.033618
  11 H :    0.024064
  12 C :   -0.073650
  13 H :    0.022935
  14 H :    0.028552
  15 H :    0.024086
  16 S :    0.412420
  17 C :   -0.188871
  18 C :   -0.060589
  19 C :   -0.045531
  20 C :   -0.204246
  21 H :    0.020391
  22 C :   -0.039166
  23 H :    0.034361
  24 H :    0.021367
  25 C :   -0.038521
  26 H :    0.009046
  27 H :    0.027019
  28 C :   -0.077686
  29 H :    0.034903
  30 H :    0.011889
  31 H :    0.034557
  32 H :    0.034430
  33 H :    0.035836

  Mayer bond orders larger than 0.100000
B(  0-S ,  1-C ) :   1.1411 B(  0-S ,  4-C ) :   1.1190 B(  1-C ,  2-C ) :   1.6304
B(  1-C , 32-H ) :   0.9631 B(  2-C ,  3-C ) :   1.2100 B(  2-C ,  6-C ) :   1.0199
B(  3-C ,  4-C ) :   1.6080 B(  3-C ,  5-H ) :   0.9811 B(  4-C , 20-C ) :   1.0612
B(  6-C ,  7-H ) :   0.9346 B(  6-C ,  8-H ) :   0.9435 B(  6-C ,  9-C ) :   1.0792
B(  9-C , 10-H ) :   0.9541 B(  9-C , 11-H ) :   0.9465 B(  9-C , 12-C ) :   1.0842
B( 12-C , 13-H ) :   0.9717 B( 12-C , 14-H ) :   0.9711 B( 12-C , 15-H ) :   0.9717
B( 16-S , 17-C ) :   1.1722 B( 16-S , 20-C ) :   1.1170 B( 17-C , 18-C ) :   1.5982
B( 17-C , 33-H ) :   0.9608 B( 18-C , 19-C ) :   1.2281 B( 18-C , 21-H ) :   1.0103
B( 19-C , 20-C ) :   1.6027 B( 19-C , 22-C ) :   1.0316 B( 22-C , 23-H ) :   0.9452
B( 22-C , 24-H ) :   0.9228 B( 22-C , 25-C ) :   1.0561 B( 25-C , 26-H ) :   0.9611
B( 25-C , 27-H ) :   0.9532 B( 25-C , 28-C ) :   1.0701 B( 28-C , 29-H ) :   0.9713
B( 28-C , 30-H ) :   0.9708 B( 28-C , 31-H ) :   0.9740

Dispersion correction           -0.015411317
FINAL SINGLE POINT ENERGY     -1339.856515816964

DIPOLE MOMENT
-------------
                                X             Y             Z
Electronic contribution:     -5.51825      -6.94738     -12.14155
Nuclear contribution   :      5.87213       6.95292      12.28791
                        -----------------------------------------
Total Dipole Moment    :      0.35387       0.00554       0.14635
                        -----------------------------------------
Magnitude (a.u.)       :      0.38298
Magnitude (Debye)      :      0.97347

Rotational constants in cm-1:     0.020193     0.008898     0.007589
Rotational constants in MHz :   605.375929   266.765313   227.498376

                             ****ORCA TERMINATED NORMALLY****
TOTAL RUN TIME: 0 days 0 hours 0 minutes 34 seconds 904 msec
