                         Program Version 4.2.1 -  RELEASE  -
|  1> ! wB97X-D3 SP def2-SVP
|  2> %pal
|  3> nprocs 16
|  4> end
|  5>
|  6> * xyz 0 1
|  7> S 	 -28.4525 	 52.8061 	 109.225
|  8> C 	 -26.8965 	 53.4615 	 108.911
|  9> C 	 -26.9518 	 54.5117 	 108.047
| 10> C 	 -28.3321 	 54.8429 	 107.691
| 11> C 	 -29.232 	 53.8898 	 108.052
| 12> H 	 -28.5722 	 55.6513 	 107.039
| 13> C 	 -25.8178 	 55.4817 	 107.603
| 14> H 	 -25.4825 	 55.1663 	 106.661
| 15> H 	 -25.0118 	 55.3532 	 108.259
| 16> C 	 -26.2125 	 56.9906 	 107.513
| 17> H 	 -27.059 	 57.075 	 106.877
| 18> H 	 -26.5746 	 57.3298 	 108.509
| 19> C 	 -25.0627 	 57.873 	 107.067
| 20> H 	 -25.4156 	 58.872 	 106.995
| 21> H 	 -24.2039 	 57.7446 	 107.668
| 22> H 	 -24.7388 	 57.6514 	 106.024
| 23> S 	 -31.7198 	 53.7066 	 109.122
| 24> C 	 -33.1791 	 53.8273 	 108.086
| 25> C 	 -32.8472 	 53.685 	 106.786
| 26> C 	 -31.4172 	 53.7108 	 106.601
| 27> C 	 -30.6629 	 53.8091 	 107.778
| 28> H 	 -33.6185 	 53.5545 	 106.077
| 29> C 	 -30.7525 	 53.614 	 105.194
| 30> H 	 -31.1023 	 52.8469 	 104.566
| 31> H 	 -29.667 	 53.4413 	 105.376
| 32> C 	 -30.7871 	 54.9005 	 104.4
| 33> H 	 -30.1476 	 54.8594 	 103.492
| 34> H 	 -30.249 	 55.6914 	 104.949
| 35> C 	 -32.1602 	 55.4926 	 103.893
| 36> H 	 -32.5821 	 54.7322 	 103.178
| 37> H 	 -32.212 	 56.4731 	 103.412
| 38> H 	 -32.902 	 55.5076 	 104.709
| 39> H 	 -25.9627 	 53.2204 	 109.332
| 40> H 	 -34.2046 	 53.6329 	 108.433
| 41> *
| 42>
| 43>                          ****END OF INPUT****

CARTESIAN COORDINATES (ANGSTROEM)
---------------------------------
  S    -28.452500   52.806100  109.225000
  C    -26.896500   53.461500  108.911000
  C    -26.951800   54.511700  108.047000
  C    -28.332100   54.842900  107.691000
  C    -29.232000   53.889800  108.052000
  H    -28.572200   55.651300  107.039000
  C    -25.817800   55.481700  107.603000
  H    -25.482500   55.166300  106.661000
  H    -25.011800   55.353200  108.259000
  C    -26.212500   56.990600  107.513000
  H    -27.059000   57.075000  106.877000
  H    -26.574600   57.329800  108.509000
  C    -25.062700   57.873000  107.067000
  H    -25.415600   58.872000  106.995000
  H    -24.203900   57.744600  107.668000
  H    -24.738800   57.651400  106.024000
  S    -31.719800   53.706600  109.122000
  C    -33.179100   53.827300  108.086000
  C    -32.847200   53.685000  106.786000
  C    -31.417200   53.710800  106.601000
  C    -30.662900   53.809100  107.778000
  H    -33.618500   53.554500  106.077000
  C    -30.752500   53.614000  105.194000
  H    -31.102300   52.846900  104.566000
  H    -29.667000   53.441300  105.376000
  C    -30.787100   54.900500  104.400000
  H    -30.147600   54.859400  103.492000
  H    -30.249000   55.691400  104.949000
  C    -32.160200   55.492600  103.893000
  H    -32.582100   54.732200  103.178000
  H    -32.212000   56.473100  103.412000
  H    -32.902000   55.507600  104.709000
  H    -25.962700   53.220400  109.332000
  H    -34.204600   53.632900  108.433000

 Total Charge           Charge          ....    0
 Multiplicity           Mult            ....    1
 Number of Electrons    NEL             ....  134
 Basis Dimension        Dim             ....  322

ORBITAL ENERGIES
----------------

  NO   OCC          E(Eh)            E(eV)
   0   2.0000     -88.965403     -2420.8717
   1   2.0000     -88.963357     -2420.8160
   2   2.0000     -10.332654      -281.1658
   3   2.0000     -10.329707      -281.0856
   4   2.0000     -10.319007      -280.7944
   5   2.0000     -10.310574      -280.5650
   6   2.0000     -10.309399      -280.5330
   7   2.0000     -10.301358      -280.3142
   8   2.0000     -10.294312      -280.1225
   9   2.0000     -10.293484      -280.0999
  10   2.0000     -10.291098      -280.0350
  11   2.0000     -10.289426      -279.9895
  12   2.0000     -10.288695      -279.9696
  13   2.0000     -10.288613      -279.9674
  14   2.0000     -10.282567      -279.8029
  15   2.0000     -10.277038      -279.6524
  16   2.0000      -8.080405      -219.8790
  17   2.0000      -8.078404      -219.8246
  18   2.0000      -6.039103      -164.3323
  19   2.0000      -6.037007      -164.2753
  20   2.0000      -6.034924      -164.2186
  21   2.0000      -6.032903      -164.1636
  22   2.0000      -6.030884      -164.1087
  23   2.0000      -6.028982      -164.0569
  24   2.0000      -1.009947       -27.4821
  25   2.0000      -0.987332       -26.8667
  26   2.0000      -0.911205       -24.7951
  27   2.0000      -0.901750       -24.5379
  28   2.0000      -0.879592       -23.9349
  29   2.0000      -0.848076       -23.0773
  30   2.0000      -0.838602       -22.8195
  31   2.0000      -0.823256       -22.4019
  32   2.0000      -0.784159       -21.3380
  33   2.0000      -0.774951       -21.0875
  34   2.0000      -0.717048       -19.5119
  35   2.0000      -0.699787       -19.0422
  36   2.0000      -0.687089       -18.6966
  37   2.0000      -0.664019       -18.0689
  38   2.0000      -0.643342       -17.5062
  39   2.0000      -0.626222       -17.0404
  40   2.0000      -0.592418       -16.1205
  41   2.0000      -0.574328       -15.6282
  42   2.0000      -0.569924       -15.5084
  43   2.0000      -0.548882       -14.9358
  44   2.0000      -0.539685       -14.6856
  45   2.0000      -0.532413       -14.4877
  46   2.0000      -0.512919       -13.9572
  47   2.0000      -0.511612       -13.9217
  48   2.0000      -0.505840       -13.7646
  49   2.0000      -0.501878       -13.6568
  50   2.0000      -0.489102       -13.3091
  51   2.0000      -0.481072       -13.0906
  52   2.0000      -0.475467       -12.9381
  53   2.0000      -0.473308       -12.8794
  54   2.0000      -0.461685       -12.5631
  55   2.0000      -0.452965       -12.3258
  56   2.0000      -0.446090       -12.1387
  57   2.0000      -0.433863       -11.8060
  58   2.0000      -0.432736       -11.7754
  59   2.0000      -0.424891       -11.5619
  60   2.0000      -0.417604       -11.3636
  61   2.0000      -0.414399       -11.2764
  62   2.0000      -0.404815       -11.0156
  63   2.0000      -0.354369        -9.6429
  64   2.0000      -0.331466        -9.0197
  65   2.0000      -0.325491        -8.8571
  66   2.0000      -0.299944        -8.1619
  67   0.0000       0.030567         0.8318
  68   0.0000       0.069473         1.8905
  69   0.0000       0.106206         2.8900
  70   0.0000       0.123265         3.3542
  71   0.0000       0.130920         3.5625

MULLIKEN ATOMIC CHARGES
-----------------------
   0 S :    0.108879
   1 C :   -0.081449
   2 C :   -0.116951
   3 C :    0.034274
   4 C :   -0.139246
   5 H :    0.003056
   6 C :    0.121738
   7 H :    0.017591
   8 H :   -0.001097
   9 C :   -0.107400
  10 H :    0.025126
  11 H :    0.036927
  12 C :   -0.007967
  13 H :    0.030324
  14 H :    0.028586
  15 H :    0.022438
  16 S :    0.091709
  17 C :   -0.092978
  18 C :   -0.017687
  19 C :   -0.041124
  20 C :   -0.145856
  21 H :    0.015814
  22 C :    0.097394
  23 H :    0.020272
  24 H :    0.036444
  25 C :   -0.091610
  26 H :    0.028667
  27 H :    0.016774
  28 C :   -0.078816
  29 H :    0.024944
  30 H :    0.046045
  31 H :    0.027932
  32 H :    0.021500
  33 H :    0.065748
Sum of atomic charges:   -0.0000000

LOEWDIN ATOMIC CHARGES
----------------------
   0 S :    0.400764
   1 C :   -0.198510
   2 C :   -0.059764
   3 C :   -0.055215
   4 C :   -0.183546
   5 H :    0.024215
   6 C :   -0.019242
   7 H :    0.023979
   8 H :    0.018696
   9 C :   -0.035526
  10 H :    0.015523
  11 H :    0.029223
  12 C :   -0.057642
  13 H :    0.026058
  14 H :    0.020778
  15 H :    0.028409
  16 S :    0.401175
  17 C :   -0.173764
  18 C :   -0.065395
  19 C :   -0.049989
  20 C :   -0.207432
  21 H :    0.029575
  22 C :   -0.027427
  23 H :    0.022921
  24 H :    0.041026
  25 C :   -0.048800
  26 H :    0.025746
  27 H :    0.018329
  28 C :   -0.079485
  29 H :    0.025566
  30 H :    0.029236
  31 H :    0.021448
  32 H :    0.023671
  33 H :    0.035402

  Mayer bond orders larger than 0.100000
B(  0-S ,  1-C ) :   1.1282 B(  0-S ,  4-C ) :   1.1253 B(  1-C ,  2-C ) :   1.6631
B(  1-C , 32-H ) :   0.9671 B(  2-C ,  3-C ) :   1.2140 B(  2-C ,  6-C ) :   1.0065
B(  3-C ,  4-C ) :   1.6125 B(  3-C ,  5-H ) :   0.9947 B(  4-C , 20-C ) :   1.0307
B(  6-C ,  7-H ) :   0.9291 B(  6-C ,  8-H ) :   0.9433 B(  6-C ,  9-C ) :   1.0722
B(  9-C , 10-H ) :   0.9475 B(  9-C , 11-H ) :   0.9574 B(  9-C , 12-C ) :   1.0932
B( 12-C , 13-H ) :   0.9704 B( 12-C , 14-H ) :   0.9755 B( 12-C , 15-H ) :   0.9710
B( 16-S , 17-C ) :   1.1394 B( 16-S , 20-C ) :   1.1469 B( 17-C , 18-C ) :   1.6359
B( 17-C , 33-H ) :   0.9592 B( 18-C , 19-C ) :   1.2211 B( 18-C , 21-H ) :   0.9942
B( 19-C , 20-C ) :   1.6018 B( 19-C , 22-C ) :   1.0363 B( 22-C , 23-H ) :   0.9449
B( 22-C , 24-H ) :   0.9261 B( 22-C , 25-C ) :   1.0765 B( 25-C , 26-H ) :   0.9549
B( 25-C , 27-H ) :   0.9516 B( 25-C , 28-C ) :   1.0633 B( 28-C , 29-H ) :   0.9759
B( 28-C , 30-H ) :   0.9759 B( 28-C , 31-H ) :   0.9736

Dispersion correction           -0.014159487
FINAL SINGLE POINT ENERGY     -1339.870017216578

DIPOLE MOMENT
-------------
                                X             Y             Z
Electronic contribution:     -9.98415     -18.12789      21.22872
Nuclear contribution   :     10.22020      18.43306     -21.75925
                        -----------------------------------------
Total Dipole Moment    :      0.23605       0.30517      -0.53052
                        -----------------------------------------
Magnitude (a.u.)       :      0.65597
Magnitude (Debye)      :      1.66735

Rotational constants in cm-1:     0.017545     0.008791     0.006593
Rotational constants in MHz :   525.999081   263.542973   197.645615

                             ****ORCA TERMINATED NORMALLY****
TOTAL RUN TIME: 0 days 0 hours 0 minutes 29 seconds 955 msec
