                         Program Version 4.2.1 -  RELEASE  -
|  1> ! wB97X-D3 SP def2-SVP
|  2> %pal
|  3> nprocs 16
|  4> end
|  5>
|  6> * xyz 0 1
|  7> S 	 -49.2233 	 57.793 	 130.526
|  8> C 	 -48.5337 	 57.3711 	 128.974
|  9> C 	 -48.3235 	 58.4866 	 128.156
| 10> C 	 -49.02 	 59.6456 	 128.691
| 11> C 	 -49.5482 	 59.4586 	 129.98
| 12> H 	 -49.3141 	 60.5404 	 128.193
| 13> C 	 -47.8339 	 58.3888 	 126.677
| 14> H 	 -48.1777 	 59.1966 	 126.067
| 15> H 	 -48.17 	 57.3784 	 126.356
| 16> C 	 -46.2733 	 58.5108 	 126.462
| 17> H 	 -45.9465 	 59.3578 	 127.14
| 18> H 	 -45.6559 	 57.7116 	 126.792
| 19> C 	 -45.7454 	 58.7595 	 125.019
| 20> H 	 -46.1079 	 57.9805 	 124.361
| 21> H 	 -45.99 	 59.7763 	 124.757
| 22> H 	 -44.6146 	 58.8164 	 125.07
| 23> S 	 -51.7891 	 59.795 	 131.52
| 24> C 	 -52.1322 	 61.3356 	 132.28
| 25> C 	 -51.2735 	 62.3258 	 131.823
| 26> C 	 -50.2999 	 61.7956 	 130.985
| 27> C 	 -50.365 	 60.4021 	 130.718
| 28> H 	 -51.3861 	 63.3941 	 132.16
| 29> C 	 -49.2699 	 62.7052 	 130.338
| 30> H 	 -49.6397 	 63.1706 	 129.42
| 31> H 	 -48.4966 	 62.2363 	 129.787
| 32> C 	 -48.6244 	 63.8584 	 131.19
| 33> H 	 -49.2949 	 64.6612 	 131.376
| 34> H 	 -47.8254 	 64.2294 	 130.575
| 35> C 	 -47.8788 	 63.3878 	 132.441
| 36> H 	 -48.4141 	 62.6611 	 132.981
| 37> H 	 -47.5726 	 64.2582 	 133.082
| 38> H 	 -47.0156 	 62.8701 	 132.104
| 39> H 	 -48.1538 	 56.3352 	 128.79
| 40> H 	 -53.0162 	 61.5804 	 132.823
| 41> *
| 42>
| 43>                          ****END OF INPUT****

CARTESIAN COORDINATES (ANGSTROEM)
---------------------------------
  S    -49.223300   57.793000  130.526000
  C    -48.533700   57.371100  128.974000
  C    -48.323500   58.486600  128.156000
  C    -49.020000   59.645600  128.691000
  C    -49.548200   59.458600  129.980000
  H    -49.314100   60.540400  128.193000
  C    -47.833900   58.388800  126.677000
  H    -48.177700   59.196600  126.067000
  H    -48.170000   57.378400  126.356000
  C    -46.273300   58.510800  126.462000
  H    -45.946500   59.357800  127.140000
  H    -45.655900   57.711600  126.792000
  C    -45.745400   58.759500  125.019000
  H    -46.107900   57.980500  124.361000
  H    -45.990000   59.776300  124.757000
  H    -44.614600   58.816400  125.070000
  S    -51.789100   59.795000  131.520000
  C    -52.132200   61.335600  132.280000
  C    -51.273500   62.325800  131.823000
  C    -50.299900   61.795600  130.985000
  C    -50.365000   60.402100  130.718000
  H    -51.386100   63.394100  132.160000
  C    -49.269900   62.705200  130.338000
  H    -49.639700   63.170600  129.420000
  H    -48.496600   62.236300  129.787000
  C    -48.624400   63.858400  131.190000
  H    -49.294900   64.661200  131.376000
  H    -47.825400   64.229400  130.575000
  C    -47.878800   63.387800  132.441000
  H    -48.414100   62.661100  132.981000
  H    -47.572600   64.258200  133.082000
  H    -47.015600   62.870100  132.104000
  H    -48.153800   56.335200  128.790000
  H    -53.016200   61.580400  132.823000

 Total Charge           Charge          ....    0
 Multiplicity           Mult            ....    1
 Number of Electrons    NEL             ....  134
 Basis Dimension        Dim             ....  322

ORBITAL ENERGIES
----------------

  NO   OCC          E(Eh)            E(eV)
   0   2.0000     -88.969765     -2420.9904
   1   2.0000     -88.967523     -2420.9294
   2   2.0000     -10.335860      -281.2531
   3   2.0000     -10.330426      -281.1052
   4   2.0000     -10.323488      -280.9164
   5   2.0000     -10.317741      -280.7600
   6   2.0000     -10.313093      -280.6335
   7   2.0000     -10.306716      -280.4600
   8   2.0000     -10.302690      -280.3504
   9   2.0000     -10.300074      -280.2793
  10   2.0000     -10.297750      -280.2160
  11   2.0000     -10.288255      -279.9576
  12   2.0000     -10.286805      -279.9182
  13   2.0000     -10.284226      -279.8480
  14   2.0000     -10.281176      -279.7650
  15   2.0000     -10.267130      -279.3828
  16   2.0000      -8.083844      -219.9726
  17   2.0000      -8.082196      -219.9277
  18   2.0000      -6.042362      -164.4210
  19   2.0000      -6.040611      -164.3734
  20   2.0000      -6.038445      -164.3144
  21   2.0000      -6.036531      -164.2624
  22   2.0000      -6.034622      -164.2104
  23   2.0000      -6.033222      -164.1723
  24   2.0000      -1.005410       -27.3586
  25   2.0000      -0.981436       -26.7062
  26   2.0000      -0.905202       -24.6318
  27   2.0000      -0.901102       -24.5202
  28   2.0000      -0.870958       -23.7000
  29   2.0000      -0.851011       -23.1572
  30   2.0000      -0.844947       -22.9922
  31   2.0000      -0.814671       -22.1683
  32   2.0000      -0.783740       -21.3266
  33   2.0000      -0.771388       -20.9905
  34   2.0000      -0.705961       -19.2102
  35   2.0000      -0.697334       -18.9754
  36   2.0000      -0.692684       -18.8489
  37   2.0000      -0.658127       -17.9085
  38   2.0000      -0.642886       -17.4938
  39   2.0000      -0.617585       -16.8053
  40   2.0000      -0.601832       -16.3767
  41   2.0000      -0.573515       -15.6061
  42   2.0000      -0.561078       -15.2677
  43   2.0000      -0.546497       -14.8709
  44   2.0000      -0.539285       -14.6747
  45   2.0000      -0.526173       -14.3179
  46   2.0000      -0.519816       -14.1449
  47   2.0000      -0.507381       -13.8065
  48   2.0000      -0.502706       -13.6793
  49   2.0000      -0.498903       -13.5758
  50   2.0000      -0.487494       -13.2654
  51   2.0000      -0.477597       -12.9961
  52   2.0000      -0.473257       -12.8780
  53   2.0000      -0.465851       -12.6764
  54   2.0000      -0.462756       -12.5922
  55   2.0000      -0.447369       -12.1735
  56   2.0000      -0.442066       -12.0292
  57   2.0000      -0.430429       -11.7126
  58   2.0000      -0.426836       -11.6148
  59   2.0000      -0.421459       -11.4685
  60   2.0000      -0.419725       -11.4213
  61   2.0000      -0.418724       -11.3941
  62   2.0000      -0.411742       -11.2041
  63   2.0000      -0.353695        -9.6245
  64   2.0000      -0.332402        -9.0451
  65   2.0000      -0.330806        -9.0017
  66   2.0000      -0.286171        -7.7871
  67   0.0000       0.018785         0.5112
  68   0.0000       0.071249         1.9388
  69   0.0000       0.110885         3.0173
  70   0.0000       0.114936         3.1276
  71   0.0000       0.128697         3.5020

MULLIKEN ATOMIC CHARGES
-----------------------
   0 S :    0.116239
   1 C :   -0.148212
   2 C :   -0.051905
   3 C :    0.016369
   4 C :   -0.141379
   5 H :    0.015267
   6 C :    0.077597
   7 H :    0.020539
   8 H :    0.039285
   9 C :   -0.126322
  10 H :    0.030936
  11 H :    0.021286
  12 C :   -0.052953
  13 H :    0.047412
  14 H :    0.026400
  15 H :    0.041180
  16 S :    0.107733
  17 C :   -0.082827
  18 C :   -0.059290
  19 C :   -0.002384
  20 C :   -0.161730
  21 H :    0.047751
  22 C :    0.049218
  23 H :    0.025362
  24 H :   -0.009066
  25 C :   -0.073848
  26 H :    0.024606
  27 H :    0.019067
  28 C :   -0.026317
  29 H :    0.026923
  30 H :    0.041823
  31 H :    0.015619
  32 H :    0.074476
  33 H :    0.051146
Sum of atomic charges:    0.0000000

LOEWDIN ATOMIC CHARGES
----------------------
   0 S :    0.394865
   1 C :   -0.198470
   2 C :   -0.061922
   3 C :   -0.058693
   4 C :   -0.186228
   5 H :    0.027546
   6 C :   -0.024581
   7 H :    0.027632
   8 H :    0.035216
   9 C :   -0.051726
  10 H :    0.027688
  11 H :    0.014073
  12 C :   -0.066898
  13 H :    0.025549
  14 H :    0.019622
  15 H :    0.036984
  16 S :    0.418811
  17 C :   -0.181015
  18 C :   -0.076272
  19 C :   -0.056753
  20 C :   -0.206763
  21 H :    0.047320
  22 C :   -0.042053
  23 H :    0.036721
  24 H :    0.022994
  25 C :   -0.036403
  26 H :    0.012502
  27 H :    0.026300
  28 C :   -0.061064
  29 H :    0.016823
  30 H :    0.033278
  31 H :    0.021828
  32 H :    0.037511
  33 H :    0.025575

  Mayer bond orders larger than 0.100000
B(  0-S ,  1-C ) :   1.1472 B(  0-S ,  4-C ) :   1.1354 B(  1-C ,  2-C ) :   1.6041
B(  1-C , 32-H ) :   0.9597 B(  2-C ,  3-C ) :   1.2220 B(  2-C ,  6-C ) :   1.0259
B(  3-C ,  4-C ) :   1.5760 B(  3-C ,  5-H ) :   0.9894 B(  4-C , 20-C ) :   1.0853
B(  6-C ,  7-H ) :   0.9492 B(  6-C ,  8-H ) :   0.9489 B(  6-C ,  9-C ) :   1.0373
B(  9-C , 10-H ) :   0.9590 B(  9-C , 11-H ) :   0.9628 B(  9-C , 12-C ) :   1.0813
B( 12-C , 13-H ) :   0.9757 B( 12-C , 14-H ) :   0.9759 B( 12-C , 15-H ) :   0.9740
B( 16-S , 17-C ) :   1.1783 B( 16-S , 20-C ) :   1.1473 B( 17-C , 18-C ) :   1.5610
B( 17-C , 20-C ) :   0.1091 B( 17-C , 33-H ) :   0.9670 B( 18-C , 19-C ) :   1.2940
B( 18-C , 21-H ) :   0.9817 B( 19-C , 20-C ) :   1.5252 B( 19-C , 22-C ) :   1.0427
B( 22-C , 23-H ) :   0.9248 B( 22-C , 24-H ) :   0.9271 B( 22-C , 25-C ) :   1.0809
B( 25-C , 26-H ) :   0.9585 B( 25-C , 27-H ) :   0.9547 B( 25-C , 28-C ) :   1.0719
B( 28-C , 29-H ) :   0.9780 B( 28-C , 30-H ) :   0.9742 B( 28-C , 31-H ) :   0.9744

Dispersion correction           -0.013526742
FINAL SINGLE POINT ENERGY     -1339.860112834279

DIPOLE MOMENT
-------------
                                X             Y             Z
Electronic contribution:    -20.63535     -13.73822      14.75215
Nuclear contribution   :     20.84741      14.13671     -15.22192
                        -----------------------------------------
Total Dipole Moment    :      0.21206       0.39849      -0.46977
                        -----------------------------------------
Magnitude (a.u.)       :      0.65150
Magnitude (Debye)      :      1.65598

Rotational constants in cm-1:     0.019315     0.007601     0.006031
Rotational constants in MHz :   579.046458   227.880674   180.798871

                             ****ORCA TERMINATED NORMALLY****
TOTAL RUN TIME: 0 days 0 hours 0 minutes 33 seconds 245 msec
