                         Program Version 4.2.1 -  RELEASE  -
|  1> ! wB97X-D3 SP def2-SVP
|  2> %pal
|  3> nprocs 16
|  4> end
|  5>
|  6> * xyz 0 1
|  7> S 	 52.9973 	 21.3341 	 91.9395
|  8> C 	 51.7292 	 21.4179 	 90.7613
|  9> C 	 51.3847 	 20.1979 	 90.2107
| 10> C 	 52.2318 	 19.2285 	 90.7493
| 11> C 	 53.1064 	 19.6181 	 91.7022
| 12> H 	 52.2534 	 18.2485 	 90.3298
| 13> C 	 50.2695 	 19.9334 	 89.2065
| 14> H 	 50.6616 	 19.2001 	 88.5447
| 15> H 	 50.1938 	 20.7057 	 88.5367
| 16> C 	 48.9018 	 19.686 	 89.7515
| 17> H 	 48.8229 	 18.7767 	 90.2312
| 18> H 	 48.5252 	 20.528 	 90.3586
| 19> C 	 47.7569 	 19.7072 	 88.6415
| 20> H 	 46.7565 	 19.5308 	 88.9868
| 21> H 	 47.8002 	 20.6146 	 88.0769
| 22> H 	 48.0427 	 18.9589 	 87.7962
| 23> S 	 55.6712 	 19.7271 	 92.5664
| 24> C 	 56.206 	 18.3403 	 93.5108
| 25> C 	 55.2694 	 17.2972 	 93.6033
| 26> C 	 54.0449 	 17.6157 	 92.9332
| 27> C 	 54.1469 	 18.829 	 92.3174
| 28> H 	 55.4022 	 16.4163 	 94.2012
| 29> C 	 52.8029 	 16.7978 	 92.9385
| 30> H 	 51.8827 	 17.3745 	 92.826
| 31> H 	 52.8707 	 16.5726 	 93.9969
| 32> C 	 52.7499 	 15.5532 	 91.98
| 33> H 	 53.7334 	 15.08 	 91.7641
| 34> H 	 52.4741 	 15.9485 	 91.0415
| 35> C 	 51.6601 	 14.4917 	 92.4306
| 36> H 	 52.0056 	 14.0193 	 93.3484
| 37> H 	 51.7086 	 13.7098 	 91.5608
| 38> H 	 50.6452 	 14.7995 	 92.4665
| 39> H 	 51.3182 	 22.3419 	 90.3955
| 40> H 	 57.2218 	 18.1708 	 93.8886
| 41> *
| 42>
| 43>                          ****END OF INPUT****

CARTESIAN COORDINATES (ANGSTROEM)
---------------------------------
  S     52.997300   21.334100   91.939500
  C     51.729200   21.417900   90.761300
  C     51.384700   20.197900   90.210700
  C     52.231800   19.228500   90.749300
  C     53.106400   19.618100   91.702200
  H     52.253400   18.248500   90.329800
  C     50.269500   19.933400   89.206500
  H     50.661600   19.200100   88.544700
  H     50.193800   20.705700   88.536700
  C     48.901800   19.686000   89.751500
  H     48.822900   18.776700   90.231200
  H     48.525200   20.528000   90.358600
  C     47.756900   19.707200   88.641500
  H     46.756500   19.530800   88.986800
  H     47.800200   20.614600   88.076900
  H     48.042700   18.958900   87.796200
  S     55.671200   19.727100   92.566400
  C     56.206000   18.340300   93.510800
  C     55.269400   17.297200   93.603300
  C     54.044900   17.615700   92.933200
  C     54.146900   18.829000   92.317400
  H     55.402200   16.416300   94.201200
  C     52.802900   16.797800   92.938500
  H     51.882700   17.374500   92.826000
  H     52.870700   16.572600   93.996900
  C     52.749900   15.553200   91.980000
  H     53.733400   15.080000   91.764100
  H     52.474100   15.948500   91.041500
  C     51.660100   14.491700   92.430600
  H     52.005600   14.019300   93.348400
  H     51.708600   13.709800   91.560800
  H     50.645200   14.799500   92.466500
  H     51.318200   22.341900   90.395500
  H     57.221800   18.170800   93.888600

 Total Charge           Charge          ....    0
 Multiplicity           Mult            ....    1
 Number of Electrons    NEL             ....  134
 Basis Dimension        Dim             ....  322

ORBITAL ENERGIES
----------------

  NO   OCC          E(Eh)            E(eV)
   0   2.0000     -88.968527     -2420.9567
   1   2.0000     -88.965260     -2420.8678
   2   2.0000     -10.321308      -280.8571
   3   2.0000     -10.320092      -280.8240
   4   2.0000     -10.317871      -280.7635
   5   2.0000     -10.307801      -280.4895
   6   2.0000     -10.299059      -280.2516
   7   2.0000     -10.296511      -280.1823
   8   2.0000     -10.295096      -280.1438
   9   2.0000     -10.294865      -280.1375
  10   2.0000     -10.290463      -280.0177
  11   2.0000     -10.289480      -279.9910
  12   2.0000     -10.285622      -279.8860
  13   2.0000     -10.284688      -279.8606
  14   2.0000     -10.284279      -279.8494
  15   2.0000     -10.280869      -279.7567
  16   2.0000      -8.082516      -219.9365
  17   2.0000      -8.080572      -219.8835
  18   2.0000      -6.040992      -164.3837
  19   2.0000      -6.038936      -164.3278
  20   2.0000      -6.037380      -164.2855
  21   2.0000      -6.035051      -164.2221
  22   2.0000      -6.033107      -164.1692
  23   2.0000      -6.031410      -164.1230
  24   2.0000      -1.011599       -27.5270
  25   2.0000      -0.983863       -26.7723
  26   2.0000      -0.916537       -24.9402
  27   2.0000      -0.905294       -24.6343
  28   2.0000      -0.867041       -23.5934
  29   2.0000      -0.855001       -23.2658
  30   2.0000      -0.847436       -23.0599
  31   2.0000      -0.811743       -22.0887
  32   2.0000      -0.785843       -21.3839
  33   2.0000      -0.771207       -20.9856
  34   2.0000      -0.711101       -19.3500
  35   2.0000      -0.708488       -19.2789
  36   2.0000      -0.694751       -18.9051
  37   2.0000      -0.667720       -18.1696
  38   2.0000      -0.642989       -17.4966
  39   2.0000      -0.626749       -17.0547
  40   2.0000      -0.593475       -16.1493
  41   2.0000      -0.569928       -15.5085
  42   2.0000      -0.562592       -15.3089
  43   2.0000      -0.556031       -15.1304
  44   2.0000      -0.531813       -14.4714
  45   2.0000      -0.526729       -14.3330
  46   2.0000      -0.523240       -14.2381
  47   2.0000      -0.504093       -13.7171
  48   2.0000      -0.502822       -13.6825
  49   2.0000      -0.493065       -13.4170
  50   2.0000      -0.490864       -13.3571
  51   2.0000      -0.481246       -13.0954
  52   2.0000      -0.470277       -12.7969
  53   2.0000      -0.462437       -12.5836
  54   2.0000      -0.457321       -12.4443
  55   2.0000      -0.456817       -12.4306
  56   2.0000      -0.448851       -12.2138
  57   2.0000      -0.441940       -12.0258
  58   2.0000      -0.434167       -11.8143
  59   2.0000      -0.431931       -11.7534
  60   2.0000      -0.430410       -11.7121
  61   2.0000      -0.409382       -11.1399
  62   2.0000      -0.408552       -11.1173
  63   2.0000      -0.349238        -9.5033
  64   2.0000      -0.335307        -9.1242
  65   2.0000      -0.332962        -9.0603
  66   2.0000      -0.283724        -7.7205
  67   0.0000       0.029762         0.8099
  68   0.0000       0.071445         1.9441
  69   0.0000       0.102412         2.7868
  70   0.0000       0.126462         3.4412
  71   0.0000       0.133394         3.6298

MULLIKEN ATOMIC CHARGES
-----------------------
   0 S :    0.113642
   1 C :   -0.124189
   2 C :   -0.088118
   3 C :    0.001008
   4 C :   -0.122435
   5 H :   -0.013719
   6 C :    0.144614
   7 H :    0.006283
   8 H :   -0.020902
   9 C :   -0.024345
  10 H :    0.019049
  11 H :    0.038885
  12 C :   -0.087107
  13 H :    0.045079
  14 H :    0.022251
  15 H :    0.025672
  16 S :    0.105139
  17 C :   -0.090838
  18 C :   -0.031233
  19 C :   -0.047006
  20 C :   -0.144800
  21 H :    0.011919
  22 C :    0.052579
  23 H :    0.036575
  24 H :    0.022186
  25 C :   -0.047898
  26 H :    0.038731
  27 H :    0.011210
  28 C :   -0.073588
  29 H :    0.044067
  30 H :    0.041806
  31 H :    0.040248
  32 H :    0.033924
  33 H :    0.061310
Sum of atomic charges:   -0.0000000

LOEWDIN ATOMIC CHARGES
----------------------
   0 S :    0.414572
   1 C :   -0.195511
   2 C :   -0.059926
   3 C :   -0.068354
   4 C :   -0.199570
   5 H :    0.023569
   6 C :   -0.026671
   7 H :    0.030338
   8 H :    0.020445
   9 C :   -0.026074
  10 H :    0.013031
  11 H :    0.033427
  12 C :   -0.069268
  13 H :    0.023382
  14 H :    0.017133
  15 H :    0.028614
  16 S :    0.381457
  17 C :   -0.182491
  18 C :   -0.065133
  19 C :   -0.054498
  20 C :   -0.180441
  21 H :    0.028761
  22 C :   -0.036179
  23 H :    0.034407
  24 H :    0.033047
  25 C :   -0.032673
  26 H :    0.030321
  27 H :    0.013729
  28 C :   -0.064764
  29 H :    0.025020
  30 H :    0.037960
  31 H :    0.019987
  32 H :    0.021303
  33 H :    0.031049

  Mayer bond orders larger than 0.100000
B(  0-S ,  1-C ) :   1.1506 B(  0-S ,  4-C ) :   1.1402 B(  1-C ,  2-C ) :   1.5964
B(  1-C , 32-H ) :   0.9663 B(  2-C ,  3-C ) :   1.2762 B(  2-C ,  6-C ) :   1.0185
B(  3-C ,  4-C ) :   1.5557 B(  3-C ,  5-H ) :   1.0012 B(  4-C , 20-C ) :   1.0555
B(  6-C ,  7-H ) :   0.9254 B(  6-C ,  8-H ) :   0.9225 B(  6-C ,  9-C ) :   1.0690
B(  9-C , 10-H ) :   0.9593 B(  9-C , 11-H ) :   0.9567 B(  9-C , 12-C ) :   1.0676
B( 12-C , 13-H ) :   0.9782 B( 12-C , 14-H ) :   0.9766 B( 12-C , 15-H ) :   0.9753
B( 16-S , 17-C ) :   1.1397 B( 16-S , 20-C ) :   1.1121 B( 17-C , 18-C ) :   1.6284
B( 17-C , 33-H ) :   0.9619 B( 18-C , 19-C ) :   1.2258 B( 18-C , 21-H ) :   0.9886
B( 19-C , 20-C ) :   1.6234 B( 19-C , 22-C ) :   1.0284 B( 22-C , 23-H ) :   0.9282
B( 22-C , 24-H ) :   0.9369 B( 22-C , 25-C ) :   1.0423 B( 25-C , 26-H ) :   0.9619
B( 25-C , 27-H ) :   0.9519 B( 25-C , 28-C ) :   1.0688 B( 28-C , 29-H ) :   0.9804
B( 28-C , 30-H ) :   0.9761 B( 28-C , 31-H ) :   0.9784

Dispersion correction           -0.013820218
FINAL SINGLE POINT ENERGY     -1339.857004810386

DIPOLE MOMENT
-------------
                                X             Y             Z
Electronic contribution:     25.13560      18.61701      10.39328
Nuclear contribution   :    -25.54139     -19.08508     -10.60463
                        -----------------------------------------
Total Dipole Moment    :     -0.40579      -0.46808      -0.21136
                        -----------------------------------------
Magnitude (a.u.)       :      0.65455
Magnitude (Debye)      :      1.66372

Rotational constants in cm-1:     0.017507     0.009006     0.006193
Rotational constants in MHz :   524.833436   270.002600   185.662090

                             ****ORCA TERMINATED NORMALLY****
TOTAL RUN TIME: 0 days 0 hours 0 minutes 28 seconds 182 msec
