                         Program Version 4.2.1 -  RELEASE  -
|  1> ! wB97X-D3 SP def2-SVP
|  2> %pal
|  3> nprocs 16
|  4> end
|  5>
|  6> * xyz 0 1
|  7> S 	 40.9705 	 16.1428 	 47.7181
|  8> C 	 39.797 	 15.0992 	 47.0575
|  9> C 	 39.316 	 15.5008 	 45.842
| 10> C 	 39.9133 	 16.7319 	 45.4432
| 11> C 	 40.8523 	 17.1778 	 46.3202
| 12> H 	 39.8272 	 17.265 	 44.5445
| 13> C 	 38.2801 	 14.8589 	 44.9401
| 14> H 	 38.0989 	 13.8585 	 45.2887
| 15> H 	 38.7488 	 14.6635 	 43.9405
| 16> C 	 36.913 	 15.583 	 44.7516
| 17> H 	 36.988 	 16.5252 	 44.2163
| 18> H 	 36.1656 	 15.0208 	 44.2022
| 19> C 	 36.2282 	 15.7134 	 46.0813
| 20> H 	 35.9548 	 14.7613 	 46.5284
| 21> H 	 36.8814 	 16.2192 	 46.765
| 22> H 	 35.2975 	 16.2123 	 45.8693
| 23> S 	 43.4378 	 17.792 	 45.98
| 24> C 	 43.9053 	 19.4476 	 45.5588
| 25> C 	 42.8398 	 20.2536 	 45.5324
| 26> C 	 41.5699 	 19.6174 	 45.7165
| 27> C 	 41.7721 	 18.2793 	 46.0971
| 28> H 	 42.9235 	 21.2939 	 45.2503
| 29> C 	 40.2418 	 20.4312 	 45.7088
| 30> H 	 40.4033 	 21.1685 	 46.4874
| 31> H 	 39.4158 	 19.8141 	 46.2043
| 32> C 	 39.6683 	 20.8844 	 44.3488
| 33> H 	 40.4625 	 21.2724 	 43.6705
| 34> H 	 39.0121 	 21.7585 	 44.6099
| 35> C 	 38.8739 	 19.8887 	 43.5322
| 36> H 	 39.5696 	 19.1624 	 43.4252
| 37> H 	 38.5353 	 20.4047 	 42.6248
| 38> H 	 38.0377 	 19.5313 	 44.0688
| 39> H 	 39.5337 	 14.155 	 47.6108
| 40> H 	 44.8604 	 19.8562 	 45.501
| 41> *
| 42>
| 43>                          ****END OF INPUT****

CARTESIAN COORDINATES (ANGSTROEM)
---------------------------------
  S     40.970500   16.142800   47.718100
  C     39.797000   15.099200   47.057500
  C     39.316000   15.500800   45.842000
  C     39.913300   16.731900   45.443200
  C     40.852300   17.177800   46.320200
  H     39.827200   17.265000   44.544500
  C     38.280100   14.858900   44.940100
  H     38.098900   13.858500   45.288700
  H     38.748800   14.663500   43.940500
  C     36.913000   15.583000   44.751600
  H     36.988000   16.525200   44.216300
  H     36.165600   15.020800   44.202200
  C     36.228200   15.713400   46.081300
  H     35.954800   14.761300   46.528400
  H     36.881400   16.219200   46.765000
  H     35.297500   16.212300   45.869300
  S     43.437800   17.792000   45.980000
  C     43.905300   19.447600   45.558800
  C     42.839800   20.253600   45.532400
  C     41.569900   19.617400   45.716500
  C     41.772100   18.279300   46.097100
  H     42.923500   21.293900   45.250300
  C     40.241800   20.431200   45.708800
  H     40.403300   21.168500   46.487400
  H     39.415800   19.814100   46.204300
  C     39.668300   20.884400   44.348800
  H     40.462500   21.272400   43.670500
  H     39.012100   21.758500   44.609900
  C     38.873900   19.888700   43.532200
  H     39.569600   19.162400   43.425200
  H     38.535300   20.404700   42.624800
  H     38.037700   19.531300   44.068800
  H     39.533700   14.155000   47.610800
  H     44.860400   19.856200   45.501000

 Total Charge           Charge          ....    0
 Multiplicity           Mult            ....    1
 Number of Electrons    NEL             ....  134
 Basis Dimension        Dim             ....  322

ORBITAL ENERGIES
----------------

  NO   OCC          E(Eh)            E(eV)
   0   2.0000     -88.965343     -2420.8701
   1   2.0000     -88.963890     -2420.8305
   2   2.0000     -10.325627      -280.9746
   3   2.0000     -10.321713      -280.8681
   4   2.0000     -10.314837      -280.6810
   5   2.0000     -10.307723      -280.4874
   6   2.0000     -10.305481      -280.4264
   7   2.0000     -10.300606      -280.2937
   8   2.0000     -10.300491      -280.2906
   9   2.0000     -10.293531      -280.1012
  10   2.0000     -10.292300      -280.0677
  11   2.0000     -10.287212      -279.9293
  12   2.0000     -10.285391      -279.8797
  13   2.0000     -10.284125      -279.8453
  14   2.0000     -10.269432      -279.4455
  15   2.0000     -10.266572      -279.3676
  16   2.0000      -8.081334      -219.9043
  17   2.0000      -8.078627      -219.8306
  18   2.0000      -6.039667      -164.3477
  19   2.0000      -6.037231      -164.2814
  20   2.0000      -6.035691      -164.2395
  21   2.0000      -6.033175      -164.1710
  22   2.0000      -6.032183      -164.1440
  23   2.0000      -6.029226      -164.0636
  24   2.0000      -1.012668       -27.5561
  25   2.0000      -0.987678       -26.8761
  26   2.0000      -0.912532       -24.8313
  27   2.0000      -0.908114       -24.7110
  28   2.0000      -0.875034       -23.8109
  29   2.0000      -0.855760       -23.2864
  30   2.0000      -0.850651       -23.1474
  31   2.0000      -0.818457       -22.2713
  32   2.0000      -0.783747       -21.3268
  33   2.0000      -0.773681       -21.0529
  34   2.0000      -0.707701       -19.2575
  35   2.0000      -0.694104       -18.8875
  36   2.0000      -0.690492       -18.7893
  37   2.0000      -0.659117       -17.9355
  38   2.0000      -0.646898       -17.6030
  39   2.0000      -0.621824       -16.9207
  40   2.0000      -0.597882       -16.2692
  41   2.0000      -0.566819       -15.4239
  42   2.0000      -0.565768       -15.3953
  43   2.0000      -0.555199       -15.1077
  44   2.0000      -0.542963       -14.7748
  45   2.0000      -0.541808       -14.7433
  46   2.0000      -0.516355       -14.0507
  47   2.0000      -0.510541       -13.8925
  48   2.0000      -0.503752       -13.7078
  49   2.0000      -0.497308       -13.5324
  50   2.0000      -0.490261       -13.3407
  51   2.0000      -0.477263       -12.9870
  52   2.0000      -0.475093       -12.9279
  53   2.0000      -0.465438       -12.6652
  54   2.0000      -0.458666       -12.4809
  55   2.0000      -0.449706       -12.2371
  56   2.0000      -0.447734       -12.1835
  57   2.0000      -0.439999       -11.9730
  58   2.0000      -0.432696       -11.7743
  59   2.0000      -0.429504       -11.6874
  60   2.0000      -0.419323       -11.4104
  61   2.0000      -0.410539       -11.1713
  62   2.0000      -0.405965       -11.0469
  63   2.0000      -0.349715        -9.5162
  64   2.0000      -0.330353        -8.9894
  65   2.0000      -0.328858        -8.9487
  66   2.0000      -0.298148        -8.1130
  67   0.0000       0.037391         1.0175
  68   0.0000       0.073576         2.0021
  69   0.0000       0.118598         3.2272
  70   0.0000       0.123859         3.3704
  71   0.0000       0.126268         3.4359

MULLIKEN ATOMIC CHARGES
-----------------------
   0 S :    0.121697
   1 C :   -0.146426
   2 C :   -0.082517
   3 C :    0.073908
   4 C :   -0.173041
   5 H :   -0.032667
   6 C :    0.077460
   7 H :    0.002444
   8 H :    0.038984
   9 C :   -0.066458
  10 H :    0.031263
  11 H :    0.023316
  12 C :   -0.038505
  13 H :    0.019485
  14 H :    0.039324
  15 H :    0.025328
  16 S :    0.104907
  17 C :   -0.048792
  18 C :   -0.031492
  19 C :   -0.041526
  20 C :   -0.164016
  21 H :    0.015918
  22 C :    0.023808
  23 H :    0.040787
  24 H :    0.031302
  25 C :   -0.108431
  26 H :    0.031872
  27 H :    0.031702
  28 C :    0.010199
  29 H :    0.027873
  30 H :    0.043878
  31 H :    0.021987
  32 H :    0.066909
  33 H :    0.029518
Sum of atomic charges:    0.0000000

LOEWDIN ATOMIC CHARGES
----------------------
   0 S :    0.423489
   1 C :   -0.213691
   2 C :   -0.069302
   3 C :   -0.049886
   4 C :   -0.201110
   5 H :    0.022630
   6 C :   -0.032779
   7 H :    0.024139
   8 H :    0.036989
   9 C :   -0.040482
  10 H :    0.021420
  11 H :    0.026492
  12 C :   -0.059329
  13 H :    0.022527
  14 H :    0.021056
  15 H :    0.024186
  16 S :    0.401282
  17 C :   -0.173182
  18 C :   -0.068713
  19 C :   -0.063325
  20 C :   -0.199142
  21 H :    0.030981
  22 C :   -0.040608
  23 H :    0.035537
  24 H :    0.038958
  25 C :   -0.044133
  26 H :    0.024683
  27 H :    0.026603
  28 C :   -0.048935
  29 H :    0.010810
  30 H :    0.035887
  31 H :    0.019056
  32 H :    0.037848
  33 H :    0.020043

  Mayer bond orders larger than 0.100000
B(  0-S ,  1-C ) :   1.1500 B(  0-S ,  4-C ) :   1.1530 B(  1-C ,  2-C ) :   1.6142
B(  1-C , 32-H ) :   0.9583 B(  2-C ,  3-C ) :   1.2148 B(  2-C ,  6-C ) :   1.0315
B(  3-C ,  4-C ) :   1.6012 B(  3-C ,  5-H ) :   1.0046 B(  4-C , 20-C ) :   1.0081
B(  6-C ,  7-H ) :   0.9366 B(  6-C ,  8-H ) :   0.9382 B(  6-C ,  9-C ) :   1.0688
B(  9-C , 10-H ) :   0.9575 B(  9-C , 11-H ) :   0.9555 B(  9-C , 12-C ) :   1.0750
B( 12-C , 13-H ) :   0.9737 B( 12-C , 14-H ) :   0.9771 B( 12-C , 15-H ) :   0.9722
B( 16-S , 17-C ) :   1.1219 B( 16-S , 20-C ) :   1.1584 B( 17-C , 18-C ) :   1.6543
B( 17-C , 33-H ) :   0.9700 B( 18-C , 19-C ) :   1.2275 B( 18-C , 21-H ) :   0.9817
B( 19-C , 20-C ) :   1.6015 B( 19-C , 22-C ) :   1.0281 B( 22-C , 23-H ) :   0.9461
B( 22-C , 24-H ) :   0.9398 B( 22-C , 25-C ) :   1.0474 B( 25-C , 26-H ) :   0.9619
B( 25-C , 27-H ) :   0.9531 B( 25-C , 28-C ) :   1.0758 B( 28-C , 29-H ) :   0.9722
B( 28-C , 30-H ) :   0.9669 B( 28-C , 31-H ) :   0.9739

Dispersion correction           -0.015304936
FINAL SINGLE POINT ENERGY     -1339.873009325963

DIPOLE MOMENT
-------------
                                X             Y             Z
Electronic contribution:     26.09021      -5.38823      12.61024
Nuclear contribution   :    -26.54906       5.63368     -12.96597
                        -----------------------------------------
Total Dipole Moment    :     -0.45886       0.24545      -0.35574
                        -----------------------------------------
Magnitude (a.u.)       :      0.63035
Magnitude (Debye)      :      1.60223

Rotational constants in cm-1:     0.018633     0.010027     0.007228
Rotational constants in MHz :   558.605230   300.616445   216.699738

                             ****ORCA TERMINATED NORMALLY****
TOTAL RUN TIME: 0 days 0 hours 0 minutes 36 seconds 444 msec
