                         Program Version 4.2.1 -  RELEASE  -
|  1> ! wB97X-D3 SP def2-SVP
|  2> %pal
|  3> nprocs 16
|  4> end
|  5>
|  6> * xyz 0 1
|  7> S 	 8.03526 	 -15.2397 	 103.399
|  8> C 	 8.96334 	 -14.3989 	 102.182
|  9> C 	 8.23727 	 -13.9584 	 101.098
| 10> C 	 6.84477 	 -14.3175 	 101.241
| 11> C 	 6.53019 	 -14.9036 	 102.475
| 12> H 	 6.06196 	 -14.1026 	 100.522
| 13> C 	 8.76754 	 -13.1829 	 99.9075
| 14> H 	 8.44351 	 -13.6913 	 98.9808
| 15> H 	 9.83641 	 -13.1894 	 100.145
| 16> C 	 8.30194 	 -11.6983 	 99.727
| 17> H 	 8.53044 	 -11.2959 	 98.7561
| 18> H 	 7.19223 	 -11.783 	 99.7567
| 19> C 	 8.98018 	 -10.7241 	 100.76
| 20> H 	 9.89391 	 -10.3365 	 100.38
| 21> H 	 8.41754 	 -9.7792 	 100.804
| 22> H 	 9.01649 	 -11.1208 	 101.837
| 23> S 	 3.88571 	 -14.278 	 102.946
| 24> C 	 2.64352 	 -15.5187 	 103.054
| 25> C 	 3.33363 	 -16.7083 	 103.273
| 26> C 	 4.78613 	 -16.6769 	 103.155
| 27> C 	 5.19596 	 -15.3862 	 102.835
| 28> H 	 2.70204 	 -17.592 	 103.455
| 29> C 	 5.64176 	 -17.9218 	 103.334
| 30> H 	 6.64214 	 -17.7284 	 102.985
| 31> H 	 5.18278 	 -18.7079 	 102.684
| 32> C 	 5.91245 	 -18.4264 	 104.782
| 33> H 	 5.03659 	 -18.236 	 105.48
| 34> H 	 6.7469 	 -17.7635 	 105.093
| 35> C 	 6.33495 	 -19.9116 	 104.997
| 36> H 	 6.5589 	 -20.1678 	 106.067
| 37> H 	 7.22196 	 -20.1254 	 104.318
| 38> H 	 5.52791 	 -20.568 	 104.541
| 39> H 	 9.99806 	 -14.1178 	 102.164
| 40> H 	 1.62834 	 -15.3722 	 103.25
| 41> *
| 42>
| 43>                          ****END OF INPUT****

CARTESIAN COORDINATES (ANGSTROEM)
---------------------------------
  S      8.035260  -15.239700  103.399000
  C      8.963340  -14.398900  102.182000
  C      8.237270  -13.958400  101.098000
  C      6.844770  -14.317500  101.241000
  C      6.530190  -14.903600  102.475000
  H      6.061960  -14.102600  100.522000
  C      8.767540  -13.182900   99.907500
  H      8.443510  -13.691300   98.980800
  H      9.836410  -13.189400  100.145000
  C      8.301940  -11.698300   99.727000
  H      8.530440  -11.295900   98.756100
  H      7.192230  -11.783000   99.756700
  C      8.980180  -10.724100  100.760000
  H      9.893910  -10.336500  100.380000
  H      8.417540   -9.779200  100.804000
  H      9.016490  -11.120800  101.837000
  S      3.885710  -14.278000  102.946000
  C      2.643520  -15.518700  103.054000
  C      3.333630  -16.708300  103.273000
  C      4.786130  -16.676900  103.155000
  C      5.195960  -15.386200  102.835000
  H      2.702040  -17.592000  103.455000
  C      5.641760  -17.921800  103.334000
  H      6.642140  -17.728400  102.985000
  H      5.182780  -18.707900  102.684000
  C      5.912450  -18.426400  104.782000
  H      5.036590  -18.236000  105.480000
  H      6.746900  -17.763500  105.093000
  C      6.334950  -19.911600  104.997000
  H      6.558900  -20.167800  106.067000
  H      7.221960  -20.125400  104.318000
  H      5.527910  -20.568000  104.541000
  H      9.998060  -14.117800  102.164000
  H      1.628340  -15.372200  103.250000

 Total Charge           Charge          ....    0
 Multiplicity           Mult            ....    1
 Number of Electrons    NEL             ....  134
 Basis Dimension        Dim             ....  322

ORBITAL ENERGIES
----------------

  NO   OCC          E(Eh)            E(eV)
   0   2.0000     -88.975725     -2421.1526
   1   2.0000     -88.963715     -2420.8258
   2   2.0000     -10.337014      -281.2845
   3   2.0000     -10.328488      -281.0524
   4   2.0000     -10.315758      -280.7060
   5   2.0000     -10.315649      -280.7031
   6   2.0000     -10.307350      -280.4773
   7   2.0000     -10.302280      -280.3393
   8   2.0000     -10.299349      -280.2595
   9   2.0000     -10.298816      -280.2450
  10   2.0000     -10.298370      -280.2329
  11   2.0000     -10.294958      -280.1400
  12   2.0000     -10.294446      -280.1261
  13   2.0000     -10.293576      -280.1024
  14   2.0000     -10.292976      -280.0861
  15   2.0000     -10.283575      -279.8303
  16   2.0000      -8.088823      -220.1081
  17   2.0000      -8.078746      -219.8338
  18   2.0000      -6.047527      -164.5616
  19   2.0000      -6.043628      -164.4555
  20   2.0000      -6.039417      -164.3409
  21   2.0000      -6.037358      -164.2849
  22   2.0000      -6.033076      -164.1683
  23   2.0000      -6.029504      -164.0711
  24   2.0000      -1.004903       -27.3448
  25   2.0000      -0.982657       -26.7395
  26   2.0000      -0.906580       -24.6693
  27   2.0000      -0.900060       -24.4919
  28   2.0000      -0.869283       -23.6544
  29   2.0000      -0.846712       -23.0402
  30   2.0000      -0.841520       -22.8989
  31   2.0000      -0.814175       -22.1548
  32   2.0000      -0.780429       -21.2365
  33   2.0000      -0.772274       -21.0146
  34   2.0000      -0.712362       -19.3844
  35   2.0000      -0.696396       -18.9499
  36   2.0000      -0.686321       -18.6757
  37   2.0000      -0.661368       -17.9967
  38   2.0000      -0.633927       -17.2500
  39   2.0000      -0.615840       -16.7579
  40   2.0000      -0.594209       -16.1693
  41   2.0000      -0.568175       -15.4608
  42   2.0000      -0.555738       -15.1224
  43   2.0000      -0.551597       -15.0097
  44   2.0000      -0.544842       -14.8259
  45   2.0000      -0.524182       -14.2637
  46   2.0000      -0.513875       -13.9833
  47   2.0000      -0.509546       -13.8654
  48   2.0000      -0.503397       -13.6981
  49   2.0000      -0.498582       -13.5671
  50   2.0000      -0.484341       -13.1796
  51   2.0000      -0.474329       -12.9071
  52   2.0000      -0.471710       -12.8359
  53   2.0000      -0.463877       -12.6227
  54   2.0000      -0.456995       -12.4355
  55   2.0000      -0.448391       -12.2013
  56   2.0000      -0.445373       -12.1192
  57   2.0000      -0.437207       -11.8970
  58   2.0000      -0.432426       -11.7669
  59   2.0000      -0.422624       -11.5002
  60   2.0000      -0.417011       -11.3474
  61   2.0000      -0.412234       -11.2174
  62   2.0000      -0.407787       -11.0965
  63   2.0000      -0.347336        -9.4515
  64   2.0000      -0.332532        -9.0487
  65   2.0000      -0.324300        -8.8246
  66   2.0000      -0.297963        -8.1080
  67   0.0000       0.029300         0.7973
  68   0.0000       0.066883         1.8200
  69   0.0000       0.099336         2.7031
  70   0.0000       0.117861         3.2072
  71   0.0000       0.124894         3.3985

MULLIKEN ATOMIC CHARGES
-----------------------
   0 S :    0.117713
   1 C :   -0.092014
   2 C :   -0.111048
   3 C :    0.028501
   4 C :   -0.154510
   5 H :    0.021401
   6 C :    0.066167
   7 H :    0.044841
   8 H :    0.014854
   9 C :   -0.066384
  10 H :    0.028223
  11 H :    0.033450
  12 C :   -0.075645
  13 H :    0.027418
  14 H :    0.028960
  15 H :    0.059605
  16 S :    0.106126
  17 C :   -0.082770
  18 C :   -0.055938
  19 C :   -0.023378
  20 C :   -0.168168
  21 H :    0.027626
  22 C :    0.063827
  23 H :    0.019262
  24 H :    0.036237
  25 C :   -0.099700
  26 H :    0.041630
  27 H :    0.030587
  28 C :   -0.086799
  29 H :    0.061635
  30 H :    0.036758
  31 H :    0.040232
  32 H :    0.033908
  33 H :    0.047393
Sum of atomic charges:   -0.0000000

LOEWDIN ATOMIC CHARGES
----------------------
   0 S :    0.397518
   1 C :   -0.197836
   2 C :   -0.066269
   3 C :   -0.049166
   4 C :   -0.180907
   5 H :    0.030961
   6 C :   -0.031637
   7 H :    0.038851
   8 H :    0.027892
   9 C :   -0.038542
  10 H :    0.022718
  11 H :    0.025209
  12 C :   -0.077081
  13 H :    0.021238
  14 H :    0.029764
  15 H :    0.037443
  16 S :    0.417042
  17 C :   -0.186215
  18 C :   -0.066433
  19 C :   -0.060381
  20 C :   -0.206830
  21 H :    0.031719
  22 C :   -0.038508
  23 H :    0.021206
  24 H :    0.034281
  25 C :   -0.050182
  26 H :    0.026015
  27 H :    0.022552
  28 C :   -0.078561
  29 H :    0.035912
  30 H :    0.029184
  31 H :    0.029500
  32 H :    0.026994
  33 H :    0.022551

  Mayer bond orders larger than 0.100000
B(  0-S ,  1-C ) :   1.1271 B(  0-S ,  4-C ) :   1.1184 B(  1-C ,  2-C ) :   1.6502
B(  1-C , 32-H ) :   0.9517 B(  2-C ,  3-C ) :   1.2143 B(  2-C ,  6-C ) :   1.0268
B(  3-C ,  4-C ) :   1.5989 B(  3-C ,  5-H ) :   0.9864 B(  4-C , 20-C ) :   1.0330
B(  6-C ,  7-H ) :   0.9373 B(  6-C ,  8-H ) :   0.9378 B(  6-C ,  9-C ) :   1.0636
B(  9-C , 10-H ) :   0.9581 B(  9-C , 11-H ) :   0.9605 B(  9-C , 12-C ) :   1.0655
B( 12-C , 13-H ) :   0.9741 B( 12-C , 14-H ) :   0.9721 B( 12-C , 15-H ) :   0.9783
B( 16-S , 17-C ) :   1.1397 B( 16-S , 20-C ) :   1.1690 B( 17-C , 18-C ) :   1.6087
B( 17-C , 33-H ) :   0.9769 B( 18-C , 19-C ) :   1.2361 B( 18-C , 21-H ) :   0.9831
B( 19-C , 20-C ) :   1.5612 B( 19-C , 22-C ) :   1.0573 B( 22-C , 23-H ) :   0.9299
B( 22-C , 24-H ) :   0.9378 B( 22-C , 25-C ) :   1.0372 B( 25-C , 26-H ) :   0.9643
B( 25-C , 27-H ) :   0.9553 B( 25-C , 28-C ) :   1.0727 B( 28-C , 29-H ) :   0.9727
B( 28-C , 30-H ) :   0.9740 B( 28-C , 31-H ) :   0.9749

Dispersion correction           -0.014180263
FINAL SINGLE POINT ENERGY     -1339.869655112811

DIPOLE MOMENT
-------------
                                X             Y             Z
Electronic contribution:     -9.35161       2.94899       4.16408
Nuclear contribution   :      9.42945      -2.98143      -4.46903
                        -----------------------------------------
Total Dipole Moment    :      0.07784      -0.03244      -0.30495
                        -----------------------------------------
Magnitude (a.u.)       :      0.31640
Magnitude (Debye)      :      0.80422

Rotational constants in cm-1:     0.021457     0.007811     0.006162
Rotational constants in MHz :   643.272474   234.177915   184.735144

                             ****ORCA TERMINATED NORMALLY****
TOTAL RUN TIME: 0 days 0 hours 0 minutes 32 seconds 475 msec
