                         Program Version 4.2.1 -  RELEASE  -
|  1> ! wB97X-D3 SP def2-SVP
|  2> %pal
|  3> nprocs 16
|  4> end
|  5>
|  6> * xyz 0 1
|  7> S 	 47.0614 	 4.9417 	 86.5433
|  8> C 	 48.0295 	 6.33051 	 86.3287
|  9> C 	 49.3679 	 6.13864 	 86.8526
| 10> C 	 49.4729 	 4.85813 	 87.4651
| 11> C 	 48.3339 	 4.09195 	 87.4443
| 12> H 	 50.4118 	 4.54203 	 88.004
| 13> C 	 50.5132 	 7.13028 	 86.6547
| 14> H 	 51.2919 	 7.0901 	 87.4972
| 15> H 	 50.2436 	 8.16077 	 86.5342
| 16> C 	 51.3397 	 6.87329 	 85.4085
| 17> H 	 52.2882 	 7.52141 	 85.3256
| 18> H 	 51.7483 	 5.88052 	 85.3985
| 19> C 	 50.4628 	 7.10045 	 84.1261
| 20> H 	 50.3777 	 8.16994 	 83.9526
| 21> H 	 51.0877 	 6.67586 	 83.2284
| 22> H 	 49.5222 	 6.54214 	 84.1518
| 23> S 	 48.1129 	 2.84752 	 89.9058
| 24> C 	 47.9008 	 1.15243 	 89.8736
| 25> C 	 47.4708 	 0.69809 	 88.6495
| 26> C 	 47.4643 	 1.67078 	 87.5895
| 27> C 	 48.0455 	 2.8314 	 88.0927
| 28> H 	 47.3809 	 -0.348392 	 88.4507
| 29> C 	 47.011 	 1.38131 	 86.1367
| 30> H 	 46.3071 	 2.18111 	 85.9816
| 31> H 	 46.4261 	 0.440538 	 86.0996
| 32> C 	 48.1062 	 1.45287 	 85.0214
| 33> H 	 48.9814 	 0.848828 	 85.4037
| 34> H 	 48.5064 	 2.47955 	 84.779
| 35> C 	 47.732 	 0.795984 	 83.6971
| 36> H 	 47.1345 	 -0.15567 	 83.9448
| 37> H 	 48.5976 	 0.474434 	 83.2057
| 38> H 	 47.0999 	 1.40643 	 83.0249
| 39> H 	 47.7635 	 7.24178 	 85.8011
| 40> H 	 48.174 	 0.553062 	 90.7681
| 41> *
| 42>
| 43>                          ****END OF INPUT****

CARTESIAN COORDINATES (ANGSTROEM)
---------------------------------
  S     47.061400    4.941700   86.543300
  C     48.029500    6.330510   86.328700
  C     49.367900    6.138640   86.852600
  C     49.472900    4.858130   87.465100
  C     48.333900    4.091950   87.444300
  H     50.411800    4.542030   88.004000
  C     50.513200    7.130280   86.654700
  H     51.291900    7.090100   87.497200
  H     50.243600    8.160770   86.534200
  C     51.339700    6.873290   85.408500
  H     52.288200    7.521410   85.325600
  H     51.748300    5.880520   85.398500
  C     50.462800    7.100450   84.126100
  H     50.377700    8.169940   83.952600
  H     51.087700    6.675860   83.228400
  H     49.522200    6.542140   84.151800
  S     48.112900    2.847520   89.905800
  C     47.900800    1.152430   89.873600
  C     47.470800    0.698090   88.649500
  C     47.464300    1.670780   87.589500
  C     48.045500    2.831400   88.092700
  H     47.380900   -0.348392   88.450700
  C     47.011000    1.381310   86.136700
  H     46.307100    2.181110   85.981600
  H     46.426100    0.440538   86.099600
  C     48.106200    1.452870   85.021400
  H     48.981400    0.848828   85.403700
  H     48.506400    2.479550   84.779000
  C     47.732000    0.795984   83.697100
  H     47.134500   -0.155670   83.944800
  H     48.597600    0.474434   83.205700
  H     47.099900    1.406430   83.024900
  H     47.763500    7.241780   85.801100
  H     48.174000    0.553062   90.768100

 Total Charge           Charge          ....    0
 Multiplicity           Mult            ....    1
 Number of Electrons    NEL             ....  134
 Basis Dimension        Dim             ....  322

ORBITAL ENERGIES
----------------

  NO   OCC          E(Eh)            E(eV)
   0   2.0000     -88.970570     -2421.0123
   1   2.0000     -88.962689     -2420.7978
   2   2.0000     -10.327415      -281.0232
   3   2.0000     -10.326986      -281.0116
   4   2.0000     -10.320814      -280.8436
   5   2.0000     -10.315066      -280.6872
   6   2.0000     -10.309497      -280.5357
   7   2.0000     -10.309475      -280.5351
   8   2.0000     -10.301641      -280.3219
   9   2.0000     -10.300461      -280.2898
  10   2.0000     -10.297616      -280.2124
  11   2.0000     -10.295012      -280.1415
  12   2.0000     -10.291139      -280.0361
  13   2.0000     -10.289373      -279.9881
  14   2.0000     -10.282933      -279.8128
  15   2.0000     -10.280125      -279.7364
  16   2.0000      -8.085037      -220.0050
  17   2.0000      -8.077646      -219.8039
  18   2.0000      -6.043425      -164.4500
  19   2.0000      -6.039412      -164.3408
  20   2.0000      -6.036128      -164.2514
  21   2.0000      -6.036082      -164.2501
  22   2.0000      -6.032413      -164.1503
  23   2.0000      -6.028179      -164.0351
  24   2.0000      -1.004403       -27.3312
  25   2.0000      -0.982514       -26.7356
  26   2.0000      -0.910447       -24.7745
  27   2.0000      -0.903100       -24.5746
  28   2.0000      -0.864608       -23.5272
  29   2.0000      -0.853640       -23.2287
  30   2.0000      -0.844204       -22.9719
  31   2.0000      -0.804514       -21.8919
  32   2.0000      -0.784385       -21.3442
  33   2.0000      -0.769404       -20.9365
  34   2.0000      -0.703389       -19.1402
  35   2.0000      -0.689932       -18.7740
  36   2.0000      -0.683014       -18.5857
  37   2.0000      -0.661496       -18.0002
  38   2.0000      -0.635643       -17.2967
  39   2.0000      -0.620259       -16.8781
  40   2.0000      -0.596757       -16.2386
  41   2.0000      -0.566779       -15.4229
  42   2.0000      -0.562936       -15.3183
  43   2.0000      -0.541481       -14.7345
  44   2.0000      -0.537875       -14.6363
  45   2.0000      -0.529829       -14.4174
  46   2.0000      -0.515150       -14.0179
  47   2.0000      -0.509564       -13.8659
  48   2.0000      -0.501743       -13.6531
  49   2.0000      -0.492264       -13.3952
  50   2.0000      -0.488231       -13.2855
  51   2.0000      -0.478409       -13.0182
  52   2.0000      -0.470128       -12.7928
  53   2.0000      -0.463550       -12.6138
  54   2.0000      -0.457720       -12.4552
  55   2.0000      -0.445498       -12.1226
  56   2.0000      -0.442508       -12.0412
  57   2.0000      -0.435122       -11.8403
  58   2.0000      -0.427899       -11.6437
  59   2.0000      -0.423998       -11.5376
  60   2.0000      -0.422599       -11.4995
  61   2.0000      -0.413375       -11.2485
  62   2.0000      -0.410306       -11.1650
  63   2.0000      -0.343006        -9.3337
  64   2.0000      -0.330162        -8.9842
  65   2.0000      -0.327414        -8.9094
  66   2.0000      -0.290759        -7.9119
  67   0.0000       0.024779         0.6743
  68   0.0000       0.064219         1.7475
  69   0.0000       0.095550         2.6000
  70   0.0000       0.115414         3.1406
  71   0.0000       0.123327         3.3559

MULLIKEN ATOMIC CHARGES
-----------------------
   0 S :    0.120868
   1 C :   -0.112457
   2 C :   -0.106884
   3 C :    0.021528
   4 C :   -0.171944
   5 H :    0.035014
   6 C :    0.061665
   7 H :    0.039246
   8 H :    0.019656
   9 C :   -0.095988
  10 H :    0.040465
  11 H :    0.022647
  12 C :   -0.104284
  13 H :    0.035474
  14 H :    0.039809
  15 H :    0.057875
  16 S :    0.108092
  17 C :   -0.103770
  18 C :   -0.029364
  19 C :   -0.033613
  20 C :   -0.168634
  21 H :    0.011295
  22 C :    0.095707
  23 H :    0.029094
  24 H :    0.026647
  25 C :   -0.106265
  26 H :    0.038586
  27 H :    0.052661
  28 C :   -0.048578
  29 H :    0.024611
  30 H :    0.028631
  31 H :    0.042358
  32 H :    0.055754
  33 H :    0.074098
Sum of atomic charges:    0.0000000

LOEWDIN ATOMIC CHARGES
----------------------
   0 S :    0.426308
   1 C :   -0.210447
   2 C :   -0.063327
   3 C :   -0.062724
   4 C :   -0.200436
   5 H :    0.043967
   6 C :   -0.039545
   7 H :    0.039264
   8 H :    0.027058
   9 C :   -0.047492
  10 H :    0.031687
  11 H :    0.015255
  12 C :   -0.077083
  13 H :    0.021032
  14 H :    0.035652
  15 H :    0.025294
  16 S :    0.393819
  17 C :   -0.199228
  18 C :   -0.074325
  19 C :   -0.046286
  20 C :   -0.181736
  21 H :    0.025827
  22 C :   -0.031764
  23 H :    0.026736
  24 H :    0.035137
  25 C :   -0.047874
  26 H :    0.030618
  27 H :    0.032345
  28 C :   -0.067688
  29 H :    0.029643
  30 H :    0.019571
  31 H :    0.025851
  32 H :    0.028931
  33 H :    0.035962

  Mayer bond orders larger than 0.100000
B(  0-S ,  1-C ) :   1.1787 B(  0-S ,  4-C ) :   1.1360 B(  1-C ,  2-C ) :   1.5481
B(  1-C ,  4-C ) :   0.1049 B(  1-C , 32-H ) :   0.9645 B(  2-C ,  3-C ) :   1.2794
B(  2-C ,  6-C ) :   1.0352 B(  3-C ,  4-C ) :   1.5564 B(  3-C ,  5-H ) :   0.9846
B(  4-C , 20-C ) :   1.0637 B(  6-C ,  7-H ) :   0.9413 B(  6-C ,  8-H ) :   0.9454
B(  6-C ,  9-C ) :   1.0616 B(  9-C , 10-H ) :   0.9561 B(  9-C , 11-H ) :   0.9583
B(  9-C , 12-C ) :   1.0676 B( 12-C , 13-H ) :   0.9772 B( 12-C , 14-H ) :   0.9738
B( 12-C , 15-H ) :   0.9720 B( 16-S , 17-C ) :   1.1493 B( 16-S , 20-C ) :   1.1341
B( 17-C , 18-C ) :   1.6177 B( 17-C , 33-H ) :   0.9626 B( 18-C , 19-C ) :   1.2240
B( 18-C , 21-H ) :   0.9904 B( 19-C , 20-C ) :   1.5907 B( 19-C , 22-C ) :   1.0339
B( 22-C , 23-H ) :   0.9229 B( 22-C , 24-H ) :   0.9380 B( 22-C , 25-C ) :   1.0547
B( 25-C , 26-H ) :   0.9622 B( 25-C , 27-H ) :   0.9498 B( 25-C , 28-C ) :   1.0861
B( 28-C , 29-H ) :   0.9725 B( 28-C , 30-H ) :   0.9750 B( 28-C , 31-H ) :   0.9760

Dispersion correction           -0.014772301
FINAL SINGLE POINT ENERGY     -1339.868337028646

DIPOLE MOMENT
-------------
                                X             Y             Z
Electronic contribution:    -10.84549      -1.38888      22.52135
Nuclear contribution   :     11.17261       1.28236     -22.86737
                        -----------------------------------------
Total Dipole Moment    :      0.32711      -0.10651      -0.34601
                        -----------------------------------------
Magnitude (a.u.)       :      0.48793
Magnitude (Debye)      :      1.24022

Rotational constants in cm-1:     0.018473     0.009053     0.007078
Rotational constants in MHz :   553.816034   271.397552   212.186351

                             ****ORCA TERMINATED NORMALLY****
TOTAL RUN TIME: 0 days 0 hours 0 minutes 30 seconds 207 msec
