                         Program Version 4.2.1 -  RELEASE  -
|  1> ! wB97X-D3 SP def2-SVP
|  2> %pal
|  3> nprocs 16
|  4> end
|  5>
|  6> * xyz 0 1
|  7> S 	 -100.786 	 53.3661 	 122.832
|  8> C 	 -100.396 	 52.0351 	 121.717
|  9> C 	 -101.114 	 52.1912 	 120.511
| 10> C 	 -101.821 	 53.4762 	 120.532
| 11> C 	 -101.743 	 54.2284 	 121.687
| 12> H 	 -102.296 	 53.8523 	 119.616
| 13> C 	 -101.069 	 51.3038 	 119.267
| 14> H 	 -101.908 	 50.5366 	 119.3
| 15> H 	 -100.1 	 50.7488 	 119.253
| 16> C 	 -101.111 	 52.0457 	 117.959
| 17> H 	 -101.992 	 52.6383 	 117.808
| 18> H 	 -100.253 	 52.7566 	 117.955
| 19> C 	 -100.918 	 51.1067 	 116.79
| 20> H 	 -99.9819 	 50.5595 	 116.899
| 21> H 	 -101.797 	 50.534 	 116.573
| 22> H 	 -100.712 	 51.7583 	 115.969
| 23> S 	 -101.446 	 56.7596 	 122.677
| 24> C 	 -102.791 	 57.8267 	 122.559
| 25> C 	 -103.883 	 57.2078 	 122.006
| 26> C 	 -103.673 	 55.8646 	 121.614
| 27> C 	 -102.399 	 55.4427 	 122.008
| 28> H 	 -104.808 	 57.7534 	 121.879
| 29> C 	 -104.656 	 55.1065 	 120.72
| 30> H 	 -104.157 	 54.9612 	 119.761
| 31> H 	 -105.473 	 55.7347 	 120.514
| 32> C 	 -105.103 	 53.6601 	 121.128
| 33> H 	 -104.276 	 53.0806 	 121.45
| 34> H 	 -105.588 	 53.137 	 120.316
| 35> C 	 -106.093 	 53.5904 	 122.319
| 36> H 	 -106.136 	 52.5042 	 122.694
| 37> H 	 -107.061 	 53.9587 	 122.084
| 38> H 	 -105.77 	 54.2014 	 123.133
| 39> H 	 -99.7243 	 51.1976 	 122.007
| 40> H 	 -102.806 	 58.8079 	 123.002
| 41> *
| 42>
| 43>                          ****END OF INPUT****

CARTESIAN COORDINATES (ANGSTROEM)
---------------------------------
  S    -100.786000   53.366100  122.832000
  C    -100.396000   52.035100  121.717000
  C    -101.114000   52.191200  120.511000
  C    -101.821000   53.476200  120.532000
  C    -101.743000   54.228400  121.687000
  H    -102.296000   53.852300  119.616000
  C    -101.069000   51.303800  119.267000
  H    -101.908000   50.536600  119.300000
  H    -100.100000   50.748800  119.253000
  C    -101.111000   52.045700  117.959000
  H    -101.992000   52.638300  117.808000
  H    -100.253000   52.756600  117.955000
  C    -100.918000   51.106700  116.790000
  H    -99.981900   50.559500  116.899000
  H    -101.797000   50.534000  116.573000
  H    -100.712000   51.758300  115.969000
  S    -101.446000   56.759600  122.677000
  C    -102.791000   57.826700  122.559000
  C    -103.883000   57.207800  122.006000
  C    -103.673000   55.864600  121.614000
  C    -102.399000   55.442700  122.008000
  H    -104.808000   57.753400  121.879000
  C    -104.656000   55.106500  120.720000
  H    -104.157000   54.961200  119.761000
  H    -105.473000   55.734700  120.514000
  C    -105.103000   53.660100  121.128000
  H    -104.276000   53.080600  121.450000
  H    -105.588000   53.137000  120.316000
  C    -106.093000   53.590400  122.319000
  H    -106.136000   52.504200  122.694000
  H    -107.061000   53.958700  122.084000
  H    -105.770000   54.201400  123.133000
  H    -99.724300   51.197600  122.007000
  H    -102.806000   58.807900  123.002000

 Total Charge           Charge          ....    0
 Multiplicity           Mult            ....    1
 Number of Electrons    NEL             ....  134
 Basis Dimension        Dim             ....  322

ORBITAL ENERGIES
----------------

  NO   OCC          E(Eh)            E(eV)
   0   2.0000     -88.967916     -2420.9401
   1   2.0000     -88.962520     -2420.7932
   2   2.0000     -10.324223      -280.9364
   3   2.0000     -10.323916      -280.9280
   4   2.0000     -10.322293      -280.8839
   5   2.0000     -10.314724      -280.6779
   6   2.0000     -10.309063      -280.5239
   7   2.0000     -10.306139      -280.4443
   8   2.0000     -10.300303      -280.2855
   9   2.0000     -10.294271      -280.1214
  10   2.0000     -10.293525      -280.1011
  11   2.0000     -10.291861      -280.0558
  12   2.0000     -10.284780      -279.8631
  13   2.0000     -10.280407      -279.7441
  14   2.0000     -10.274223      -279.5758
  15   2.0000     -10.270854      -279.4841
  16   2.0000      -8.083051      -219.9510
  17   2.0000      -8.077366      -219.7963
  18   2.0000      -6.041454      -164.3963
  19   2.0000      -6.037477      -164.2881
  20   2.0000      -6.035896      -164.2451
  21   2.0000      -6.033928      -164.1915
  22   2.0000      -6.031736      -164.1319
  23   2.0000      -6.028209      -164.0359
  24   2.0000      -1.009764       -27.4771
  25   2.0000      -0.981640       -26.7118
  26   2.0000      -0.919195       -25.0126
  27   2.0000      -0.904176       -24.6039
  28   2.0000      -0.873734       -23.7755
  29   2.0000      -0.851246       -23.1636
  30   2.0000      -0.842634       -22.9292
  31   2.0000      -0.809694       -22.0329
  32   2.0000      -0.785740       -21.3811
  33   2.0000      -0.773634       -21.0517
  34   2.0000      -0.712040       -19.3756
  35   2.0000      -0.698168       -18.9981
  36   2.0000      -0.686467       -18.6797
  37   2.0000      -0.663067       -18.0430
  38   2.0000      -0.637917       -17.3586
  39   2.0000      -0.619258       -16.8509
  40   2.0000      -0.596784       -16.2393
  41   2.0000      -0.578918       -15.7532
  42   2.0000      -0.564288       -15.3551
  43   2.0000      -0.549758       -14.9597
  44   2.0000      -0.540881       -14.7181
  45   2.0000      -0.525938       -14.3115
  46   2.0000      -0.512814       -13.9544
  47   2.0000      -0.511525       -13.9193
  48   2.0000      -0.506028       -13.7697
  49   2.0000      -0.502037       -13.6611
  50   2.0000      -0.492645       -13.4055
  51   2.0000      -0.479736       -13.0543
  52   2.0000      -0.470233       -12.7957
  53   2.0000      -0.468369       -12.7450
  54   2.0000      -0.458986       -12.4896
  55   2.0000      -0.449782       -12.2392
  56   2.0000      -0.440165       -11.9775
  57   2.0000      -0.429931       -11.6990
  58   2.0000      -0.429481       -11.6868
  59   2.0000      -0.427963       -11.6455
  60   2.0000      -0.422795       -11.5048
  61   2.0000      -0.420847       -11.4518
  62   2.0000      -0.413492       -11.2517
  63   2.0000      -0.348201        -9.4750
  64   2.0000      -0.333028        -9.0621
  65   2.0000      -0.325695        -8.8626
  66   2.0000      -0.288759        -7.8575
  67   0.0000       0.023987         0.6527
  68   0.0000       0.075896         2.0652
  69   0.0000       0.114646         3.1197
  70   0.0000       0.117149         3.1878
  71   0.0000       0.131284         3.5724

MULLIKEN ATOMIC CHARGES
-----------------------
   0 S :    0.097187
   1 C :   -0.148165
   2 C :   -0.071559
   3 C :   -0.020389
   4 C :   -0.124437
   5 H :    0.012536
   6 C :    0.053476
   7 H :    0.049398
   8 H :    0.027085
   9 C :   -0.138447
  10 H :    0.032390
  11 H :    0.035667
  12 C :    0.001226
  13 H :    0.026729
  14 H :    0.037435
  15 H :    0.018815
  16 S :    0.121333
  17 C :   -0.086823
  18 C :   -0.044245
  19 C :   -0.028488
  20 C :   -0.152029
  21 H :    0.014760
  22 C :    0.091966
  23 H :    0.031729
  24 H :    0.000557
  25 C :   -0.059335
  26 H :    0.045746
  27 H :    0.024382
  28 C :   -0.058869
  29 H :    0.043088
  30 H :    0.016608
  31 H :    0.025579
  32 H :    0.067662
  33 H :    0.057433
Sum of atomic charges:    0.0000000

LOEWDIN ATOMIC CHARGES
----------------------
   0 S :    0.402813
   1 C :   -0.198369
   2 C :   -0.061464
   3 C :   -0.070644
   4 C :   -0.208255
   5 H :    0.027669
   6 C :   -0.039100
   7 H :    0.038615
   8 H :    0.035070
   9 C :   -0.047034
  10 H :    0.017509
  11 H :    0.030187
  12 C :   -0.056917
  13 H :    0.026967
  14 H :    0.023775
  15 H :    0.026105
  16 S :    0.423133
  17 C :   -0.191654
  18 C :   -0.073381
  19 C :   -0.046769
  20 C :   -0.203095
  21 H :    0.030955
  22 C :   -0.023688
  23 H :    0.034600
  24 H :    0.021969
  25 C :   -0.034553
  26 H :    0.023572
  27 H :    0.023451
  28 C :   -0.065989
  29 H :    0.036109
  30 H :    0.013207
  31 H :    0.019611
  32 H :    0.036402
  33 H :    0.029190

  Mayer bond orders larger than 0.100000
B(  0-S ,  1-C ) :   1.1394 B(  0-S ,  4-C ) :   1.1498 B(  1-C ,  2-C ) :   1.5944
B(  1-C , 32-H ) :   0.9680 B(  2-C ,  3-C ) :   1.2505 B(  2-C ,  6-C ) :   1.0168
B(  3-C ,  4-C ) :   1.5586 B(  3-C ,  5-H ) :   0.9875 B(  4-C , 20-C ) :   1.0571
B(  6-C ,  7-H ) :   0.9303 B(  6-C ,  8-H ) :   0.9467 B(  6-C ,  9-C ) :   1.0773
B(  9-C , 10-H ) :   0.9431 B(  9-C , 11-H ) :   0.9579 B(  9-C , 12-C ) :   1.0995
B( 12-C , 13-H ) :   0.9697 B( 12-C , 14-H ) :   0.9735 B( 12-C , 15-H ) :   0.9694
B( 16-S , 17-C ) :   1.1649 B( 16-S , 20-C ) :   1.1534 B( 17-C , 18-C ) :   1.5898
B( 17-C , 20-C ) :   0.1062 B( 17-C , 33-H ) :   0.9671 B( 18-C , 19-C ) :   1.2629
B( 18-C , 21-H ) :   0.9905 B( 19-C , 20-C ) :   1.5591 B( 19-C , 22-C ) :   1.0358
B( 22-C , 23-H ) :   0.9316 B( 22-C , 24-H ) :   0.9329 B( 22-C , 25-C ) :   1.0632
B( 25-C , 26-H ) :   0.9577 B( 25-C , 27-H ) :   0.9564 B( 25-C , 28-C ) :   1.0754
B( 28-C , 29-H ) :   0.9759 B( 28-C , 30-H ) :   0.9767 B( 28-C , 31-H ) :   0.9784

Dispersion correction           -0.014655461
FINAL SINGLE POINT ENERGY     -1339.886695362034

DIPOLE MOMENT
-------------
                                X             Y             Z
Electronic contribution:     12.87250      15.34370      19.91622
Nuclear contribution   :    -13.17966     -15.46209     -20.57512
                        -----------------------------------------
Total Dipole Moment    :     -0.30715      -0.11838      -0.65890
                        -----------------------------------------
Magnitude (a.u.)       :      0.73655
Magnitude (Debye)      :      1.87217

Rotational constants in cm-1:     0.018384     0.008799     0.007533
Rotational constants in MHz :   551.138943   263.778405   225.838854

                             ****ORCA TERMINATED NORMALLY****
TOTAL RUN TIME: 0 days 0 hours 0 minutes 34 seconds 43 msec
