                         Program Version 4.2.1 -  RELEASE  -
|  1> ! wB97X-D3 SP def2-SVP
|  2> %pal
|  3> nprocs 16
|  4> end
|  5>
|  6> * xyz 0 1
|  7> S 	 49.5327 	 11.3287 	 86.6845
|  8> C 	 49.2039 	 11.661 	 88.4248
|  9> C 	 49.6669 	 12.9107 	 88.875
| 10> C 	 50.1691 	 13.5986 	 87.7092
| 11> C 	 50.1928 	 12.8947 	 86.5188
| 12> H 	 50.5882 	 14.5762 	 87.5901
| 13> C 	 49.6332 	 13.552 	 90.21
| 14> H 	 50.6592 	 13.6586 	 90.466
| 15> H 	 49.2061 	 12.7581 	 90.9045
| 16> C 	 48.696 	 14.8029 	 90.4915
| 17> H 	 48.7431 	 15.1669 	 91.5352
| 18> H 	 49.1391 	 15.6693 	 89.9116
| 19> C 	 47.2113 	 14.6697 	 90.0086
| 20> H 	 47.0409 	 14.2789 	 88.9984
| 21> H 	 46.6661 	 13.972 	 90.6572
| 22> H 	 46.7754 	 15.6167 	 90.1238
| 23> S 	 51.967 	 12.4657 	 84.4585
| 24> C 	 51.839 	 13.4954 	 83.0448
| 25> C 	 51.0037 	 14.5514 	 83.1578
| 26> C 	 50.3959 	 14.5468 	 84.4646
| 27> C 	 50.6799 	 13.3858 	 85.1996
| 28> H 	 50.8404 	 15.2788 	 82.4272
| 29> C 	 49.4799 	 15.6505 	 84.8563
| 30> H 	 49.184 	 15.4141 	 85.8658
| 31> H 	 48.4884 	 15.5525 	 84.2937
| 32> C 	 50.2328 	 17.0542 	 84.8615
| 33> H 	 50.6005 	 17.3767 	 83.8897
| 34> H 	 51.0924 	 17.0259 	 85.3955
| 35> C 	 49.2183 	 18.1184 	 85.4496
| 36> H 	 48.4846 	 18.3749 	 84.6712
| 37> H 	 49.7394 	 19.0188 	 85.6397
| 38> H 	 48.6206 	 17.7992 	 86.2799
| 39> H 	 48.7245 	 10.9845 	 89.1538
| 40> H 	 52.308 	 13.2172 	 82.1876
| 41> *
| 42>
| 43>                          ****END OF INPUT****

CARTESIAN COORDINATES (ANGSTROEM)
---------------------------------
  S     49.532700   11.328700   86.684500
  C     49.203900   11.661000   88.424800
  C     49.666900   12.910700   88.875000
  C     50.169100   13.598600   87.709200
  C     50.192800   12.894700   86.518800
  H     50.588200   14.576200   87.590100
  C     49.633200   13.552000   90.210000
  H     50.659200   13.658600   90.466000
  H     49.206100   12.758100   90.904500
  C     48.696000   14.802900   90.491500
  H     48.743100   15.166900   91.535200
  H     49.139100   15.669300   89.911600
  C     47.211300   14.669700   90.008600
  H     47.040900   14.278900   88.998400
  H     46.666100   13.972000   90.657200
  H     46.775400   15.616700   90.123800
  S     51.967000   12.465700   84.458500
  C     51.839000   13.495400   83.044800
  C     51.003700   14.551400   83.157800
  C     50.395900   14.546800   84.464600
  C     50.679900   13.385800   85.199600
  H     50.840400   15.278800   82.427200
  C     49.479900   15.650500   84.856300
  H     49.184000   15.414100   85.865800
  H     48.488400   15.552500   84.293700
  C     50.232800   17.054200   84.861500
  H     50.600500   17.376700   83.889700
  H     51.092400   17.025900   85.395500
  C     49.218300   18.118400   85.449600
  H     48.484600   18.374900   84.671200
  H     49.739400   19.018800   85.639700
  H     48.620600   17.799200   86.279900
  H     48.724500   10.984500   89.153800
  H     52.308000   13.217200   82.187600

 Total Charge           Charge          ....    0
 Multiplicity           Mult            ....    1
 Number of Electrons    NEL             ....  134
 Basis Dimension        Dim             ....  322

ORBITAL ENERGIES
----------------

  NO   OCC          E(Eh)            E(eV)
   0   2.0000     -88.969133     -2420.9732
   1   2.0000     -88.962436     -2420.7909
   2   2.0000     -10.325571      -280.9731
   3   2.0000     -10.324681      -280.9489
   4   2.0000     -10.321344      -280.8581
   5   2.0000     -10.307265      -280.4749
   6   2.0000     -10.306638      -280.4579
   7   2.0000     -10.303522      -280.3731
   8   2.0000     -10.300389      -280.2878
   9   2.0000     -10.299934      -280.2754
  10   2.0000     -10.293562      -280.1021
  11   2.0000     -10.289029      -279.9787
  12   2.0000     -10.288492      -279.9641
  13   2.0000     -10.287329      -279.9324
  14   2.0000     -10.278420      -279.6900
  15   2.0000     -10.276202      -279.6297
  16   2.0000      -8.083551      -219.9646
  17   2.0000      -8.077594      -219.8025
  18   2.0000      -6.042059      -164.4128
  19   2.0000      -6.038165      -164.3068
  20   2.0000      -6.036019      -164.2484
  21   2.0000      -6.034243      -164.2001
  22   2.0000      -6.032221      -164.1451
  23   2.0000      -6.028253      -164.0371
  24   2.0000      -1.004082       -27.3225
  25   2.0000      -0.981715       -26.7138
  26   2.0000      -0.908011       -24.7082
  27   2.0000      -0.903104       -24.5747
  28   2.0000      -0.864396       -23.5214
  29   2.0000      -0.848585       -23.0912
  30   2.0000      -0.845558       -23.0088
  31   2.0000      -0.813144       -22.1268
  32   2.0000      -0.786428       -21.3998
  33   2.0000      -0.767788       -20.8926
  34   2.0000      -0.717491       -19.5239
  35   2.0000      -0.706212       -19.2170
  36   2.0000      -0.693040       -18.8586
  37   2.0000      -0.663512       -18.0551
  38   2.0000      -0.638388       -17.3714
  39   2.0000      -0.613675       -16.6990
  40   2.0000      -0.598268       -16.2797
  41   2.0000      -0.563960       -15.3461
  42   2.0000      -0.557461       -15.1693
  43   2.0000      -0.552390       -15.0313
  44   2.0000      -0.538296       -14.6478
  45   2.0000      -0.529893       -14.4191
  46   2.0000      -0.518728       -14.1153
  47   2.0000      -0.510711       -13.8972
  48   2.0000      -0.499625       -13.5955
  49   2.0000      -0.487697       -13.2709
  50   2.0000      -0.484836       -13.1931
  51   2.0000      -0.479154       -13.0384
  52   2.0000      -0.471843       -12.8395
  53   2.0000      -0.463204       -12.6044
  54   2.0000      -0.455297       -12.3892
  55   2.0000      -0.452828       -12.3221
  56   2.0000      -0.447735       -12.1835
  57   2.0000      -0.443831       -12.0773
  58   2.0000      -0.440704       -11.9922
  59   2.0000      -0.432071       -11.7572
  60   2.0000      -0.424005       -11.5378
  61   2.0000      -0.414723       -11.2852
  62   2.0000      -0.405826       -11.0431
  63   2.0000      -0.341164        -9.2835
  64   2.0000      -0.332884        -9.0582
  65   2.0000      -0.325732        -8.8636
  66   2.0000      -0.292720        -7.9653
  67   0.0000       0.036927         1.0048
  68   0.0000       0.070478         1.9178
  69   0.0000       0.111674         3.0388
  70   0.0000       0.115831         3.1519
  71   0.0000       0.124662         3.3922

MULLIKEN ATOMIC CHARGES
-----------------------
   0 S :    0.125637
   1 C :   -0.129343
   2 C :   -0.092007
   3 C :    0.038435
   4 C :   -0.178868
   5 H :   -0.002178
   6 C :    0.073694
   7 H :    0.043073
   8 H :    0.021854
   9 C :   -0.101072
  10 H :    0.044013
  11 H :    0.031909
  12 C :   -0.042612
  13 H :    0.051466
  14 H :    0.025637
  15 H :    0.028363
  16 S :    0.099707
  17 C :   -0.040476
  18 C :    0.006533
  19 C :   -0.055999
  20 C :   -0.159206
  21 H :   -0.000628
  22 C :    0.051824
  23 H :    0.001322
  24 H :    0.053365
  25 C :   -0.047681
  26 H :    0.025359
  27 H :    0.009651
  28 C :   -0.030131
  29 H :    0.026512
  30 H :    0.025186
  31 H :    0.031308
  32 H :    0.049345
  33 H :    0.016008
Sum of atomic charges:   -0.0000000

LOEWDIN ATOMIC CHARGES
----------------------
   0 S :    0.409752
   1 C :   -0.191436
   2 C :   -0.059666
   3 C :   -0.066902
   4 C :   -0.213144
   5 H :    0.024683
   6 C :   -0.038085
   7 H :    0.034527
   8 H :    0.035751
   9 C :   -0.040509
  10 H :    0.030776
  11 H :    0.024148
  12 C :   -0.063297
  13 H :    0.031772
  14 H :    0.024278
  15 H :    0.021327
  16 S :    0.397069
  17 C :   -0.156402
  18 C :   -0.056892
  19 C :   -0.054561
  20 C :   -0.206348
  21 H :    0.025102
  22 C :   -0.037649
  23 H :    0.023726
  24 H :    0.043743
  25 C :   -0.019335
  26 H :    0.023204
  27 H :    0.010312
  28 C :   -0.060368
  29 H :    0.028385
  30 H :    0.019118
  31 H :    0.022394
  32 H :    0.030353
  33 H :    0.004175

  Mayer bond orders larger than 0.100000
B(  0-S ,  1-C ) :   1.1322 B(  0-S ,  4-C ) :   1.1526 B(  1-C ,  2-C ) :   1.6202
B(  1-C , 32-H ) :   0.9577 B(  2-C ,  3-C ) :   1.2015 B(  2-C ,  6-C ) :   1.0298
B(  3-C ,  4-C ) :   1.6110 B(  3-C ,  5-H ) :   0.9909 B(  4-C , 20-C ) :   0.9981
B(  6-C ,  7-H ) :   0.9373 B(  6-C ,  8-H ) :   0.9362 B(  6-C ,  9-C ) :   1.0510
B(  9-C , 10-H ) :   0.9585 B(  9-C , 11-H ) :   0.9587 B(  9-C , 12-C ) :   1.0688
B( 12-C , 13-H ) :   0.9746 B( 12-C , 14-H ) :   0.9765 B( 12-C , 15-H ) :   0.9744
B( 16-S , 17-C ) :   1.1460 B( 16-S , 20-C ) :   1.1425 B( 17-C , 18-C ) :   1.6248
B( 17-C , 33-H ) :   0.9765 B( 18-C , 19-C ) :   1.2067 B( 18-C , 21-H ) :   1.0048
B( 19-C , 20-C ) :   1.6131 B( 19-C , 22-C ) :   1.0625 B( 22-C , 23-H ) :   0.9307
B( 22-C , 24-H ) :   0.9355 B( 22-C , 25-C ) :   1.0388 B( 25-C , 26-H ) :   0.9580
B( 25-C , 27-H ) :   0.9597 B( 25-C , 28-C ) :   1.0777 B( 28-C , 29-H ) :   0.9764
B( 28-C , 30-H ) :   0.9761 B( 28-C , 31-H ) :   0.9782

Dispersion correction           -0.014456955
FINAL SINGLE POINT ENERGY     -1339.857091623943

DIPOLE MOMENT
-------------
                                X             Y             Z
Electronic contribution:     12.56150     -25.21533     -13.31217
Nuclear contribution   :    -12.75760      25.89768      13.52851
                        -----------------------------------------
Total Dipole Moment    :     -0.19610       0.68235       0.21635
                        -----------------------------------------
Magnitude (a.u.)       :      0.74220
Magnitude (Debye)      :      1.88652

Rotational constants in cm-1:     0.016645     0.009851     0.006721
Rotational constants in MHz :   499.017917   295.334026   201.502304

                             ****ORCA TERMINATED NORMALLY****
TOTAL RUN TIME: 0 days 0 hours 0 minutes 30 seconds 132 msec
