                         Program Version 4.2.1 -  RELEASE  -
|  1> ! wB97X-D3 SP def2-SVP
|  2> %pal
|  3> nprocs 16
|  4> end
|  5>
|  6> * xyz 0 1
|  7> S 	 -50.0948 	 44.6189 	 107.314
|  8> C 	 -49.5242 	 46.2044 	 107.657
|  9> C 	 -50.5829 	 46.9722 	 108.168
| 10> C 	 -51.7693 	 46.1966 	 108.33
| 11> C 	 -51.6953 	 44.8614 	 108.002
| 12> H 	 -52.6488 	 46.6365 	 108.693
| 13> C 	 -50.5776 	 48.5023 	 108.367
| 14> H 	 -50.3067 	 48.8788 	 107.411
| 15> H 	 -49.7332 	 48.8768 	 108.851
| 16> C 	 -51.8049 	 49.1292 	 108.969
| 17> H 	 -52.6723 	 49.0065 	 108.387
| 18> H 	 -52.0628 	 48.6981 	 109.892
| 19> C 	 -51.5994 	 50.6714 	 109.241
| 20> H 	 -51.3453 	 51.31 	 108.395
| 21> H 	 -52.5403 	 51.0285 	 109.677
| 22> H 	 -50.8254 	 50.8973 	 109.896
| 23> S 	 -53.1699 	 42.9762 	 106.542
| 24> C 	 -54.385 	 42.0106 	 107.242
| 25> C 	 -54.5715 	 42.3599 	 108.526
| 26> C 	 -53.6418 	 43.3389 	 108.97
| 27> C 	 -52.724 	 43.7888 	 107.981
| 28> H 	 -55.4231 	 41.9558 	 109.114
| 29> C 	 -53.7431 	 43.9991 	 110.336
| 30> H 	 -54.6673 	 43.5275 	 110.808
| 31> H 	 -53.8869 	 45.0813 	 110.318
| 32> C 	 -52.5173 	 43.693 	 111.242
| 33> H 	 -51.4857 	 43.7384 	 110.86
| 34> H 	 -52.6746 	 42.6404 	 111.433
| 35> C 	 -52.6601 	 44.4402 	 112.547
| 36> H 	 -51.9768 	 44.1579 	 113.334
| 37> H 	 -53.6737 	 44.4371 	 112.937
| 38> H 	 -52.3622 	 45.4128 	 112.21
| 39> H 	 -48.5162 	 46.5331 	 107.354
| 40> H 	 -54.9474 	 41.2441 	 106.744
| 41> *
| 42>
| 43>                          ****END OF INPUT****

CARTESIAN COORDINATES (ANGSTROEM)
---------------------------------
  S    -50.094800   44.618900  107.314000
  C    -49.524200   46.204400  107.657000
  C    -50.582900   46.972200  108.168000
  C    -51.769300   46.196600  108.330000
  C    -51.695300   44.861400  108.002000
  H    -52.648800   46.636500  108.693000
  C    -50.577600   48.502300  108.367000
  H    -50.306700   48.878800  107.411000
  H    -49.733200   48.876800  108.851000
  C    -51.804900   49.129200  108.969000
  H    -52.672300   49.006500  108.387000
  H    -52.062800   48.698100  109.892000
  C    -51.599400   50.671400  109.241000
  H    -51.345300   51.310000  108.395000
  H    -52.540300   51.028500  109.677000
  H    -50.825400   50.897300  109.896000
  S    -53.169900   42.976200  106.542000
  C    -54.385000   42.010600  107.242000
  C    -54.571500   42.359900  108.526000
  C    -53.641800   43.338900  108.970000
  C    -52.724000   43.788800  107.981000
  H    -55.423100   41.955800  109.114000
  C    -53.743100   43.999100  110.336000
  H    -54.667300   43.527500  110.808000
  H    -53.886900   45.081300  110.318000
  C    -52.517300   43.693000  111.242000
  H    -51.485700   43.738400  110.860000
  H    -52.674600   42.640400  111.433000
  C    -52.660100   44.440200  112.547000
  H    -51.976800   44.157900  113.334000
  H    -53.673700   44.437100  112.937000
  H    -52.362200   45.412800  112.210000
  H    -48.516200   46.533100  107.354000
  H    -54.947400   41.244100  106.744000

 Total Charge           Charge          ....    0
 Multiplicity           Mult            ....    1
 Number of Electrons    NEL             ....  134
 Basis Dimension        Dim             ....  322

ORBITAL ENERGIES
----------------

  NO   OCC          E(Eh)            E(eV)
   0   2.0000     -88.964567     -2420.8490
   1   2.0000     -88.964338     -2420.8427
   2   2.0000     -10.335165      -281.2341
   3   2.0000     -10.329558      -281.0816
   4   2.0000     -10.318629      -280.7842
   5   2.0000     -10.310438      -280.5613
   6   2.0000     -10.306133      -280.4441
   7   2.0000     -10.302793      -280.3533
   8   2.0000     -10.294546      -280.1288
   9   2.0000     -10.291912      -280.0572
  10   2.0000     -10.291787      -280.0538
  11   2.0000     -10.286230      -279.9026
  12   2.0000     -10.284888      -279.8660
  13   2.0000     -10.278202      -279.6841
  14   2.0000     -10.276903      -279.6487
  15   2.0000     -10.267385      -279.3898
  16   2.0000      -8.080422      -219.8795
  17   2.0000      -8.079620      -219.8576
  18   2.0000      -6.038807      -164.3243
  19   2.0000      -6.038097      -164.3050
  20   2.0000      -6.034453      -164.2058
  21   2.0000      -6.033803      -164.1881
  22   2.0000      -6.031506      -164.1256
  23   2.0000      -6.030674      -164.1030
  24   2.0000      -1.012251       -27.5447
  25   2.0000      -0.992270       -27.0010
  26   2.0000      -0.914998       -24.8983
  27   2.0000      -0.907505       -24.6945
  28   2.0000      -0.872447       -23.7405
  29   2.0000      -0.850335       -23.1388
  30   2.0000      -0.845484       -23.0068
  31   2.0000      -0.822021       -22.3683
  32   2.0000      -0.783785       -21.3279
  33   2.0000      -0.766803       -20.8658
  34   2.0000      -0.724687       -19.7197
  35   2.0000      -0.698381       -19.0039
  36   2.0000      -0.686904       -18.6916
  37   2.0000      -0.658017       -17.9056
  38   2.0000      -0.646184       -17.5836
  39   2.0000      -0.629720       -17.1355
  40   2.0000      -0.599072       -16.3016
  41   2.0000      -0.574092       -15.6218
  42   2.0000      -0.566808       -15.4236
  43   2.0000      -0.563807       -15.3420
  44   2.0000      -0.534055       -14.5324
  45   2.0000      -0.520864       -14.1734
  46   2.0000      -0.514730       -14.0065
  47   2.0000      -0.510316       -13.8864
  48   2.0000      -0.509819       -13.8729
  49   2.0000      -0.496977       -13.5234
  50   2.0000      -0.492905       -13.4126
  51   2.0000      -0.483975       -13.1696
  52   2.0000      -0.480199       -13.0669
  53   2.0000      -0.466700       -12.6995
  54   2.0000      -0.461381       -12.5548
  55   2.0000      -0.452929       -12.3248
  56   2.0000      -0.445222       -12.1151
  57   2.0000      -0.444533       -12.0963
  58   2.0000      -0.433052       -11.7839
  59   2.0000      -0.429798       -11.6954
  60   2.0000      -0.414674       -11.2838
  61   2.0000      -0.409920       -11.1545
  62   2.0000      -0.402737       -10.9590
  63   2.0000      -0.349906        -9.5214
  64   2.0000      -0.330390        -8.9904
  65   2.0000      -0.324407        -8.8276
  66   2.0000      -0.295565        -8.0427
  67   0.0000       0.029965         0.8154
  68   0.0000       0.070144         1.9087
  69   0.0000       0.119699         3.2572
  70   0.0000       0.130561         3.5527
  71   0.0000       0.136819         3.7230

MULLIKEN ATOMIC CHARGES
-----------------------
   0 S :    0.107898
   1 C :   -0.141166
   2 C :   -0.086554
   3 C :    0.036391
   4 C :   -0.142616
   5 H :   -0.012636
   6 C :    0.116668
   7 H :    0.013686
   8 H :   -0.003406
   9 C :   -0.057261
  10 H :    0.026756
  11 H :    0.022944
  12 C :   -0.036641
  13 H :    0.027970
  14 H :    0.032158
  15 H :    0.016628
  16 S :    0.117661
  17 C :   -0.083764
  18 C :   -0.042157
  19 C :   -0.041404
  20 C :   -0.129135
  21 H :    0.032666
  22 C :    0.020581
  23 H :    0.025126
  24 H :    0.030076
  25 C :   -0.089820
  26 H :    0.053643
  27 H :    0.013182
  28 C :   -0.018894
  29 H :    0.031491
  30 H :    0.027063
  31 H :    0.017786
  32 H :    0.063143
  33 H :    0.051941
Sum of atomic charges:   -0.0000000

LOEWDIN ATOMIC CHARGES
----------------------
   0 S :    0.422491
   1 C :   -0.210911
   2 C :   -0.059286
   3 C :   -0.061180
   4 C :   -0.193346
   5 H :    0.020236
   6 C :   -0.031589
   7 H :    0.033413
   8 H :    0.024926
   9 C :   -0.030200
  10 H :    0.019262
  11 H :    0.020774
  12 C :   -0.057317
  13 H :    0.025480
  14 H :    0.029794
  15 H :    0.014424
  16 S :    0.449826
  17 C :   -0.198446
  18 C :   -0.084427
  19 C :   -0.058395
  20 C :   -0.219589
  21 H :    0.040192
  22 C :   -0.030870
  23 H :    0.035698
  24 H :    0.021968
  25 C :   -0.044808
  26 H :    0.030766
  27 H :    0.017640
  28 C :   -0.063133
  29 H :    0.024053
  30 H :    0.023314
  31 H :    0.022625
  32 H :    0.035044
  33 H :    0.031572

  Mayer bond orders larger than 0.100000
B(  0-S ,  1-C ) :   1.1712 B(  0-S ,  4-C ) :   1.1668 B(  1-C ,  2-C ) :   1.5552
B(  1-C ,  4-C ) :   0.1105 B(  1-C , 32-H ) :   0.9733 B(  2-C ,  3-C ) :   1.3018
B(  2-C ,  6-C ) :   0.9957 B(  3-C ,  4-C ) :   1.5251 B(  3-C ,  5-H ) :   1.0007
B(  4-C , 20-C ) :   1.0216 B(  6-C ,  7-H ) :   0.9253 B(  6-C ,  8-H ) :   0.9335
B(  6-C ,  9-C ) :   1.0857 B(  9-C , 10-H ) :   0.9458 B(  9-C , 11-H ) :   0.9515
B(  9-C , 12-C ) :   1.0795 B( 12-C , 13-H ) :   0.9773 B( 12-C , 14-H ) :   0.9749
B( 12-C , 15-H ) :   0.9763 B( 16-S , 17-C ) :   1.1890 B( 16-S , 20-C ) :   1.1700
B( 17-C , 18-C ) :   1.5612 B( 17-C , 33-H ) :   0.9679 B( 18-C , 19-C ) :   1.3064
B( 18-C , 21-H ) :   0.9848 B( 19-C , 20-C ) :   1.5322 B( 19-C , 22-C ) :   1.0349
B( 22-C , 23-H ) :   0.9377 B( 22-C , 24-H ) :   0.9484 B( 22-C , 25-C ) :   1.0406
B( 25-C , 26-H ) :   0.9660 B( 25-C , 27-H ) :   0.9513 B( 25-C , 28-C ) :   1.0767
B( 28-C , 29-H ) :   0.9729 B( 28-C , 30-H ) :   0.9707 B( 28-C , 31-H ) :   0.9767

Dispersion correction           -0.013979002
FINAL SINGLE POINT ENERGY     -1339.866638142173

DIPOLE MOMENT
-------------
                                X             Y             Z
Electronic contribution:      3.31668     -20.70355     -21.55064
Nuclear contribution   :     -3.54498      21.21582      21.84859
                        -----------------------------------------
Total Dipole Moment    :     -0.22830       0.51227       0.29795
                        -----------------------------------------
Magnitude (a.u.)       :      0.63507
Magnitude (Debye)      :      1.61421

Rotational constants in cm-1:     0.017583     0.008615     0.007061
Rotational constants in MHz :   527.132455   258.284782   211.670087

                             ****ORCA TERMINATED NORMALLY****
TOTAL RUN TIME: 0 days 0 hours 0 minutes 30 seconds 192 msec
