                         Program Version 4.2.1 -  RELEASE  -
|  1> ! wB97X-D3 SP def2-SVP
|  2> %pal
|  3> nprocs 16
|  4> end
|  5>
|  6> * xyz 0 1
|  7> S 	 -9.89152 	 -10.0003 	 87.4196
|  8> C 	 -10.5792 	 -10.0188 	 85.7911
|  9> C 	 -11.9243 	 -10.3892 	 85.8501
| 10> C 	 -12.377 	 -10.7638 	 87.1618
| 11> C 	 -11.3306 	 -10.7911 	 88.1108
| 12> H 	 -13.3317 	 -11.1436 	 87.557
| 13> C 	 -12.8541 	 -10.4796 	 84.6184
| 14> H 	 -12.6151 	 -11.4443 	 84.233
| 15> H 	 -12.5466 	 -9.61524 	 84.0518
| 16> C 	 -14.3586 	 -10.408 	 85.0267
| 17> H 	 -14.5642 	 -11.2357 	 85.6684
| 18> H 	 -14.5321 	 -9.51104 	 85.6434
| 19> C 	 -15.222 	 -10.2991 	 83.7464
| 20> H 	 -15.0424 	 -11.1557 	 83.1292
| 21> H 	 -16.3239 	 -10.2344 	 83.9354
| 22> H 	 -14.9024 	 -9.42018 	 83.1706
| 23> S 	 -10.7856 	 -10.2929 	 90.7625
| 24> C 	 -11.3511 	 -11.4979 	 91.9287
| 25> C 	 -11.6939 	 -12.7158 	 91.332
| 26> C 	 -11.6992 	 -12.6065 	 89.8517
| 27> C 	 -11.4087 	 -11.3122 	 89.4627
| 28> H 	 -11.9066 	 -13.6369 	 91.8722
| 29> C 	 -11.9313 	 -13.8054 	 88.975
| 30> H 	 -12.626 	 -13.3748 	 88.2442
| 31> H 	 -12.4699 	 -14.5324 	 89.554
| 32> C 	 -10.6284 	 -14.3938 	 88.3222
| 33> H 	 -10.1146 	 -13.5953 	 87.9073
| 34> H 	 -10.942 	 -15.0001 	 87.4639
| 35> C 	 -9.70462 	 -15.0255 	 89.3386
| 36> H 	 -10.2725 	 -15.7259 	 89.9917
| 37> H 	 -9.24812 	 -14.3046 	 90.0391
| 38> H 	 -9.00704 	 -15.6854 	 88.8834
| 39> H 	 -10.0132 	 -9.87637 	 84.8372
| 40> H 	 -11.0768 	 -11.4756 	 93.0082
| 41> *
| 42>
| 43>                          ****END OF INPUT****

CARTESIAN COORDINATES (ANGSTROEM)
---------------------------------
  S     -9.891520  -10.000300   87.419600
  C    -10.579200  -10.018800   85.791100
  C    -11.924300  -10.389200   85.850100
  C    -12.377000  -10.763800   87.161800
  C    -11.330600  -10.791100   88.110800
  H    -13.331700  -11.143600   87.557000
  C    -12.854100  -10.479600   84.618400
  H    -12.615100  -11.444300   84.233000
  H    -12.546600   -9.615240   84.051800
  C    -14.358600  -10.408000   85.026700
  H    -14.564200  -11.235700   85.668400
  H    -14.532100   -9.511040   85.643400
  C    -15.222000  -10.299100   83.746400
  H    -15.042400  -11.155700   83.129200
  H    -16.323900  -10.234400   83.935400
  H    -14.902400   -9.420180   83.170600
  S    -10.785600  -10.292900   90.762500
  C    -11.351100  -11.497900   91.928700
  C    -11.693900  -12.715800   91.332000
  C    -11.699200  -12.606500   89.851700
  C    -11.408700  -11.312200   89.462700
  H    -11.906600  -13.636900   91.872200
  C    -11.931300  -13.805400   88.975000
  H    -12.626000  -13.374800   88.244200
  H    -12.469900  -14.532400   89.554000
  C    -10.628400  -14.393800   88.322200
  H    -10.114600  -13.595300   87.907300
  H    -10.942000  -15.000100   87.463900
  C     -9.704620  -15.025500   89.338600
  H    -10.272500  -15.725900   89.991700
  H     -9.248120  -14.304600   90.039100
  H     -9.007040  -15.685400   88.883400
  H    -10.013200   -9.876370   84.837200
  H    -11.076800  -11.475600   93.008200

 Total Charge           Charge          ....    0
 Multiplicity           Mult            ....    1
 Number of Electrons    NEL             ....  134
 Basis Dimension        Dim             ....  322

ORBITAL ENERGIES
----------------

  NO   OCC          E(Eh)            E(eV)
   0   2.0000     -88.967544     -2420.9299
   1   2.0000     -88.966296     -2420.8960
   2   2.0000     -10.332569      -281.1635
   3   2.0000     -10.326394      -280.9955
   4   2.0000     -10.323448      -280.9153
   5   2.0000     -10.318275      -280.7745
   6   2.0000     -10.307239      -280.4742
   7   2.0000     -10.305663      -280.4314
   8   2.0000     -10.302345      -280.3411
   9   2.0000     -10.298899      -280.2473
  10   2.0000     -10.292100      -280.0623
  11   2.0000     -10.290809      -280.0271
  12   2.0000     -10.289271      -279.9853
  13   2.0000     -10.281872      -279.7840
  14   2.0000     -10.281538      -279.7749
  15   2.0000     -10.275806      -279.6189
  16   2.0000      -8.081823      -219.9176
  17   2.0000      -8.080005      -219.8681
  18   2.0000      -6.040480      -164.3698
  19   2.0000      -6.038656      -164.3202
  20   2.0000      -6.036682      -164.2665
  21   2.0000      -6.034641      -164.2109
  22   2.0000      -6.032173      -164.1438
  23   2.0000      -6.030689      -164.1034
  24   2.0000      -0.999688       -27.2029
  25   2.0000      -0.975138       -26.5349
  26   2.0000      -0.908757       -24.7285
  27   2.0000      -0.908041       -24.7091
  28   2.0000      -0.866040       -23.5661
  29   2.0000      -0.849636       -23.1198
  30   2.0000      -0.840184       -22.8626
  31   2.0000      -0.811479       -22.0815
  32   2.0000      -0.780911       -21.2497
  33   2.0000      -0.766776       -20.8650
  34   2.0000      -0.715347       -19.4656
  35   2.0000      -0.703292       -19.1376
  36   2.0000      -0.684412       -18.6238
  37   2.0000      -0.661197       -17.9921
  38   2.0000      -0.636582       -17.3223
  39   2.0000      -0.607751       -16.5377
  40   2.0000      -0.588051       -16.0017
  41   2.0000      -0.578230       -15.7344
  42   2.0000      -0.557873       -15.1805
  43   2.0000      -0.550949       -14.9921
  44   2.0000      -0.543895       -14.8001
  45   2.0000      -0.521077       -14.1792
  46   2.0000      -0.516762       -14.0618
  47   2.0000      -0.508843       -13.8463
  48   2.0000      -0.497604       -13.5405
  49   2.0000      -0.495792       -13.4912
  50   2.0000      -0.484505       -13.1840
  51   2.0000      -0.480654       -13.0793
  52   2.0000      -0.476031       -12.9535
  53   2.0000      -0.470311       -12.7978
  54   2.0000      -0.452840       -12.3224
  55   2.0000      -0.450262       -12.2523
  56   2.0000      -0.444644       -12.0994
  57   2.0000      -0.435593       -11.8531
  58   2.0000      -0.430707       -11.7201
  59   2.0000      -0.428034       -11.6474
  60   2.0000      -0.423118       -11.5136
  61   2.0000      -0.418494       -11.3878
  62   2.0000      -0.410615       -11.1734
  63   2.0000      -0.343546        -9.3483
  64   2.0000      -0.330337        -8.9889
  65   2.0000      -0.326840        -8.8938
  66   2.0000      -0.287537        -7.8243
  67   0.0000       0.023944         0.6515
  68   0.0000       0.058697         1.5972
  69   0.0000       0.097481         2.6526
  70   0.0000       0.116389         3.1671
  71   0.0000       0.133604         3.6356

MULLIKEN ATOMIC CHARGES
-----------------------
   0 S :    0.102703
   1 C :   -0.147079
   2 C :   -0.113190
   3 C :    0.010846
   4 C :   -0.162122
   5 H :    0.031035
   6 C :    0.084820
   7 H :    0.043850
   8 H :    0.033269
   9 C :   -0.110475
  10 H :    0.031477
  11 H :    0.037812
  12 C :   -0.022990
  13 H :    0.022504
  14 H :    0.044008
  15 H :    0.031722
  16 S :    0.103440
  17 C :   -0.092617
  18 C :   -0.042035
  19 C :   -0.087374
  20 C :   -0.173206
  21 H :    0.027532
  22 C :    0.092803
  23 H :    0.016284
  24 H :    0.013330
  25 C :   -0.016727
  26 H :    0.018047
  27 H :    0.032904
  28 C :   -0.047510
  29 H :    0.010855
  30 H :    0.054532
  31 H :    0.029771
  32 H :    0.067777
  33 H :    0.074004
Sum of atomic charges:   -0.0000000

LOEWDIN ATOMIC CHARGES
----------------------
   0 S :    0.379983
   1 C :   -0.213567
   2 C :   -0.060431
   3 C :   -0.074707
   4 C :   -0.180331
   5 H :    0.036389
   6 C :   -0.022489
   7 H :    0.032295
   8 H :    0.030987
   9 C :   -0.039655
  10 H :    0.017295
  11 H :    0.028050
  12 C :   -0.065195
  13 H :    0.020124
  14 H :    0.030786
  15 H :    0.027809
  16 S :    0.387783
  17 C :   -0.189203
  18 C :   -0.067289
  19 C :   -0.048333
  20 C :   -0.201751
  21 H :    0.032418
  22 C :   -0.029966
  23 H :    0.033583
  24 H :    0.023516
  25 C :   -0.029164
  26 H :    0.018724
  27 H :    0.028517
  28 C :   -0.065648
  29 H :    0.022336
  30 H :    0.034436
  31 H :    0.023954
  32 H :    0.041710
  33 H :    0.037033

  Mayer bond orders larger than 0.100000
B(  0-S ,  1-C ) :   1.1218 B(  0-S ,  4-C ) :   1.1401 B(  1-C ,  2-C ) :   1.6272
B(  1-C ,  4-C ) :   0.1043 B(  1-C , 32-H ) :   0.9670 B(  2-C ,  3-C ) :   1.2197
B(  2-C ,  6-C ) :   0.9883 B(  3-C ,  4-C ) :   1.5720 B(  3-C ,  5-H ) :   0.9844
B(  4-C , 20-C ) :   1.0605 B(  6-C ,  7-H ) :   0.9347 B(  6-C ,  8-H ) :   0.9459
B(  6-C ,  9-C ) :   1.0892 B(  9-C , 10-H ) :   0.9452 B(  9-C , 11-H ) :   0.9618
B(  9-C , 12-C ) :   1.0773 B( 12-C , 13-H ) :   0.9737 B( 12-C , 14-H ) :   0.9742
B( 12-C , 15-H ) :   0.9746 B( 16-S , 17-C ) :   1.1364 B( 16-S , 20-C ) :   1.1199
B( 17-C , 18-C ) :   1.6382 B( 17-C , 33-H ) :   0.9575 B( 18-C , 19-C ) :   1.2100
B( 18-C , 21-H ) :   0.9837 B( 19-C , 20-C ) :   1.6145 B( 19-C , 22-C ) :   1.0345
B( 22-C , 23-H ) :   0.9195 B( 22-C , 24-H ) :   0.9365 B( 22-C , 25-C ) :   1.0671
B( 25-C , 26-H ) :   0.9536 B( 25-C , 27-H ) :   0.9566 B( 25-C , 28-C ) :   1.0698
B( 28-C , 29-H ) :   0.9753 B( 28-C , 30-H ) :   0.9733 B( 28-C , 31-H ) :   0.9721

Dispersion correction           -0.014893196
FINAL SINGLE POINT ENERGY     -1339.867372920244

DIPOLE MOMENT
-------------
                                X             Y             Z
Electronic contribution:     12.57737      14.62655      15.31644
Nuclear contribution   :    -12.82994     -15.23761     -15.65090
                        -----------------------------------------
Total Dipole Moment    :     -0.25257      -0.61106      -0.33446
                        -----------------------------------------
Magnitude (a.u.)       :      0.74098
Magnitude (Debye)      :      1.88342

Rotational constants in cm-1:     0.019710     0.008007     0.007342
Rotational constants in MHz :   590.887103   240.039260   220.097102

                             ****ORCA TERMINATED NORMALLY****
TOTAL RUN TIME: 0 days 0 hours 0 minutes 32 seconds 283 msec
