                         Program Version 4.2.1 -  RELEASE  -
|  1> ! wB97X-D3 SP def2-SVP
|  2> %pal
|  3> nprocs 16
|  4> end
|  5>
|  6> * xyz 0 1
|  7> S 	 -40.3455 	 30.2563 	 78.6361
|  8> C 	 -39.9974 	 30.615 	 76.9334
|  9> C 	 -41.1797 	 30.7415 	 76.2396
| 10> C 	 -42.3195 	 30.3359 	 77.0834
| 11> C 	 -42.0727 	 30.0083 	 78.3583
| 12> H 	 -43.2902 	 30.2983 	 76.7311
| 13> C 	 -41.2991 	 31.1317 	 74.7237
| 14> H 	 -42.1151 	 31.8783 	 74.658
| 15> H 	 -41.8256 	 30.2653 	 74.3592
| 16> C 	 -39.9654 	 31.4794 	 74.0303
| 17> H 	 -39.4582 	 32.3243 	 74.4253
| 18> H 	 -39.2664 	 30.6937 	 74.2722
| 19> C 	 -39.9889 	 31.4902 	 72.4717
| 20> H 	 -40.7788 	 32.1667 	 72.0295
| 21> H 	 -38.9995 	 31.9646 	 72.1168
| 22> H 	 -40.125 	 30.4758 	 72.033
| 23> S 	 -42.8111 	 30.3729 	 80.9903
| 24> C 	 -44.3668 	 29.78 	 81.5075
| 25> C 	 -44.8983 	 28.892 	 80.6285
| 26> C 	 -44.1819 	 28.8559 	 79.3998
| 27> C 	 -43.009 	 29.6347 	 79.4032
| 28> H 	 -45.7469 	 28.2218 	 80.8471
| 29> C 	 -44.5817 	 27.9407 	 78.2537
| 30> H 	 -43.9847 	 27.0038 	 78.2284
| 31> H 	 -44.454 	 28.4115 	 77.2593
| 32> C 	 -45.9346 	 27.2042 	 78.315
| 33> H 	 -46.7275 	 27.9408 	 78.2585
| 34> H 	 -46.0497 	 26.5496 	 79.1768
| 35> C 	 -46.1868 	 26.4163 	 76.997
| 36> H 	 -47.1945 	 25.9255 	 76.9031
| 37> H 	 -45.463 	 25.6726 	 76.7744
| 38> H 	 -46.1957 	 27.132 	 76.1613
| 39> H 	 -39.0099 	 30.9933 	 76.6123
| 40> H 	 -44.8334 	 29.8647 	 82.5028
| 41> *
| 42>
| 43>                          ****END OF INPUT****

CARTESIAN COORDINATES (ANGSTROEM)
---------------------------------
  S    -40.345500   30.256300   78.636100
  C    -39.997400   30.615000   76.933400
  C    -41.179700   30.741500   76.239600
  C    -42.319500   30.335900   77.083400
  C    -42.072700   30.008300   78.358300
  H    -43.290200   30.298300   76.731100
  C    -41.299100   31.131700   74.723700
  H    -42.115100   31.878300   74.658000
  H    -41.825600   30.265300   74.359200
  C    -39.965400   31.479400   74.030300
  H    -39.458200   32.324300   74.425300
  H    -39.266400   30.693700   74.272200
  C    -39.988900   31.490200   72.471700
  H    -40.778800   32.166700   72.029500
  H    -38.999500   31.964600   72.116800
  H    -40.125000   30.475800   72.033000
  S    -42.811100   30.372900   80.990300
  C    -44.366800   29.780000   81.507500
  C    -44.898300   28.892000   80.628500
  C    -44.181900   28.855900   79.399800
  C    -43.009000   29.634700   79.403200
  H    -45.746900   28.221800   80.847100
  C    -44.581700   27.940700   78.253700
  H    -43.984700   27.003800   78.228400
  H    -44.454000   28.411500   77.259300
  C    -45.934600   27.204200   78.315000
  H    -46.727500   27.940800   78.258500
  H    -46.049700   26.549600   79.176800
  C    -46.186800   26.416300   76.997000
  H    -47.194500   25.925500   76.903100
  H    -45.463000   25.672600   76.774400
  H    -46.195700   27.132000   76.161300
  H    -39.009900   30.993300   76.612300
  H    -44.833400   29.864700   82.502800

 Total Charge           Charge          ....    0
 Multiplicity           Mult            ....    1
 Number of Electrons    NEL             ....  134
 Basis Dimension        Dim             ....  322

ORBITAL ENERGIES
----------------

  NO   OCC          E(Eh)            E(eV)
   0   2.0000     -88.969112     -2420.9726
   1   2.0000     -88.957359     -2420.6528
   2   2.0000     -10.331320      -281.1295
   3   2.0000     -10.329545      -281.0812
   4   2.0000     -10.318630      -280.7842
   5   2.0000     -10.316365      -280.7226
   6   2.0000     -10.308979      -280.5216
   7   2.0000     -10.308400      -280.5058
   8   2.0000     -10.302434      -280.3435
   9   2.0000     -10.296530      -280.1828
  10   2.0000     -10.296299      -280.1765
  11   2.0000     -10.294727      -280.1337
  12   2.0000     -10.292634      -280.0768
  13   2.0000     -10.291387      -280.0429
  14   2.0000     -10.288068      -279.9526
  15   2.0000     -10.282898      -279.8119
  16   2.0000      -8.083650      -219.9673
  17   2.0000      -8.072013      -219.6506
  18   2.0000      -6.042233      -164.4175
  19   2.0000      -6.038213      -164.3081
  20   2.0000      -6.034308      -164.2019
  21   2.0000      -6.030833      -164.1073
  22   2.0000      -6.026638      -163.9932
  23   2.0000      -6.022327      -163.8758
  24   2.0000      -1.006891       -27.3989
  25   2.0000      -0.983093       -26.7513
  26   2.0000      -0.910776       -24.7835
  27   2.0000      -0.907307       -24.6891
  28   2.0000      -0.871444       -23.7132
  29   2.0000      -0.851837       -23.1797
  30   2.0000      -0.839978       -22.8570
  31   2.0000      -0.818718       -22.2785
  32   2.0000      -0.779943       -21.2233
  33   2.0000      -0.769945       -20.9513
  34   2.0000      -0.715863       -19.4796
  35   2.0000      -0.705046       -19.1853
  36   2.0000      -0.695730       -18.9318
  37   2.0000      -0.655342       -17.8328
  38   2.0000      -0.638894       -17.3852
  39   2.0000      -0.617239       -16.7959
  40   2.0000      -0.600167       -16.3314
  41   2.0000      -0.578360       -15.7380
  42   2.0000      -0.564658       -15.3651
  43   2.0000      -0.561730       -15.2855
  44   2.0000      -0.527512       -14.3543
  45   2.0000      -0.520084       -14.1522
  46   2.0000      -0.513862       -13.9829
  47   2.0000      -0.510807       -13.8998
  48   2.0000      -0.510161       -13.8822
  49   2.0000      -0.495244       -13.4763
  50   2.0000      -0.488411       -13.2903
  51   2.0000      -0.477863       -13.0033
  52   2.0000      -0.474419       -12.9096
  53   2.0000      -0.465070       -12.6552
  54   2.0000      -0.460456       -12.5297
  55   2.0000      -0.455225       -12.3873
  56   2.0000      -0.446458       -12.1487
  57   2.0000      -0.439755       -11.9663
  58   2.0000      -0.435356       -11.8466
  59   2.0000      -0.425127       -11.5683
  60   2.0000      -0.422170       -11.4878
  61   2.0000      -0.414742       -11.2857
  62   2.0000      -0.409153       -11.1336
  63   2.0000      -0.358536        -9.7562
  64   2.0000      -0.333128        -9.0649
  65   2.0000      -0.320901        -8.7322
  66   2.0000      -0.290827        -7.9138
  67   0.0000       0.025947         0.7061
  68   0.0000       0.074538         2.0283
  69   0.0000       0.110216         2.9991
  70   0.0000       0.122586         3.3357
  71   0.0000       0.132199         3.5973

MULLIKEN ATOMIC CHARGES
-----------------------
   0 S :    0.073682
   1 C :   -0.148951
   2 C :   -0.104458
   3 C :    0.015914
   4 C :   -0.091244
   5 H :   -0.025276
   6 C :    0.082914
   7 H :    0.034103
   8 H :    0.027876
   9 C :   -0.064368
  10 H :    0.031279
  11 H :    0.030294
  12 C :   -0.092558
  13 H :    0.041628
  14 H :    0.044888
  15 H :    0.050415
  16 S :    0.112371
  17 C :   -0.075800
  18 C :   -0.049534
  19 C :   -0.018637
  20 C :   -0.134067
  21 H :    0.033654
  22 C :    0.017928
  23 H :    0.044134
  24 H :    0.026143
  25 C :   -0.094434
  26 H :    0.026879
  27 H :    0.045170
  28 C :   -0.061108
  29 H :    0.040687
  30 H :    0.025828
  31 H :    0.024008
  32 H :    0.067816
  33 H :    0.062824
Sum of atomic charges:    0.0000000

LOEWDIN ATOMIC CHARGES
----------------------
   0 S :    0.365872
   1 C :   -0.200673
   2 C :   -0.054624
   3 C :   -0.063321
   4 C :   -0.177756
   5 H :    0.013990
   6 C :   -0.030634
   7 H :    0.034794
   8 H :    0.033824
   9 C :   -0.044708
  10 H :    0.022550
  11 H :    0.028009
  12 C :   -0.073714
  13 H :    0.027270
  14 H :    0.036452
  15 H :    0.029349
  16 S :    0.411835
  17 C :   -0.188974
  18 C :   -0.076649
  19 C :   -0.054085
  20 C :   -0.192342
  21 H :    0.039523
  22 C :   -0.041368
  23 H :    0.042691
  24 H :    0.031218
  25 C :   -0.042228
  26 H :    0.020611
  27 H :    0.022704
  28 C :   -0.065902
  29 H :    0.033210
  30 H :    0.015284
  31 H :    0.024929
  32 H :    0.034188
  33 H :    0.038675

  Mayer bond orders larger than 0.100000
B(  0-S ,  1-C ) :   1.1095 B(  0-S ,  4-C ) :   1.1127 B(  1-C ,  2-C ) :   1.6633
B(  1-C , 32-H ) :   0.9557 B(  2-C ,  3-C ) :   1.2012 B(  2-C ,  6-C ) :   0.9926
B(  3-C ,  4-C ) :   1.6293 B(  3-C ,  5-H ) :   1.0054 B(  4-C , 20-C ) :   1.0539
B(  6-C ,  7-H ) :   0.9379 B(  6-C ,  8-H ) :   0.9425 B(  6-C ,  9-C ) :   1.0603
B(  9-C , 10-H ) :   0.9592 B(  9-C , 11-H ) :   0.9464 B(  9-C , 12-C ) :   1.0786
B( 12-C , 13-H ) :   0.9774 B( 12-C , 14-H ) :   0.9735 B( 12-C , 15-H ) :   0.9770
B( 16-S , 17-C ) :   1.1608 B( 16-S , 20-C ) :   1.1338 B( 17-C , 18-C ) :   1.6024
B( 17-C , 33-H ) :   0.9548 B( 18-C , 19-C ) :   1.2756 B( 18-C , 21-H ) :   0.9765
B( 19-C , 20-C ) :   1.5796 B( 19-C , 22-C ) :   1.0288 B( 22-C , 23-H ) :   0.9335
B( 22-C , 24-H ) :   0.9409 B( 22-C , 25-C ) :   1.0688 B( 25-C , 26-H ) :   0.9546
B( 25-C , 27-H ) :   0.9498 B( 25-C , 28-C ) :   1.0791 B( 28-C , 29-H ) :   0.9739
B( 28-C , 30-H ) :   0.9766 B( 28-C , 31-H ) :   0.9748

Dispersion correction           -0.012914831
FINAL SINGLE POINT ENERGY     -1339.868591212430

DIPOLE MOMENT
-------------
                                X             Y             Z
Electronic contribution:      8.68614       7.38630      27.83950
Nuclear contribution   :     -9.15915      -7.58957     -28.41895
                        -----------------------------------------
Total Dipole Moment    :     -0.47301      -0.20326      -0.57945
                        -----------------------------------------
Magnitude (a.u.)       :      0.77512
Magnitude (Debye)      :      1.97020

Rotational constants in cm-1:     0.018489     0.007387     0.005550
Rotational constants in MHz :   554.275109   221.471030   166.378279

                             ****ORCA TERMINATED NORMALLY****
TOTAL RUN TIME: 0 days 0 hours 0 minutes 28 seconds 206 msec
