                         Program Version 4.2.1 -  RELEASE  -
|  1> ! wB97X-D3 SP def2-SVP
|  2> %pal
|  3> nprocs 16
|  4> end
|  5>
|  6> * xyz 0 1
|  7> S 	 -8.72584 	 32.922 	 54.2475
|  8> C 	 -9.40696 	 31.3742 	 54.4618
|  9> C 	 -8.80396 	 30.4314 	 53.6928
| 10> C 	 -7.68784 	 30.9645 	 52.9653
| 11> C 	 -7.44088 	 32.3097 	 53.2103
| 12> H 	 -6.99438 	 30.3675 	 52.4838
| 13> C 	 -9.07429 	 28.9737 	 53.7516
| 14> H 	 -9.29218 	 28.4726 	 52.7912
| 15> H 	 -10.0663 	 28.9219 	 54.166
| 16> C 	 -8.14192 	 28.0818 	 54.5629
| 17> H 	 -8.60214 	 27.0717 	 54.333
| 18> H 	 -7.12744 	 28.0098 	 54.1501
| 19> C 	 -8.10627 	 28.3925 	 56.0148
| 20> H 	 -9.11834 	 28.3629 	 56.4768
| 21> H 	 -7.53633 	 27.5419 	 56.4659
| 22> H 	 -7.5189 	 29.2416 	 56.3171
| 23> S 	 -5.4001 	 34.1157 	 53.7002
| 24> C 	 -4.55395 	 34.8369 	 52.3715
| 25> C 	 -4.95146 	 34.2578 	 51.193
| 26> C 	 -5.99219 	 33.2615 	 51.3186
| 27> C 	 -6.36795 	 33.0968 	 52.6267
| 28> H 	 -4.52722 	 34.5733 	 50.2703
| 29> C 	 -6.71528 	 32.8375 	 50.0897
| 30> H 	 -6.92064 	 33.714 	 49.3691
| 31> H 	 -7.71156 	 32.3566 	 50.2732
| 32> C 	 -6.06091 	 31.7023 	 49.2304
| 33> H 	 -6.01146 	 30.9164 	 49.9276
| 34> H 	 -5.03512 	 31.9781 	 49.05
| 35> C 	 -6.83055 	 31.3995 	 47.9185
| 36> H 	 -7.16437 	 32.365 	 47.4751
| 37> H 	 -7.69432 	 30.8583 	 48.1892
| 38> H 	 -6.34792 	 30.7487 	 47.2299
| 39> H 	 -10.2374 	 31.3043 	 55.0159
| 40> H 	 -3.74427 	 35.5567 	 52.4781
| 41> *
| 42>
| 43>                          ****END OF INPUT****

CARTESIAN COORDINATES (ANGSTROEM)
---------------------------------
  S     -8.725840   32.922000   54.247500
  C     -9.406960   31.374200   54.461800
  C     -8.803960   30.431400   53.692800
  C     -7.687840   30.964500   52.965300
  C     -7.440880   32.309700   53.210300
  H     -6.994380   30.367500   52.483800
  C     -9.074290   28.973700   53.751600
  H     -9.292180   28.472600   52.791200
  H    -10.066300   28.921900   54.166000
  C     -8.141920   28.081800   54.562900
  H     -8.602140   27.071700   54.333000
  H     -7.127440   28.009800   54.150100
  C     -8.106270   28.392500   56.014800
  H     -9.118340   28.362900   56.476800
  H     -7.536330   27.541900   56.465900
  H     -7.518900   29.241600   56.317100
  S     -5.400100   34.115700   53.700200
  C     -4.553950   34.836900   52.371500
  C     -4.951460   34.257800   51.193000
  C     -5.992190   33.261500   51.318600
  C     -6.367950   33.096800   52.626700
  H     -4.527220   34.573300   50.270300
  C     -6.715280   32.837500   50.089700
  H     -6.920640   33.714000   49.369100
  H     -7.711560   32.356600   50.273200
  C     -6.060910   31.702300   49.230400
  H     -6.011460   30.916400   49.927600
  H     -5.035120   31.978100   49.050000
  C     -6.830550   31.399500   47.918500
  H     -7.164370   32.365000   47.475100
  H     -7.694320   30.858300   48.189200
  H     -6.347920   30.748700   47.229900
  H    -10.237400   31.304300   55.015900
  H     -3.744270   35.556700   52.478100

 Total Charge           Charge          ....    0
 Multiplicity           Mult            ....    1
 Number of Electrons    NEL             ....  134
 Basis Dimension        Dim             ....  322

ORBITAL ENERGIES
----------------

  NO   OCC          E(Eh)            E(eV)
   0   2.0000     -88.963747     -2420.8266
   1   2.0000     -88.963293     -2420.8143
   2   2.0000     -10.329379      -281.0767
   3   2.0000     -10.328670      -281.0574
   4   2.0000     -10.317900      -280.7643
   5   2.0000     -10.303772      -280.3799
   6   2.0000     -10.302575      -280.3473
   7   2.0000     -10.296819      -280.1907
   8   2.0000     -10.294599      -280.1303
   9   2.0000     -10.291815      -280.0545
  10   2.0000     -10.289277      -279.9855
  11   2.0000     -10.287818      -279.9457
  12   2.0000     -10.285340      -279.8783
  13   2.0000     -10.280896      -279.7574
  14   2.0000     -10.277251      -279.6582
  15   2.0000     -10.276803      -279.6460
  16   2.0000      -8.079382      -219.8512
  17   2.0000      -8.078408      -219.8247
  18   2.0000      -6.037799      -164.2969
  19   2.0000      -6.036935      -164.2733
  20   2.0000      -6.033673      -164.1846
  21   2.0000      -6.032823      -164.1615
  22   2.0000      -6.030273      -164.0921
  23   2.0000      -6.029152      -164.0616
  24   2.0000      -1.009499       -27.4699
  25   2.0000      -0.989397       -26.9229
  26   2.0000      -0.916697       -24.9446
  27   2.0000      -0.906647       -24.6711
  28   2.0000      -0.874740       -23.8029
  29   2.0000      -0.853226       -23.2175
  30   2.0000      -0.848452       -23.0875
  31   2.0000      -0.817947       -22.2575
  32   2.0000      -0.783514       -21.3205
  33   2.0000      -0.775054       -21.0903
  34   2.0000      -0.711131       -19.3509
  35   2.0000      -0.696949       -18.9650
  36   2.0000      -0.694092       -18.8872
  37   2.0000      -0.664034       -18.0693
  38   2.0000      -0.652798       -17.7635
  39   2.0000      -0.624626       -16.9969
  40   2.0000      -0.601939       -16.3796
  41   2.0000      -0.571964       -15.5639
  42   2.0000      -0.563014       -15.3204
  43   2.0000      -0.551990       -15.0204
  44   2.0000      -0.542038       -14.7496
  45   2.0000      -0.526148       -14.3172
  46   2.0000      -0.519933       -14.1481
  47   2.0000      -0.516210       -14.0468
  48   2.0000      -0.504779       -13.7357
  49   2.0000      -0.503016       -13.6878
  50   2.0000      -0.492079       -13.3902
  51   2.0000      -0.482555       -13.1310
  52   2.0000      -0.474072       -12.9002
  53   2.0000      -0.461011       -12.5447
  54   2.0000      -0.456072       -12.4104
  55   2.0000      -0.455034       -12.3821
  56   2.0000      -0.444095       -12.0844
  57   2.0000      -0.430981       -11.7276
  58   2.0000      -0.428725       -11.6662
  59   2.0000      -0.426460       -11.6046
  60   2.0000      -0.421040       -11.4571
  61   2.0000      -0.413006       -11.2385
  62   2.0000      -0.407817       -11.0973
  63   2.0000      -0.350771        -9.5450
  64   2.0000      -0.331176        -9.0118
  65   2.0000      -0.326593        -8.8870
  66   2.0000      -0.297031        -8.0826
  67   0.0000       0.031003         0.8436
  68   0.0000       0.075297         2.0489
  69   0.0000       0.117331         3.1927
  70   0.0000       0.119962         3.2643
  71   0.0000       0.123695         3.3659

MULLIKEN ATOMIC CHARGES
-----------------------
   0 S :    0.113253
   1 C :   -0.079682
   2 C :   -0.062347
   3 C :    0.047403
   4 C :   -0.142889
   5 H :   -0.013675
   6 C :    0.062270
   7 H :    0.024961
   8 H :   -0.003002
   9 C :   -0.074484
  10 H :    0.030876
  11 H :    0.030875
  12 C :   -0.045472
  13 H :    0.032765
  14 H :    0.029426
  15 H :    0.048024
  16 S :    0.100170
  17 C :   -0.087904
  18 C :   -0.022736
  19 C :    0.036947
  20 C :   -0.171037
  21 H :    0.007169
  22 C :   -0.043995
  23 H :    0.044433
  24 H :    0.033778
  25 C :   -0.059602
  26 H :    0.008181
  27 H :    0.015003
  28 C :   -0.007581
  29 H :    0.034401
  30 H :    0.017195
  31 H :    0.034047
  32 H :   -0.000646
  33 H :    0.063877
Sum of atomic charges:   -0.0000000

LOEWDIN ATOMIC CHARGES
----------------------
   0 S :    0.420501
   1 C :   -0.181469
   2 C :   -0.066846
   3 C :   -0.049015
   4 C :   -0.190964
   5 H :    0.016849
   6 C :   -0.044305
   7 H :    0.033233
   8 H :    0.026512
   9 C :   -0.044527
  10 H :    0.032855
  11 H :    0.024279
  12 C :   -0.071082
  13 H :    0.028750
  14 H :    0.033822
  15 H :    0.027992
  16 S :    0.399097
  17 C :   -0.185935
  18 C :   -0.062947
  19 C :   -0.059500
  20 C :   -0.187306
  21 H :    0.024923
  22 C :   -0.039832
  23 H :    0.035903
  24 H :    0.033123
  25 C :   -0.035005
  26 H :    0.012805
  27 H :    0.013867
  28 C :   -0.059265
  29 H :    0.031369
  30 H :    0.021537
  31 H :    0.024684
  32 H :    0.002093
  33 H :    0.033804

  Mayer bond orders larger than 0.100000
B(  0-S ,  1-C ) :   1.1533 B(  0-S ,  4-C ) :   1.1541 B(  1-C ,  2-C ) :   1.5840
B(  1-C , 32-H ) :   0.9870 B(  2-C ,  3-C ) :   1.2426 B(  2-C ,  6-C ) :   1.0401
B(  3-C ,  4-C ) :   1.5576 B(  3-C ,  5-H ) :   1.0099 B(  4-C , 20-C ) :   1.0458
B(  6-C ,  7-H ) :   0.9342 B(  6-C ,  8-H ) :   0.9295 B(  6-C ,  9-C ) :   1.0731
B(  9-C , 10-H ) :   0.9504 B(  9-C , 11-H ) :   0.9534 B(  9-C , 12-C ) :   1.0863
B( 12-C , 13-H ) :   0.9721 B( 12-C , 14-H ) :   0.9678 B( 12-C , 15-H ) :   0.9717
B( 16-S , 17-C ) :   1.1443 B( 16-S , 20-C ) :   1.1347 B( 17-C , 18-C ) :   1.6234
B( 17-C , 33-H ) :   0.9684 B( 18-C , 19-C ) :   1.2151 B( 18-C , 21-H ) :   0.9941
B( 19-C , 20-C ) :   1.6006 B( 19-C , 22-C ) :   1.0516 B( 22-C , 23-H ) :   0.9447
B( 22-C , 24-H ) :   0.9410 B( 22-C , 25-C ) :   1.0389 B( 25-C , 26-H ) :   0.9571
B( 25-C , 27-H ) :   0.9611 B( 25-C , 28-C ) :   1.0711 B( 28-C , 29-H ) :   0.9738
B( 28-C , 30-H ) :   0.9725 B( 28-C , 31-H ) :   0.9748

Dispersion correction           -0.014219518
FINAL SINGLE POINT ENERGY     -1339.877320267699

DIPOLE MOMENT
-------------
                                X             Y             Z
Electronic contribution:      2.90857      21.83910      12.24426
Nuclear contribution   :     -2.92032     -22.30118     -12.58277
                        -----------------------------------------
Total Dipole Moment    :     -0.01175      -0.46207      -0.33851
                        -----------------------------------------
Magnitude (a.u.)       :      0.57292
Magnitude (Debye)      :      1.45624

Rotational constants in cm-1:     0.017380     0.008848     0.006870
Rotational constants in MHz :   521.039427   265.260555   205.968546

                             ****ORCA TERMINATED NORMALLY****
TOTAL RUN TIME: 0 days 0 hours 0 minutes 35 seconds 219 msec
