                         Program Version 4.2.1 -  RELEASE  -
|  1> ! wB97X-D3 SP def2-SVP
|  2> %pal
|  3> nprocs 16
|  4> end
|  5>
|  6> * xyz 0 1
|  7> S 	 -29.7249 	 64.0566 	 108.295
|  8> C 	 -29.7048 	 65.3068 	 107.068
|  9> C 	 -29.8871 	 64.7639 	 105.812
| 10> C 	 -30.3148 	 63.3888 	 105.816
| 11> C 	 -30.3756 	 62.9302 	 107.112
| 12> H 	 -30.5283 	 62.7843 	 104.948
| 13> C 	 -29.906 	 65.5628 	 104.518
| 14> H 	 -29.0889 	 65.2306 	 103.943
| 15> H 	 -29.7976 	 66.6193 	 104.628
| 16> C 	 -31.2119 	 65.3653 	 103.797
| 17> H 	 -31.5513 	 64.3526 	 103.548
| 18> H 	 -31.997 	 65.9054 	 104.298
| 19> C 	 -31.1184 	 65.9141 	 102.331
| 20> H 	 -30.5126 	 65.2174 	 101.834
| 21> H 	 -32.1055 	 66.0574 	 101.833
| 22> H 	 -30.5596 	 66.8701 	 102.24
| 23> S 	 -32.1894 	 61.3196 	 108.453
| 24> C 	 -31.7913 	 59.6072 	 108.559
| 25> C 	 -30.7418 	 59.2663 	 107.76
| 26> C 	 -30.2082 	 60.3716 	 107.007
| 27> C 	 -30.7087 	 61.5677 	 107.479
| 28> H 	 -30.468 	 58.2227 	 107.796
| 29> C 	 -29.1907 	 60.2188 	 105.883
| 30> H 	 -28.495 	 59.4297 	 106.205
| 31> H 	 -28.584 	 61.1768 	 105.936
| 32> C 	 -29.7478 	 59.8479 	 104.543
| 33> H 	 -30.617 	 60.4778 	 104.242
| 34> H 	 -30.2193 	 58.9072 	 104.602
| 35> C 	 -28.6537 	 59.8851 	 103.442
| 36> H 	 -28.5294 	 60.9297 	 103.106
| 37> H 	 -29.0674 	 59.3158 	 102.605
| 38> H 	 -27.7053 	 59.4389 	 103.767
| 39> H 	 -29.4544 	 66.3616 	 107.2
| 40> H 	 -32.2247 	 58.8107 	 109.155
| 41> *
| 42>
| 43>                          ****END OF INPUT****

CARTESIAN COORDINATES (ANGSTROEM)
---------------------------------
  S    -29.724900   64.056600  108.295000
  C    -29.704800   65.306800  107.068000
  C    -29.887100   64.763900  105.812000
  C    -30.314800   63.388800  105.816000
  C    -30.375600   62.930200  107.112000
  H    -30.528300   62.784300  104.948000
  C    -29.906000   65.562800  104.518000
  H    -29.088900   65.230600  103.943000
  H    -29.797600   66.619300  104.628000
  C    -31.211900   65.365300  103.797000
  H    -31.551300   64.352600  103.548000
  H    -31.997000   65.905400  104.298000
  C    -31.118400   65.914100  102.331000
  H    -30.512600   65.217400  101.834000
  H    -32.105500   66.057400  101.833000
  H    -30.559600   66.870100  102.240000
  S    -32.189400   61.319600  108.453000
  C    -31.791300   59.607200  108.559000
  C    -30.741800   59.266300  107.760000
  C    -30.208200   60.371600  107.007000
  C    -30.708700   61.567700  107.479000
  H    -30.468000   58.222700  107.796000
  C    -29.190700   60.218800  105.883000
  H    -28.495000   59.429700  106.205000
  H    -28.584000   61.176800  105.936000
  C    -29.747800   59.847900  104.543000
  H    -30.617000   60.477800  104.242000
  H    -30.219300   58.907200  104.602000
  C    -28.653700   59.885100  103.442000
  H    -28.529400   60.929700  103.106000
  H    -29.067400   59.315800  102.605000
  H    -27.705300   59.438900  103.767000
  H    -29.454400   66.361600  107.200000
  H    -32.224700   58.810700  109.155000

 Total Charge           Charge          ....    0
 Multiplicity           Mult            ....    1
 Number of Electrons    NEL             ....  134
 Basis Dimension        Dim             ....  322

ORBITAL ENERGIES
----------------

  NO   OCC          E(Eh)            E(eV)
   0   2.0000     -88.966069     -2420.8898
   1   2.0000     -88.962255     -2420.7860
   2   2.0000     -10.325829      -280.9801
   3   2.0000     -10.322377      -280.8862
   4   2.0000     -10.312544      -280.6186
   5   2.0000     -10.312361      -280.6136
   6   2.0000     -10.303683      -280.3775
   7   2.0000     -10.299496      -280.2635
   8   2.0000     -10.294651      -280.1317
   9   2.0000     -10.294125      -280.1174
  10   2.0000     -10.289087      -279.9803
  11   2.0000     -10.287487      -279.9367
  12   2.0000     -10.286347      -279.9057
  13   2.0000     -10.284896      -279.8662
  14   2.0000     -10.284260      -279.8489
  15   2.0000     -10.277102      -279.6542
  16   2.0000      -8.080588      -219.8840
  17   2.0000      -8.076324      -219.7679
  18   2.0000      -6.039165      -164.3340
  19   2.0000      -6.035280      -164.2283
  20   2.0000      -6.034959      -164.2196
  21   2.0000      -6.031169      -164.1164
  22   2.0000      -6.031139      -164.1156
  23   2.0000      -6.026740      -163.9959
  24   2.0000      -1.004060       -27.3219
  25   2.0000      -0.980831       -26.6898
  26   2.0000      -0.916474       -24.9385
  27   2.0000      -0.911307       -24.7979
  28   2.0000      -0.868997       -23.6466
  29   2.0000      -0.849089       -23.1049
  30   2.0000      -0.844515       -22.9804
  31   2.0000      -0.814580       -22.1658
  32   2.0000      -0.781997       -21.2792
  33   2.0000      -0.769406       -20.9366
  34   2.0000      -0.709547       -19.3077
  35   2.0000      -0.700407       -19.0590
  36   2.0000      -0.692430       -18.8420
  37   2.0000      -0.655505       -17.8372
  38   2.0000      -0.639910       -17.4128
  39   2.0000      -0.624817       -17.0021
  40   2.0000      -0.589885       -16.0516
  41   2.0000      -0.573352       -15.6017
  42   2.0000      -0.568286       -15.4638
  43   2.0000      -0.559769       -15.2321
  44   2.0000      -0.527230       -14.3467
  45   2.0000      -0.526946       -14.3389
  46   2.0000      -0.514192       -13.9919
  47   2.0000      -0.510854       -13.9010
  48   2.0000      -0.509008       -13.8508
  49   2.0000      -0.502087       -13.6625
  50   2.0000      -0.491192       -13.3660
  51   2.0000      -0.474483       -12.9113
  52   2.0000      -0.470752       -12.8098
  53   2.0000      -0.461357       -12.5542
  54   2.0000      -0.457120       -12.4389
  55   2.0000      -0.450870       -12.2688
  56   2.0000      -0.446394       -12.1470
  57   2.0000      -0.440996       -12.0001
  58   2.0000      -0.439510       -11.9597
  59   2.0000      -0.425536       -11.5794
  60   2.0000      -0.418331       -11.3834
  61   2.0000      -0.415194       -11.2980
  62   2.0000      -0.412202       -11.2166
  63   2.0000      -0.338094        -9.2000
  64   2.0000      -0.327987        -8.9250
  65   2.0000      -0.325248        -8.8504
  66   2.0000      -0.298734        -8.1290
  67   0.0000       0.031886         0.8677
  68   0.0000       0.069582         1.8934
  69   0.0000       0.109848         2.9891
  70   0.0000       0.112611         3.0643
  71   0.0000       0.130065         3.5393

MULLIKEN ATOMIC CHARGES
-----------------------
   0 S :    0.122343
   1 C :   -0.121611
   2 C :   -0.082420
   3 C :    0.036059
   4 C :   -0.150948
   5 H :    0.006567
   6 C :    0.115732
   7 H :    0.016663
   8 H :    0.012982
   9 C :   -0.099637
  10 H :    0.037455
  11 H :    0.034577
  12 C :   -0.066363
  13 H :    0.015701
  14 H :    0.045902
  15 H :    0.022499
  16 S :    0.104170
  17 C :   -0.078537
  18 C :   -0.049031
  19 C :   -0.014156
  20 C :   -0.183884
  21 H :    0.014473
  22 C :    0.039869
  23 H :    0.022623
  24 H :    0.045943
  25 C :   -0.060937
  26 H :    0.027336
  27 H :    0.012527
  28 C :   -0.035287
  29 H :    0.038403
  30 H :    0.034800
  31 H :    0.039342
  32 H :    0.047820
  33 H :    0.049025
Sum of atomic charges:    0.0000000

LOEWDIN ATOMIC CHARGES
----------------------
   0 S :    0.402410
   1 C :   -0.202935
   2 C :   -0.057499
   3 C :   -0.051663
   4 C :   -0.191508
   5 H :    0.031281
   6 C :   -0.025049
   7 H :    0.025609
   8 H :    0.028963
   9 C :   -0.036552
  10 H :    0.025366
  11 H :    0.023203
  12 C :   -0.067135
  13 H :    0.013661
  14 H :    0.030246
  15 H :    0.021135
  16 S :    0.377913
  17 C :   -0.182253
  18 C :   -0.076677
  19 C :   -0.047616
  20 C :   -0.191375
  21 H :    0.031712
  22 C :   -0.039880
  23 H :    0.031341
  24 H :    0.038917
  25 C :   -0.042618
  26 H :    0.025163
  27 H :    0.018546
  28 C :   -0.059949
  29 H :    0.028456
  30 H :    0.028131
  31 H :    0.026675
  32 H :    0.031589
  33 H :    0.032390

  Mayer bond orders larger than 0.100000
B(  0-S ,  1-C ) :   1.1175 B(  0-S ,  4-C ) :   1.1569 B(  1-C ,  2-C ) :   1.6390
B(  1-C , 32-H ) :   0.9664 B(  2-C ,  3-C ) :   1.2071 B(  2-C ,  6-C ) :   1.0258
B(  3-C ,  4-C ) :   1.5777 B(  3-C ,  5-H ) :   0.9987 B(  4-C , 20-C ) :   1.0350
B(  6-C ,  7-H ) :   0.9303 B(  6-C ,  8-H ) :   0.9426 B(  6-C ,  9-C ) :   1.0679
B(  9-C , 10-H ) :   0.9588 B(  9-C , 11-H ) :   0.9605 B(  9-C , 12-C ) :   1.0625
B( 12-C , 13-H ) :   0.9810 B( 12-C , 14-H ) :   0.9759 B( 12-C , 15-H ) :   0.9742
B( 16-S , 17-C ) :   1.1251 B( 16-S , 20-C ) :   1.1233 B( 17-C , 18-C ) :   1.6793
B( 17-C , 33-H ) :   0.9602 B( 18-C , 19-C ) :   1.1844 B( 18-C , 21-H ) :   0.9899
B( 19-C , 20-C ) :   1.6322 B( 19-C , 22-C ) :   1.0427 B( 22-C , 23-H ) :   0.9270
B( 22-C , 24-H ) :   0.9344 B( 22-C , 25-C ) :   1.0648 B( 25-C , 26-H ) :   0.9502
B( 25-C , 27-H ) :   0.9482 B( 25-C , 28-C ) :   1.0756 B( 28-C , 29-H ) :   0.9772
B( 28-C , 30-H ) :   0.9751 B( 28-C , 31-H ) :   0.9749

Dispersion correction           -0.014495518
FINAL SINGLE POINT ENERGY     -1339.871780135392

DIPOLE MOMENT
-------------
                                X             Y             Z
Electronic contribution:     -5.52089      -1.15987      30.07099
Nuclear contribution   :      5.74394       0.95302     -30.77886
                        -----------------------------------------
Total Dipole Moment    :      0.22305      -0.20685      -0.70787
                        -----------------------------------------
Magnitude (a.u.)       :      0.77047
Magnitude (Debye)      :      1.95837

Rotational constants in cm-1:     0.016551     0.009484     0.007170
Rotational constants in MHz :   496.178018   284.320989   214.952935

                             ****ORCA TERMINATED NORMALLY****
TOTAL RUN TIME: 0 days 0 hours 0 minutes 30 seconds 682 msec
