                         Program Version 4.2.1 -  RELEASE  -
|  1> ! wB97X-D3 SP def2-SVP
|  2> %pal
|  3> nprocs 16
|  4> end
|  5>
|  6> * xyz 0 1
|  7> S 	 43.469 	 25.7841 	 94.4771
|  8> C 	 44.613 	 25.7604 	 95.8772
|  9> C 	 43.9205 	 25.3049 	 97.0326
| 10> C 	 42.5515 	 25.0434 	 96.8034
| 11> C 	 42.1297 	 25.3097 	 95.4979
| 12> H 	 41.855 	 24.7539 	 97.5348
| 13> C 	 44.5246 	 24.9786 	 98.4347
| 14> H 	 45.5325 	 24.6308 	 98.2248
| 15> H 	 43.9948 	 24.1079 	 98.7568
| 16> C 	 44.5461 	 25.9972 	 99.5806
| 17> H 	 45.0643 	 26.8742 	 99.2794
| 18> H 	 43.6342 	 26.3407 	 99.9377
| 19> C 	 45.3179 	 25.3674 	 100.703
| 20> H 	 45.1005 	 24.3279 	 100.903
| 21> H 	 46.3487 	 25.2718 	 100.264
| 22> H 	 45.3724 	 25.9161 	 101.608
| 23> S 	 39.5455 	 26.1054 	 95.8543
| 24> C 	 38.3097 	 26.0736 	 94.6248
| 25> C 	 38.8669 	 25.3332 	 93.5515
| 26> C 	 40.2552 	 24.9942 	 93.7008
| 27> C 	 40.7575 	 25.3409 	 94.9674
| 28> H 	 38.2774 	 25.0559 	 92.6871
| 29> C 	 41.0287 	 24.1328 	 92.6302
| 30> H 	 40.651 	 23.0852 	 92.6422
| 31> H 	 42.1187 	 24.0282 	 92.7514
| 32> C 	 40.8265 	 24.6031 	 91.1347
| 33> H 	 41.3848 	 25.5239 	 90.9576
| 34> H 	 39.7798 	 25.0178 	 90.9371
| 35> C 	 41.3793 	 23.6303 	 90.1429
| 36> H 	 40.8444 	 22.6457 	 90.1235
| 37> H 	 42.3859 	 23.4399 	 90.2855
| 38> H 	 41.1922 	 24.0245 	 89.149
| 39> H 	 45.6416 	 25.9008 	 95.7639
| 40> H 	 37.309 	 26.4888 	 94.633
| 41> *
| 42>
| 43>                          ****END OF INPUT****

CARTESIAN COORDINATES (ANGSTROEM)
---------------------------------
  S     43.469000   25.784100   94.477100
  C     44.613000   25.760400   95.877200
  C     43.920500   25.304900   97.032600
  C     42.551500   25.043400   96.803400
  C     42.129700   25.309700   95.497900
  H     41.855000   24.753900   97.534800
  C     44.524600   24.978600   98.434700
  H     45.532500   24.630800   98.224800
  H     43.994800   24.107900   98.756800
  C     44.546100   25.997200   99.580600
  H     45.064300   26.874200   99.279400
  H     43.634200   26.340700   99.937700
  C     45.317900   25.367400  100.703000
  H     45.100500   24.327900  100.903000
  H     46.348700   25.271800  100.264000
  H     45.372400   25.916100  101.608000
  S     39.545500   26.105400   95.854300
  C     38.309700   26.073600   94.624800
  C     38.866900   25.333200   93.551500
  C     40.255200   24.994200   93.700800
  C     40.757500   25.340900   94.967400
  H     38.277400   25.055900   92.687100
  C     41.028700   24.132800   92.630200
  H     40.651000   23.085200   92.642200
  H     42.118700   24.028200   92.751400
  C     40.826500   24.603100   91.134700
  H     41.384800   25.523900   90.957600
  H     39.779800   25.017800   90.937100
  C     41.379300   23.630300   90.142900
  H     40.844400   22.645700   90.123500
  H     42.385900   23.439900   90.285500
  H     41.192200   24.024500   89.149000
  H     45.641600   25.900800   95.763900
  H     37.309000   26.488800   94.633000

 Total Charge           Charge          ....    0
 Multiplicity           Mult            ....    1
 Number of Electrons    NEL             ....  134
 Basis Dimension        Dim             ....  322

ORBITAL ENERGIES
----------------

  NO   OCC          E(Eh)            E(eV)
   0   2.0000     -88.969503     -2420.9833
   1   2.0000     -88.967879     -2420.9391
   2   2.0000     -10.335160      -281.2340
   3   2.0000     -10.327439      -281.0239
   4   2.0000     -10.323291      -280.9110
   5   2.0000     -10.319422      -280.8057
   6   2.0000     -10.309465      -280.5348
   7   2.0000     -10.308808      -280.5169
   8   2.0000     -10.299677      -280.2685
   9   2.0000     -10.299446      -280.2622
  10   2.0000     -10.293754      -280.1073
  11   2.0000     -10.291092      -280.0349
  12   2.0000     -10.287274      -279.9310
  13   2.0000     -10.277823      -279.6738
  14   2.0000     -10.274035      -279.5707
  15   2.0000     -10.272068      -279.5172
  16   2.0000      -8.083363      -219.9595
  17   2.0000      -8.082786      -219.9438
  18   2.0000      -6.041831      -164.4066
  19   2.0000      -6.041410      -164.3951
  20   2.0000      -6.037402      -164.2861
  21   2.0000      -6.037376      -164.2853
  22   2.0000      -6.034493      -164.2069
  23   2.0000      -6.033611      -164.1829
  24   2.0000      -1.008002       -27.4291
  25   2.0000      -0.979713       -26.6594
  26   2.0000      -0.915974       -24.9249
  27   2.0000      -0.901519       -24.5316
  28   2.0000      -0.869304       -23.6550
  29   2.0000      -0.853283       -23.2190
  30   2.0000      -0.844698       -22.9854
  31   2.0000      -0.811921       -22.0935
  32   2.0000      -0.778522       -21.1847
  33   2.0000      -0.769397       -20.9364
  34   2.0000      -0.711077       -19.3494
  35   2.0000      -0.701321       -19.0839
  36   2.0000      -0.694583       -18.9006
  37   2.0000      -0.664755       -18.0889
  38   2.0000      -0.641300       -17.4507
  39   2.0000      -0.619929       -16.8691
  40   2.0000      -0.598043       -16.2736
  41   2.0000      -0.572733       -15.5849
  42   2.0000      -0.568932       -15.4814
  43   2.0000      -0.553167       -15.0524
  44   2.0000      -0.534067       -14.5327
  45   2.0000      -0.527847       -14.3634
  46   2.0000      -0.515544       -14.0287
  47   2.0000      -0.510365       -13.8877
  48   2.0000      -0.505153       -13.7459
  49   2.0000      -0.500581       -13.6215
  50   2.0000      -0.490524       -13.3478
  51   2.0000      -0.483257       -13.1501
  52   2.0000      -0.474340       -12.9075
  53   2.0000      -0.463947       -12.6246
  54   2.0000      -0.459570       -12.5055
  55   2.0000      -0.452356       -12.3092
  56   2.0000      -0.446311       -12.1447
  57   2.0000      -0.442929       -12.0527
  58   2.0000      -0.428972       -11.6729
  59   2.0000      -0.421278       -11.4636
  60   2.0000      -0.416877       -11.3438
  61   2.0000      -0.411036       -11.1849
  62   2.0000      -0.406414       -11.0591
  63   2.0000      -0.349222        -9.5028
  64   2.0000      -0.334213        -9.0944
  65   2.0000      -0.327502        -8.9118
  66   2.0000      -0.288685        -7.8555
  67   0.0000       0.023698         0.6449
  68   0.0000       0.070344         1.9142
  69   0.0000       0.098971         2.6931
  70   0.0000       0.126420         3.4401
  71   0.0000       0.128986         3.5099

MULLIKEN ATOMIC CHARGES
-----------------------
   0 S :    0.102739
   1 C :   -0.114525
   2 C :   -0.062903
   3 C :    0.027202
   4 C :   -0.129376
   5 H :   -0.003888
   6 C :    0.026188
   7 H :    0.015294
   8 H :    0.018823
   9 C :    0.029736
  10 H :    0.017347
  11 H :    0.009579
  12 C :   -0.053272
  13 H :    0.021313
  14 H :    0.018032
  15 H :    0.033185
  16 S :    0.119310
  17 C :   -0.105636
  18 C :   -0.042688
  19 C :   -0.032195
  20 C :   -0.122580
  21 H :    0.025133
  22 C :    0.030933
  23 H :    0.043565
  24 H :    0.029568
  25 C :   -0.121135
  26 H :    0.025277
  27 H :    0.031031
  28 C :   -0.017304
  29 H :    0.027924
  30 H :    0.023438
  31 H :    0.029222
  32 H :    0.032181
  33 H :    0.068483
Sum of atomic charges:    0.0000000

LOEWDIN ATOMIC CHARGES
----------------------
   0 S :    0.401603
   1 C :   -0.180196
   2 C :   -0.051950
   3 C :   -0.067401
   4 C :   -0.180713
   5 H :    0.023585
   6 C :   -0.023925
   7 H :    0.029297
   8 H :    0.028226
   9 C :   -0.029384
  10 H :    0.023537
  11 H :    0.013889
  12 C :   -0.062336
  13 H :    0.021641
  14 H :    0.030244
  15 H :    0.020365
  16 S :    0.453192
  17 C :   -0.200978
  18 C :   -0.068270
  19 C :   -0.065122
  20 C :   -0.225519
  21 H :    0.028276
  22 C :   -0.036995
  23 H :    0.035350
  24 H :    0.022116
  25 C :   -0.053186
  26 H :    0.024132
  27 H :    0.026166
  28 C :   -0.061708
  29 H :    0.027212
  30 H :    0.016816
  31 H :    0.029816
  32 H :    0.014983
  33 H :    0.037235

  Mayer bond orders larger than 0.100000
B(  0-S ,  1-C ) :   1.1299 B(  0-S ,  4-C ) :   1.1616 B(  1-C ,  2-C ) :   1.5800
B(  1-C ,  4-C ) :   0.1082 B(  1-C , 32-H ) :   0.9822 B(  2-C ,  3-C ) :   1.2618
B(  2-C ,  6-C ) :   1.0015 B(  3-C ,  4-C ) :   1.5416 B(  3-C ,  5-H ) :   1.0027
B(  4-C , 20-C ) :   1.0380 B(  6-C ,  7-H ) :   0.9464 B(  6-C ,  8-H ) :   0.9451
B(  6-C ,  9-C ) :   1.0645 B(  9-C , 10-H ) :   0.9512 B(  9-C , 11-H ) :   0.9533
B(  9-C , 12-C ) :   1.0763 B( 12-C , 13-H ) :   0.9747 B( 12-C , 14-H ) :   0.9739
B( 12-C , 15-H ) :   0.9728 B( 16-S , 17-C ) :   1.1763 B( 16-S , 20-C ) :   1.1781
B( 17-C , 18-C ) :   1.5392 B( 17-C , 20-C ) :   0.1045 B( 17-C , 33-H ) :   0.9742
B( 18-C , 19-C ) :   1.3053 B( 18-C , 21-H ) :   0.9847 B( 19-C , 20-C ) :   1.5190
B( 19-C , 22-C ) :   1.0246 B( 22-C , 23-H ) :   0.9484 B( 22-C , 24-H ) :   0.9434
B( 22-C , 25-C ) :   1.0368 B( 25-C , 26-H ) :   0.9507 B( 25-C , 27-H ) :   0.9596
B( 25-C , 28-C ) :   1.0880 B( 28-C , 29-H ) :   0.9724 B( 28-C , 30-H ) :   0.9722
B( 28-C , 31-H ) :   0.9699

Dispersion correction           -0.013106241
FINAL SINGLE POINT ENERGY     -1339.865017615885

DIPOLE MOMENT
-------------
                                X             Y             Z
Electronic contribution:    -10.37624       7.68138      -1.04781
Nuclear contribution   :     10.45122      -7.86853       1.10188
                        -----------------------------------------
Total Dipole Moment    :      0.07497      -0.18716       0.05407
                        -----------------------------------------
Magnitude (a.u.)       :      0.20874
Magnitude (Debye)      :      0.53057

Rotational constants in cm-1:     0.023677     0.006868     0.005587
Rotational constants in MHz :   709.832598   205.908563   167.492429

                             ****ORCA TERMINATED NORMALLY****
TOTAL RUN TIME: 0 days 0 hours 0 minutes 26 seconds 739 msec
