                         Program Version 4.2.1 -  RELEASE  -
|  1> ! wB97X-D3 SP def2-SVP
|  2> %pal
|  3> nprocs 16
|  4> end
|  5>
|  6> * xyz 0 1
|  7> S 	 -43.718 	 51.4871 	 102.195
|  8> C 	 -42.6493 	 50.8625 	 103.516
|  9> C 	 -42.0243 	 51.9355 	 104.116
| 10> C 	 -42.2033 	 53.1379 	 103.443
| 11> C 	 -43.0896 	 53.1146 	 102.363
| 12> H 	 -41.7718 	 54.1055 	 103.818
| 13> C 	 -41.0348 	 51.8895 	 105.324
| 14> H 	 -39.9832 	 52.1394 	 105.048
| 15> H 	 -41.0259 	 50.841 	 105.671
| 16> C 	 -41.4207 	 52.6628 	 106.577
| 17> H 	 -40.6047 	 52.6303 	 107.251
| 18> H 	 -41.6449 	 53.7018 	 106.296
| 19> C 	 -42.6373 	 52.0171 	 107.272
| 20> H 	 -42.4667 	 50.9809 	 107.655
| 21> H 	 -43.0065 	 52.6708 	 108.043
| 22> H 	 -43.4587 	 51.9723 	 106.581
| 23> S 	 -45.2119 	 53.866 	 100.826
| 24> C 	 -45.1436 	 55.4209 	 99.9398
| 25> C 	 -43.9558 	 56.1518 	 100.187
| 26> C 	 -43.1172 	 55.458 	 101.098
| 27> C 	 -43.6528 	 54.2066 	 101.512
| 28> H 	 -43.7965 	 57.1001 	 99.716
| 29> C 	 -41.9002 	 56.0788 	 101.701
| 30> H 	 -41.3813 	 56.5993 	 100.858
| 31> H 	 -41.1852 	 55.3818 	 101.997
| 32> C 	 -42.1377 	 57.0356 	 102.902
| 33> H 	 -42.6454 	 56.4922 	 103.635
| 34> H 	 -42.9413 	 57.6549 	 102.609
| 35> C 	 -40.9858 	 57.875 	 103.484
| 36> H 	 -40.3845 	 58.1502 	 102.629
| 37> H 	 -40.2723 	 57.2343 	 103.962
| 38> H 	 -41.0876 	 58.7505 	 104.155
| 39> H 	 -42.6329 	 49.866 	 103.96
| 40> H 	 -45.9004 	 55.787 	 99.2038
| 41> *
| 42>
| 43>                          ****END OF INPUT****

CARTESIAN COORDINATES (ANGSTROEM)
---------------------------------
  S    -43.718000   51.487100  102.195000
  C    -42.649300   50.862500  103.516000
  C    -42.024300   51.935500  104.116000
  C    -42.203300   53.137900  103.443000
  C    -43.089600   53.114600  102.363000
  H    -41.771800   54.105500  103.818000
  C    -41.034800   51.889500  105.324000
  H    -39.983200   52.139400  105.048000
  H    -41.025900   50.841000  105.671000
  C    -41.420700   52.662800  106.577000
  H    -40.604700   52.630300  107.251000
  H    -41.644900   53.701800  106.296000
  C    -42.637300   52.017100  107.272000
  H    -42.466700   50.980900  107.655000
  H    -43.006500   52.670800  108.043000
  H    -43.458700   51.972300  106.581000
  S    -45.211900   53.866000  100.826000
  C    -45.143600   55.420900   99.939800
  C    -43.955800   56.151800  100.187000
  C    -43.117200   55.458000  101.098000
  C    -43.652800   54.206600  101.512000
  H    -43.796500   57.100100   99.716000
  C    -41.900200   56.078800  101.701000
  H    -41.381300   56.599300  100.858000
  H    -41.185200   55.381800  101.997000
  C    -42.137700   57.035600  102.902000
  H    -42.645400   56.492200  103.635000
  H    -42.941300   57.654900  102.609000
  C    -40.985800   57.875000  103.484000
  H    -40.384500   58.150200  102.629000
  H    -40.272300   57.234300  103.962000
  H    -41.087600   58.750500  104.155000
  H    -42.632900   49.866000  103.960000
  H    -45.900400   55.787000   99.203800

 Total Charge           Charge          ....    0
 Multiplicity           Mult            ....    1
 Number of Electrons    NEL             ....  134
 Basis Dimension        Dim             ....  322

ORBITAL ENERGIES
----------------

  NO   OCC          E(Eh)            E(eV)
   0   2.0000     -88.975150     -2421.1369
   1   2.0000     -88.969794     -2420.9912
   2   2.0000     -10.339018      -281.3390
   3   2.0000     -10.336897      -281.2813
   4   2.0000     -10.329193      -281.0716
   5   2.0000     -10.320950      -280.8473
   6   2.0000     -10.309852      -280.5453
   7   2.0000     -10.302167      -280.3362
   8   2.0000     -10.302086      -280.3340
   9   2.0000     -10.297452      -280.2079
  10   2.0000     -10.295346      -280.1506
  11   2.0000     -10.291345      -280.0417
  12   2.0000     -10.285493      -279.8825
  13   2.0000     -10.281359      -279.7700
  14   2.0000     -10.280789      -279.7545
  15   2.0000     -10.274926      -279.5949
  16   2.0000      -8.089112      -220.1159
  17   2.0000      -8.083424      -219.9611
  18   2.0000      -6.047585      -164.5631
  19   2.0000      -6.043754      -164.4589
  20   2.0000      -6.042139      -164.4150
  21   2.0000      -6.039927      -164.3548
  22   2.0000      -6.038077      -164.3044
  23   2.0000      -6.034025      -164.1942
  24   2.0000      -1.004891       -27.3445
  25   2.0000      -0.981314       -26.7029
  26   2.0000      -0.913386       -24.8545
  27   2.0000      -0.909166       -24.7397
  28   2.0000      -0.868954       -23.6454
  29   2.0000      -0.853219       -23.2173
  30   2.0000      -0.840772       -22.8786
  31   2.0000      -0.813151       -22.1270
  32   2.0000      -0.783735       -21.3265
  33   2.0000      -0.774277       -21.0692
  34   2.0000      -0.716889       -19.5075
  35   2.0000      -0.701140       -19.0790
  36   2.0000      -0.694887       -18.9088
  37   2.0000      -0.665205       -18.1011
  38   2.0000      -0.636187       -17.3115
  39   2.0000      -0.622591       -16.9416
  40   2.0000      -0.597610       -16.2618
  41   2.0000      -0.570618       -15.5273
  42   2.0000      -0.557465       -15.1694
  43   2.0000      -0.548941       -14.9374
  44   2.0000      -0.542385       -14.7591
  45   2.0000      -0.523729       -14.2514
  46   2.0000      -0.520904       -14.1745
  47   2.0000      -0.513885       -13.9835
  48   2.0000      -0.499919       -13.6035
  49   2.0000      -0.497190       -13.5292
  50   2.0000      -0.486066       -13.2265
  51   2.0000      -0.482169       -13.1205
  52   2.0000      -0.469187       -12.7672
  53   2.0000      -0.463217       -12.6048
  54   2.0000      -0.461958       -12.5705
  55   2.0000      -0.455643       -12.3987
  56   2.0000      -0.449377       -12.2282
  57   2.0000      -0.435906       -11.8616
  58   2.0000      -0.431477       -11.7411
  59   2.0000      -0.430509       -11.7148
  60   2.0000      -0.423399       -11.5213
  61   2.0000      -0.415921       -11.3178
  62   2.0000      -0.411385       -11.1944
  63   2.0000      -0.356510        -9.7011
  64   2.0000      -0.339373        -9.2348
  65   2.0000      -0.334085        -9.0909
  66   2.0000      -0.282783        -7.6949
  67   0.0000       0.014099         0.3837
  68   0.0000       0.070620         1.9217
  69   0.0000       0.091707         2.4955
  70   0.0000       0.118068         3.2128
  71   0.0000       0.128994         3.5101

MULLIKEN ATOMIC CHARGES
-----------------------
   0 S :    0.082354
   1 C :   -0.116513
   2 C :   -0.080392
   3 C :   -0.017125
   4 C :   -0.099664
   5 H :    0.026729
   6 C :    0.033627
   7 H :    0.048680
   8 H :    0.007665
   9 C :   -0.047841
  10 H :    0.025560
  11 H :    0.029035
  12 C :   -0.063082
  13 H :    0.037610
  14 H :    0.029523
  15 H :    0.030019
  16 S :    0.109231
  17 C :   -0.116018
  18 C :   -0.020382
  19 C :   -0.058354
  20 C :   -0.124496
  21 H :    0.021138
  22 C :    0.058714
  23 H :    0.021235
  24 H :    0.004039
  25 C :   -0.012070
  26 H :    0.001833
  27 H :    0.000982
  28 C :   -0.020054
  29 H :    0.014240
  30 H :    0.010081
  31 H :    0.055522
  32 H :    0.054067
  33 H :    0.074108
Sum of atomic charges:    0.0000000

LOEWDIN ATOMIC CHARGES
----------------------
   0 S :    0.380677
   1 C :   -0.184408
   2 C :   -0.066959
   3 C :   -0.081679
   4 C :   -0.180658
   5 H :    0.036326
   6 C :   -0.031344
   7 H :    0.035411
   8 H :    0.026546
   9 C :   -0.036664
  10 H :    0.020615
  11 H :    0.023023
  12 C :   -0.066208
  13 H :    0.028657
  14 H :    0.024269
  15 H :    0.023225
  16 S :    0.405564
  17 C :   -0.183431
  18 C :   -0.060215
  19 C :   -0.055496
  20 C :   -0.195448
  21 H :    0.033857
  22 C :   -0.029311
  23 H :    0.034221
  24 H :    0.016846
  25 C :   -0.037108
  26 H :    0.014812
  27 H :    0.020136
  28 C :   -0.071904
  29 H :    0.026058
  30 H :    0.021106
  31 H :    0.037135
  32 H :    0.034394
  33 H :    0.037955

  Mayer bond orders larger than 0.100000
B(  0-S ,  1-C ) :   1.1173 B(  0-S ,  4-C ) :   1.1532 B(  1-C ,  2-C ) :   1.6113
B(  1-C ,  4-C ) :   0.1060 B(  1-C , 32-H ) :   0.9621 B(  2-C ,  3-C ) :   1.2719
B(  2-C ,  6-C ) :   1.0122 B(  3-C ,  4-C ) :   1.5473 B(  3-C ,  5-H ) :   0.9798
B(  4-C , 20-C ) :   1.0569 B(  6-C ,  7-H ) :   0.9498 B(  6-C ,  8-H ) :   0.9410
B(  6-C ,  9-C ) :   1.0718 B(  9-C , 10-H ) :   0.9538 B(  9-C , 11-H ) :   0.9560
B(  9-C , 12-C ) :   1.0771 B( 12-C , 13-H ) :   0.9733 B( 12-C , 14-H ) :   0.9730
B( 12-C , 15-H ) :   0.9774 B( 16-S , 17-C ) :   1.1511 B( 16-S , 20-C ) :   1.1504
B( 17-C , 18-C ) :   1.5916 B( 17-C , 20-C ) :   0.1034 B( 17-C , 33-H ) :   0.9616
B( 18-C , 19-C ) :   1.2605 B( 18-C , 21-H ) :   0.9929 B( 19-C , 20-C ) :   1.5484
B( 19-C , 22-C ) :   1.0731 B( 22-C , 23-H ) :   0.9226 B( 22-C , 24-H ) :   0.9249
B( 22-C , 25-C ) :   1.0552 B( 25-C , 26-H ) :   0.9488 B( 25-C , 27-H ) :   0.9474
B( 25-C , 28-C ) :   1.0614 B( 28-C , 29-H ) :   0.9710 B( 28-C , 30-H ) :   0.9713
B( 28-C , 31-H ) :   0.9773

Dispersion correction           -0.014317880
FINAL SINGLE POINT ENERGY     -1339.867034183960

DIPOLE MOMENT
-------------
                                X             Y             Z
Electronic contribution:    -16.68215     -12.59106     -21.61756
Nuclear contribution   :     17.01854      13.04411      21.96125
                        -----------------------------------------
Total Dipole Moment    :      0.33639       0.45305       0.34369
                        -----------------------------------------
Magnitude (a.u.)       :      0.66071
Magnitude (Debye)      :      1.67939

Rotational constants in cm-1:     0.016827     0.009705     0.006733
Rotational constants in MHz :   504.470604   290.960162   201.835838

                             ****ORCA TERMINATED NORMALLY****
TOTAL RUN TIME: 0 days 0 hours 0 minutes 30 seconds 159 msec
