                         Program Version 4.2.1 -  RELEASE  -
|  1> ! wB97X-D3 SP def2-SVP
|  2> %pal
|  3> nprocs 16
|  4> end
|  5>
|  6> * xyz 0 1
|  7> S 	 -90.1492 	 41.8299 	 113.665
|  8> C 	 -89.3167 	 43.253 	 113.065
|  9> C 	 -90.0195 	 44.4107 	 113.305
| 10> C 	 -91.1438 	 44.174 	 114.201
| 11> C 	 -91.4042 	 42.8216 	 114.426
| 12> H 	 -91.8248 	 44.8986 	 114.532
| 13> C 	 -89.566 	 45.8411 	 112.92
| 14> H 	 -89.8682 	 46.589 	 113.677
| 15> H 	 -90.1068 	 45.9764 	 111.959
| 16> C 	 -88.0629 	 45.9363 	 112.86
| 17> H 	 -87.5969 	 45.2383 	 112.256
| 18> H 	 -87.9367 	 46.9328 	 112.418
| 19> C 	 -87.3738 	 45.8748 	 114.185
| 20> H 	 -86.3374 	 46.1369 	 113.964
| 21> H 	 -87.6597 	 46.6116 	 114.992
| 22> H 	 -87.3017 	 44.867 	 114.559
| 23> S 	 -93.2874 	 40.9468 	 114.03
| 24> C 	 -94.6452 	 40.7287 	 115.177
| 25> C 	 -94.4842 	 41.5506 	 116.244
| 26> C 	 -93.2887 	 42.3341 	 116.214
| 27> C 	 -92.5842 	 42.1658 	 115.051
| 28> H 	 -95.2809 	 41.595 	 117.003
| 29> C 	 -92.9322 	 43.3259 	 117.304
| 30> H 	 -91.8515 	 43.474 	 117.094
| 31> H 	 -92.9143 	 42.7316 	 118.261
| 32> C 	 -93.8026 	 44.5621 	 117.509
| 33> H 	 -94.7065 	 44.3299 	 118.138
| 34> H 	 -94.1946 	 44.926 	 116.532
| 35> C 	 -93.0079 	 45.7358 	 118.244
| 36> H 	 -92.4205 	 45.2908 	 119.134
| 37> H 	 -93.6296 	 46.5457 	 118.57
| 38> H 	 -92.3139 	 46.165 	 117.59
| 39> H 	 -88.3122 	 43.3532 	 112.552
| 40> H 	 -95.4787 	 40.0113 	 114.996
| 41> *
| 42>
| 43>                          ****END OF INPUT****

CARTESIAN COORDINATES (ANGSTROEM)
---------------------------------
  S    -90.149200   41.829900  113.665000
  C    -89.316700   43.253000  113.065000
  C    -90.019500   44.410700  113.305000
  C    -91.143800   44.174000  114.201000
  C    -91.404200   42.821600  114.426000
  H    -91.824800   44.898600  114.532000
  C    -89.566000   45.841100  112.920000
  H    -89.868200   46.589000  113.677000
  H    -90.106800   45.976400  111.959000
  C    -88.062900   45.936300  112.860000
  H    -87.596900   45.238300  112.256000
  H    -87.936700   46.932800  112.418000
  C    -87.373800   45.874800  114.185000
  H    -86.337400   46.136900  113.964000
  H    -87.659700   46.611600  114.992000
  H    -87.301700   44.867000  114.559000
  S    -93.287400   40.946800  114.030000
  C    -94.645200   40.728700  115.177000
  C    -94.484200   41.550600  116.244000
  C    -93.288700   42.334100  116.214000
  C    -92.584200   42.165800  115.051000
  H    -95.280900   41.595000  117.003000
  C    -92.932200   43.325900  117.304000
  H    -91.851500   43.474000  117.094000
  H    -92.914300   42.731600  118.261000
  C    -93.802600   44.562100  117.509000
  H    -94.706500   44.329900  118.138000
  H    -94.194600   44.926000  116.532000
  C    -93.007900   45.735800  118.244000
  H    -92.420500   45.290800  119.134000
  H    -93.629600   46.545700  118.570000
  H    -92.313900   46.165000  117.590000
  H    -88.312200   43.353200  112.552000
  H    -95.478700   40.011300  114.996000

 Total Charge           Charge          ....    0
 Multiplicity           Mult            ....    1
 Number of Electrons    NEL             ....  134
 Basis Dimension        Dim             ....  322

ORBITAL ENERGIES
----------------

  NO   OCC          E(Eh)            E(eV)
   0   2.0000     -88.967564     -2420.9305
   1   2.0000     -88.961118     -2420.7551
   2   2.0000     -10.335249      -281.2364
   3   2.0000     -10.327469      -281.0247
   4   2.0000     -10.319753      -280.8148
   5   2.0000     -10.316642      -280.7301
   6   2.0000     -10.301534      -280.3190
   7   2.0000     -10.300853      -280.3005
   8   2.0000     -10.298933      -280.2482
   9   2.0000     -10.297489      -280.2089
  10   2.0000     -10.294596      -280.1302
  11   2.0000     -10.294302      -280.1222
  12   2.0000     -10.293761      -280.1075
  13   2.0000     -10.283199      -279.8201
  14   2.0000     -10.281870      -279.7839
  15   2.0000     -10.277896      -279.6758
  16   2.0000      -8.081571      -219.9107
  17   2.0000      -8.075833      -219.7546
  18   2.0000      -6.040274      -164.3642
  19   2.0000      -6.036145      -164.2519
  20   2.0000      -6.034414      -164.2048
  21   2.0000      -6.032191      -164.1442
  22   2.0000      -6.030366      -164.0946
  23   2.0000      -6.026468      -163.9885
  24   2.0000      -1.004350       -27.3297
  25   2.0000      -0.980871       -26.6909
  26   2.0000      -0.920632       -25.0517
  27   2.0000      -0.901506       -24.5312
  28   2.0000      -0.867901       -23.6168
  29   2.0000      -0.847454       -23.0604
  30   2.0000      -0.842324       -22.9208
  31   2.0000      -0.814658       -22.1680
  32   2.0000      -0.782822       -21.3017
  33   2.0000      -0.771404       -20.9910
  34   2.0000      -0.705857       -19.2073
  35   2.0000      -0.702632       -19.1196
  36   2.0000      -0.691922       -18.8282
  37   2.0000      -0.660790       -17.9810
  38   2.0000      -0.631635       -17.1877
  39   2.0000      -0.609935       -16.5972
  40   2.0000      -0.593765       -16.1572
  41   2.0000      -0.583746       -15.8845
  42   2.0000      -0.560557       -15.2535
  43   2.0000      -0.556841       -15.1524
  44   2.0000      -0.536386       -14.5958
  45   2.0000      -0.525989       -14.3129
  46   2.0000      -0.514697       -14.0056
  47   2.0000      -0.512025       -13.9329
  48   2.0000      -0.503761       -13.7080
  49   2.0000      -0.489067       -13.3082
  50   2.0000      -0.484611       -13.1869
  51   2.0000      -0.478305       -13.0153
  52   2.0000      -0.472604       -12.8602
  53   2.0000      -0.466159       -12.6848
  54   2.0000      -0.457166       -12.4401
  55   2.0000      -0.449542       -12.2327
  56   2.0000      -0.444792       -12.1034
  57   2.0000      -0.441958       -12.0263
  58   2.0000      -0.434620       -11.8266
  59   2.0000      -0.426845       -11.6151
  60   2.0000      -0.415671       -11.3110
  61   2.0000      -0.414478       -11.2785
  62   2.0000      -0.405977       -11.0472
  63   2.0000      -0.350734        -9.5440
  64   2.0000      -0.328765        -8.9462
  65   2.0000      -0.328483        -8.9385
  66   2.0000      -0.293940        -7.9985
  67   0.0000       0.034257         0.9322
  68   0.0000       0.069672         1.8959
  69   0.0000       0.108537         2.9534
  70   0.0000       0.122728         3.3396
  71   0.0000       0.126986         3.4555

MULLIKEN ATOMIC CHARGES
-----------------------
   0 S :    0.113529
   1 C :   -0.135555
   2 C :   -0.131633
   3 C :    0.056004
   4 C :   -0.149433
   5 H :   -0.010081
   6 C :    0.078082
   7 H :    0.033261
   8 H :    0.054250
   9 C :   -0.070826
  10 H :    0.010419
  11 H :    0.026944
  12 C :   -0.050660
  13 H :    0.024491
  14 H :    0.041519
  15 H :    0.036690
  16 S :    0.085171
  17 C :   -0.111506
  18 C :   -0.028702
  19 C :   -0.051359
  20 C :   -0.141975
  21 H :    0.026188
  22 C :    0.039331
  23 H :    0.034708
  24 H :    0.035105
  25 C :   -0.075069
  26 H :    0.040438
  27 H :    0.039057
  28 C :   -0.057798
  29 H :    0.044187
  30 H :    0.034101
  31 H :    0.023705
  32 H :    0.064244
  33 H :    0.073172
Sum of atomic charges:    0.0000000

LOEWDIN ATOMIC CHARGES
----------------------
   0 S :    0.395520
   1 C :   -0.216926
   2 C :   -0.064329
   3 C :   -0.057303
   4 C :   -0.185300
   5 H :    0.021121
   6 C :   -0.029710
   7 H :    0.034007
   8 H :    0.040922
   9 C :   -0.042589
  10 H :    0.012127
  11 H :    0.029840
  12 C :   -0.066554
  13 H :    0.029179
  14 H :    0.031802
  15 H :    0.024423
  16 S :    0.386433
  17 C :   -0.176148
  18 C :   -0.072615
  19 C :   -0.067406
  20 C :   -0.194992
  21 H :    0.036389
  22 C :   -0.044815
  23 H :    0.035925
  24 H :    0.038589
  25 C :   -0.043465
  26 H :    0.029472
  27 H :    0.024873
  28 C :   -0.063102
  29 H :    0.035978
  30 H :    0.022550
  31 H :    0.014963
  32 H :    0.042413
  33 H :    0.038728

  Mayer bond orders larger than 0.100000
B(  0-S ,  1-C ) :   1.1192 B(  0-S ,  4-C ) :   1.1434 B(  1-C ,  2-C ) :   1.6528
B(  1-C , 32-H ) :   0.9512 B(  2-C ,  3-C ) :   1.2234 B(  2-C ,  6-C ) :   0.9903
B(  3-C ,  4-C ) :   1.5885 B(  3-C ,  5-H ) :   1.0011 B(  4-C , 20-C ) :   1.0047
B(  6-C ,  7-H ) :   0.9523 B(  6-C ,  8-H ) :   0.9312 B(  6-C ,  9-C ) :   1.0856
B(  9-C , 10-H ) :   0.9492 B(  9-C , 11-H ) :   0.9495 B(  9-C , 12-C ) :   1.0877
B( 12-C , 13-H ) :   0.9686 B( 12-C , 14-H ) :   0.9726 B( 12-C , 15-H ) :   0.9709
B( 16-S , 17-C ) :   1.1299 B( 16-S , 20-C ) :   1.1398 B( 17-C , 18-C ) :   1.6406
B( 17-C , 33-H ) :   0.9645 B( 18-C , 19-C ) :   1.2047 B( 18-C , 21-H ) :   0.9893
B( 19-C , 20-C ) :   1.6335 B( 19-C , 22-C ) :   1.0494 B( 22-C , 23-H ) :   0.9408
B( 22-C , 24-H ) :   0.9256 B( 22-C , 25-C ) :   1.0421 B( 25-C , 26-H ) :   0.9527
B( 25-C , 27-H ) :   0.9633 B( 25-C , 28-C ) :   1.0710 B( 28-C , 29-H ) :   0.9757
B( 28-C , 30-H ) :   0.9767 B( 28-C , 31-H ) :   0.9797

Dispersion correction           -0.014176404
FINAL SINGLE POINT ENERGY     -1339.873569015223

DIPOLE MOMENT
-------------
                                X             Y             Z
Electronic contribution:     -7.80990     -25.25715     -11.41631
Nuclear contribution   :      7.78719      25.95882      11.62503
                        -----------------------------------------
Total Dipole Moment    :     -0.02272       0.70167       0.20872
                        -----------------------------------------
Magnitude (a.u.)       :      0.73241
Magnitude (Debye)      :      1.86163

Rotational constants in cm-1:     0.018659     0.008803     0.006430
Rotational constants in MHz :   559.388643   263.906834   192.777247

                             ****ORCA TERMINATED NORMALLY****
TOTAL RUN TIME: 0 days 0 hours 0 minutes 32 seconds 816 msec
