                         Program Version 4.2.1 -  RELEASE  -
|  1> ! wB97X-D3 SP def2-SVP
|  2> %pal
|  3> nprocs 16
|  4> end
|  5>
|  6> * xyz 0 1
|  7> S 	 46.8151 	 17.7028 	 82.1852
|  8> C 	 46.1616 	 19.0285 	 81.2554
|  9> C 	 47.1277 	 19.6705 	 80.494
| 10> C 	 48.3661 	 18.9722 	 80.5015
| 11> C 	 48.3312 	 17.8654 	 81.3431
| 12> H 	 49.2959 	 19.1933 	 79.8895
| 13> C 	 46.8456 	 20.9637 	 79.8025
| 14> H 	 45.9011 	 21.3907 	 80.1547
| 15> H 	 46.6563 	 20.6057 	 78.8021
| 16> C 	 47.9955 	 22.0547 	 79.7409
| 17> H 	 48.8271 	 21.6285 	 79.2094
| 18> H 	 47.5858 	 22.9482 	 79.1577
| 19> C 	 48.4866 	 22.4578 	 81.2124
| 20> H 	 47.8423 	 23.2142 	 81.7092
| 21> H 	 48.7693 	 21.6501 	 81.931
| 22> H 	 49.4561 	 22.9425 	 81.1362
| 23> S 	 49.5099 	 15.4628 	 81.0481
| 24> C 	 50.9904 	 15.1182 	 81.7789
| 25> C 	 51.4227 	 16.235 	 82.5419
| 26> C 	 50.5461 	 17.3313 	 82.4652
| 27> C 	 49.451 	 17.0628 	 81.694
| 28> H 	 52.3585 	 16.2111 	 83.1112
| 29> C 	 50.8296 	 18.6181 	 83.1703
| 30> H 	 49.9381 	 19.2185 	 83.4396
| 31> H 	 51.3115 	 19.1524 	 82.4104
| 32> C 	 51.7538 	 18.6477 	 84.4311
| 33> H 	 52.1053 	 19.6138 	 84.5675
| 34> H 	 52.7275 	 18.1385 	 84.3617
| 35> C 	 50.911 	 18.1251 	 85.667
| 36> H 	 50.3895 	 17.1422 	 85.5579
| 37> H 	 50.24 	 18.9313 	 86.0171
| 38> H 	 51.6231 	 17.9339 	 86.4417
| 39> H 	 45.2631 	 19.5387 	 81.5321
| 40> H 	 51.561 	 14.2461 	 81.7806
| 41> *
| 42>
| 43>                          ****END OF INPUT****

CARTESIAN COORDINATES (ANGSTROEM)
---------------------------------
  S     46.815100   17.702800   82.185200
  C     46.161600   19.028500   81.255400
  C     47.127700   19.670500   80.494000
  C     48.366100   18.972200   80.501500
  C     48.331200   17.865400   81.343100
  H     49.295900   19.193300   79.889500
  C     46.845600   20.963700   79.802500
  H     45.901100   21.390700   80.154700
  H     46.656300   20.605700   78.802100
  C     47.995500   22.054700   79.740900
  H     48.827100   21.628500   79.209400
  H     47.585800   22.948200   79.157700
  C     48.486600   22.457800   81.212400
  H     47.842300   23.214200   81.709200
  H     48.769300   21.650100   81.931000
  H     49.456100   22.942500   81.136200
  S     49.509900   15.462800   81.048100
  C     50.990400   15.118200   81.778900
  C     51.422700   16.235000   82.541900
  C     50.546100   17.331300   82.465200
  C     49.451000   17.062800   81.694000
  H     52.358500   16.211100   83.111200
  C     50.829600   18.618100   83.170300
  H     49.938100   19.218500   83.439600
  H     51.311500   19.152400   82.410400
  C     51.753800   18.647700   84.431100
  H     52.105300   19.613800   84.567500
  H     52.727500   18.138500   84.361700
  C     50.911000   18.125100   85.667000
  H     50.389500   17.142200   85.557900
  H     50.240000   18.931300   86.017100
  H     51.623100   17.933900   86.441700
  H     45.263100   19.538700   81.532100
  H     51.561000   14.246100   81.780600

 Total Charge           Charge          ....    0
 Multiplicity           Mult            ....    1
 Number of Electrons    NEL             ....  134
 Basis Dimension        Dim             ....  322

ORBITAL ENERGIES
----------------

  NO   OCC          E(Eh)            E(eV)
   0   2.0000     -88.965113     -2420.8638
   1   2.0000     -88.963565     -2420.8217
   2   2.0000     -10.322607      -280.8924
   3   2.0000     -10.311093      -280.5791
   4   2.0000     -10.308921      -280.5200
   5   2.0000     -10.305255      -280.4202
   6   2.0000     -10.304652      -280.4038
   7   2.0000     -10.298770      -280.2438
   8   2.0000     -10.298391      -280.2335
   9   2.0000     -10.296019      -280.1689
  10   2.0000     -10.291603      -280.0488
  11   2.0000     -10.289008      -279.9781
  12   2.0000     -10.288546      -279.9656
  13   2.0000     -10.286945      -279.9220
  14   2.0000     -10.285391      -279.8797
  15   2.0000     -10.279606      -279.7223
  16   2.0000      -8.079940      -219.8663
  17   2.0000      -8.079597      -219.8570
  18   2.0000      -6.038266      -164.3096
  19   2.0000      -6.037859      -164.2985
  20   2.0000      -6.034532      -164.2080
  21   2.0000      -6.033740      -164.1864
  22   2.0000      -6.030793      -164.1062
  23   2.0000      -6.030732      -164.1046
  24   2.0000      -1.012591       -27.5540
  25   2.0000      -0.986506       -26.8442
  26   2.0000      -0.907375       -24.6909
  27   2.0000      -0.905160       -24.6307
  28   2.0000      -0.866763       -23.5858
  29   2.0000      -0.848302       -23.0835
  30   2.0000      -0.840858       -22.8809
  31   2.0000      -0.810827       -22.0637
  32   2.0000      -0.783383       -21.3169
  33   2.0000      -0.771019       -20.9805
  34   2.0000      -0.714209       -19.4346
  35   2.0000      -0.706534       -19.2258
  36   2.0000      -0.692895       -18.8546
  37   2.0000      -0.657801       -17.8997
  38   2.0000      -0.636330       -17.3154
  39   2.0000      -0.616937       -16.7877
  40   2.0000      -0.598515       -16.2864
  41   2.0000      -0.562698       -15.3118
  42   2.0000      -0.555149       -15.1064
  43   2.0000      -0.548723       -14.9315
  44   2.0000      -0.533653       -14.5214
  45   2.0000      -0.528728       -14.3874
  46   2.0000      -0.520772       -14.1709
  47   2.0000      -0.508637       -13.8407
  48   2.0000      -0.501971       -13.6593
  49   2.0000      -0.488483       -13.2923
  50   2.0000      -0.486648       -13.2424
  51   2.0000      -0.475696       -12.9443
  52   2.0000      -0.470027       -12.7901
  53   2.0000      -0.466564       -12.6959
  54   2.0000      -0.459436       -12.5019
  55   2.0000      -0.450931       -12.2704
  56   2.0000      -0.446978       -12.1629
  57   2.0000      -0.433869       -11.8062
  58   2.0000      -0.432307       -11.7637
  59   2.0000      -0.427968       -11.6456
  60   2.0000      -0.419993       -11.4286
  61   2.0000      -0.418677       -11.3928
  62   2.0000      -0.416570       -11.3354
  63   2.0000      -0.334423        -9.1001
  64   2.0000      -0.326619        -8.8877
  65   2.0000      -0.320414        -8.7189
  66   2.0000      -0.300877        -8.1873
  67   0.0000       0.044017         1.1978
  68   0.0000       0.059582         1.6213
  69   0.0000       0.117704         3.2029
  70   0.0000       0.131165         3.5692
  71   0.0000       0.135695         3.6925

MULLIKEN ATOMIC CHARGES
-----------------------
   0 S :    0.123336
   1 C :   -0.109469
   2 C :   -0.110275
   3 C :    0.017912
   4 C :   -0.179287
   5 H :    0.041368
   6 C :    0.076899
   7 H :    0.018117
   8 H :    0.038243
   9 C :   -0.079463
  10 H :    0.033721
  11 H :    0.054453
  12 C :   -0.090515
  13 H :    0.042746
  14 H :    0.051674
  15 H :    0.023514
  16 S :    0.140103
  17 C :   -0.058217
  18 C :   -0.081907
  19 C :    0.027082
  20 C :   -0.228751
  21 H :    0.017725
  22 C :    0.071013
  23 H :    0.041189
  24 H :    0.018472
  25 C :   -0.048429
  26 H :    0.006901
  27 H :    0.021578
  28 C :   -0.070436
  29 H :    0.055129
  30 H :    0.043780
  31 H :    0.021040
  32 H :    0.040419
  33 H :    0.030336
Sum of atomic charges:    0.0000000

LOEWDIN ATOMIC CHARGES
----------------------
   0 S :    0.416376
   1 C :   -0.207452
   2 C :   -0.060565
   3 C :   -0.067056
   4 C :   -0.201896
   5 H :    0.044830
   6 C :   -0.035163
   7 H :    0.028447
   8 H :    0.036018
   9 C :   -0.035089
  10 H :    0.019568
  11 H :    0.038993
  12 C :   -0.083202
  13 H :    0.028689
  14 H :    0.033571
  15 H :    0.023839
  16 S :    0.455599
  17 C :   -0.201795
  18 C :   -0.077675
  19 C :   -0.052462
  20 C :   -0.228775
  21 H :    0.030200
  22 C :   -0.029783
  23 H :    0.037092
  24 H :    0.028192
  25 C :   -0.034391
  26 H :    0.017287
  27 H :    0.022491
  28 C :   -0.069570
  29 H :    0.034749
  30 H :    0.029421
  31 H :    0.019448
  32 H :    0.020995
  33 H :    0.019069

  Mayer bond orders larger than 0.100000
B(  0-S ,  1-C ) :   1.1346 B(  0-S ,  4-C ) :   1.1755 B(  1-C ,  2-C ) :   1.6181
B(  1-C , 32-H ) :   0.9628 B(  2-C ,  3-C ) :   1.2346 B(  2-C ,  6-C ) :   1.0144
B(  3-C ,  4-C ) :   1.5727 B(  3-C ,  5-H ) :   0.9847 B(  4-C , 20-C ) :   1.0254
B(  6-C ,  7-H ) :   0.9436 B(  6-C ,  8-H ) :   0.9311 B(  6-C ,  9-C ) :   1.0700
B(  9-C , 10-H ) :   0.9549 B(  9-C , 11-H ) :   0.9585 B(  9-C , 12-C ) :   1.0611
B( 12-C , 13-H ) :   0.9787 B( 12-C , 14-H ) :   0.9741 B( 12-C , 15-H ) :   0.9759
B( 16-S , 17-C ) :   1.1936 B( 16-S , 20-C ) :   1.1643 B( 17-C , 18-C ) :   1.5513
B( 17-C , 20-C ) :   0.1092 B( 17-C , 33-H ) :   0.9750 B( 18-C , 19-C ) :   1.2834
B( 18-C , 21-H ) :   0.9855 B( 19-C , 20-C ) :   1.5718 B( 19-C , 22-C ) :   1.0290
B( 22-C , 23-H ) :   0.9343 B( 22-C , 24-H ) :   0.9165 B( 22-C , 25-C ) :   1.0880
B( 25-C , 26-H ) :   0.9482 B( 25-C , 27-H ) :   0.9533 B( 25-C , 28-C ) :   1.0644
B( 28-C , 29-H ) :   0.9791 B( 28-C , 30-H ) :   0.9766 B( 28-C , 31-H ) :   0.9767

Dispersion correction           -0.015207483
FINAL SINGLE POINT ENERGY     -1339.869582891083

DIPOLE MOMENT
-------------
                                X             Y             Z
Electronic contribution:     -9.18612     -23.17645      -7.64401
Nuclear contribution   :      9.63422      23.84679       7.74385
                        -----------------------------------------
Total Dipole Moment    :      0.44810       0.67034       0.09985
                        -----------------------------------------
Magnitude (a.u.)       :      0.81247
Magnitude (Debye)      :      2.06514

Rotational constants in cm-1:     0.018195     0.009333     0.007591
Rotational constants in MHz :   545.460492   279.797084   227.565217

                             ****ORCA TERMINATED NORMALLY****
TOTAL RUN TIME: 0 days 0 hours 0 minutes 29 seconds 519 msec
