                         Program Version 4.2.1 -  RELEASE  -
|  1> ! wB97X-D3 SP def2-SVP
|  2> %pal
|  3> nprocs 16
|  4> end
|  5>
|  6> * xyz 0 1
|  7> S 	 -13.5402 	 -2.61618 	 84.0766
|  8> C 	 -12.4464 	 -2.44142 	 82.7595
|  9> C 	 -11.8456 	 -3.63645 	 82.443
| 10> C 	 -12.4119 	 -4.71968 	 83.236
| 11> C 	 -13.3694 	 -4.3174 	 84.1341
| 12> H 	 -12.257 	 -5.76559 	 83.1318
| 13> C 	 -10.7038 	 -3.77159 	 81.4766
| 14> H 	 -9.89105 	 -4.50235 	 81.6782
| 15> H 	 -10.299 	 -2.76483 	 81.4684
| 16> C 	 -11.1844 	 -3.97915 	 80.015
| 17> H 	 -12.2084 	 -3.57575 	 79.8604
| 18> H 	 -10.4965 	 -3.43812 	 79.3446
| 19> C 	 -11.0507 	 -5.46183 	 79.4996
| 20> H 	 -11.9381 	 -6.01366 	 79.7644
| 21> H 	 -10.9132 	 -5.48322 	 78.3931
| 22> H 	 -10.0861 	 -5.86114 	 79.7369
| 23> S 	 -15.0879 	 -6.48082 	 84.3945
| 24> C 	 -15.7456 	 -6.86781 	 85.9499
| 25> C 	 -15.2962 	 -5.97506 	 87.0085
| 26> C 	 -14.4323 	 -4.97603 	 86.4216
| 27> C 	 -14.1631 	 -5.18727 	 85.0282
| 28> H 	 -15.6886 	 -6.10517 	 88.0329
| 29> C 	 -13.9119 	 -3.75326 	 87.2243
| 30> H 	 -13.0575 	 -3.34834 	 86.6941
| 31> H 	 -13.5859 	 -3.96419 	 88.1738
| 32> C 	 -14.9196 	 -2.64979 	 87.5051
| 33> H 	 -15.6481 	 -2.9747 	 88.1987
| 34> H 	 -15.4435 	 -2.32136 	 86.6624
| 35> C 	 -14.1777 	 -1.45975 	 88.1978
| 36> H 	 -14.7072 	 -0.553547 	 88.1348
| 37> H 	 -13.2551 	 -1.12135 	 87.7173
| 38> H 	 -14.0157 	 -1.56827 	 89.3166
| 39> H 	 -12.1635 	 -1.49434 	 82.3039
| 40> H 	 -16.3057 	 -7.66755 	 86.265
| 41> *
| 42>
| 43>                          ****END OF INPUT****

CARTESIAN COORDINATES (ANGSTROEM)
---------------------------------
  S    -13.540200   -2.616180   84.076600
  C    -12.446400   -2.441420   82.759500
  C    -11.845600   -3.636450   82.443000
  C    -12.411900   -4.719680   83.236000
  C    -13.369400   -4.317400   84.134100
  H    -12.257000   -5.765590   83.131800
  C    -10.703800   -3.771590   81.476600
  H     -9.891050   -4.502350   81.678200
  H    -10.299000   -2.764830   81.468400
  C    -11.184400   -3.979150   80.015000
  H    -12.208400   -3.575750   79.860400
  H    -10.496500   -3.438120   79.344600
  C    -11.050700   -5.461830   79.499600
  H    -11.938100   -6.013660   79.764400
  H    -10.913200   -5.483220   78.393100
  H    -10.086100   -5.861140   79.736900
  S    -15.087900   -6.480820   84.394500
  C    -15.745600   -6.867810   85.949900
  C    -15.296200   -5.975060   87.008500
  C    -14.432300   -4.976030   86.421600
  C    -14.163100   -5.187270   85.028200
  H    -15.688600   -6.105170   88.032900
  C    -13.911900   -3.753260   87.224300
  H    -13.057500   -3.348340   86.694100
  H    -13.585900   -3.964190   88.173800
  C    -14.919600   -2.649790   87.505100
  H    -15.648100   -2.974700   88.198700
  H    -15.443500   -2.321360   86.662400
  C    -14.177700   -1.459750   88.197800
  H    -14.707200   -0.553547   88.134800
  H    -13.255100   -1.121350   87.717300
  H    -14.015700   -1.568270   89.316600
  H    -12.163500   -1.494340   82.303900
  H    -16.305700   -7.667550   86.265000

 Total Charge           Charge          ....    0
 Multiplicity           Mult            ....    1
 Number of Electrons    NEL             ....  134
 Basis Dimension        Dim             ....  322

ORBITAL ENERGIES
----------------

  NO   OCC          E(Eh)            E(eV)
   0   2.0000     -88.976465     -2421.1727
   1   2.0000     -88.965713     -2420.8801
   2   2.0000     -10.329008      -281.0666
   3   2.0000     -10.326239      -280.9913
   4   2.0000     -10.316423      -280.7242
   5   2.0000     -10.312033      -280.6047
   6   2.0000     -10.310732      -280.5693
   7   2.0000     -10.305051      -280.4147
   8   2.0000     -10.302716      -280.3512
   9   2.0000     -10.293468      -280.0995
  10   2.0000     -10.290426      -280.0167
  11   2.0000     -10.289716      -279.9974
  12   2.0000     -10.279673      -279.7241
  13   2.0000     -10.277900      -279.6759
  14   2.0000     -10.276425      -279.6357
  15   2.0000     -10.274912      -279.5946
  16   2.0000      -8.090955      -220.1661
  17   2.0000      -8.081140      -219.8990
  18   2.0000      -6.049345      -164.6111
  19   2.0000      -6.045298      -164.5009
  20   2.0000      -6.042082      -164.4134
  21   2.0000      -6.039615      -164.3463
  22   2.0000      -6.035451      -164.2330
  23   2.0000      -6.031999      -164.1390
  24   2.0000      -1.009707       -27.4755
  25   2.0000      -0.984701       -26.7951
  26   2.0000      -0.909790       -24.7566
  27   2.0000      -0.907095       -24.6833
  28   2.0000      -0.865683       -23.5564
  29   2.0000      -0.848547       -23.0901
  30   2.0000      -0.842174       -22.9167
  31   2.0000      -0.814286       -22.1578
  32   2.0000      -0.782156       -21.2835
  33   2.0000      -0.770413       -20.9640
  34   2.0000      -0.705831       -19.2066
  35   2.0000      -0.698081       -18.9958
  36   2.0000      -0.693631       -18.8747
  37   2.0000      -0.663368       -18.0512
  38   2.0000      -0.642553       -17.4847
  39   2.0000      -0.615923       -16.7601
  40   2.0000      -0.595098       -16.1934
  41   2.0000      -0.578186       -15.7333
  42   2.0000      -0.568956       -15.4821
  43   2.0000      -0.548718       -14.9314
  44   2.0000      -0.538486       -14.6530
  45   2.0000      -0.523128       -14.2350
  46   2.0000      -0.507439       -13.8081
  47   2.0000      -0.506271       -13.7763
  48   2.0000      -0.501559       -13.6481
  49   2.0000      -0.500092       -13.6082
  50   2.0000      -0.487896       -13.2763
  51   2.0000      -0.482561       -13.1312
  52   2.0000      -0.474584       -12.9141
  53   2.0000      -0.463217       -12.6048
  54   2.0000      -0.461454       -12.5568
  55   2.0000      -0.449099       -12.2206
  56   2.0000      -0.441987       -12.0271
  57   2.0000      -0.434165       -11.8142
  58   2.0000      -0.428925       -11.6716
  59   2.0000      -0.426469       -11.6048
  60   2.0000      -0.425245       -11.5715
  61   2.0000      -0.415396       -11.3035
  62   2.0000      -0.407499       -11.0886
  63   2.0000      -0.345056        -9.3895
  64   2.0000      -0.333293        -9.0694
  65   2.0000      -0.325747        -8.8640
  66   2.0000      -0.291692        -7.9373
  67   0.0000       0.032563         0.8861
  68   0.0000       0.071506         1.9458
  69   0.0000       0.106584         2.9003
  70   0.0000       0.117179         3.1886
  71   0.0000       0.132901         3.6164

MULLIKEN ATOMIC CHARGES
-----------------------
   0 S :    0.115860
   1 C :   -0.117258
   2 C :   -0.093458
   3 C :    0.032076
   4 C :   -0.156869
   5 H :   -0.003503
   6 C :    0.084765
   7 H :    0.041290
   8 H :    0.016381
   9 C :   -0.102945
  10 H :    0.041527
  11 H :    0.026065
  12 C :   -0.053045
  13 H :    0.049420
  14 H :    0.026980
  15 H :    0.019233
  16 S :    0.150280
  17 C :   -0.074973
  18 C :   -0.064344
  19 C :   -0.033020
  20 C :   -0.140947
  21 H :    0.040683
  22 C :    0.083968
  23 H :    0.021910
  24 H :   -0.005377
  25 C :   -0.017757
  26 H :    0.017072
  27 H :    0.015512
  28 C :   -0.073590
  29 H :    0.012792
  30 H :    0.026899
  31 H :    0.040009
  32 H :    0.048674
  33 H :    0.025688
Sum of atomic charges:    0.0000000

LOEWDIN ATOMIC CHARGES
----------------------
   0 S :    0.442774
   1 C :   -0.208698
   2 C :   -0.061026
   3 C :   -0.064363
   4 C :   -0.205304
   5 H :    0.023887
   6 C :   -0.034972
   7 H :    0.036708
   8 H :    0.033041
   9 C :   -0.041056
  10 H :    0.027773
  11 H :    0.022773
  12 C :   -0.071015
  13 H :    0.024957
  14 H :    0.030189
  15 H :    0.020298
  16 S :    0.454198
  17 C :   -0.192453
  18 C :   -0.067234
  19 C :   -0.048374
  20 C :   -0.223544
  21 H :    0.039651
  22 C :   -0.030404
  23 H :    0.020560
  24 H :    0.019076
  25 C :   -0.025671
  26 H :    0.020372
  27 H :    0.011987
  28 C :   -0.072382
  29 H :    0.019109
  30 H :    0.025763
  31 H :    0.031906
  32 H :    0.030158
  33 H :    0.011314

  Mayer bond orders larger than 0.100000
B(  0-S ,  1-C ) :   1.1470 B(  0-S ,  4-C ) :   1.1587 B(  1-C ,  2-C ) :   1.6128
B(  1-C , 32-H ) :   0.9641 B(  2-C ,  3-C ) :   1.2206 B(  2-C ,  6-C ) :   1.0313
B(  3-C ,  4-C ) :   1.5816 B(  3-C ,  5-H ) :   1.0049 B(  4-C , 20-C ) :   1.0124
B(  6-C ,  7-H ) :   0.9510 B(  6-C ,  8-H ) :   0.9338 B(  6-C ,  9-C ) :   1.0507
B(  9-C , 10-H ) :   0.9605 B(  9-C , 11-H ) :   0.9618 B(  9-C , 12-C ) :   1.0779
B( 12-C , 13-H ) :   0.9797 B( 12-C , 14-H ) :   0.9756 B( 12-C , 15-H ) :   0.9727
B( 16-S , 17-C ) :   1.1850 B( 16-S , 20-C ) :   1.1660 B( 17-C , 18-C ) :   1.5614
B( 17-C , 20-C ) :   0.1086 B( 17-C , 33-H ) :   0.9740 B( 18-C , 19-C ) :   1.2804
B( 18-C , 21-H ) :   0.9855 B( 19-C , 20-C ) :   1.5316 B( 19-C , 22-C ) :   1.0458
B( 22-C , 23-H ) :   0.9363 B( 22-C , 24-H ) :   0.9322 B( 22-C , 25-C ) :   1.0626
B( 25-C , 26-H ) :   0.9527 B( 25-C , 27-H ) :   0.9562 B( 25-C , 28-C ) :   1.0784
B( 28-C , 29-H ) :   0.9724 B( 28-C , 30-H ) :   0.9746 B( 28-C , 31-H ) :   0.9758

Dispersion correction           -0.014133607
FINAL SINGLE POINT ENERGY     -1339.858427567142

DIPOLE MOMENT
-------------
                                X             Y             Z
Electronic contribution:    -10.25119      -7.90907       2.46783
Nuclear contribution   :     10.46731       8.00161      -2.47878
                        -----------------------------------------
Total Dipole Moment    :      0.21611       0.09255      -0.01095
                        -----------------------------------------
Magnitude (a.u.)       :      0.23535
Magnitude (Debye)      :      0.59821

Rotational constants in cm-1:     0.020944     0.008278     0.006244
Rotational constants in MHz :   627.880169   248.165265   187.178477

                             ****ORCA TERMINATED NORMALLY****
TOTAL RUN TIME: 0 days 0 hours 0 minutes 33 seconds 883 msec
