                         Program Version 4.2.1 -  RELEASE  -
|  1> ! wB97X-D3 SP def2-SVP
|  2> %pal
|  3> nprocs 16
|  4> end
|  5>
|  6> * xyz 0 1
|  7> S 	 -46.0774 	 51.4088 	 101.666
|  8> C 	 -45.7784 	 52.2904 	 103.158
|  9> C 	 -45.5251 	 51.5421 	 104.263
| 10> C 	 -45.4988 	 50.1293 	 103.915
| 11> C 	 -45.9019 	 49.8967 	 102.6
| 12> H 	 -45.4656 	 49.3203 	 104.638
| 13> C 	 -45.3171 	 52.0337 	 105.66
| 14> H 	 -44.6743 	 52.8751 	 105.56
| 15> H 	 -44.796 	 51.2109 	 106.159
| 16> C 	 -46.7141 	 52.5621 	 106.256
| 17> H 	 -46.9507 	 53.3768 	 105.659
| 18> H 	 -47.5313 	 51.81 	 106.081
| 19> C 	 -46.5283 	 53.1908 	 107.692
| 20> H 	 -46.0963 	 52.3872 	 108.289
| 21> H 	 -45.7376 	 53.9746 	 107.762
| 22> H 	 -47.3646 	 53.6427 	 108.188
| 23> S 	 -44.8837 	 47.9982 	 100.832
| 24> C 	 -45.8775 	 46.5598 	 100.607
| 25> C 	 -47.0472 	 46.5819 	 101.318
| 26> C 	 -47.1432 	 47.7354 	 102.137
| 27> C 	 -46.103 	 48.6286 	 101.988
| 28> H 	 -47.7341 	 45.7588 	 101.273
| 29> C 	 -48.3344 	 47.8828 	 103.105
| 30> H 	 -47.9414 	 48.2497 	 104.021
| 31> H 	 -48.5844 	 46.8351 	 103.322
| 32> C 	 -49.4784 	 48.6978 	 102.471
| 33> H 	 -49.7623 	 48.1859 	 101.554
| 34> H 	 -49.0645 	 49.6169 	 102.024
| 35> C 	 -50.7417 	 48.8318 	 103.332
| 36> H 	 -50.4666 	 49.2569 	 104.27
| 37> H 	 -51.267 	 47.9511 	 103.417
| 38> H 	 -51.4844 	 49.4569 	 102.894
| 39> H 	 -46.0051 	 53.3567 	 103.236
| 40> H 	 -45.6831 	 45.7837 	 99.868
| 41> *
| 42>
| 43>                          ****END OF INPUT****

CARTESIAN COORDINATES (ANGSTROEM)
---------------------------------
  S    -46.077400   51.408800  101.666000
  C    -45.778400   52.290400  103.158000
  C    -45.525100   51.542100  104.263000
  C    -45.498800   50.129300  103.915000
  C    -45.901900   49.896700  102.600000
  H    -45.465600   49.320300  104.638000
  C    -45.317100   52.033700  105.660000
  H    -44.674300   52.875100  105.560000
  H    -44.796000   51.210900  106.159000
  C    -46.714100   52.562100  106.256000
  H    -46.950700   53.376800  105.659000
  H    -47.531300   51.810000  106.081000
  C    -46.528300   53.190800  107.692000
  H    -46.096300   52.387200  108.289000
  H    -45.737600   53.974600  107.762000
  H    -47.364600   53.642700  108.188000
  S    -44.883700   47.998200  100.832000
  C    -45.877500   46.559800  100.607000
  C    -47.047200   46.581900  101.318000
  C    -47.143200   47.735400  102.137000
  C    -46.103000   48.628600  101.988000
  H    -47.734100   45.758800  101.273000
  C    -48.334400   47.882800  103.105000
  H    -47.941400   48.249700  104.021000
  H    -48.584400   46.835100  103.322000
  C    -49.478400   48.697800  102.471000
  H    -49.762300   48.185900  101.554000
  H    -49.064500   49.616900  102.024000
  C    -50.741700   48.831800  103.332000
  H    -50.466600   49.256900  104.270000
  H    -51.267000   47.951100  103.417000
  H    -51.484400   49.456900  102.894000
  H    -46.005100   53.356700  103.236000
  H    -45.683100   45.783700   99.868000

 Total Charge           Charge          ....    0
 Multiplicity           Mult            ....    1
 Number of Electrons    NEL             ....  134
 Basis Dimension        Dim             ....  322

ORBITAL ENERGIES
----------------

  NO   OCC          E(Eh)            E(eV)
   0   2.0000     -88.967209     -2420.9208
   1   2.0000     -88.963528     -2420.8207
   2   2.0000     -10.328255      -281.0461
   3   2.0000     -10.320531      -280.8359
   4   2.0000     -10.316157      -280.7169
   5   2.0000     -10.310385      -280.5598
   6   2.0000     -10.299628      -280.2671
   7   2.0000     -10.298404      -280.2338
   8   2.0000     -10.298078      -280.2250
   9   2.0000     -10.297928      -280.2209
  10   2.0000     -10.295951      -280.1671
  11   2.0000     -10.288824      -279.9731
  12   2.0000     -10.288544      -279.9655
  13   2.0000     -10.284481      -279.8550
  14   2.0000     -10.284167      -279.8464
  15   2.0000     -10.265822      -279.3472
  16   2.0000      -8.081236      -219.9016
  17   2.0000      -8.077564      -219.8017
  18   2.0000      -6.039758      -164.3502
  19   2.0000      -6.036122      -164.2512
  20   2.0000      -6.036033      -164.2488
  21   2.0000      -6.032249      -164.1458
  22   2.0000      -6.031840      -164.1347
  23   2.0000      -6.028246      -164.0369
  24   2.0000      -1.001349       -27.2481
  25   2.0000      -0.979042       -26.6411
  26   2.0000      -0.908339       -24.7172
  27   2.0000      -0.903528       -24.5862
  28   2.0000      -0.867573       -23.6079
  29   2.0000      -0.849831       -23.1251
  30   2.0000      -0.846509       -23.0347
  31   2.0000      -0.812007       -22.0958
  32   2.0000      -0.784786       -21.3551
  33   2.0000      -0.769352       -20.9351
  34   2.0000      -0.713662       -19.4197
  35   2.0000      -0.709541       -19.3076
  36   2.0000      -0.695955       -18.9379
  37   2.0000      -0.661123       -17.9901
  38   2.0000      -0.638658       -17.3788
  39   2.0000      -0.613981       -16.7073
  40   2.0000      -0.590901       -16.0792
  41   2.0000      -0.566013       -15.4020
  42   2.0000      -0.559781       -15.2324
  43   2.0000      -0.553244       -15.0545
  44   2.0000      -0.526163       -14.3176
  45   2.0000      -0.524954       -14.2847
  46   2.0000      -0.517907       -14.0930
  47   2.0000      -0.512516       -13.9463
  48   2.0000      -0.503871       -13.7110
  49   2.0000      -0.495686       -13.4883
  50   2.0000      -0.490386       -13.3441
  51   2.0000      -0.479844       -13.0572
  52   2.0000      -0.471104       -12.8194
  53   2.0000      -0.460961       -12.5434
  54   2.0000      -0.457852       -12.4588
  55   2.0000      -0.449918       -12.2429
  56   2.0000      -0.447972       -12.1899
  57   2.0000      -0.438062       -11.9203
  58   2.0000      -0.435953       -11.8629
  59   2.0000      -0.433625       -11.7995
  60   2.0000      -0.421388       -11.4665
  61   2.0000      -0.416700       -11.3390
  62   2.0000      -0.411680       -11.2024
  63   2.0000      -0.337255        -9.1772
  64   2.0000      -0.329522        -8.9668
  65   2.0000      -0.325103        -8.8465
  66   2.0000      -0.300847        -8.1865
  67   0.0000       0.038715         1.0535
  68   0.0000       0.054089         1.4718
  69   0.0000       0.110963         3.0194
  70   0.0000       0.116805         3.1784
  71   0.0000       0.127989         3.4828

MULLIKEN ATOMIC CHARGES
-----------------------
   0 S :    0.114882
   1 C :   -0.127004
   2 C :   -0.121884
   3 C :    0.057957
   4 C :   -0.190585
   5 H :    0.019789
   6 C :    0.087589
   7 H :    0.025096
   8 H :    0.031422
   9 C :   -0.068161
  10 H :    0.013111
  11 H :    0.050462
  12 C :   -0.048312
  13 H :    0.028148
  14 H :    0.027258
  15 H :    0.041981
  16 S :    0.105723
  17 C :   -0.089256
  18 C :   -0.028873
  19 C :   -0.058071
  20 C :   -0.183335
  21 H :    0.013662
  22 C :    0.127513
  23 H :    0.003873
  24 H :    0.011506
  25 C :   -0.075229
  26 H :    0.010447
  27 H :    0.028668
  28 C :    0.033167
  29 H :    0.024193
  30 H :    0.010615
  31 H :    0.018809
  32 H :    0.048407
  33 H :    0.056433
Sum of atomic charges:   -0.0000000

LOEWDIN ATOMIC CHARGES
----------------------
   0 S :    0.386271
   1 C :   -0.195657
   2 C :   -0.064916
   3 C :   -0.051747
   4 C :   -0.183986
   5 H :    0.031445
   6 C :   -0.024383
   7 H :    0.030117
   8 H :    0.031631
   9 C :   -0.028017
  10 H :    0.012586
  11 H :    0.033280
  12 C :   -0.073438
  13 H :    0.024952
  14 H :    0.029948
  15 H :    0.023722
  16 S :    0.380043
  17 C :   -0.174708
  18 C :   -0.074691
  19 C :   -0.046434
  20 C :   -0.200977
  21 H :    0.030756
  22 C :   -0.022126
  23 H :    0.019855
  24 H :    0.028905
  25 C :   -0.039666
  26 H :    0.023172
  27 H :    0.026923
  28 C :   -0.054318
  29 H :    0.022352
  30 H :    0.016705
  31 H :    0.026555
  32 H :    0.025739
  33 H :    0.030108

  Mayer bond orders larger than 0.100000
B(  0-S ,  1-C ) :   1.1241 B(  0-S ,  4-C ) :   1.1293 B(  1-C ,  2-C ) :   1.6626
B(  1-C , 32-H ) :   0.9561 B(  2-C ,  3-C ) :   1.2117 B(  2-C ,  6-C ) :   1.0195
B(  3-C ,  4-C ) :   1.6185 B(  3-C ,  5-H ) :   0.9814 B(  4-C , 20-C ) :   1.0534
B(  6-C ,  7-H ) :   0.9350 B(  6-C ,  8-H ) :   0.9436 B(  6-C ,  9-C ) :   1.0427
B(  9-C , 10-H ) :   0.9580 B(  9-C , 11-H ) :   0.9636 B(  9-C , 12-C ) :   1.0614
B( 12-C , 13-H ) :   0.9782 B( 12-C , 14-H ) :   0.9738 B( 12-C , 15-H ) :   0.9781
B( 16-S , 17-C ) :   1.1513 B( 16-S , 20-C ) :   1.1162 B( 17-C , 18-C ) :   1.6330
B( 17-C , 33-H ) :   0.9608 B( 18-C , 19-C ) :   1.2351 B( 18-C , 21-H ) :   0.9894
B( 19-C , 20-C ) :   1.6290 B( 19-C , 22-C ) :   1.0250 B( 22-C , 23-H ) :   0.9274
B( 22-C , 24-H ) :   0.9335 B( 22-C , 25-C ) :   1.0564 B( 25-C , 26-H ) :   0.9508
B( 25-C , 27-H ) :   0.9568 B( 25-C , 28-C ) :   1.0801 B( 28-C , 29-H ) :   0.9757
B( 28-C , 30-H ) :   0.9713 B( 28-C , 31-H ) :   0.9694

Dispersion correction           -0.014458096
FINAL SINGLE POINT ENERGY     -1339.869942212140

DIPOLE MOMENT
-------------
                                X             Y             Z
Electronic contribution:     17.02246      -6.73566     -22.93863
Nuclear contribution   :    -17.49343       6.72322      23.47590
                        -----------------------------------------
Total Dipole Moment    :     -0.47096      -0.01244       0.53728
                        -----------------------------------------
Magnitude (a.u.)       :      0.71458
Magnitude (Debye)      :      1.81632

Rotational constants in cm-1:     0.018775     0.008359     0.006759
Rotational constants in MHz :   562.849778   250.600674   202.632969

                             ****ORCA TERMINATED NORMALLY****
TOTAL RUN TIME: 0 days 0 hours 0 minutes 30 seconds 255 msec
