                         Program Version 4.2.1 -  RELEASE  -
|  1> ! wB97X-D3 SP def2-SVP
|  2> %pal
|  3> nprocs 16
|  4> end
|  5>
|  6> * xyz 0 1
|  7> S 	 -5.00088 	 45.182 	 34.173
|  8> C 	 -3.57958 	 44.1852 	 34.571
|  9> C 	 -2.43108 	 44.8221 	 34.1376
| 10> C 	 -2.64473 	 46.0654 	 33.5153
| 11> C 	 -3.99363 	 46.4107 	 33.3994
| 12> H 	 -2.01157 	 46.7917 	 33.0393
| 13> C 	 -1.08496 	 44.0506 	 33.926
| 14> H 	 -0.93745 	 43.9175 	 32.8519
| 15> H 	 -1.23081 	 42.9532 	 34.3623
| 16> C 	 0.111855 	 44.6376 	 34.5685
| 17> H 	 0.925978 	 43.9484 	 34.2448
| 18> H 	 0.30496 	 45.5937 	 34.1062
| 19> C 	 0.0129326 	 44.7671 	 36.0663
| 20> H 	 -0.125438 	 43.844 	 36.5072
| 21> H 	 0.844395 	 45.3148 	 36.4856
| 22> H 	 -0.787856 	 45.3557 	 36.4288
| 23> S 	 -5.27415 	 47.3536 	 31.0768
| 24> C 	 -5.62151 	 49.0607 	 30.9991
| 25> C 	 -5.14196 	 49.7277 	 32.0888
| 26> C 	 -4.49711 	 48.8495 	 32.9912
| 27> C 	 -4.53603 	 47.5071 	 32.6072
| 28> H 	 -5.08798 	 50.8132 	 32.0992
| 29> C 	 -4.0402 	 49.3891 	 34.2788
| 30> H 	 -4.34595 	 48.5909 	 34.9991
| 31> H 	 -4.56098 	 50.2173 	 34.8068
| 32> C 	 -2.52407 	 49.5398 	 34.4948
| 33> H 	 -2.04556 	 48.5277 	 34.7082
| 34> H 	 -2.32756 	 50.1568 	 35.353
| 35> C 	 -1.91007 	 50.3187 	 33.3598
| 36> H 	 -2.27571 	 51.2944 	 33.166
| 37> H 	 -1.93039 	 49.7316 	 32.4599
| 38> H 	 -0.902154 	 50.3835 	 33.4046
| 39> H 	 -3.60666 	 43.153 	 34.8324
| 40> H 	 -6.02152 	 49.5942 	 30.1192
| 41> *
| 42>
| 43>                          ****END OF INPUT****

CARTESIAN COORDINATES (ANGSTROEM)
---------------------------------
  S     -5.000880   45.182000   34.173000
  C     -3.579580   44.185200   34.571000
  C     -2.431080   44.822100   34.137600
  C     -2.644730   46.065400   33.515300
  C     -3.993630   46.410700   33.399400
  H     -2.011570   46.791700   33.039300
  C     -1.084960   44.050600   33.926000
  H     -0.937450   43.917500   32.851900
  H     -1.230810   42.953200   34.362300
  C      0.111855   44.637600   34.568500
  H      0.925978   43.948400   34.244800
  H      0.304960   45.593700   34.106200
  C      0.012933   44.767100   36.066300
  H     -0.125438   43.844000   36.507200
  H      0.844395   45.314800   36.485600
  H     -0.787856   45.355700   36.428800
  S     -5.274150   47.353600   31.076800
  C     -5.621510   49.060700   30.999100
  C     -5.141960   49.727700   32.088800
  C     -4.497110   48.849500   32.991200
  C     -4.536030   47.507100   32.607200
  H     -5.087980   50.813200   32.099200
  C     -4.040200   49.389100   34.278800
  H     -4.345950   48.590900   34.999100
  H     -4.560980   50.217300   34.806800
  C     -2.524070   49.539800   34.494800
  H     -2.045560   48.527700   34.708200
  H     -2.327560   50.156800   35.353000
  C     -1.910070   50.318700   33.359800
  H     -2.275710   51.294400   33.166000
  H     -1.930390   49.731600   32.459900
  H     -0.902154   50.383500   33.404600
  H     -3.606660   43.153000   34.832400
  H     -6.021520   49.594200   30.119200

 Total Charge           Charge          ....    0
 Multiplicity           Mult            ....    1
 Number of Electrons    NEL             ....  134
 Basis Dimension        Dim             ....  322

ORBITAL ENERGIES
----------------

  NO   OCC          E(Eh)            E(eV)
   0   2.0000     -88.969854     -2420.9928
   1   2.0000     -88.966812     -2420.9100
   2   2.0000     -10.332048      -281.1493
   3   2.0000     -10.323113      -280.9062
   4   2.0000     -10.317341      -280.7491
   5   2.0000     -10.315783      -280.7067
   6   2.0000     -10.303531      -280.3733
   7   2.0000     -10.300598      -280.2935
   8   2.0000     -10.298367      -280.2328
   9   2.0000     -10.295687      -280.1599
  10   2.0000     -10.288855      -279.9740
  11   2.0000     -10.284659      -279.8598
  12   2.0000     -10.283934      -279.8401
  13   2.0000     -10.282718      -279.8070
  14   2.0000     -10.263516      -279.2845
  15   2.0000     -10.257656      -279.1250
  16   2.0000      -8.085163      -220.0085
  17   2.0000      -8.080616      -219.8847
  18   2.0000      -6.043580      -164.4542
  19   2.0000      -6.039554      -164.3446
  20   2.0000      -6.039104      -164.3324
  21   2.0000      -6.036013      -164.2483
  22   2.0000      -6.035160      -164.2250
  23   2.0000      -6.031537      -164.1265
  24   2.0000      -1.010900       -27.5080
  25   2.0000      -0.985463       -26.8158
  26   2.0000      -0.916006       -24.9258
  27   2.0000      -0.912212       -24.8226
  28   2.0000      -0.872401       -23.7392
  29   2.0000      -0.853503       -23.2250
  30   2.0000      -0.845338       -23.0028
  31   2.0000      -0.817950       -22.2575
  32   2.0000      -0.788548       -21.4575
  33   2.0000      -0.777411       -21.1544
  34   2.0000      -0.712412       -19.3857
  35   2.0000      -0.694342       -18.8940
  36   2.0000      -0.688732       -18.7413
  37   2.0000      -0.659493       -17.9457
  38   2.0000      -0.645929       -17.5766
  39   2.0000      -0.615872       -16.7587
  40   2.0000      -0.595947       -16.2166
  41   2.0000      -0.572094       -15.5675
  42   2.0000      -0.561562       -15.2809
  43   2.0000      -0.556645       -15.1471
  44   2.0000      -0.546646       -14.8750
  45   2.0000      -0.537764       -14.6333
  46   2.0000      -0.519932       -14.1481
  47   2.0000      -0.514221       -13.9927
  48   2.0000      -0.506072       -13.7709
  49   2.0000      -0.493598       -13.4315
  50   2.0000      -0.490962       -13.3597
  51   2.0000      -0.484005       -13.1704
  52   2.0000      -0.474066       -12.9000
  53   2.0000      -0.469995       -12.7892
  54   2.0000      -0.457193       -12.4408
  55   2.0000      -0.443652       -12.0724
  56   2.0000      -0.440947       -11.9988
  57   2.0000      -0.436407       -11.8752
  58   2.0000      -0.430911       -11.7257
  59   2.0000      -0.419282       -11.4093
  60   2.0000      -0.415188       -11.2978
  61   2.0000      -0.408019       -11.1028
  62   2.0000      -0.405934       -11.0460
  63   2.0000      -0.341481        -9.2922
  64   2.0000      -0.332080        -9.0364
  65   2.0000      -0.325078        -8.8458
  66   2.0000      -0.305229        -8.3057
  67   0.0000       0.032822         0.8931
  68   0.0000       0.059122         1.6088
  69   0.0000       0.114294         3.1101
  70   0.0000       0.124853         3.3974
  71   0.0000       0.128853         3.5063

MULLIKEN ATOMIC CHARGES
-----------------------
   0 S :    0.108488
   1 C :   -0.113106
   2 C :   -0.047597
   3 C :    0.061147
   4 C :   -0.220615
   5 H :    0.013459
   6 C :   -0.013890
   7 H :    0.048865
   8 H :    0.025997
   9 C :   -0.053437
  10 H :    0.033754
  11 H :    0.019779
  12 C :    0.003897
  13 H :    0.008774
  14 H :    0.025345
  15 H :    0.021848
  16 S :    0.133299
  17 C :   -0.112432
  18 C :   -0.018078
  19 C :   -0.019485
  20 C :   -0.152246
  21 H :    0.024715
  22 C :    0.022537
  23 H :    0.029591
  24 H :    0.037159
  25 C :   -0.082202
  26 H :    0.043211
  27 H :    0.018501
  28 C :    0.010973
  29 H :    0.022158
  30 H :    0.013200
  31 H :   -0.007575
  32 H :    0.047058
  33 H :    0.066909
Sum of atomic charges:   -0.0000000

LOEWDIN ATOMIC CHARGES
----------------------
   0 S :    0.389327
   1 C :   -0.185566
   2 C :   -0.067316
   3 C :   -0.058943
   4 C :   -0.184510
   5 H :    0.031784
   6 C :   -0.031157
   7 H :    0.032858
   8 H :    0.032931
   9 C :   -0.047684
  10 H :    0.032094
  11 H :    0.019766
  12 C :   -0.057150
  13 H :    0.016162
  14 H :    0.028717
  15 H :    0.024913
  16 S :    0.436426
  17 C :   -0.189809
  18 C :   -0.070698
  19 C :   -0.053022
  20 C :   -0.230523
  21 H :    0.035195
  22 C :   -0.051761
  23 H :    0.040445
  24 H :    0.038160
  25 C :   -0.039169
  26 H :    0.030777
  27 H :    0.021226
  28 C :   -0.064718
  29 H :    0.022157
  30 H :    0.024297
  31 H :    0.012477
  32 H :    0.025628
  33 H :    0.036684

  Mayer bond orders larger than 0.100000
B(  0-S ,  1-C ) :   1.1344 B(  0-S ,  4-C ) :   1.1478 B(  1-C ,  2-C ) :   1.6155
B(  1-C ,  4-C ) :   0.1021 B(  1-C , 32-H ) :   0.9676 B(  2-C ,  3-C ) :   1.2140
B(  2-C ,  6-C ) :   1.0056 B(  3-C ,  4-C ) :   1.5985 B(  3-C ,  5-H ) :   0.9880
B(  4-C , 20-C ) :   1.0302 B(  6-C ,  7-H ) :   0.9493 B(  6-C ,  8-H ) :   0.9439
B(  6-C ,  9-C ) :   1.0803 B(  9-C , 10-H ) :   0.9507 B(  9-C , 11-H ) :   0.9513
B(  9-C , 12-C ) :   1.0829 B( 12-C , 13-H ) :   0.9721 B( 12-C , 14-H ) :   0.9703
B( 12-C , 15-H ) :   0.9675 B( 16-S , 17-C ) :   1.1690 B( 16-S , 20-C ) :   1.1513
B( 17-C , 18-C ) :   1.5917 B( 17-C , 33-H ) :   0.9609 B( 18-C , 19-C ) :   1.2727
B( 18-C , 21-H ) :   0.9905 B( 19-C , 20-C ) :   1.5615 B( 19-C , 22-C ) :   1.0307
B( 22-C , 23-H ) :   0.9195 B( 22-C , 24-H ) :   0.9555 B( 22-C , 25-C ) :   1.0774
B( 25-C , 26-H ) :   0.9505 B( 25-C , 27-H ) :   0.9528 B( 25-C , 28-C ) :   1.0881
B( 28-C , 29-H ) :   0.9721 B( 28-C , 30-H ) :   0.9591 B( 28-C , 31-H ) :   0.9629

Dispersion correction           -0.015778331
FINAL SINGLE POINT ENERGY     -1339.854880627744

DIPOLE MOMENT
-------------
                                X             Y             Z
Electronic contribution:    -24.27246      -5.52298     -11.80510
Nuclear contribution   :     24.79932       5.76275      11.75674
                        -----------------------------------------
Total Dipole Moment    :      0.52686       0.23977      -0.04836
                        -----------------------------------------
Magnitude (a.u.)       :      0.58087
Magnitude (Debye)      :      1.47645

Rotational constants in cm-1:     0.020075     0.009308     0.007412
Rotational constants in MHz :   601.840491   279.052693   222.217606

                             ****ORCA TERMINATED NORMALLY****
TOTAL RUN TIME: 0 days 0 hours 0 minutes 36 seconds 548 msec
