                         Program Version 4.2.1 -  RELEASE  -
|  1> ! wB97X-D3 SP def2-SVP
|  2> %pal
|  3> nprocs 16
|  4> end
|  5>
|  6> * xyz 0 1
|  7> S 	 1.4345 	 -12.8874 	 72.938
|  8> C 	 2.06917 	 -14.2463 	 72.023
|  9> C 	 1.93668 	 -15.3923 	 72.7651
| 10> C 	 1.28766 	 -15.2566 	 74.0328
| 11> C 	 0.900678 	 -13.9634 	 74.2733
| 12> H 	 1.05292 	 -15.9772 	 74.8279
| 13> C 	 2.51288 	 -16.7375 	 72.3424
| 14> H 	 1.88522 	 -17.4891 	 72.8152
| 15> H 	 3.52474 	 -16.9837 	 72.7905
| 16> C 	 2.41888 	 -17.1591 	 70.8613
| 17> H 	 1.433 	 -16.85 	 70.5408
| 18> H 	 3.06799 	 -16.6032 	 70.2104
| 19> C 	 2.67455 	 -18.5931 	 70.6733
| 20> H 	 2.0567 	 -19.1539 	 71.3111
| 21> H 	 2.47997 	 -18.8607 	 69.6253
| 22> H 	 3.79663 	 -18.8589 	 70.8507
| 23> S 	 -1.46736 	 -13.4594 	 75.51
| 24> C 	 -1.56718 	 -12.6102 	 77.0281
| 25> C 	 -0.267773 	 -12.3725 	 77.5344
| 26> C 	 0.750556 	 -12.7561 	 76.5937
| 27> C 	 0.305002 	 -13.3899 	 75.4623
| 28> H 	 -0.262528 	 -12.0132 	 78.541
| 29> C 	 2.202 	 -12.4478 	 76.9116
| 30> H 	 2.17419 	 -11.5945 	 77.564
| 31> H 	 2.70463 	 -12.1605 	 75.9718
| 32> C 	 3.01644 	 -13.5764 	 77.5308
| 33> H 	 2.94577 	 -14.4359 	 76.9127
| 34> H 	 2.57259 	 -13.8996 	 78.4748
| 35> C 	 4.50202 	 -13.2819 	 77.654
| 36> H 	 4.57914 	 -12.2887 	 78.0519
| 37> H 	 5.05192 	 -13.3837 	 76.7321
| 38> H 	 4.9061 	 -13.8764 	 78.4678
| 39> H 	 2.61318 	 -14.0939 	 71.0751
| 40> H 	 -2.51135 	 -12.4464 	 77.5133
| 41> *
| 42>
| 43>                          ****END OF INPUT****

CARTESIAN COORDINATES (ANGSTROEM)
---------------------------------
  S      1.434500  -12.887400   72.938000
  C      2.069170  -14.246300   72.023000
  C      1.936680  -15.392300   72.765100
  C      1.287660  -15.256600   74.032800
  C      0.900678  -13.963400   74.273300
  H      1.052920  -15.977200   74.827900
  C      2.512880  -16.737500   72.342400
  H      1.885220  -17.489100   72.815200
  H      3.524740  -16.983700   72.790500
  C      2.418880  -17.159100   70.861300
  H      1.433000  -16.850000   70.540800
  H      3.067990  -16.603200   70.210400
  C      2.674550  -18.593100   70.673300
  H      2.056700  -19.153900   71.311100
  H      2.479970  -18.860700   69.625300
  H      3.796630  -18.858900   70.850700
  S     -1.467360  -13.459400   75.510000
  C     -1.567180  -12.610200   77.028100
  C     -0.267773  -12.372500   77.534400
  C      0.750556  -12.756100   76.593700
  C      0.305002  -13.389900   75.462300
  H     -0.262528  -12.013200   78.541000
  C      2.202000  -12.447800   76.911600
  H      2.174190  -11.594500   77.564000
  H      2.704630  -12.160500   75.971800
  C      3.016440  -13.576400   77.530800
  H      2.945770  -14.435900   76.912700
  H      2.572590  -13.899600   78.474800
  C      4.502020  -13.281900   77.654000
  H      4.579140  -12.288700   78.051900
  H      5.051920  -13.383700   76.732100
  H      4.906100  -13.876400   78.467800
  H      2.613180  -14.093900   71.075100
  H     -2.511350  -12.446400   77.513300

 Total Charge           Charge          ....    0
 Multiplicity           Mult            ....    1
 Number of Electrons    NEL             ....  134
 Basis Dimension        Dim             ....  322

ORBITAL ENERGIES
----------------

  NO   OCC          E(Eh)            E(eV)
   0   2.0000     -88.963369     -2420.8163
   1   2.0000     -88.960418     -2420.7360
   2   2.0000     -10.332367      -281.1580
   3   2.0000     -10.324944      -280.9560
   4   2.0000     -10.320524      -280.8357
   5   2.0000     -10.318923      -280.7922
   6   2.0000     -10.306397      -280.4513
   7   2.0000     -10.304751      -280.4065
   8   2.0000     -10.300224      -280.2833
   9   2.0000     -10.297349      -280.2051
  10   2.0000     -10.292845      -280.0825
  11   2.0000     -10.285741      -279.8892
  12   2.0000     -10.279667      -279.7240
  13   2.0000     -10.279465      -279.7185
  14   2.0000     -10.276420      -279.6356
  15   2.0000     -10.270540      -279.4756
  16   2.0000      -8.077490      -219.7997
  17   2.0000      -8.075313      -219.7404
  18   2.0000      -6.036059      -164.2495
  19   2.0000      -6.033760      -164.1870
  20   2.0000      -6.032037      -164.1401
  21   2.0000      -6.029629      -164.0745
  22   2.0000      -6.028251      -164.0370
  23   2.0000      -6.026286      -163.9836
  24   2.0000      -1.003828       -27.3155
  25   2.0000      -0.981708       -26.7136
  26   2.0000      -0.915197       -24.9038
  27   2.0000      -0.909248       -24.7419
  28   2.0000      -0.872586       -23.7443
  29   2.0000      -0.851291       -23.1648
  30   2.0000      -0.850206       -23.1353
  31   2.0000      -0.815501       -22.1909
  32   2.0000      -0.779691       -21.2165
  33   2.0000      -0.767213       -20.8769
  34   2.0000      -0.708659       -19.2836
  35   2.0000      -0.700230       -19.0542
  36   2.0000      -0.690973       -18.8023
  37   2.0000      -0.665905       -18.1202
  38   2.0000      -0.648591       -17.6491
  39   2.0000      -0.611651       -16.6439
  40   2.0000      -0.592342       -16.1184
  41   2.0000      -0.573806       -15.6141
  42   2.0000      -0.571365       -15.5476
  43   2.0000      -0.565176       -15.3792
  44   2.0000      -0.525826       -14.3085
  45   2.0000      -0.525004       -14.2861
  46   2.0000      -0.521880       -14.2011
  47   2.0000      -0.511233       -13.9114
  48   2.0000      -0.508514       -13.8374
  49   2.0000      -0.501300       -13.6411
  50   2.0000      -0.490239       -13.3401
  51   2.0000      -0.481104       -13.0915
  52   2.0000      -0.477087       -12.9822
  53   2.0000      -0.469957       -12.7882
  54   2.0000      -0.454988       -12.3808
  55   2.0000      -0.450572       -12.2607
  56   2.0000      -0.436931       -11.8895
  57   2.0000      -0.428896       -11.6708
  58   2.0000      -0.425767       -11.5857
  59   2.0000      -0.422767       -11.5041
  60   2.0000      -0.419657       -11.4194
  61   2.0000      -0.415775       -11.3138
  62   2.0000      -0.411479       -11.1969
  63   2.0000      -0.337236        -9.1766
  64   2.0000      -0.327992        -8.9251
  65   2.0000      -0.321411        -8.7461
  66   2.0000      -0.312571        -8.5055
  67   0.0000       0.042645         1.1604
  68   0.0000       0.050160         1.3649
  69   0.0000       0.112412         3.0589
  70   0.0000       0.121594         3.3087
  71   0.0000       0.128122         3.4864

MULLIKEN ATOMIC CHARGES
-----------------------
   0 S :    0.099781
   1 C :   -0.134526
   2 C :   -0.066015
   3 C :    0.058174
   4 C :   -0.164880
   5 H :    0.029915
   6 C :    0.036239
   7 H :    0.007030
   8 H :    0.045499
   9 C :   -0.057667
  10 H :    0.020040
  11 H :    0.016239
  12 C :   -0.041208
  13 H :    0.019778
  14 H :    0.034956
  15 H :    0.040654
  16 S :    0.096751
  17 C :   -0.102125
  18 C :   -0.047782
  19 C :   -0.009533
  20 C :   -0.188276
  21 H :    0.020658
  22 C :    0.084404
  23 H :    0.012297
  24 H :    0.022069
  25 C :   -0.059316
  26 H :    0.011588
  27 H :    0.015911
  28 C :   -0.013586
  29 H :    0.011894
  30 H :    0.044824
  31 H :    0.026653
  32 H :    0.068979
  33 H :    0.060579
Sum of atomic charges:    0.0000000

LOEWDIN ATOMIC CHARGES
----------------------
   0 S :    0.382504
   1 C :   -0.192551
   2 C :   -0.069737
   3 C :   -0.055799
   4 C :   -0.182374
   5 H :    0.043391
   6 C :   -0.038664
   7 H :    0.026188
   8 H :    0.036453
   9 C :   -0.046106
  10 H :    0.023961
  11 H :    0.016522
  12 C :   -0.060936
  13 H :    0.014881
  14 H :    0.030147
  15 H :    0.036256
  16 S :    0.402333
  17 C :   -0.178435
  18 C :   -0.075529
  19 C :   -0.049103
  20 C :   -0.203702
  21 H :    0.031676
  22 C :   -0.028981
  23 H :    0.024842
  24 H :    0.031700
  25 C :   -0.039801
  26 H :    0.018158
  27 H :    0.021625
  28 C :   -0.060081
  29 H :    0.020710
  30 H :    0.027074
  31 H :    0.029282
  32 H :    0.038007
  33 H :    0.026090

  Mayer bond orders larger than 0.100000
B(  0-S ,  1-C ) :   1.1295 B(  0-S ,  4-C ) :   1.1359 B(  1-C ,  2-C ) :   1.6216
B(  1-C , 32-H ) :   0.9707 B(  2-C ,  3-C ) :   1.2116 B(  2-C ,  6-C ) :   1.0151
B(  3-C ,  4-C ) :   1.6198 B(  3-C ,  5-H ) :   0.9894 B(  4-C , 20-C ) :   1.0097
B(  6-C ,  7-H ) :   0.9442 B(  6-C ,  8-H ) :   0.9342 B(  6-C ,  9-C ) :   1.0639
B(  9-C , 10-H ) :   0.9531 B(  9-C , 11-H ) :   0.9441 B(  9-C , 12-C ) :   1.1034
B( 12-C , 13-H ) :   0.9736 B( 12-C , 14-H ) :   0.9691 B( 12-C , 15-H ) :   0.9706
B( 16-S , 17-C ) :   1.1809 B( 16-S , 20-C ) :   1.1363 B( 17-C , 18-C ) :   1.5883
B( 17-C , 20-C ) :   0.1055 B( 17-C , 33-H ) :   0.9698 B( 18-C , 19-C ) :   1.2197
B( 18-C , 21-H ) :   0.9997 B( 19-C , 20-C ) :   1.6169 B( 19-C , 22-C ) :   1.0454
B( 22-C , 23-H ) :   0.9259 B( 22-C , 24-H ) :   0.9297 B( 22-C , 25-C ) :   1.0793
B( 25-C , 26-H ) :   0.9524 B( 25-C , 27-H ) :   0.9514 B( 25-C , 28-C ) :   1.0882
B( 28-C , 29-H ) :   0.9718 B( 28-C , 30-H ) :   0.9752 B( 28-C , 31-H ) :   0.9712

Dispersion correction           -0.013884729
FINAL SINGLE POINT ENERGY     -1339.881552814717

DIPOLE MOMENT
-------------
                                X             Y             Z
Electronic contribution:    -19.72719      15.10517       0.09684
Nuclear contribution   :     20.07558     -15.45342       0.14812
                        -----------------------------------------
Total Dipole Moment    :      0.34840      -0.34825       0.24496
                        -----------------------------------------
Magnitude (a.u.)       :      0.55015
Magnitude (Debye)      :      1.39837

Rotational constants in cm-1:     0.019601     0.007549     0.006395
Rotational constants in MHz :   587.621790   226.312957   191.729884

                             ****ORCA TERMINATED NORMALLY****
TOTAL RUN TIME: 0 days 0 hours 0 minutes 33 seconds 578 msec
