                         Program Version 4.2.1 -  RELEASE  -
|  1> ! wB97X-D3 SP def2-SVP
|  2> %pal
|  3> nprocs 16
|  4> end
|  5>
|  6> * xyz 0 1
|  7> S 	 33.5954 	 26.1547 	 52.095
|  8> C 	 34.8902 	 27.2613 	 52.0527
|  9> C 	 36.1152 	 26.6458 	 52.3501
| 10> C 	 35.9733 	 25.2597 	 52.7725
| 11> C 	 34.6624 	 24.8504 	 52.6811
| 12> H 	 36.7236 	 24.6363 	 53.1941
| 13> C 	 37.5084 	 27.285 	 52.3058
| 14> H 	 37.4513 	 28.1519 	 51.6168
| 15> H 	 38.2721 	 26.6012 	 51.7991
| 16> C 	 38.036 	 27.7466 	 53.6144
| 17> H 	 37.9635 	 26.8587 	 54.2361
| 18> H 	 39.1007 	 27.8929 	 53.6809
| 19> C 	 37.2006 	 28.88 	 54.2451
| 20> H 	 36.1141 	 28.6727 	 54.0866
| 21> H 	 37.3925 	 28.8861 	 55.3074
| 22> H 	 37.4009 	 29.8767 	 53.9446
| 23> S 	 32.8063 	 23.7749 	 54.3505
| 24> C 	 32.5891 	 22.0279 	 54.4222
| 25> C 	 33.5603 	 21.3647 	 53.6826
| 26> C 	 34.4536 	 22.2762 	 52.9313
| 27> C 	 34.0633 	 23.633 	 53.1654
| 28> H 	 33.6144 	 20.2777 	 53.6209
| 29> C 	 35.5561 	 21.8898 	 52.0067
| 30> H 	 36.16 	 21.1418 	 52.5113
| 31> H 	 36.174 	 22.757 	 51.9258
| 32> C 	 35.1677 	 21.173 	 50.6939
| 33> H 	 34.7477 	 21.9596 	 50.0307
| 34> H 	 34.4272 	 20.3343 	 50.7668
| 35> C 	 36.3593 	 20.5919 	 50.0057
| 36> H 	 36.0259 	 20.2454 	 49.0172
| 37> H 	 36.7936 	 19.7898 	 50.5827
| 38> H 	 37.1349 	 21.3097 	 49.9218
| 39> H 	 34.7566 	 28.2277 	 51.8145
| 40> H 	 31.8677 	 21.572 	 55.046
| 41> *
| 42>
| 43>                          ****END OF INPUT****

CARTESIAN COORDINATES (ANGSTROEM)
---------------------------------
  S     33.595400   26.154700   52.095000
  C     34.890200   27.261300   52.052700
  C     36.115200   26.645800   52.350100
  C     35.973300   25.259700   52.772500
  C     34.662400   24.850400   52.681100
  H     36.723600   24.636300   53.194100
  C     37.508400   27.285000   52.305800
  H     37.451300   28.151900   51.616800
  H     38.272100   26.601200   51.799100
  C     38.036000   27.746600   53.614400
  H     37.963500   26.858700   54.236100
  H     39.100700   27.892900   53.680900
  C     37.200600   28.880000   54.245100
  H     36.114100   28.672700   54.086600
  H     37.392500   28.886100   55.307400
  H     37.400900   29.876700   53.944600
  S     32.806300   23.774900   54.350500
  C     32.589100   22.027900   54.422200
  C     33.560300   21.364700   53.682600
  C     34.453600   22.276200   52.931300
  C     34.063300   23.633000   53.165400
  H     33.614400   20.277700   53.620900
  C     35.556100   21.889800   52.006700
  H     36.160000   21.141800   52.511300
  H     36.174000   22.757000   51.925800
  C     35.167700   21.173000   50.693900
  H     34.747700   21.959600   50.030700
  H     34.427200   20.334300   50.766800
  C     36.359300   20.591900   50.005700
  H     36.025900   20.245400   49.017200
  H     36.793600   19.789800   50.582700
  H     37.134900   21.309700   49.921800
  H     34.756600   28.227700   51.814500
  H     31.867700   21.572000   55.046000

 Total Charge           Charge          ....    0
 Multiplicity           Mult            ....    1
 Number of Electrons    NEL             ....  134
 Basis Dimension        Dim             ....  322

ORBITAL ENERGIES
----------------

  NO   OCC          E(Eh)            E(eV)
   0   2.0000     -88.966129     -2420.8915
   1   2.0000     -88.964915     -2420.8584
   2   2.0000     -10.329647      -281.0840
   3   2.0000     -10.325142      -280.9614
   4   2.0000     -10.317334      -280.7489
   5   2.0000     -10.309455      -280.5345
   6   2.0000     -10.309050      -280.5235
   7   2.0000     -10.307597      -280.4840
   8   2.0000     -10.301529      -280.3188
   9   2.0000     -10.297117      -280.1988
  10   2.0000     -10.295396      -280.1520
  11   2.0000     -10.288180      -279.9556
  12   2.0000     -10.287967      -279.9498
  13   2.0000     -10.281012      -279.7606
  14   2.0000     -10.272446      -279.5275
  15   2.0000     -10.271205      -279.4937
  16   2.0000      -8.081381      -219.9056
  17   2.0000      -8.079693      -219.8596
  18   2.0000      -6.039820      -164.3519
  19   2.0000      -6.038189      -164.3075
  20   2.0000      -6.035761      -164.2414
  21   2.0000      -6.034152      -164.1976
  22   2.0000      -6.032237      -164.1455
  23   2.0000      -6.030501      -164.0983
  24   2.0000      -1.004984       -27.3470
  25   2.0000      -0.978894       -26.6370
  26   2.0000      -0.914313       -24.8797
  27   2.0000      -0.913111       -24.8470
  28   2.0000      -0.872273       -23.7358
  29   2.0000      -0.854214       -23.2443
  30   2.0000      -0.845930       -23.0189
  31   2.0000      -0.813522       -22.1371
  32   2.0000      -0.782316       -21.2879
  33   2.0000      -0.770171       -20.9574
  34   2.0000      -0.707505       -19.2522
  35   2.0000      -0.697745       -18.9866
  36   2.0000      -0.695808       -18.9339
  37   2.0000      -0.659892       -17.9566
  38   2.0000      -0.650844       -17.7104
  39   2.0000      -0.621014       -16.8986
  40   2.0000      -0.596365       -16.2279
  41   2.0000      -0.570606       -15.5270
  42   2.0000      -0.566048       -15.4029
  43   2.0000      -0.551216       -14.9993
  44   2.0000      -0.537576       -14.6282
  45   2.0000      -0.535342       -14.5674
  46   2.0000      -0.519534       -14.1372
  47   2.0000      -0.513442       -13.9715
  48   2.0000      -0.505832       -13.7644
  49   2.0000      -0.499541       -13.5932
  50   2.0000      -0.491860       -13.3842
  51   2.0000      -0.483812       -13.1652
  52   2.0000      -0.466229       -12.6867
  53   2.0000      -0.462985       -12.5985
  54   2.0000      -0.456674       -12.4267
  55   2.0000      -0.449375       -12.2281
  56   2.0000      -0.448232       -12.1970
  57   2.0000      -0.438667       -11.9367
  58   2.0000      -0.433984       -11.8093
  59   2.0000      -0.424864       -11.5611
  60   2.0000      -0.420424       -11.4403
  61   2.0000      -0.415185       -11.2978
  62   2.0000      -0.406041       -11.0489
  63   2.0000      -0.351796        -9.5729
  64   2.0000      -0.327074        -8.9001
  65   2.0000      -0.325656        -8.8616
  66   2.0000      -0.290203        -7.8968
  67   0.0000       0.028865         0.7855
  68   0.0000       0.071613         1.9487
  69   0.0000       0.108862         2.9623
  70   0.0000       0.110498         3.0068
  71   0.0000       0.132028         3.5927

MULLIKEN ATOMIC CHARGES
-----------------------
   0 S :    0.114679
   1 C :   -0.062297
   2 C :   -0.106075
   3 C :    0.055230
   4 C :   -0.184639
   5 H :    0.020584
   6 C :    0.027687
   7 H :    0.020003
   8 H :    0.040935
   9 C :   -0.031372
  10 H :    0.006671
  11 H :    0.022118
  12 C :   -0.048279
  13 H :    0.041261
  14 H :    0.025977
  15 H :    0.024126
  16 S :    0.112745
  17 C :   -0.083537
  18 C :   -0.023655
  19 C :   -0.045804
  20 C :   -0.152126
  21 H :    0.022683
  22 C :    0.093887
  23 H :    0.011303
  24 H :    0.004051
  25 C :   -0.091239
  26 H :    0.037039
  27 H :    0.038407
  28 C :   -0.019189
  29 H :    0.038092
  30 H :    0.022317
  31 H :    0.015777
  32 H :    0.004970
  33 H :    0.047668
Sum of atomic charges:   -0.0000000

LOEWDIN ATOMIC CHARGES
----------------------
   0 S :    0.413618
   1 C :   -0.189588
   2 C :   -0.056145
   3 C :   -0.054111
   4 C :   -0.184343
   5 H :    0.029735
   6 C :   -0.041739
   7 H :    0.026451
   8 H :    0.039220
   9 C :   -0.047186
  10 H :    0.022653
  11 H :    0.023367
  12 C :   -0.065301
  13 H :    0.032595
  14 H :    0.026582
  15 H :    0.017627
  16 S :    0.409712
  17 C :   -0.178651
  18 C :   -0.065864
  19 C :   -0.046980
  20 C :   -0.214413
  21 H :    0.031366
  22 C :   -0.037801
  23 H :    0.030726
  24 H :    0.027948
  25 C :   -0.040912
  26 H :    0.028603
  27 H :    0.029682
  28 C :   -0.060915
  29 H :    0.031109
  30 H :    0.020623
  31 H :    0.017972
  32 H :    0.002853
  33 H :    0.021509

  Mayer bond orders larger than 0.100000
B(  0-S ,  1-C ) :   1.1482 B(  0-S ,  4-C ) :   1.1470 B(  1-C ,  2-C ) :   1.5972
B(  1-C , 32-H ) :   0.9832 B(  2-C ,  3-C ) :   1.2219 B(  2-C ,  6-C ) :   1.0252
B(  3-C ,  4-C ) :   1.5881 B(  3-C ,  5-H ) :   0.9864 B(  4-C , 20-C ) :   1.0467
B(  6-C ,  7-H ) :   0.9430 B(  6-C ,  8-H ) :   0.9436 B(  6-C ,  9-C ) :   1.0742
B(  9-C , 10-H ) :   0.9516 B(  9-C , 11-H ) :   0.9519 B(  9-C , 12-C ) :   1.0677
B( 12-C , 13-H ) :   0.9736 B( 12-C , 14-H ) :   0.9724 B( 12-C , 15-H ) :   0.9769
B( 16-S , 17-C ) :   1.1443 B( 16-S , 20-C ) :   1.1544 B( 17-C , 18-C ) :   1.6083
B( 17-C , 33-H ) :   0.9757 B( 18-C , 19-C ) :   1.2289 B( 18-C , 21-H ) :   0.9873
B( 19-C , 20-C ) :   1.5610 B( 19-C , 22-C ) :   1.0665 B( 22-C , 23-H ) :   0.9257
B( 22-C , 24-H ) :   0.9179 B( 22-C , 25-C ) :   1.0568 B( 25-C , 26-H ) :   0.9517
B( 25-C , 27-H ) :   0.9582 B( 25-C , 28-C ) :   1.0900 B( 28-C , 29-H ) :   0.9715
B( 28-C , 30-H ) :   0.9723 B( 28-C , 31-H ) :   0.9713

Dispersion correction           -0.014009366
FINAL SINGLE POINT ENERGY     -1339.878876566082

DIPOLE MOMENT
-------------
                                X             Y             Z
Electronic contribution:    -21.62513       1.66876       6.34364
Nuclear contribution   :     22.15907      -1.89701      -6.36473
                        -----------------------------------------
Total Dipole Moment    :      0.53394      -0.22825      -0.02109
                        -----------------------------------------
Magnitude (a.u.)       :      0.58106
Magnitude (Debye)      :      1.47695

Rotational constants in cm-1:     0.018567     0.008361     0.006795
Rotational constants in MHz :   556.611379   250.663576   203.694327

                             ****ORCA TERMINATED NORMALLY****
TOTAL RUN TIME: 0 days 0 hours 0 minutes 35 seconds 132 msec
