                         Program Version 4.2.1 -  RELEASE  -
|  1> ! wB97X-D3 SP def2-SVP
|  2> %pal
|  3> nprocs 16
|  4> end
|  5>
|  6> * xyz 0 1
|  7> S 	 -52.2926 	 40.9724 	 103.884
|  8> C 	 -51.2854 	 42.3914 	 104.152
|  9> C 	 -51.5279 	 43.0414 	 105.357
| 10> C 	 -52.5994 	 42.4114 	 106.093
| 11> C 	 -53.0535 	 41.2871 	 105.411
| 12> H 	 -53.016 	 42.6461 	 107.043
| 13> C 	 -50.8317 	 44.3423 	 105.898
| 14> H 	 -49.8001 	 44.1142 	 106.234
| 15> H 	 -51.3598 	 44.8912 	 106.652
| 16> C 	 -50.6087 	 45.4436 	 104.855
| 17> H 	 -49.8768 	 45.1549 	 104.146
| 18> H 	 -51.6028 	 45.4925 	 104.404
| 19> C 	 -50.1786 	 46.7294 	 105.544
| 20> H 	 -50.0681 	 47.5869 	 104.883
| 21> H 	 -50.9621 	 47.0055 	 106.296
| 22> H 	 -49.2098 	 46.5153 	 106.045
| 23> S 	 -55.5362 	 40.1894 	 104.94
| 24> C 	 -56.5501 	 39.5043 	 106.227
| 25> C 	 -55.809 	 39.6746 	 107.392
| 26> C 	 -54.4718 	 40.1763 	 107.262
| 27> C 	 -54.1297 	 40.4883 	 105.962
| 28> H 	 -56.347 	 39.3755 	 108.381
| 29> C 	 -53.595 	 40.3212 	 108.53
| 30> H 	 -52.9863 	 41.2605 	 108.342
| 31> H 	 -52.8863 	 39.5315 	 108.433
| 32> C 	 -54.1721 	 40.4506 	 110.012
| 33> H 	 -53.4231 	 40.4742 	 110.751
| 34> H 	 -54.7522 	 39.5389 	 110.233
| 35> C 	 -54.9269 	 41.6939 	 110.262
| 36> H 	 -55.7307 	 41.8345 	 109.591
| 37> H 	 -54.2371 	 42.5175 	 110.227
| 38> H 	 -55.3664 	 41.7129 	 111.22
| 39> H 	 -50.7625 	 42.9859 	 103.433
| 40> H 	 -57.5247 	 39.1948 	 106.114
| 41> *
| 42>
| 43>                          ****END OF INPUT****

CARTESIAN COORDINATES (ANGSTROEM)
---------------------------------
  S    -52.292600   40.972400  103.884000
  C    -51.285400   42.391400  104.152000
  C    -51.527900   43.041400  105.357000
  C    -52.599400   42.411400  106.093000
  C    -53.053500   41.287100  105.411000
  H    -53.016000   42.646100  107.043000
  C    -50.831700   44.342300  105.898000
  H    -49.800100   44.114200  106.234000
  H    -51.359800   44.891200  106.652000
  C    -50.608700   45.443600  104.855000
  H    -49.876800   45.154900  104.146000
  H    -51.602800   45.492500  104.404000
  C    -50.178600   46.729400  105.544000
  H    -50.068100   47.586900  104.883000
  H    -50.962100   47.005500  106.296000
  H    -49.209800   46.515300  106.045000
  S    -55.536200   40.189400  104.940000
  C    -56.550100   39.504300  106.227000
  C    -55.809000   39.674600  107.392000
  C    -54.471800   40.176300  107.262000
  C    -54.129700   40.488300  105.962000
  H    -56.347000   39.375500  108.381000
  C    -53.595000   40.321200  108.530000
  H    -52.986300   41.260500  108.342000
  H    -52.886300   39.531500  108.433000
  C    -54.172100   40.450600  110.012000
  H    -53.423100   40.474200  110.751000
  H    -54.752200   39.538900  110.233000
  C    -54.926900   41.693900  110.262000
  H    -55.730700   41.834500  109.591000
  H    -54.237100   42.517500  110.227000
  H    -55.366400   41.712900  111.220000
  H    -50.762500   42.985900  103.433000
  H    -57.524700   39.194800  106.114000

 Total Charge           Charge          ....    0
 Multiplicity           Mult            ....    1
 Number of Electrons    NEL             ....  134
 Basis Dimension        Dim             ....  322

ORBITAL ENERGIES
----------------

  NO   OCC          E(Eh)            E(eV)
   0   2.0000     -88.976022     -2421.1606
   1   2.0000     -88.960089     -2420.7271
   2   2.0000     -10.330047      -281.0949
   3   2.0000     -10.327198      -281.0174
   4   2.0000     -10.317683      -280.7584
   5   2.0000     -10.313153      -280.6352
   6   2.0000     -10.309633      -280.5394
   7   2.0000     -10.308053      -280.4964
   8   2.0000     -10.302569      -280.3472
   9   2.0000     -10.298104      -280.2257
  10   2.0000     -10.296024      -280.1691
  11   2.0000     -10.295097      -280.1438
  12   2.0000     -10.288397      -279.9615
  13   2.0000     -10.286188      -279.9014
  14   2.0000     -10.282000      -279.7874
  15   2.0000     -10.266426      -279.3637
  16   2.0000      -8.090210      -220.1458
  17   2.0000      -8.074503      -219.7184
  18   2.0000      -6.048717      -164.5940
  19   2.0000      -6.044918      -164.4906
  20   2.0000      -6.040889      -164.3810
  21   2.0000      -6.033146      -164.1702
  22   2.0000      -6.028894      -164.0545
  23   2.0000      -6.025279      -163.9562
  24   2.0000      -1.006712       -27.3940
  25   2.0000      -0.980833       -26.6898
  26   2.0000      -0.916825       -24.9481
  27   2.0000      -0.907710       -24.7001
  28   2.0000      -0.872570       -23.7438
  29   2.0000      -0.857160       -23.3245
  30   2.0000      -0.846114       -23.0239
  31   2.0000      -0.810638       -22.0586
  32   2.0000      -0.780777       -21.2460
  33   2.0000      -0.774684       -21.0802
  34   2.0000      -0.710299       -19.3282
  35   2.0000      -0.705107       -19.1869
  36   2.0000      -0.693252       -18.8644
  37   2.0000      -0.658813       -17.9272
  38   2.0000      -0.639970       -17.4145
  39   2.0000      -0.615446       -16.7471
  40   2.0000      -0.594702       -16.1827
  41   2.0000      -0.585712       -15.9380
  42   2.0000      -0.567037       -15.4299
  43   2.0000      -0.557447       -15.1689
  44   2.0000      -0.550645       -14.9838
  45   2.0000      -0.525804       -14.3079
  46   2.0000      -0.519425       -14.1343
  47   2.0000      -0.507687       -13.8149
  48   2.0000      -0.503457       -13.6998
  49   2.0000      -0.497272       -13.5315
  50   2.0000      -0.493646       -13.4328
  51   2.0000      -0.477229       -12.9861
  52   2.0000      -0.475519       -12.9395
  53   2.0000      -0.468317       -12.7436
  54   2.0000      -0.455578       -12.3969
  55   2.0000      -0.452643       -12.3171
  56   2.0000      -0.445750       -12.1295
  57   2.0000      -0.437738       -11.9115
  58   2.0000      -0.436483       -11.8773
  59   2.0000      -0.429060       -11.6753
  60   2.0000      -0.417814       -11.3693
  61   2.0000      -0.413825       -11.2607
  62   2.0000      -0.407436       -11.0869
  63   2.0000      -0.348082        -9.4718
  64   2.0000      -0.335814        -9.1380
  65   2.0000      -0.325577        -8.8594
  66   2.0000      -0.291809        -7.9405
  67   0.0000       0.022423         0.6102
  68   0.0000       0.072135         1.9629
  69   0.0000       0.106532         2.8989
  70   0.0000       0.117561         3.1990
  71   0.0000       0.137132         3.7316

MULLIKEN ATOMIC CHARGES
-----------------------
   0 S :    0.138521
   1 C :   -0.100411
   2 C :   -0.079617
   3 C :    0.021837
   4 C :   -0.156995
   5 H :    0.011759
   6 C :    0.060787
   7 H :    0.039769
   8 H :    0.014815
   9 C :   -0.113667
  10 H :    0.031499
  11 H :    0.036307
  12 C :   -0.056900
  13 H :    0.041756
  14 H :    0.037110
  15 H :    0.035560
  16 S :    0.074625
  17 C :   -0.067922
  18 C :   -0.078080
  19 C :   -0.057000
  20 C :   -0.120819
  21 H :    0.052672
  22 C :    0.051187
  23 H :    0.012376
  24 H :    0.039391
  25 C :   -0.042102
  26 H :    0.017552
  27 H :    0.027103
  28 C :   -0.005974
  29 H :    0.021926
  30 H :    0.017903
  31 H :    0.019603
  32 H :    0.040881
  33 H :    0.034549
Sum of atomic charges:   -0.0000000

LOEWDIN ATOMIC CHARGES
----------------------
   0 S :    0.420271
   1 C :   -0.205195
   2 C :   -0.050092
   3 C :   -0.051899
   4 C :   -0.196580
   5 H :    0.026534
   6 C :   -0.027737
   7 H :    0.034490
   8 H :    0.024046
   9 C :   -0.045795
  10 H :    0.014633
  11 H :    0.024452
  12 C :   -0.065707
  13 H :    0.026615
  14 H :    0.029145
  15 H :    0.029667
  16 S :    0.386186
  17 C :   -0.167654
  18 C :   -0.084194
  19 C :   -0.064175
  20 C :   -0.195763
  21 H :    0.044337
  22 C :   -0.031923
  23 H :    0.032006
  24 H :    0.032657
  25 C :   -0.035245
  26 H :    0.023749
  27 H :    0.022088
  28 C :   -0.056411
  29 H :    0.018898
  30 H :    0.023527
  31 H :    0.023857
  32 H :    0.024880
  33 H :    0.016333

  Mayer bond orders larger than 0.100000
B(  0-S ,  1-C ) :   1.1224 B(  0-S ,  4-C ) :   1.1544 B(  1-C ,  2-C ) :   1.6387
B(  1-C , 32-H ) :   0.9594 B(  2-C ,  3-C ) :   1.2369 B(  2-C ,  6-C ) :   1.0049
B(  3-C ,  4-C ) :   1.5733 B(  3-C ,  5-H ) :   0.9876 B(  4-C , 20-C ) :   1.0362
B(  6-C ,  7-H ) :   0.9357 B(  6-C ,  8-H ) :   0.9586 B(  6-C ,  9-C ) :   1.0509
B(  9-C , 10-H ) :   0.9503 B(  9-C , 11-H ) :   0.9637 B(  9-C , 12-C ) :   1.0908
B( 12-C , 13-H ) :   0.9733 B( 12-C , 14-H ) :   0.9729 B( 12-C , 15-H ) :   0.9708
B( 16-S , 17-C ) :   1.1508 B( 16-S , 20-C ) :   1.1397 B( 17-C , 18-C ) :   1.5871
B( 17-C , 20-C ) :   0.1061 B( 17-C , 33-H ) :   0.9836 B( 18-C , 19-C ) :   1.2611
B( 18-C , 21-H ) :   0.9693 B( 19-C , 20-C ) :   1.5919 B( 19-C , 22-C ) :   1.0035
B( 22-C , 23-H ) :   0.9357 B( 22-C , 24-H ) :   0.9338 B( 22-C , 25-C ) :   1.0703
B( 25-C , 26-H ) :   0.9514 B( 25-C , 27-H ) :   0.9494 B( 25-C , 28-C ) :   1.0893
B( 28-C , 29-H ) :   0.9754 B( 28-C , 30-H ) :   0.9712 B( 28-C , 31-H ) :   0.9676

Dispersion correction           -0.013736848
FINAL SINGLE POINT ENERGY     -1339.853353420601

DIPOLE MOMENT
-------------
                                X             Y             Z
Electronic contribution:     -8.88165     -19.53199     -20.30872
Nuclear contribution   :      8.95611      20.01439      20.96781
                        -----------------------------------------
Total Dipole Moment    :      0.07447       0.48240       0.65909
                        -----------------------------------------
Magnitude (a.u.)       :      0.82016
Magnitude (Debye)      :      2.08468

Rotational constants in cm-1:     0.018465     0.008002     0.006138
Rotational constants in MHz :   553.562223   239.892551   184.007199

                             ****ORCA TERMINATED NORMALLY****
TOTAL RUN TIME: 0 days 0 hours 0 minutes 30 seconds 24 msec
