                         Program Version 4.2.1 -  RELEASE  -
|  1> ! wB97X-D3 SP def2-SVP
|  2> %pal
|  3> nprocs 16
|  4> end
|  5>
|  6> * xyz 0 1
|  7> S 	 38.7522 	 16.8323 	 49.9555
|  8> C 	 39.0698 	 18.0185 	 51.1961
|  9> C 	 40.3971 	 18.0354 	 51.6143
| 10> C 	 41.1478 	 17.0397 	 50.9452
| 11> C 	 40.4072 	 16.2297 	 50.0268
| 12> H 	 42.1662 	 16.8034 	 51.0281
| 13> C 	 40.9512 	 18.7538 	 52.7696
| 14> H 	 41.1864 	 19.6638 	 52.2732
| 15> H 	 41.8844 	 18.3938 	 53.0472
| 16> C 	 40.07 	 18.861 	 53.9975
| 17> H 	 40.6706 	 19.3457 	 54.7444
| 18> H 	 39.2805 	 19.4612 	 53.7386
| 19> C 	 39.7088 	 17.436 	 54.4561
| 20> H 	 39.052 	 17.423 	 55.3445
| 21> H 	 39.1326 	 16.9661 	 53.7341
| 22> H 	 40.5825 	 16.8474 	 54.6036
| 23> S 	 39.747 	 13.6889 	 49.2643
| 24> C 	 40.8908 	 12.5686 	 48.6779
| 25> C 	 42.1123 	 13.1704 	 48.4761
| 26> C 	 42.1944 	 14.4658 	 49.0724
| 27> C 	 40.9436 	 14.9924 	 49.4236
| 28> H 	 42.8509 	 12.6629 	 47.9144
| 29> C 	 43.4718 	 15.2141 	 49.0591
| 30> H 	 44.31 	 14.6551 	 49.5596
| 31> H 	 43.519 	 16.1191 	 49.6224
| 32> C 	 44.0487 	 15.5211 	 47.6403
| 33> H 	 43.9952 	 14.6028 	 46.9922
| 34> H 	 45.0989 	 15.9819 	 47.6639
| 35> C 	 43.2557 	 16.6783 	 47.0921
| 36> H 	 43.4745 	 17.5391 	 47.7269
| 37> H 	 42.1255 	 16.5027 	 47.083
| 38> H 	 43.6202 	 16.9156 	 46.0709
| 39> H 	 38.278 	 18.5762 	 51.7378
| 40> H 	 40.6515 	 11.5144 	 48.3398
| 41> *
| 42>
| 43>                          ****END OF INPUT****

CARTESIAN COORDINATES (ANGSTROEM)
---------------------------------
  S     38.752200   16.832300   49.955500
  C     39.069800   18.018500   51.196100
  C     40.397100   18.035400   51.614300
  C     41.147800   17.039700   50.945200
  C     40.407200   16.229700   50.026800
  H     42.166200   16.803400   51.028100
  C     40.951200   18.753800   52.769600
  H     41.186400   19.663800   52.273200
  H     41.884400   18.393800   53.047200
  C     40.070000   18.861000   53.997500
  H     40.670600   19.345700   54.744400
  H     39.280500   19.461200   53.738600
  C     39.708800   17.436000   54.456100
  H     39.052000   17.423000   55.344500
  H     39.132600   16.966100   53.734100
  H     40.582500   16.847400   54.603600
  S     39.747000   13.688900   49.264300
  C     40.890800   12.568600   48.677900
  C     42.112300   13.170400   48.476100
  C     42.194400   14.465800   49.072400
  C     40.943600   14.992400   49.423600
  H     42.850900   12.662900   47.914400
  C     43.471800   15.214100   49.059100
  H     44.310000   14.655100   49.559600
  H     43.519000   16.119100   49.622400
  C     44.048700   15.521100   47.640300
  H     43.995200   14.602800   46.992200
  H     45.098900   15.981900   47.663900
  C     43.255700   16.678300   47.092100
  H     43.474500   17.539100   47.726900
  H     42.125500   16.502700   47.083000
  H     43.620200   16.915600   46.070900
  H     38.278000   18.576200   51.737800
  H     40.651500   11.514400   48.339800

 Total Charge           Charge          ....    0
 Multiplicity           Mult            ....    1
 Number of Electrons    NEL             ....  134
 Basis Dimension        Dim             ....  322

ORBITAL ENERGIES
----------------

  NO   OCC          E(Eh)            E(eV)
   0   2.0000     -88.972745     -2421.0715
   1   2.0000     -88.963075     -2420.8083
   2   2.0000     -10.337587      -281.3000
   3   2.0000     -10.336179      -281.2617
   4   2.0000     -10.319316      -280.8029
   5   2.0000     -10.314931      -280.6835
   6   2.0000     -10.308836      -280.5177
   7   2.0000     -10.299272      -280.2574
   8   2.0000     -10.294441      -280.1260
   9   2.0000     -10.292337      -280.0687
  10   2.0000     -10.291434      -280.0442
  11   2.0000     -10.291380      -280.0427
  12   2.0000     -10.279933      -279.7312
  13   2.0000     -10.278102      -279.6814
  14   2.0000     -10.275203      -279.6025
  15   2.0000     -10.268006      -279.4067
  16   2.0000      -8.086546      -220.0461
  17   2.0000      -8.078503      -219.8272
  18   2.0000      -6.045136      -164.4965
  19   2.0000      -6.041128      -164.3874
  20   2.0000      -6.037339      -164.2843
  21   2.0000      -6.037037      -164.2761
  22   2.0000      -6.032798      -164.1608
  23   2.0000      -6.029299      -164.0656
  24   2.0000      -1.006533       -27.3892
  25   2.0000      -0.986708       -26.8497
  26   2.0000      -0.924657       -25.1612
  27   2.0000      -0.913286       -24.8518
  28   2.0000      -0.866881       -23.5890
  29   2.0000      -0.854149       -23.2426
  30   2.0000      -0.847172       -23.0527
  31   2.0000      -0.810123       -22.0446
  32   2.0000      -0.786456       -21.4006
  33   2.0000      -0.772751       -21.0276
  34   2.0000      -0.718093       -19.5403
  35   2.0000      -0.701289       -19.0831
  36   2.0000      -0.686647       -18.6846
  37   2.0000      -0.658654       -17.9229
  38   2.0000      -0.637201       -17.3391
  39   2.0000      -0.617916       -16.8144
  40   2.0000      -0.599818       -16.3219
  41   2.0000      -0.591164       -16.0864
  42   2.0000      -0.562400       -15.3037
  43   2.0000      -0.548713       -14.9312
  44   2.0000      -0.546248       -14.8642
  45   2.0000      -0.534688       -14.5496
  46   2.0000      -0.522070       -14.2063
  47   2.0000      -0.505054       -13.7432
  48   2.0000      -0.501492       -13.6463
  49   2.0000      -0.498391       -13.5619
  50   2.0000      -0.490733       -13.3535
  51   2.0000      -0.482908       -13.1406
  52   2.0000      -0.470488       -12.8026
  53   2.0000      -0.466347       -12.6899
  54   2.0000      -0.464461       -12.6386
  55   2.0000      -0.447241       -12.1700
  56   2.0000      -0.441614       -12.0169
  57   2.0000      -0.437491       -11.9047
  58   2.0000      -0.429460       -11.6862
  59   2.0000      -0.426998       -11.6192
  60   2.0000      -0.421954       -11.4820
  61   2.0000      -0.418581       -11.3902
  62   2.0000      -0.407747       -11.0954
  63   2.0000      -0.356253        -9.6941
  64   2.0000      -0.330844        -9.0027
  65   2.0000      -0.326844        -8.8939
  66   2.0000      -0.280148        -7.6232
  67   0.0000       0.019058         0.5186
  68   0.0000       0.077108         2.0982
  69   0.0000       0.111396         3.0312
  70   0.0000       0.117559         3.1989
  71   0.0000       0.132181         3.5968

MULLIKEN ATOMIC CHARGES
-----------------------
   0 S :    0.124262
   1 C :   -0.154084
   2 C :   -0.090363
   3 C :    0.007797
   4 C :   -0.119312
   5 H :   -0.015263
   6 C :    0.104252
   7 H :    0.028117
   8 H :   -0.005631
   9 C :   -0.021769
  10 H :    0.025563
  11 H :    0.009653
  12 C :   -0.016247
  13 H :    0.033153
  14 H :    0.020222
  15 H :    0.023593
  16 S :    0.091120
  17 C :   -0.106749
  18 C :   -0.030399
  19 C :   -0.021709
  20 C :   -0.131751
  21 H :    0.012418
  22 C :    0.036371
  23 H :    0.033941
  24 H :    0.000494
  25 C :   -0.108175
  26 H :    0.042912
  27 H :    0.040768
  28 C :   -0.070815
  29 H :    0.024913
  30 H :    0.056211
  31 H :    0.033385
  32 H :    0.062290
  33 H :    0.080832
Sum of atomic charges:   -0.0000000

LOEWDIN ATOMIC CHARGES
----------------------
   0 S :    0.409724
   1 C :   -0.216777
   2 C :   -0.057369
   3 C :   -0.057892
   4 C :   -0.192776
   5 H :    0.016767
   6 C :   -0.028404
   7 H :    0.037339
   8 H :    0.019846
   9 C :   -0.022710
  10 H :    0.026435
  11 H :    0.010026
  12 C :   -0.053005
  13 H :    0.028878
  14 H :    0.017082
  15 H :    0.024082
  16 S :    0.410355
  17 C :   -0.204809
  18 C :   -0.068748
  19 C :   -0.058382
  20 C :   -0.181264
  21 H :    0.026544
  22 C :   -0.041208
  23 H :    0.038079
  24 H :    0.020640
  25 C :   -0.045526
  26 H :    0.024464
  27 H :    0.034666
  28 C :   -0.074522
  29 H :    0.022274
  30 H :    0.033220
  31 H :    0.023929
  32 H :    0.034095
  33 H :    0.044946

  Mayer bond orders larger than 0.100000
B(  0-S ,  1-C ) :   1.1368 B(  0-S ,  4-C ) :   1.1578 B(  1-C ,  2-C ) :   1.5800
B(  1-C , 32-H ) :   0.9577 B(  2-C ,  3-C ) :   1.2743 B(  2-C ,  6-C ) :   1.0063
B(  3-C ,  4-C ) :   1.5292 B(  3-C ,  5-H ) :   0.9992 B(  4-C , 20-C ) :   1.0688
B(  6-C ,  7-H ) :   0.9138 B(  6-C ,  8-H ) :   0.9417 B(  6-C ,  9-C ) :   1.0820
B(  9-C , 10-H ) :   0.9528 B(  9-C , 11-H ) :   0.9522 B(  9-C , 12-C ) :   1.0777
B( 12-C , 13-H ) :   0.9734 B( 12-C , 14-H ) :   0.9717 B( 12-C , 15-H ) :   0.9744
B( 16-S , 17-C ) :   1.1723 B( 16-S , 20-C ) :   1.1320 B( 17-C , 18-C ) :   1.6030
B( 17-C , 33-H ) :   0.9573 B( 18-C , 19-C ) :   1.2332 B( 18-C , 21-H ) :   0.9951
B( 19-C , 20-C ) :   1.5667 B( 19-C , 22-C ) :   1.0625 B( 22-C , 23-H ) :   0.9238
B( 22-C , 24-H ) :   0.9405 B( 22-C , 25-C ) :   1.0693 B( 25-C , 26-H ) :   0.9559
B( 25-C , 27-H ) :   0.9526 B( 25-C , 28-C ) :   1.0685 B( 28-C , 29-H ) :   0.9735
B( 28-C , 30-H ) :   0.9751 B( 28-C , 31-H ) :   0.9722

Dispersion correction           -0.014915130
FINAL SINGLE POINT ENERGY     -1339.857269948065

DIPOLE MOMENT
-------------
                                X             Y             Z
Electronic contribution:    -15.40084     -11.12164      -7.62001
Nuclear contribution   :     15.95582      11.24244       7.88418
                        -----------------------------------------
Total Dipole Moment    :      0.55498       0.12081       0.26417
                        -----------------------------------------
Magnitude (a.u.)       :      0.62641
Magnitude (Debye)      :      1.59220

Rotational constants in cm-1:     0.021208     0.008418     0.007247
Rotational constants in MHz :   635.814122   252.374366   217.263443

                             ****ORCA TERMINATED NORMALLY****
TOTAL RUN TIME: 0 days 0 hours 0 minutes 36 seconds 106 msec
