                         Program Version 4.2.1 -  RELEASE  -
|  1> ! wB97X-D3 SP def2-SVP
|  2> %pal
|  3> nprocs 16
|  4> end
|  5>
|  6> * xyz 0 1
|  7> S 	 -36.3357 	 74.8342 	 151.16
|  8> C 	 -34.8259 	 75.557 	 151.2
|  9> C 	 -33.8354 	 74.6311 	 150.873
| 10> C 	 -34.4016 	 73.332 	 150.568
| 11> C 	 -35.7155 	 73.2953 	 150.698
| 12> H 	 -33.866 	 72.4713 	 150.179
| 13> C 	 -32.3492 	 75.0248 	 150.676
| 14> H 	 -32.3525 	 76.1294 	 150.744
| 15> H 	 -32.0556 	 74.8082 	 149.612
| 16> C 	 -31.403 	 74.4215 	 151.609
| 17> H 	 -31.8812 	 74.4776 	 152.556
| 18> H 	 -31.401 	 73.3265 	 151.414
| 19> C 	 -29.9465 	 74.8989 	 151.472
| 20> H 	 -29.6174 	 74.8255 	 150.463
| 21> H 	 -29.7561 	 75.9542 	 151.739
| 22> H 	 -29.2051 	 74.2763 	 152.06
| 23> S 	 -37.9963 	 72.3136 	 149.393
| 24> C 	 -38.4461 	 70.6744 	 149.593
| 25> C 	 -37.5081 	 69.9426 	 150.25
| 26> C 	 -36.3998 	 70.7275 	 150.705
| 27> C 	 -36.5074 	 72.1052 	 150.363
| 28> H 	 -37.5381 	 68.8681 	 150.361
| 29> C 	 -35.1933 	 70.0313 	 151.379
| 30> H 	 -35.3942 	 69.2071 	 151.95
| 31> H 	 -34.7034 	 70.7575 	 152.045
| 32> C 	 -34.2171 	 69.5038 	 150.279
| 33> H 	 -33.8756 	 70.3243 	 149.715
| 34> H 	 -34.808 	 68.8669 	 149.668
| 35> C 	 -32.852 	 68.823 	 150.732
| 36> H 	 -33.0512 	 68.3256 	 151.701
| 37> H 	 -32.0402 	 69.6046 	 150.803
| 38> H 	 -32.6067 	 68.0842 	 149.96
| 39> H 	 -34.6702 	 76.6282 	 151.505
| 40> H 	 -39.3152 	 70.2228 	 149.195
| 41> *
| 42>
| 43>                          ****END OF INPUT****

CARTESIAN COORDINATES (ANGSTROEM)
---------------------------------
  S    -36.335700   74.834200  151.160000
  C    -34.825900   75.557000  151.200000
  C    -33.835400   74.631100  150.873000
  C    -34.401600   73.332000  150.568000
  C    -35.715500   73.295300  150.698000
  H    -33.866000   72.471300  150.179000
  C    -32.349200   75.024800  150.676000
  H    -32.352500   76.129400  150.744000
  H    -32.055600   74.808200  149.612000
  C    -31.403000   74.421500  151.609000
  H    -31.881200   74.477600  152.556000
  H    -31.401000   73.326500  151.414000
  C    -29.946500   74.898900  151.472000
  H    -29.617400   74.825500  150.463000
  H    -29.756100   75.954200  151.739000
  H    -29.205100   74.276300  152.060000
  S    -37.996300   72.313600  149.393000
  C    -38.446100   70.674400  149.593000
  C    -37.508100   69.942600  150.250000
  C    -36.399800   70.727500  150.705000
  C    -36.507400   72.105200  150.363000
  H    -37.538100   68.868100  150.361000
  C    -35.193300   70.031300  151.379000
  H    -35.394200   69.207100  151.950000
  H    -34.703400   70.757500  152.045000
  C    -34.217100   69.503800  150.279000
  H    -33.875600   70.324300  149.715000
  H    -34.808000   68.866900  149.668000
  C    -32.852000   68.823000  150.732000
  H    -33.051200   68.325600  151.701000
  H    -32.040200   69.604600  150.803000
  H    -32.606700   68.084200  149.960000
  H    -34.670200   76.628200  151.505000
  H    -39.315200   70.222800  149.195000

 Total Charge           Charge          ....    0
 Multiplicity           Mult            ....    1
 Number of Electrons    NEL             ....  134
 Basis Dimension        Dim             ....  322

ORBITAL ENERGIES
----------------

  NO   OCC          E(Eh)            E(eV)
   0   2.0000     -88.965500     -2420.8743
   1   2.0000     -88.965086     -2420.8631
   2   2.0000     -10.333813      -281.1974
   3   2.0000     -10.322757      -280.8965
   4   2.0000     -10.316594      -280.7288
   5   2.0000     -10.311555      -280.5917
   6   2.0000     -10.309931      -280.5475
   7   2.0000     -10.304022      -280.3867
   8   2.0000     -10.292871      -280.0833
   9   2.0000     -10.290811      -280.0272
  10   2.0000     -10.290090      -280.0076
  11   2.0000     -10.289480      -279.9910
  12   2.0000     -10.289396      -279.9887
  13   2.0000     -10.283949      -279.8405
  14   2.0000     -10.282808      -279.8094
  15   2.0000     -10.282012      -279.7878
  16   2.0000      -8.081919      -219.9202
  17   2.0000      -8.080370      -219.8780
  18   2.0000      -6.040322      -164.3655
  19   2.0000      -6.038874      -164.3261
  20   2.0000      -6.036072      -164.2499
  21   2.0000      -6.034781      -164.2147
  22   2.0000      -6.032701      -164.1581
  23   2.0000      -6.031213      -164.1176
  24   2.0000      -1.016316       -27.6554
  25   2.0000      -0.989104       -26.9149
  26   2.0000      -0.917436       -24.9647
  27   2.0000      -0.904720       -24.6187
  28   2.0000      -0.876400       -23.8481
  29   2.0000      -0.850501       -23.1433
  30   2.0000      -0.843554       -22.9543
  31   2.0000      -0.817551       -22.2467
  32   2.0000      -0.783091       -21.3090
  33   2.0000      -0.772071       -21.0091
  34   2.0000      -0.706541       -19.2259
  35   2.0000      -0.697891       -18.9906
  36   2.0000      -0.692389       -18.8409
  37   2.0000      -0.662808       -18.0359
  38   2.0000      -0.646478       -17.5915
  39   2.0000      -0.622573       -16.9411
  40   2.0000      -0.599203       -16.3051
  41   2.0000      -0.574685       -15.6380
  42   2.0000      -0.569846       -15.5063
  43   2.0000      -0.557880       -15.1807
  44   2.0000      -0.524431       -14.2705
  45   2.0000      -0.519947       -14.1485
  46   2.0000      -0.517433       -14.0801
  47   2.0000      -0.510507       -13.8916
  48   2.0000      -0.509070       -13.8525
  49   2.0000      -0.505827       -13.7643
  50   2.0000      -0.494720       -13.4620
  51   2.0000      -0.484107       -13.1732
  52   2.0000      -0.475799       -12.9471
  53   2.0000      -0.466228       -12.6867
  54   2.0000      -0.463415       -12.6102
  55   2.0000      -0.453251       -12.3336
  56   2.0000      -0.440969       -11.9994
  57   2.0000      -0.439392       -11.9565
  58   2.0000      -0.430544       -11.7157
  59   2.0000      -0.427580       -11.6351
  60   2.0000      -0.419223       -11.4076
  61   2.0000      -0.416381       -11.3303
  62   2.0000      -0.409359       -11.1392
  63   2.0000      -0.358406        -9.7527
  64   2.0000      -0.331512        -9.0209
  65   2.0000      -0.329121        -8.9558
  66   2.0000      -0.293268        -7.9802
  67   0.0000       0.032814         0.8929
  68   0.0000       0.078866         2.1460
  69   0.0000       0.116125         3.1599
  70   0.0000       0.119818         3.2604
  71   0.0000       0.127399         3.4667

MULLIKEN ATOMIC CHARGES
-----------------------
   0 S :    0.127667
   1 C :   -0.146648
   2 C :   -0.100818
   3 C :    0.007576
   4 C :   -0.098849
   5 H :    0.003204
   6 C :    0.054330
   7 H :    0.011776
   8 H :    0.032987
   9 C :   -0.053470
  10 H :    0.020581
  11 H :    0.022490
  12 C :   -0.038636
  13 H :    0.017868
  14 H :    0.033861
  15 H :    0.041507
  16 S :    0.105656
  17 C :   -0.061420
  18 C :   -0.030051
  19 C :   -0.047773
  20 C :   -0.182997
  21 H :    0.017640
  22 C :    0.095776
  23 H :   -0.003420
  24 H :    0.029825
  25 C :   -0.080281
  26 H :    0.014622
  27 H :    0.017286
  28 C :   -0.058791
  29 H :    0.036941
  30 H :    0.047368
  31 H :    0.045098
  32 H :    0.076607
  33 H :    0.042487
Sum of atomic charges:   -0.0000000

LOEWDIN ATOMIC CHARGES
----------------------
   0 S :    0.444260
   1 C :   -0.226562
   2 C :   -0.064422
   3 C :   -0.064314
   4 C :   -0.207430
   5 H :    0.032854
   6 C :   -0.035179
   7 H :    0.027005
   8 H :    0.031931
   9 C :   -0.050819
  10 H :    0.021878
  11 H :    0.027864
  12 C :   -0.066654
  13 H :    0.020743
  14 H :    0.026509
  15 H :    0.034293
  16 S :    0.406274
  17 C :   -0.186932
  18 C :   -0.076044
  19 C :   -0.044747
  20 C :   -0.185278
  21 H :    0.031485
  22 C :   -0.023895
  23 H :    0.013637
  24 H :    0.030738
  25 C :   -0.032981
  26 H :    0.011649
  27 H :    0.016856
  28 C :   -0.067571
  29 H :    0.025153
  30 H :    0.031319
  31 H :    0.030381
  32 H :    0.043690
  33 H :    0.024310

  Mayer bond orders larger than 0.100000
B(  0-S ,  1-C ) :   1.1606 B(  0-S ,  4-C ) :   1.1517 B(  1-C ,  2-C ) :   1.5967
B(  1-C , 32-H ) :   0.9600 B(  2-C ,  3-C ) :   1.2333 B(  2-C ,  6-C ) :   1.0244
B(  3-C ,  4-C ) :   1.5808 B(  3-C ,  5-H ) :   1.0014 B(  4-C , 20-C ) :   1.0374
B(  6-C ,  7-H ) :   0.9417 B(  6-C ,  8-H ) :   0.9378 B(  6-C ,  9-C ) :   1.0659
B(  9-C , 10-H ) :   0.9543 B(  9-C , 11-H ) :   0.9490 B(  9-C , 12-C ) :   1.0741
B( 12-C , 13-H ) :   0.9708 B( 12-C , 14-H ) :   0.9760 B( 12-C , 15-H ) :   0.9756
B( 16-S , 17-C ) :   1.1642 B( 16-S , 20-C ) :   1.1385 B( 17-C , 18-C ) :   1.5949
B( 17-C , 33-H ) :   0.9691 B( 18-C , 19-C ) :   1.2622 B( 18-C , 21-H ) :   0.9885
B( 19-C , 20-C ) :   1.5756 B( 19-C , 22-C ) :   1.0567 B( 22-C , 23-H ) :   0.9309
B( 22-C , 24-H ) :   0.9351 B( 22-C , 25-C ) :   1.0560 B( 25-C , 26-H ) :   0.9591
B( 25-C , 27-H ) :   0.9590 B( 25-C , 28-C ) :   1.0609 B( 28-C , 29-H ) :   0.9780
B( 28-C , 30-H ) :   0.9805 B( 28-C , 31-H ) :   0.9766

Dispersion correction           -0.014016046
FINAL SINGLE POINT ENERGY     -1339.876685666112

DIPOLE MOMENT
-------------
                                X             Y             Z
Electronic contribution:    -31.49610       9.54023      -4.07320
Nuclear contribution   :     32.02777      -9.87558       4.03979
                        -----------------------------------------
Total Dipole Moment    :      0.53167      -0.33535      -0.03341
                        -----------------------------------------
Magnitude (a.u.)       :      0.62948
Magnitude (Debye)      :      1.60001

Rotational constants in cm-1:     0.017426     0.009121     0.006273
Rotational constants in MHz :   522.412702   273.432460   188.069795

                             ****ORCA TERMINATED NORMALLY****
TOTAL RUN TIME: 0 days 0 hours 0 minutes 35 seconds 42 msec
