                         Program Version 4.2.1 -  RELEASE  -
|  1> ! wB97X-D3 SP def2-SVP
|  2> %pal
|  3> nprocs 16
|  4> end
|  5>
|  6> * xyz 0 1
|  7> S 	 38.4691 	 10.0408 	 80.2972
|  8> C 	 39.6046 	 8.76899 	 79.7965
|  9> C 	 40.7811 	 8.71637 	 80.5327
| 10> C 	 40.8284 	 9.89159 	 81.399
| 11> C 	 39.6282 	 10.58 	 81.5321
| 12> H 	 41.6741 	 10.2139 	 81.9438
| 13> C 	 42.0124 	 7.81426 	 80.4522
| 14> H 	 41.6592 	 6.87742 	 80.1713
| 15> H 	 42.439 	 7.56651 	 81.3974
| 16> C 	 43.0414 	 8.30761 	 79.4325
| 17> H 	 43.7067 	 7.43376 	 79.2912
| 18> H 	 42.4991 	 8.46938 	 78.5079
| 19> C 	 43.7814 	 9.62682 	 79.7573
| 20> H 	 43.0772 	 10.4306 	 79.7723
| 21> H 	 44.305 	 9.57151 	 80.6989
| 22> H 	 44.543 	 9.76303 	 78.9429
| 23> S 	 39.3154 	 13.2806 	 81.6956
| 24> C 	 39.4605 	 14.0715 	 83.2251
| 25> C 	 39.6026 	 13.2015 	 84.2428
| 26> C 	 39.5709 	 11.7874 	 83.7927
| 27> C 	 39.4261 	 11.6989 	 82.4369
| 28> H 	 39.6037 	 13.6393 	 85.2493
| 29> C 	 39.7412 	 10.6176 	 84.7792
| 30> H 	 39.071 	 9.81426 	 84.4171
| 31> H 	 39.2313 	 10.9395 	 85.7158
| 32> C 	 41.1801 	 10.0624 	 85.1247
| 33> H 	 41.6914 	 9.77264 	 84.2169
| 34> H 	 41.274 	 9.31584 	 85.8671
| 35> C 	 42.1672 	 11.1589 	 85.5817
| 36> H 	 43.1396 	 10.6714 	 85.5458
| 37> H 	 41.903 	 11.4943 	 86.5711
| 38> H 	 42.095 	 11.976 	 84.8453
| 39> H 	 39.2628 	 8.07797 	 79.0009
| 40> H 	 39.4663 	 15.1771 	 83.3334
| 41> *
| 42>
| 43>                          ****END OF INPUT****

CARTESIAN COORDINATES (ANGSTROEM)
---------------------------------
  S     38.469100   10.040800   80.297200
  C     39.604600    8.768990   79.796500
  C     40.781100    8.716370   80.532700
  C     40.828400    9.891590   81.399000
  C     39.628200   10.580000   81.532100
  H     41.674100   10.213900   81.943800
  C     42.012400    7.814260   80.452200
  H     41.659200    6.877420   80.171300
  H     42.439000    7.566510   81.397400
  C     43.041400    8.307610   79.432500
  H     43.706700    7.433760   79.291200
  H     42.499100    8.469380   78.507900
  C     43.781400    9.626820   79.757300
  H     43.077200   10.430600   79.772300
  H     44.305000    9.571510   80.698900
  H     44.543000    9.763030   78.942900
  S     39.315400   13.280600   81.695600
  C     39.460500   14.071500   83.225100
  C     39.602600   13.201500   84.242800
  C     39.570900   11.787400   83.792700
  C     39.426100   11.698900   82.436900
  H     39.603700   13.639300   85.249300
  C     39.741200   10.617600   84.779200
  H     39.071000    9.814260   84.417100
  H     39.231300   10.939500   85.715800
  C     41.180100   10.062400   85.124700
  H     41.691400    9.772640   84.216900
  H     41.274000    9.315840   85.867100
  C     42.167200   11.158900   85.581700
  H     43.139600   10.671400   85.545800
  H     41.903000   11.494300   86.571100
  H     42.095000   11.976000   84.845300
  H     39.262800    8.077970   79.000900
  H     39.466300   15.177100   83.333400

 Total Charge           Charge          ....    0
 Multiplicity           Mult            ....    1
 Number of Electrons    NEL             ....  134
 Basis Dimension        Dim             ....  322

ORBITAL ENERGIES
----------------

  NO   OCC          E(Eh)            E(eV)
   0   2.0000     -88.966827     -2420.9104
   1   2.0000     -88.959854     -2420.7207
   2   2.0000     -10.329360      -281.0762
   3   2.0000     -10.324075      -280.9324
   4   2.0000     -10.323098      -280.9058
   5   2.0000     -10.315738      -280.7055
   6   2.0000     -10.310664      -280.5674
   7   2.0000     -10.308055      -280.4964
   8   2.0000     -10.298806      -280.2448
   9   2.0000     -10.295523      -280.1554
  10   2.0000     -10.293639      -280.1042
  11   2.0000     -10.288725      -279.9704
  12   2.0000     -10.287950      -279.9493
  13   2.0000     -10.283561      -279.8299
  14   2.0000     -10.279512      -279.7197
  15   2.0000     -10.272651      -279.5330
  16   2.0000      -8.080838      -219.8908
  17   2.0000      -8.075709      -219.7512
  18   2.0000      -6.039456      -164.3419
  19   2.0000      -6.035542      -164.2354
  20   2.0000      -6.034294      -164.2015
  21   2.0000      -6.031437      -164.1237
  22   2.0000      -6.030094      -164.0872
  23   2.0000      -6.026267      -163.9831
  24   2.0000      -1.004874       -27.3440
  25   2.0000      -0.979368       -26.6500
  26   2.0000      -0.912640       -24.8342
  27   2.0000      -0.901236       -24.5239
  28   2.0000      -0.870262       -23.6810
  29   2.0000      -0.847694       -23.0669
  30   2.0000      -0.841866       -22.9083
  31   2.0000      -0.814952       -22.1760
  32   2.0000      -0.788297       -21.4507
  33   2.0000      -0.771837       -21.0027
  34   2.0000      -0.702170       -19.1070
  35   2.0000      -0.699865       -19.0443
  36   2.0000      -0.685870       -18.6635
  37   2.0000      -0.658854       -17.9283
  38   2.0000      -0.643857       -17.5202
  39   2.0000      -0.617455       -16.8018
  40   2.0000      -0.587798       -15.9948
  41   2.0000      -0.574396       -15.6301
  42   2.0000      -0.559221       -15.2172
  43   2.0000      -0.546805       -14.8793
  44   2.0000      -0.542007       -14.7488
  45   2.0000      -0.539781       -14.6882
  46   2.0000      -0.519502       -14.1364
  47   2.0000      -0.513197       -13.9648
  48   2.0000      -0.498700       -13.5703
  49   2.0000      -0.496646       -13.5144
  50   2.0000      -0.482838       -13.1387
  51   2.0000      -0.479309       -13.0427
  52   2.0000      -0.469720       -12.7817
  53   2.0000      -0.464321       -12.6348
  54   2.0000      -0.458773       -12.4839
  55   2.0000      -0.444920       -12.1069
  56   2.0000      -0.441752       -12.0207
  57   2.0000      -0.436033       -11.8651
  58   2.0000      -0.432771       -11.7763
  59   2.0000      -0.426123       -11.5954
  60   2.0000      -0.421053       -11.4574
  61   2.0000      -0.418294       -11.3824
  62   2.0000      -0.407896       -11.0994
  63   2.0000      -0.341784        -9.3004
  64   2.0000      -0.329802        -8.9744
  65   2.0000      -0.325252        -8.8506
  66   2.0000      -0.303801        -8.2669
  67   0.0000       0.036207         0.9852
  68   0.0000       0.067040         1.8243
  69   0.0000       0.110744         3.0135
  70   0.0000       0.120465         3.2780
  71   0.0000       0.124140         3.3780

MULLIKEN ATOMIC CHARGES
-----------------------
   0 S :    0.102741
   1 C :   -0.147602
   2 C :   -0.094602
   3 C :    0.039063
   4 C :   -0.161732
   5 H :    0.009657
   6 C :    0.127621
   7 H :   -0.005224
   8 H :    0.016962
   9 C :   -0.082331
  10 H :    0.033921
  11 H :    0.025144
  12 C :   -0.045842
  13 H :    0.044967
  14 H :    0.027649
  15 H :    0.045002
  16 S :    0.097428
  17 C :   -0.103040
  18 C :   -0.041318
  19 C :   -0.070955
  20 C :   -0.144775
  21 H :    0.029446
  22 C :    0.068043
  23 H :    0.042000
  24 H :    0.025590
  25 C :   -0.034775
  26 H :    0.009245
  27 H :    0.026508
  28 C :   -0.077349
  29 H :    0.034516
  30 H :    0.025329
  31 H :    0.045023
  32 H :    0.063819
  33 H :    0.069868
Sum of atomic charges:   -0.0000000

LOEWDIN ATOMIC CHARGES
----------------------
   0 S :    0.378337
   1 C :   -0.187461
   2 C :   -0.056402
   3 C :   -0.046857
   4 C :   -0.193576
   5 H :    0.020930
   6 C :   -0.027380
   7 H :    0.023545
   8 H :    0.027490
   9 C :   -0.035579
  10 H :    0.025770
  11 H :    0.024626
  12 C :   -0.062710
  13 H :    0.024186
  14 H :    0.020428
  15 H :    0.035970
  16 S :    0.402492
  17 C :   -0.190269
  18 C :   -0.081354
  19 C :   -0.053833
  20 C :   -0.199613
  21 H :    0.037418
  22 C :   -0.036200
  23 H :    0.037373
  24 H :    0.032785
  25 C :   -0.033228
  26 H :    0.018971
  27 H :    0.019526
  28 C :   -0.061531
  29 H :    0.025915
  30 H :    0.015653
  31 H :    0.025853
  32 H :    0.030586
  33 H :    0.038140

  Mayer bond orders larger than 0.100000
B(  0-S ,  1-C ) :   1.1349 B(  0-S ,  4-C ) :   1.1259 B(  1-C ,  2-C ) :   1.6329
B(  1-C , 32-H ) :   0.9631 B(  2-C ,  3-C ) :   1.2060 B(  2-C ,  6-C ) :   1.0244
B(  3-C ,  4-C ) :   1.6142 B(  3-C ,  5-H ) :   0.9836 B(  4-C , 20-C ) :   1.0231
B(  6-C ,  7-H ) :   0.9224 B(  6-C ,  8-H ) :   0.9389 B(  6-C ,  9-C ) :   1.0751
B(  9-C , 10-H ) :   0.9560 B(  9-C , 11-H ) :   0.9530 B(  9-C , 12-C ) :   1.0823
B( 12-C , 13-H ) :   0.9700 B( 12-C , 14-H ) :   0.9757 B( 12-C , 15-H ) :   0.9724
B( 16-S , 17-C ) :   1.1446 B( 16-S , 20-C ) :   1.1325 B( 17-C , 18-C ) :   1.6652
B( 17-C , 33-H ) :   0.9594 B( 18-C , 19-C ) :   1.1788 B( 18-C , 21-H ) :   0.9879
B( 19-C , 20-C ) :   1.6581 B( 19-C , 22-C ) :   1.0351 B( 22-C , 23-H ) :   0.9371
B( 22-C , 24-H ) :   0.9407 B( 22-C , 25-C ) :   1.0545 B( 25-C , 26-H ) :   0.9596
B( 25-C , 27-H ) :   0.9603 B( 25-C , 28-C ) :   1.0713 B( 28-C , 29-H ) :   0.9777
B( 28-C , 30-H ) :   0.9789 B( 28-C , 31-H ) :   0.9749

Dispersion correction           -0.015503081
FINAL SINGLE POINT ENERGY     -1339.876700470748

DIPOLE MOMENT
-------------
                                X             Y             Z
Electronic contribution:    -22.23478      10.98605      -9.07280
Nuclear contribution   :     22.77015     -11.29245       9.34410
                        -----------------------------------------
Total Dipole Moment    :      0.53537      -0.30641       0.27129
                        -----------------------------------------
Magnitude (a.u.)       :      0.67387
Magnitude (Debye)      :      1.71285

Rotational constants in cm-1:     0.017508     0.009701     0.007871
Rotational constants in MHz :   524.885390   290.820450   235.965967

                             ****ORCA TERMINATED NORMALLY****
TOTAL RUN TIME: 0 days 0 hours 0 minutes 31 seconds 517 msec
