                         Program Version 4.2.1 -  RELEASE  -
|  1> ! wB97X-D3 SP def2-SVP
|  2> %pal
|  3> nprocs 16
|  4> end
|  5>
|  6> * xyz 0 1
|  7> S 	 -1.72773 	 59.3745 	 49.0395
|  8> C 	 -2.86231 	 58.7101 	 50.1833
|  9> C 	 -4.06377 	 58.22 	 49.5696
| 10> C 	 -4.15422 	 58.791 	 48.2431
| 11> C 	 -2.97711 	 59.431 	 47.8285
| 12> H 	 -5.03133 	 58.8348 	 47.6056
| 13> C 	 -5.16622 	 57.3879 	 50.2629
| 14> H 	 -4.65387 	 56.6271 	 50.77
| 15> H 	 -5.81113 	 56.9335 	 49.4733
| 16> C 	 -6.00994 	 58.1407 	 51.2975
| 17> H 	 -5.29778 	 58.3773 	 52.128
| 18> H 	 -6.34901 	 59.1099 	 50.8861
| 19> C 	 -7.21094 	 57.3189 	 51.8077
| 20> H 	 -7.79953 	 57.8229 	 52.542
| 21> H 	 -7.89537 	 57.1221 	 51.0014
| 22> H 	 -6.86452 	 56.3855 	 52.2478
| 23> S 	 -1.94399 	 61.8904 	 46.9153
| 24> C 	 -2.4127 	 62.4288 	 45.2952
| 25> C 	 -2.87144 	 61.3828 	 44.5687
| 26> C 	 -3.13203 	 60.2319 	 45.329
| 27> C 	 -2.8026 	 60.3554 	 46.6492
| 28> H 	 -2.98745 	 61.2976 	 43.4962
| 29> C 	 -3.7431 	 59.0239 	 44.7074
| 30> H 	 -4.58468 	 59.6093 	 44.3045
| 31> H 	 -4.0197 	 58.2451 	 45.4788
| 32> C 	 -2.92569 	 58.4359 	 43.5801
| 33> H 	 -2.44381 	 59.1706 	 42.9735
| 34> H 	 -3.56513 	 57.8427 	 42.9477
| 35> C 	 -1.78989 	 57.5465 	 44.0385
| 36> H 	 -1.00052 	 58.0286 	 44.5652
| 37> H 	 -1.3219 	 56.9173 	 43.1837
| 38> H 	 -2.24573 	 56.7723 	 44.6625
| 39> H 	 -2.62491 	 58.7087 	 51.2143
| 40> H 	 -2.31347 	 63.4331 	 44.8959
| 41> *
| 42>
| 43>                          ****END OF INPUT****

CARTESIAN COORDINATES (ANGSTROEM)
---------------------------------
  S     -1.727730   59.374500   49.039500
  C     -2.862310   58.710100   50.183300
  C     -4.063770   58.220000   49.569600
  C     -4.154220   58.791000   48.243100
  C     -2.977110   59.431000   47.828500
  H     -5.031330   58.834800   47.605600
  C     -5.166220   57.387900   50.262900
  H     -4.653870   56.627100   50.770000
  H     -5.811130   56.933500   49.473300
  C     -6.009940   58.140700   51.297500
  H     -5.297780   58.377300   52.128000
  H     -6.349010   59.109900   50.886100
  C     -7.210940   57.318900   51.807700
  H     -7.799530   57.822900   52.542000
  H     -7.895370   57.122100   51.001400
  H     -6.864520   56.385500   52.247800
  S     -1.943990   61.890400   46.915300
  C     -2.412700   62.428800   45.295200
  C     -2.871440   61.382800   44.568700
  C     -3.132030   60.231900   45.329000
  C     -2.802600   60.355400   46.649200
  H     -2.987450   61.297600   43.496200
  C     -3.743100   59.023900   44.707400
  H     -4.584680   59.609300   44.304500
  H     -4.019700   58.245100   45.478800
  C     -2.925690   58.435900   43.580100
  H     -2.443810   59.170600   42.973500
  H     -3.565130   57.842700   42.947700
  C     -1.789890   57.546500   44.038500
  H     -1.000520   58.028600   44.565200
  H     -1.321900   56.917300   43.183700
  H     -2.245730   56.772300   44.662500
  H     -2.624910   58.708700   51.214300
  H     -2.313470   63.433100   44.895900

 Total Charge           Charge          ....    0
 Multiplicity           Mult            ....    1
 Number of Electrons    NEL             ....  134
 Basis Dimension        Dim             ....  322

ORBITAL ENERGIES
----------------

  NO   OCC          E(Eh)            E(eV)
   0   2.0000     -88.967407     -2420.9262
   1   2.0000     -88.961311     -2420.7603
   2   2.0000     -10.331284      -281.1285
   3   2.0000     -10.324796      -280.9520
   4   2.0000     -10.318535      -280.7816
   5   2.0000     -10.315012      -280.6857
   6   2.0000     -10.312499      -280.6174
   7   2.0000     -10.298701      -280.2419
   8   2.0000     -10.294599      -280.1303
   9   2.0000     -10.293187      -280.0919
  10   2.0000     -10.292429      -280.0712
  11   2.0000     -10.292212      -280.0653
  12   2.0000     -10.288458      -279.9632
  13   2.0000     -10.281486      -279.7735
  14   2.0000     -10.277251      -279.6582
  15   2.0000     -10.275635      -279.6142
  16   2.0000      -8.082348      -219.9319
  17   2.0000      -8.075501      -219.7456
  18   2.0000      -6.040732      -164.3767
  19   2.0000      -6.036886      -164.2720
  20   2.0000      -6.034206      -164.1991
  21   2.0000      -6.033210      -164.1720
  22   2.0000      -6.030282      -164.0923
  23   2.0000      -6.025881      -163.9726
  24   2.0000      -1.004133       -27.3238
  25   2.0000      -0.982407       -26.7326
  26   2.0000      -0.916910       -24.9504
  27   2.0000      -0.909489       -24.7484
  28   2.0000      -0.861880       -23.4529
  29   2.0000      -0.853219       -23.2173
  30   2.0000      -0.845836       -23.0164
  31   2.0000      -0.812907       -22.1203
  32   2.0000      -0.781705       -21.2713
  33   2.0000      -0.770288       -20.9606
  34   2.0000      -0.701983       -19.1019
  35   2.0000      -0.699317       -19.0294
  36   2.0000      -0.693173       -18.8622
  37   2.0000      -0.661002       -17.9868
  38   2.0000      -0.644663       -17.5422
  39   2.0000      -0.614806       -16.7297
  40   2.0000      -0.600236       -16.3333
  41   2.0000      -0.568205       -15.4616
  42   2.0000      -0.561563       -15.2809
  43   2.0000      -0.557695       -15.1757
  44   2.0000      -0.545104       -14.8330
  45   2.0000      -0.525280       -14.2936
  46   2.0000      -0.515391       -14.0245
  47   2.0000      -0.508371       -13.8335
  48   2.0000      -0.500590       -13.6217
  49   2.0000      -0.494530       -13.4568
  50   2.0000      -0.490525       -13.3479
  51   2.0000      -0.478477       -13.0200
  52   2.0000      -0.471982       -12.8433
  53   2.0000      -0.463736       -12.6189
  54   2.0000      -0.457868       -12.4592
  55   2.0000      -0.449799       -12.2397
  56   2.0000      -0.445997       -12.1362
  57   2.0000      -0.438609       -11.9352
  58   2.0000      -0.434664       -11.8278
  59   2.0000      -0.426238       -11.5985
  60   2.0000      -0.422794       -11.5048
  61   2.0000      -0.420934       -11.4542
  62   2.0000      -0.409301       -11.1376
  63   2.0000      -0.346437        -9.4270
  64   2.0000      -0.329911        -8.9773
  65   2.0000      -0.323943        -8.8149
  66   2.0000      -0.282766        -7.6944
  67   0.0000       0.026470         0.7203
  68   0.0000       0.066857         1.8193
  69   0.0000       0.095354         2.5947
  70   0.0000       0.124208         3.3799
  71   0.0000       0.135105         3.6764

MULLIKEN ATOMIC CHARGES
-----------------------
   0 S :    0.111965
   1 C :   -0.140008
   2 C :   -0.082944
   3 C :    0.013452
   4 C :   -0.148083
   5 H :    0.021909
   6 C :    0.084241
   7 H :    0.020641
   8 H :    0.027682
   9 C :   -0.099758
  10 H :    0.031376
  11 H :    0.036204
  12 C :   -0.019763
  13 H :    0.030097
  14 H :    0.026757
  15 H :    0.028150
  16 S :    0.088908
  17 C :   -0.084136
  18 C :   -0.017353
  19 C :   -0.065727
  20 C :   -0.149755
  21 H :    0.014968
  22 C :    0.056915
  23 H :    0.038680
  24 H :    0.038831
  25 C :   -0.040666
  26 H :    0.018119
  27 H :    0.024485
  28 C :   -0.070390
  29 H :    0.042030
  30 H :    0.039331
  31 H :    0.021265
  32 H :    0.043076
  33 H :    0.059502
Sum of atomic charges:   -0.0000000

LOEWDIN ATOMIC CHARGES
----------------------
   0 S :    0.411151
   1 C :   -0.196224
   2 C :   -0.050237
   3 C :   -0.067368
   4 C :   -0.194107
   5 H :    0.031364
   6 C :   -0.029382
   7 H :    0.025502
   8 H :    0.033087
   9 C :   -0.041113
  10 H :    0.026273
  11 H :    0.025348
  12 C :   -0.061772
  13 H :    0.024319
  14 H :    0.023747
  15 H :    0.025456
  16 S :    0.372687
  17 C :   -0.167717
  18 C :   -0.075259
  19 C :   -0.064276
  20 C :   -0.193157
  21 H :    0.030663
  22 C :   -0.034677
  23 H :    0.042119
  24 H :    0.038149
  25 C :   -0.039797
  26 H :    0.019641
  27 H :    0.024392
  28 C :   -0.065963
  29 H :    0.021241
  30 H :    0.035364
  31 H :    0.022380
  32 H :    0.015209
  33 H :    0.032955

  Mayer bond orders larger than 0.100000
B(  0-S ,  1-C ) :   1.1595 B(  0-S ,  4-C ) :   1.1520 B(  1-C ,  2-C ) :   1.5675
B(  1-C , 32-H ) :   0.9794 B(  2-C ,  3-C ) :   1.2456 B(  2-C ,  6-C ) :   1.0226
B(  3-C ,  4-C ) :   1.5797 B(  3-C ,  5-H ) :   0.9837 B(  4-C , 20-C ) :   1.0195
B(  6-C ,  7-H ) :   0.9333 B(  6-C ,  8-H ) :   0.9465 B(  6-C ,  9-C ) :   1.0618
B(  9-C , 10-H ) :   0.9543 B(  9-C , 11-H ) :   0.9604 B(  9-C , 12-C ) :   1.0810
B( 12-C , 13-H ) :   0.9742 B( 12-C , 14-H ) :   0.9745 B( 12-C , 15-H ) :   0.9738
B( 16-S , 17-C ) :   1.1446 B( 16-S , 20-C ) :   1.1078 B( 17-C , 18-C ) :   1.6046
B( 17-C , 33-H ) :   0.9689 B( 18-C , 19-C ) :   1.2536 B( 18-C , 21-H ) :   0.9822
B( 19-C , 20-C ) :   1.6234 B( 19-C , 22-C ) :   1.0083 B( 22-C , 23-H ) :   0.9282
B( 22-C , 24-H ) :   0.9354 B( 22-C , 25-C ) :   1.0805 B( 25-C , 26-H ) :   0.9549
B( 25-C , 27-H ) :   0.9508 B( 25-C , 28-C ) :   1.0743 B( 28-C , 29-H ) :   0.9786
B( 28-C , 30-H ) :   0.9723 B( 28-C , 31-H ) :   0.9727

Dispersion correction           -0.013804052
FINAL SINGLE POINT ENERGY     -1339.863618005888

DIPOLE MOMENT
-------------
                                X             Y             Z
Electronic contribution:     16.23267      17.35186       1.12909
Nuclear contribution   :    -16.76793     -17.63023      -1.30432
                        -----------------------------------------
Total Dipole Moment    :     -0.53526      -0.27837      -0.17523
                        -----------------------------------------
Magnitude (a.u.)       :      0.62825
Magnitude (Debye)      :      1.59689

Rotational constants in cm-1:     0.020968     0.007278     0.006457
Rotational constants in MHz :   628.607192   218.203337   193.585314

                             ****ORCA TERMINATED NORMALLY****
TOTAL RUN TIME: 0 days 0 hours 0 minutes 33 seconds 196 msec
