                         Program Version 4.2.1 -  RELEASE  -
|  1> ! wB97X-D3 SP def2-SVP
|  2> %pal
|  3> nprocs 16
|  4> end
|  5>
|  6> * xyz 0 1
|  7> S 	 -10.5455 	 63.5871 	 51.3687
|  8> C 	 -10.7303 	 61.8253 	 51.4088
|  9> C 	 -9.51278 	 61.1777 	 51.7031
| 10> C 	 -8.47684 	 62.1272 	 52.0698
| 11> C 	 -8.9053 	 63.438 	 52.0499
| 12> H 	 -7.48858 	 61.8285 	 52.2095
| 13> C 	 -9.31905 	 59.6292 	 51.6782
| 14> H 	 -10.2729 	 59.0961 	 51.5784
| 15> H 	 -9.0304 	 59.3809 	 52.7181
| 16> C 	 -8.38802 	 59.1957 	 50.5217
| 17> H 	 -8.31491 	 58.0996 	 50.4633
| 18> H 	 -8.67032 	 59.5926 	 49.5245
| 19> C 	 -6.93146 	 59.6662 	 50.693
| 20> H 	 -6.56268 	 59.5509 	 51.6423
| 21> H 	 -6.22462 	 59.1327 	 50.0503
| 22> H 	 -6.9073 	 60.6937 	 50.4153
| 23> S 	 -8.93999 	 65.8857 	 53.3279
| 24> C 	 -7.38214 	 66.7999 	 53.4352
| 25> C 	 -6.33789 	 66.0473 	 52.9486
| 26> C 	 -6.67571 	 64.7806 	 52.3721
| 27> C 	 -8.06821 	 64.5642 	 52.4455
| 28> H 	 -5.31529 	 66.423 	 53.1205
| 29> C 	 -5.62873 	 63.9407 	 51.73
| 30> H 	 -5.03615 	 64.5718 	 51.0958
| 31> H 	 -6.19758 	 63.3761 	 50.9931
| 32> C 	 -4.65688 	 63.1309 	 52.6432
| 33> H 	 -5.23598 	 62.5328 	 53.3099
| 34> H 	 -4.04669 	 63.8139 	 53.2762
| 35> C 	 -3.6944 	 62.3013 	 51.7922
| 36> H 	 -3.06166 	 61.835 	 52.5321
| 37> H 	 -3.12454 	 62.8429 	 51.0869
| 38> H 	 -4.17584 	 61.4911 	 51.2194
| 39> H 	 -11.5996 	 61.2688 	 51.1526
| 40> H 	 -7.21535 	 67.6697 	 54.0412
| 41> *
| 42>
| 43>                          ****END OF INPUT****

CARTESIAN COORDINATES (ANGSTROEM)
---------------------------------
  S    -10.545500   63.587100   51.368700
  C    -10.730300   61.825300   51.408800
  C     -9.512780   61.177700   51.703100
  C     -8.476840   62.127200   52.069800
  C     -8.905300   63.438000   52.049900
  H     -7.488580   61.828500   52.209500
  C     -9.319050   59.629200   51.678200
  H    -10.272900   59.096100   51.578400
  H     -9.030400   59.380900   52.718100
  C     -8.388020   59.195700   50.521700
  H     -8.314910   58.099600   50.463300
  H     -8.670320   59.592600   49.524500
  C     -6.931460   59.666200   50.693000
  H     -6.562680   59.550900   51.642300
  H     -6.224620   59.132700   50.050300
  H     -6.907300   60.693700   50.415300
  S     -8.939990   65.885700   53.327900
  C     -7.382140   66.799900   53.435200
  C     -6.337890   66.047300   52.948600
  C     -6.675710   64.780600   52.372100
  C     -8.068210   64.564200   52.445500
  H     -5.315290   66.423000   53.120500
  C     -5.628730   63.940700   51.730000
  H     -5.036150   64.571800   51.095800
  H     -6.197580   63.376100   50.993100
  C     -4.656880   63.130900   52.643200
  H     -5.235980   62.532800   53.309900
  H     -4.046690   63.813900   53.276200
  C     -3.694400   62.301300   51.792200
  H     -3.061660   61.835000   52.532100
  H     -3.124540   62.842900   51.086900
  H     -4.175840   61.491100   51.219400
  H    -11.599600   61.268800   51.152600
  H     -7.215350   67.669700   54.041200

 Total Charge           Charge          ....    0
 Multiplicity           Mult            ....    1
 Number of Electrons    NEL             ....  134
 Basis Dimension        Dim             ....  322

ORBITAL ENERGIES
----------------

  NO   OCC          E(Eh)            E(eV)
   0   2.0000     -88.969915     -2420.9945
   1   2.0000     -88.965515     -2420.8747
   2   2.0000     -10.335162      -281.2341
   3   2.0000     -10.332857      -281.1713
   4   2.0000     -10.317754      -280.7604
   5   2.0000     -10.315106      -280.6883
   6   2.0000     -10.307273      -280.4752
   7   2.0000     -10.305606      -280.4298
   8   2.0000     -10.302570      -280.3472
   9   2.0000     -10.294635      -280.1313
  10   2.0000     -10.294622      -280.1309
  11   2.0000     -10.294108      -280.1169
  12   2.0000     -10.291840      -280.0552
  13   2.0000     -10.290172      -280.0098
  14   2.0000     -10.278111      -279.6816
  15   2.0000     -10.269362      -279.4436
  16   2.0000      -8.083383      -219.9600
  17   2.0000      -8.078343      -219.8229
  18   2.0000      -6.042072      -164.4131
  19   2.0000      -6.038227      -164.3085
  20   2.0000      -6.037047      -164.2764
  21   2.0000      -6.033866      -164.1899
  22   2.0000      -6.033266      -164.1735
  23   2.0000      -6.028861      -164.0536
  24   2.0000      -0.995879       -27.0992
  25   2.0000      -0.971629       -26.4394
  26   2.0000      -0.910742       -24.7826
  27   2.0000      -0.907169       -24.6853
  28   2.0000      -0.866279       -23.5727
  29   2.0000      -0.854262       -23.2457
  30   2.0000      -0.842244       -22.9186
  31   2.0000      -0.815321       -22.1860
  32   2.0000      -0.784724       -21.3534
  33   2.0000      -0.770677       -20.9712
  34   2.0000      -0.711257       -19.3543
  35   2.0000      -0.701085       -19.0775
  36   2.0000      -0.698669       -19.0118
  37   2.0000      -0.660454       -17.9719
  38   2.0000      -0.637966       -17.3599
  39   2.0000      -0.620995       -16.8981
  40   2.0000      -0.592890       -16.1334
  41   2.0000      -0.568935       -15.4815
  42   2.0000      -0.566627       -15.4187
  43   2.0000      -0.541770       -14.7423
  44   2.0000      -0.540026       -14.6948
  45   2.0000      -0.535771       -14.5791
  46   2.0000      -0.522465       -14.2170
  47   2.0000      -0.510625       -13.8948
  48   2.0000      -0.506206       -13.7746
  49   2.0000      -0.495407       -13.4807
  50   2.0000      -0.492706       -13.4072
  51   2.0000      -0.484292       -13.1783
  52   2.0000      -0.466187       -12.6856
  53   2.0000      -0.463713       -12.6183
  54   2.0000      -0.457809       -12.4576
  55   2.0000      -0.449626       -12.2350
  56   2.0000      -0.445648       -12.1267
  57   2.0000      -0.440732       -11.9929
  58   2.0000      -0.436900       -11.8887
  59   2.0000      -0.425043       -11.5660
  60   2.0000      -0.422977       -11.5098
  61   2.0000      -0.416943       -11.3456
  62   2.0000      -0.412909       -11.2358
  63   2.0000      -0.351867        -9.5748
  64   2.0000      -0.329931        -8.9779
  65   2.0000      -0.329543        -8.9673
  66   2.0000      -0.284027        -7.7288
  67   0.0000       0.020013         0.5446
  68   0.0000       0.073520         2.0006
  69   0.0000       0.098272         2.6741
  70   0.0000       0.112287         3.0555
  71   0.0000       0.123359         3.3568

MULLIKEN ATOMIC CHARGES
-----------------------
   0 S :    0.116275
   1 C :   -0.108483
   2 C :   -0.116174
   3 C :    0.035842
   4 C :   -0.113512
   5 H :   -0.029415
   6 C :    0.067075
   7 H :    0.021677
   8 H :    0.044448
   9 C :   -0.069048
  10 H :    0.034768
  11 H :    0.041113
  12 C :   -0.054344
  13 H :    0.014959
  14 H :    0.030122
  15 H :    0.036734
  16 S :    0.081878
  17 C :   -0.082739
  18 C :   -0.044833
  19 C :   -0.025183
  20 C :   -0.150161
  21 H :    0.027233
  22 C :    0.050154
  23 H :    0.013391
  24 H :    0.020123
  25 C :   -0.055364
  26 H :    0.026303
  27 H :    0.032052
  28 C :   -0.023038
  29 H :    0.031185
  30 H :    0.025237
  31 H :    0.030969
  32 H :    0.036126
  33 H :    0.054627
Sum of atomic charges:    0.0000000

LOEWDIN ATOMIC CHARGES
----------------------
   0 S :    0.384936
   1 C :   -0.192431
   2 C :   -0.053575
   3 C :   -0.057734
   4 C :   -0.182979
   5 H :    0.017850
   6 C :   -0.031922
   7 H :    0.031059
   8 H :    0.036155
   9 C :   -0.036815
  10 H :    0.024795
  11 H :    0.033158
  12 C :   -0.062409
  13 H :    0.008778
  14 H :    0.028926
  15 H :    0.019910
  16 S :    0.353737
  17 C :   -0.169716
  18 C :   -0.068270
  19 C :   -0.057207
  20 C :   -0.168231
  21 H :    0.035248
  22 C :   -0.038887
  23 H :    0.029519
  24 H :    0.031040
  25 C :   -0.028711
  26 H :    0.018783
  27 H :    0.029270
  28 C :   -0.059645
  29 H :    0.028097
  30 H :    0.019393
  31 H :    0.027817
  32 H :    0.022274
  33 H :    0.027787

  Mayer bond orders larger than 0.100000
B(  0-S ,  1-C ) :   1.1205 B(  0-S ,  4-C ) :   1.1341 B(  1-C ,  2-C ) :   1.6293
B(  1-C , 32-H ) :   0.9689 B(  2-C ,  3-C ) :   1.2327 B(  2-C ,  6-C ) :   1.0095
B(  3-C ,  4-C ) :   1.5618 B(  3-C ,  5-H ) :   0.9988 B(  4-C , 20-C ) :   1.0712
B(  6-C ,  7-H ) :   0.9433 B(  6-C ,  8-H ) :   0.9492 B(  6-C ,  9-C ) :   1.0558
B(  9-C , 10-H ) :   0.9595 B(  9-C , 11-H ) :   0.9574 B(  9-C , 12-C ) :   1.0843
B( 12-C , 13-H ) :   0.9720 B( 12-C , 14-H ) :   0.9685 B( 12-C , 15-H ) :   0.9706
B( 16-S , 17-C ) :   1.1166 B( 16-S , 20-C ) :   1.1253 B( 17-C , 18-C ) :   1.6552
B( 17-C , 33-H ) :   0.9655 B( 18-C , 19-C ) :   1.2190 B( 18-C , 21-H ) :   0.9789
B( 19-C , 20-C ) :   1.5906 B( 19-C , 22-C ) :   1.0433 B( 22-C , 23-H ) :   0.9274
B( 22-C , 24-H ) :   0.9339 B( 22-C , 25-C ) :   1.0523 B( 25-C , 26-H ) :   0.9555
B( 25-C , 27-H ) :   0.9528 B( 25-C , 28-C ) :   1.0832 B( 28-C , 29-H ) :   0.9734
B( 28-C , 30-H ) :   0.9740 B( 28-C , 31-H ) :   0.9741

Dispersion correction           -0.015462267
FINAL SINGLE POINT ENERGY     -1339.873061820524

DIPOLE MOMENT
-------------
                                X             Y             Z
Electronic contribution:    -23.21454      22.36981       5.90759
Nuclear contribution   :     23.93751     -22.96298      -5.95927
                        -----------------------------------------
Total Dipole Moment    :      0.72297      -0.59318      -0.05168
                        -----------------------------------------
Magnitude (a.u.)       :      0.93660
Magnitude (Debye)      :      2.38064

Rotational constants in cm-1:     0.016084     0.011126     0.006878
Rotational constants in MHz :   482.189240   333.551325   206.189678

                             ****ORCA TERMINATED NORMALLY****
TOTAL RUN TIME: 0 days 0 hours 0 minutes 34 seconds 481 msec
