                         Program Version 4.2.1 -  RELEASE  -
|  1> ! wB97X-D3 SP def2-SVP
|  2> %pal
|  3> nprocs 16
|  4> end
|  5>
|  6> * xyz 0 1
|  7> S 	 -42.2328 	 35.2353 	 81.5971
|  8> C 	 -43.5724 	 34.175 	 81.3262
|  9> C 	 -43.6967 	 33.2549 	 82.3476
| 10> C 	 -42.6465 	 33.3746 	 83.2927
| 11> C 	 -41.758 	 34.4016 	 83.0004
| 12> H 	 -42.4996 	 32.7663 	 84.1493
| 13> C 	 -44.8451 	 32.2304 	 82.5461
| 14> H 	 -44.4672 	 31.2718 	 82.1847
| 15> H 	 -45.6032 	 32.5003 	 81.8261
| 16> C 	 -45.4862 	 32.1492 	 83.9687
| 17> H 	 -46.286 	 31.3889 	 84.0008
| 18> H 	 -44.6765 	 31.7188 	 84.6577
| 19> C 	 -45.9795 	 33.4382 	 84.6883
| 20> H 	 -46.001 	 33.2938 	 85.7948
| 21> H 	 -45.3686 	 34.262 	 84.4485
| 22> H 	 -47.0644 	 33.638 	 84.3913
| 23> S 	 -39.9605 	 36.4025 	 83.6312
| 24> C 	 -38.6635 	 36.1122 	 84.7014
| 25> C 	 -38.7588 	 34.8609 	 85.2335
| 26> C 	 -39.8804 	 34.1059 	 84.7851
| 27> C 	 -40.6424 	 34.8349 	 83.8272
| 28> H 	 -38.0151 	 34.5512 	 85.8619
| 29> C 	 -40.2417 	 32.8761 	 85.5605
| 30> H 	 -41.2964 	 32.8128 	 85.8905
| 31> H 	 -39.7422 	 32.8966 	 86.4902
| 32> C 	 -39.8312 	 31.5171 	 84.9122
| 33> H 	 -38.7489 	 31.461 	 85.0089
| 34> H 	 -39.9169 	 31.5837 	 83.8422
| 35> C 	 -40.5265 	 30.2242 	 85.2879
| 36> H 	 -40.537 	 29.9326 	 86.3449
| 37> H 	 -40.1829 	 29.3067 	 84.8258
| 38> H 	 -41.641 	 30.3496 	 85.0606
| 39> H 	 -44.163 	 34.1704 	 80.4837
| 40> H 	 -37.8957 	 36.8283 	 85.0964
| 41> *
| 42>
| 43>                          ****END OF INPUT****

CARTESIAN COORDINATES (ANGSTROEM)
---------------------------------
  S    -42.232800   35.235300   81.597100
  C    -43.572400   34.175000   81.326200
  C    -43.696700   33.254900   82.347600
  C    -42.646500   33.374600   83.292700
  C    -41.758000   34.401600   83.000400
  H    -42.499600   32.766300   84.149300
  C    -44.845100   32.230400   82.546100
  H    -44.467200   31.271800   82.184700
  H    -45.603200   32.500300   81.826100
  C    -45.486200   32.149200   83.968700
  H    -46.286000   31.388900   84.000800
  H    -44.676500   31.718800   84.657700
  C    -45.979500   33.438200   84.688300
  H    -46.001000   33.293800   85.794800
  H    -45.368600   34.262000   84.448500
  H    -47.064400   33.638000   84.391300
  S    -39.960500   36.402500   83.631200
  C    -38.663500   36.112200   84.701400
  C    -38.758800   34.860900   85.233500
  C    -39.880400   34.105900   84.785100
  C    -40.642400   34.834900   83.827200
  H    -38.015100   34.551200   85.861900
  C    -40.241700   32.876100   85.560500
  H    -41.296400   32.812800   85.890500
  H    -39.742200   32.896600   86.490200
  C    -39.831200   31.517100   84.912200
  H    -38.748900   31.461000   85.008900
  H    -39.916900   31.583700   83.842200
  C    -40.526500   30.224200   85.287900
  H    -40.537000   29.932600   86.344900
  H    -40.182900   29.306700   84.825800
  H    -41.641000   30.349600   85.060600
  H    -44.163000   34.170400   80.483700
  H    -37.895700   36.828300   85.096400

 Total Charge           Charge          ....    0
 Multiplicity           Mult            ....    1
 Number of Electrons    NEL             ....  134
 Basis Dimension        Dim             ....  322

ORBITAL ENERGIES
----------------

  NO   OCC          E(Eh)            E(eV)
   0   2.0000     -88.968481     -2420.9555
   1   2.0000     -88.968161     -2420.9467
   2   2.0000     -10.331264      -281.1280
   3   2.0000     -10.327942      -281.0376
   4   2.0000     -10.314874      -280.6820
   5   2.0000     -10.306906      -280.4652
   6   2.0000     -10.304939      -280.4117
   7   2.0000     -10.301837      -280.3272
   8   2.0000     -10.299255      -280.2570
   9   2.0000     -10.297790      -280.2171
  10   2.0000     -10.292679      -280.0780
  11   2.0000     -10.287395      -279.9343
  12   2.0000     -10.284330      -279.8509
  13   2.0000     -10.284271      -279.8493
  14   2.0000     -10.283625      -279.8317
  15   2.0000     -10.282396      -279.7982
  16   2.0000      -8.084333      -219.9859
  17   2.0000      -8.084023      -219.9774
  18   2.0000      -6.042770      -164.4321
  19   2.0000      -6.042415      -164.4225
  20   2.0000      -6.038530      -164.3168
  21   2.0000      -6.038346      -164.3118
  22   2.0000      -6.035260      -164.2278
  23   2.0000      -6.034881      -164.2175
  24   2.0000      -1.016534       -27.6613
  25   2.0000      -0.993625       -27.0379
  26   2.0000      -0.909922       -24.7602
  27   2.0000      -0.904376       -24.6093
  28   2.0000      -0.872339       -23.7375
  29   2.0000      -0.855280       -23.2733
  30   2.0000      -0.844921       -22.9915
  31   2.0000      -0.818241       -22.2655
  32   2.0000      -0.787149       -21.4194
  33   2.0000      -0.776467       -21.1287
  34   2.0000      -0.712044       -19.3757
  35   2.0000      -0.697505       -18.9801
  36   2.0000      -0.693513       -18.8714
  37   2.0000      -0.666026       -18.1235
  38   2.0000      -0.639907       -17.4127
  39   2.0000      -0.627951       -17.0874
  40   2.0000      -0.600096       -16.3295
  41   2.0000      -0.569653       -15.5011
  42   2.0000      -0.557542       -15.1715
  43   2.0000      -0.549461       -14.9516
  44   2.0000      -0.539728       -14.6868
  45   2.0000      -0.523691       -14.2504
  46   2.0000      -0.515926       -14.0391
  47   2.0000      -0.514506       -14.0004
  48   2.0000      -0.506488       -13.7822
  49   2.0000      -0.502612       -13.6768
  50   2.0000      -0.495835       -13.4923
  51   2.0000      -0.486727       -13.2445
  52   2.0000      -0.473716       -12.8905
  53   2.0000      -0.466167       -12.6851
  54   2.0000      -0.459384       -12.5005
  55   2.0000      -0.455333       -12.3902
  56   2.0000      -0.448162       -12.1951
  57   2.0000      -0.441973       -12.0267
  58   2.0000      -0.430586       -11.7168
  59   2.0000      -0.429100       -11.6764
  60   2.0000      -0.419642       -11.4190
  61   2.0000      -0.405964       -11.0469
  62   2.0000      -0.405488       -11.0339
  63   2.0000      -0.363612        -9.8944
  64   2.0000      -0.336143        -9.1469
  65   2.0000      -0.329910        -8.9773
  66   2.0000      -0.280824        -7.6416
  67   0.0000       0.020831         0.5668
  68   0.0000       0.089066         2.4236
  69   0.0000       0.110074         2.9953
  70   0.0000       0.111705         3.0396
  71   0.0000       0.133708         3.6384

MULLIKEN ATOMIC CHARGES
-----------------------
   0 S :    0.113749
   1 C :   -0.094195
   2 C :   -0.098567
   3 C :    0.007067
   4 C :   -0.094588
   5 H :   -0.034945
   6 C :    0.116097
   7 H :    0.041894
   8 H :    0.009447
   9 C :   -0.125119
  10 H :    0.036842
  11 H :    0.032174
  12 C :   -0.054845
  13 H :    0.041871
  14 H :    0.044211
  15 H :    0.038542
  16 S :    0.113578
  17 C :   -0.100743
  18 C :   -0.011417
  19 C :   -0.026913
  20 C :   -0.127616
  21 H :   -0.016519
  22 C :    0.037672
  23 H :    0.034480
  24 H :    0.010629
  25 C :   -0.064647
  26 H :    0.017300
  27 H :    0.031424
  28 C :   -0.055110
  29 H :    0.023169
  30 H :    0.037928
  31 H :    0.029384
  32 H :    0.012948
  33 H :    0.074818
Sum of atomic charges:   -0.0000000

LOEWDIN ATOMIC CHARGES
----------------------
   0 S :    0.435808
   1 C :   -0.197268
   2 C :   -0.057752
   3 C :   -0.066870
   4 C :   -0.199997
   5 H :    0.020102
   6 C :   -0.028732
   7 H :    0.036491
   8 H :    0.024683
   9 C :   -0.049609
  10 H :    0.027213
  11 H :    0.025702
  12 C :   -0.067596
  13 H :    0.032928
  14 H :    0.020524
  15 H :    0.031342
  16 S :    0.437957
  17 C :   -0.212851
  18 C :   -0.062593
  19 C :   -0.056865
  20 C :   -0.200244
  21 H :    0.016882
  22 C :   -0.031354
  23 H :    0.030110
  24 H :    0.027248
  25 C :   -0.048338
  26 H :    0.022504
  27 H :    0.025157
  28 C :   -0.074010
  29 H :    0.021529
  30 H :    0.029081
  31 H :    0.029739
  32 H :    0.012265
  33 H :    0.046813

  Mayer bond orders larger than 0.100000
B(  0-S ,  1-C ) :   1.1442 B(  0-S ,  4-C ) :   1.1679 B(  1-C ,  2-C ) :   1.5936
B(  1-C , 32-H ) :   0.9773 B(  2-C ,  3-C ) :   1.2644 B(  2-C ,  6-C ) :   1.0059
B(  3-C ,  4-C ) :   1.5278 B(  3-C ,  5-H ) :   1.0023 B(  4-C , 20-C ) :   1.0844
B(  6-C ,  7-H ) :   0.9376 B(  6-C ,  8-H ) :   0.9411 B(  6-C ,  9-C ) :   1.0643
B(  9-C , 10-H ) :   0.9585 B(  9-C , 11-H ) :   0.9566 B(  9-C , 12-C ) :   1.0664
B( 12-C , 13-H ) :   0.9760 B( 12-C , 14-H ) :   0.9766 B( 12-C , 15-H ) :   0.9767
B( 16-S , 17-C ) :   1.1600 B( 16-S , 20-C ) :   1.1627 B( 17-C , 18-C ) :   1.5920
B( 17-C , 33-H ) :   0.9586 B( 18-C , 19-C ) :   1.2849 B( 18-C , 21-H ) :   1.0009
B( 19-C , 20-C ) :   1.5217 B( 19-C , 22-C ) :   1.0404 B( 22-C , 23-H ) :   0.9487
B( 22-C , 24-H ) :   0.9331 B( 22-C , 25-C ) :   1.0321 B( 25-C , 26-H ) :   0.9517
B( 25-C , 27-H ) :   0.9631 B( 25-C , 28-C ) :   1.0789 B( 28-C , 29-H ) :   0.9730
B( 28-C , 30-H ) :   0.9717 B( 28-C , 31-H ) :   0.9727

Dispersion correction           -0.014827134
FINAL SINGLE POINT ENERGY     -1339.875438603242

DIPOLE MOMENT
-------------
                                X             Y             Z
Electronic contribution:     12.10153      24.37452     -13.34317
Nuclear contribution   :    -12.18785     -24.86095      13.74897
                        -----------------------------------------
Total Dipole Moment    :     -0.08632      -0.48642       0.40580
                        -----------------------------------------
Magnitude (a.u.)       :      0.63932
Magnitude (Debye)      :      1.62502

Rotational constants in cm-1:     0.016702     0.010255     0.007401
Rotational constants in MHz :   500.707620   307.426235   221.877948

                             ****ORCA TERMINATED NORMALLY****
TOTAL RUN TIME: 0 days 0 hours 0 minutes 31 seconds 326 msec
