                         Program Version 4.2.1 -  RELEASE  -
|  1> ! wB97X-D3 SP def2-SVP
|  2> %pal
|  3> nprocs 16
|  4> end
|  5>
|  6> * xyz 0 1
|  7> S 	 -55.3546 	 56.2477 	 136.581
|  8> C 	 -53.7994 	 56.8149 	 136.883
|  9> C 	 -53.6875 	 57.5559 	 138.054
| 10> C 	 -54.9742 	 57.7557 	 138.654
| 11> C 	 -55.9534 	 56.9966 	 138.041
| 12> H 	 -55.4079 	 58.3534 	 139.387
| 13> C 	 -52.3627 	 58.251 	 138.464
| 14> H 	 -51.7641 	 58.2402 	 137.494
| 15> H 	 -51.8031 	 57.5443 	 139.08
| 16> C 	 -52.686 	 59.596 	 139.177
| 17> H 	 -53.2962 	 60.0646 	 138.516
| 18> H 	 -53.3443 	 59.4598 	 140.125
| 19> C 	 -51.3875 	 60.3511 	 139.429
| 20> H 	 -50.7044 	 60.4608 	 138.577
| 21> H 	 -51.798 	 61.338 	 139.692
| 22> H 	 -50.8663 	 59.9125 	 140.234
| 23> S 	 -58.4453 	 56.9951 	 136.953
| 24> C 	 -59.8235 	 56.8545 	 138.018
| 25> C 	 -59.4561 	 56.7486 	 139.361
| 26> C 	 -58.0395 	 56.7855 	 139.563
| 27> C 	 -57.3407 	 56.9447 	 138.339
| 28> H 	 -60.2145 	 56.4799 	 140.039
| 29> C 	 -57.3388 	 56.5204 	 140.874
| 30> H 	 -57.2003 	 57.5321 	 141.217
| 31> H 	 -56.2902 	 56.1123 	 140.676
| 32> C 	 -58.1426 	 55.6773 	 141.894
| 33> H 	 -58.471 	 54.7319 	 141.447
| 34> H 	 -59.1116 	 56.219 	 141.979
| 35> C 	 -57.5367 	 55.6164 	 143.306
| 36> H 	 -57.667 	 56.4848 	 143.849
| 37> H 	 -56.4379 	 55.4489 	 143.376
| 38> H 	 -57.9364 	 54.8323 	 143.998
| 39> H 	 -52.9273 	 56.6155 	 136.212
| 40> H 	 -60.8094 	 56.6523 	 137.681
| 41> *
| 42>
| 43>                          ****END OF INPUT****

CARTESIAN COORDINATES (ANGSTROEM)
---------------------------------
  S    -55.354600   56.247700  136.581000
  C    -53.799400   56.814900  136.883000
  C    -53.687500   57.555900  138.054000
  C    -54.974200   57.755700  138.654000
  C    -55.953400   56.996600  138.041000
  H    -55.407900   58.353400  139.387000
  C    -52.362700   58.251000  138.464000
  H    -51.764100   58.240200  137.494000
  H    -51.803100   57.544300  139.080000
  C    -52.686000   59.596000  139.177000
  H    -53.296200   60.064600  138.516000
  H    -53.344300   59.459800  140.125000
  C    -51.387500   60.351100  139.429000
  H    -50.704400   60.460800  138.577000
  H    -51.798000   61.338000  139.692000
  H    -50.866300   59.912500  140.234000
  S    -58.445300   56.995100  136.953000
  C    -59.823500   56.854500  138.018000
  C    -59.456100   56.748600  139.361000
  C    -58.039500   56.785500  139.563000
  C    -57.340700   56.944700  138.339000
  H    -60.214500   56.479900  140.039000
  C    -57.338800   56.520400  140.874000
  H    -57.200300   57.532100  141.217000
  H    -56.290200   56.112300  140.676000
  C    -58.142600   55.677300  141.894000
  H    -58.471000   54.731900  141.447000
  H    -59.111600   56.219000  141.979000
  C    -57.536700   55.616400  143.306000
  H    -57.667000   56.484800  143.849000
  H    -56.437900   55.448900  143.376000
  H    -57.936400   54.832300  143.998000
  H    -52.927300   56.615500  136.212000
  H    -60.809400   56.652300  137.681000

 Total Charge           Charge          ....    0
 Multiplicity           Mult            ....    1
 Number of Electrons    NEL             ....  134
 Basis Dimension        Dim             ....  322

ORBITAL ENERGIES
----------------

  NO   OCC          E(Eh)            E(eV)
   0   2.0000     -88.965280     -2420.8684
   1   2.0000     -88.963370     -2420.8164
   2   2.0000     -10.323877      -280.9270
   3   2.0000     -10.320337      -280.8307
   4   2.0000     -10.314828      -280.6807
   5   2.0000     -10.309595      -280.5384
   6   2.0000     -10.307731      -280.4876
   7   2.0000     -10.301989      -280.3314
   8   2.0000     -10.297431      -280.2073
   9   2.0000     -10.296179      -280.1733
  10   2.0000     -10.295084      -280.1435
  11   2.0000     -10.293104      -280.0896
  12   2.0000     -10.290139      -280.0089
  13   2.0000     -10.288895      -279.9751
  14   2.0000     -10.280011      -279.7333
  15   2.0000     -10.276551      -279.6392
  16   2.0000      -8.079628      -219.8579
  17   2.0000      -8.079541      -219.8555
  18   2.0000      -6.038121      -164.3056
  19   2.0000      -6.037806      -164.2971
  20   2.0000      -6.034174      -164.1982
  21   2.0000      -6.033850      -164.1894
  22   2.0000      -6.030482      -164.0977
  23   2.0000      -6.030458      -164.0971
  24   2.0000      -1.009948       -27.4821
  25   2.0000      -0.981509       -26.7082
  26   2.0000      -0.910427       -24.7740
  27   2.0000      -0.906590       -24.6696
  28   2.0000      -0.874154       -23.7869
  29   2.0000      -0.854713       -23.2579
  30   2.0000      -0.845801       -23.0154
  31   2.0000      -0.816212       -22.2103
  32   2.0000      -0.782321       -21.2880
  33   2.0000      -0.766198       -20.8493
  34   2.0000      -0.716694       -19.5022
  35   2.0000      -0.707537       -19.2531
  36   2.0000      -0.688499       -18.7350
  37   2.0000      -0.659527       -17.9467
  38   2.0000      -0.645493       -17.5648
  39   2.0000      -0.612052       -16.6548
  40   2.0000      -0.592721       -16.1288
  41   2.0000      -0.569226       -15.4894
  42   2.0000      -0.561798       -15.2873
  43   2.0000      -0.556675       -15.1479
  44   2.0000      -0.532122       -14.4798
  45   2.0000      -0.518811       -14.1176
  46   2.0000      -0.516681       -14.0596
  47   2.0000      -0.506997       -13.7961
  48   2.0000      -0.505439       -13.7537
  49   2.0000      -0.498637       -13.5686
  50   2.0000      -0.494676       -13.4608
  51   2.0000      -0.479672       -13.0525
  52   2.0000      -0.474356       -12.9079
  53   2.0000      -0.469518       -12.7762
  54   2.0000      -0.458364       -12.4727
  55   2.0000      -0.454056       -12.3555
  56   2.0000      -0.449261       -12.2250
  57   2.0000      -0.440761       -11.9937
  58   2.0000      -0.435273       -11.8444
  59   2.0000      -0.427280       -11.6269
  60   2.0000      -0.422927       -11.5084
  61   2.0000      -0.413436       -11.2502
  62   2.0000      -0.404633       -11.0106
  63   2.0000      -0.351510        -9.5651
  64   2.0000      -0.331116        -9.0101
  65   2.0000      -0.327327        -8.9070
  66   2.0000      -0.279660        -7.6099
  67   0.0000       0.023921         0.6509
  68   0.0000       0.076521         2.0822
  69   0.0000       0.112863         3.0712
  70   0.0000       0.127750         3.4763
  71   0.0000       0.138792         3.7767

MULLIKEN ATOMIC CHARGES
-----------------------
   0 S :    0.119556
   1 C :   -0.138564
   2 C :   -0.075433
   3 C :    0.021849
   4 C :   -0.167464
   5 H :   -0.013691
   6 C :    0.054206
   7 H :    0.029705
   8 H :    0.033855
   9 C :   -0.103872
  10 H :    0.015342
  11 H :    0.055997
  12 C :   -0.002427
  13 H :    0.037522
  14 H :    0.031596
  15 H :    0.028572
  16 S :    0.102002
  17 C :   -0.079191
  18 C :   -0.043763
  19 C :   -0.029515
  20 C :   -0.166296
  21 H :    0.008027
  22 C :    0.047026
  23 H :    0.033271
  24 H :    0.055740
  25 C :   -0.084407
  26 H :    0.040465
  27 H :    0.033429
  28 C :   -0.031318
  29 H :    0.013202
  30 H :    0.030022
  31 H :    0.036259
  32 H :    0.062273
  33 H :    0.046026
Sum of atomic charges:    0.0000000

LOEWDIN ATOMIC CHARGES
----------------------
   0 S :    0.430236
   1 C :   -0.229115
   2 C :   -0.064664
   3 C :   -0.062067
   4 C :   -0.196437
   5 H :    0.023627
   6 C :   -0.034526
   7 H :    0.037001
   8 H :    0.027753
   9 C :   -0.037361
  10 H :    0.010078
  11 H :    0.040051
  12 C :   -0.058642
  13 H :    0.028600
  14 H :    0.031028
  15 H :    0.020191
  16 S :    0.397067
  17 C :   -0.180147
  18 C :   -0.071630
  19 C :   -0.050736
  20 C :   -0.198505
  21 H :    0.024477
  22 C :   -0.037745
  23 H :    0.031784
  24 H :    0.040467
  25 C :   -0.043234
  26 H :    0.027399
  27 H :    0.028598
  28 C :   -0.070774
  29 H :    0.015507
  30 H :    0.029305
  31 H :    0.034692
  32 H :    0.036034
  33 H :    0.021686

  Mayer bond orders larger than 0.100000
B(  0-S ,  1-C ) :   1.1614 B(  0-S ,  4-C ) :   1.1483 B(  1-C ,  2-C ) :   1.6047
B(  1-C , 32-H ) :   0.9594 B(  2-C ,  3-C ) :   1.2141 B(  2-C ,  6-C ) :   1.0031
B(  3-C ,  4-C ) :   1.5569 B(  3-C ,  5-H ) :   1.0071 B(  4-C , 20-C ) :   1.0984
B(  6-C ,  7-H ) :   0.9483 B(  6-C ,  8-H ) :   0.9322 B(  6-C ,  9-C ) :   1.0637
B(  9-C , 10-H ) :   0.9626 B(  9-C , 11-H ) :   0.9436 B(  9-C , 12-C ) :   1.0757
B( 12-C , 13-H ) :   0.9751 B( 12-C , 14-H ) :   0.9735 B( 12-C , 15-H ) :   0.9757
B( 16-S , 17-C ) :   1.1590 B( 16-S , 20-C ) :   1.1340 B( 17-C , 18-C ) :   1.6045
B( 17-C , 20-C ) :   0.1048 B( 17-C , 33-H ) :   0.9673 B( 18-C , 19-C ) :   1.2437
B( 18-C , 21-H ) :   0.9916 B( 19-C , 20-C ) :   1.5611 B( 19-C , 22-C ) :   1.0255
B( 22-C , 23-H ) :   0.9260 B( 22-C , 24-H ) :   0.9330 B( 22-C , 25-C ) :   1.0644
B( 25-C , 26-H ) :   0.9648 B( 25-C , 27-H ) :   0.9459 B( 25-C , 28-C ) :   1.0713
B( 28-C , 29-H ) :   0.9738 B( 28-C , 30-H ) :   0.9761 B( 28-C , 31-H ) :   0.9742

Dispersion correction           -0.013462413
FINAL SINGLE POINT ENERGY     -1339.859118694533

DIPOLE MOMENT
-------------
                                X             Y             Z
Electronic contribution:    -12.95830      -7.03971     -24.71147
Nuclear contribution   :     13.14421       7.17075      25.25996
                        -----------------------------------------
Total Dipole Moment    :      0.18590       0.13103       0.54849
                        -----------------------------------------
Magnitude (a.u.)       :      0.59378
Magnitude (Debye)      :      1.50927

Rotational constants in cm-1:     0.016587     0.008449     0.006336
Rotational constants in MHz :   497.266980   253.298064   189.943500

                             ****ORCA TERMINATED NORMALLY****
TOTAL RUN TIME: 0 days 0 hours 0 minutes 32 seconds 121 msec
