                         Program Version 4.2.1 -  RELEASE  -
|  1> ! wB97X-D3 SP def2-SVP
|  2> %pal
|  3> nprocs 16
|  4> end
|  5>
|  6> * xyz 0 1
|  7> S 	 -91.5705 	 51.5151 	 125.671
|  8> C 	 -91.2308 	 51.1769 	 127.351
|  9> C 	 -91.9744 	 50.1507 	 127.929
| 10> C 	 -93.0188 	 49.8182 	 127.03
| 11> C 	 -93.0328 	 50.4959 	 125.823
| 12> H 	 -93.7751 	 49.0118 	 127.276
| 13> C 	 -91.8168 	 49.4679 	 129.293
| 14> H 	 -92.8443 	 49.2411 	 129.644
| 15> H 	 -91.4676 	 50.2091 	 129.939
| 16> C 	 -91.08 	 48.1214 	 129.403
| 17> H 	 -91.5513 	 47.358 	 128.805
| 18> H 	 -90.1315 	 48.3868 	 128.968
| 19> C 	 -90.8958 	 47.5506 	 130.82
| 20> H 	 -91.8926 	 47.1761 	 131.007
| 21> H 	 -90.0792 	 46.8579 	 130.841
| 22> H 	 -90.687 	 48.4084 	 131.495
| 23> S 	 -93.2633 	 50.2901 	 123.083
| 24> C 	 -94.8199 	 49.867 	 122.441
| 25> C 	 -95.7901 	 49.8409 	 123.412
| 26> C 	 -95.3091 	 50.2317 	 124.662
| 27> C 	 -93.9475 	 50.3374 	 124.729
| 28> H 	 -96.8152 	 49.7111 	 123.051
| 29> C 	 -96.2395 	 50.2993 	 125.848
| 30> H 	 -95.8807 	 50.7233 	 126.718
| 31> H 	 -96.4124 	 49.2947 	 126.191
| 32> C 	 -97.6871 	 50.8205 	 125.687
| 33> H 	 -98.0888 	 50.9603 	 126.735
| 34> H 	 -98.319 	 50.0823 	 125.298
| 35> C 	 -97.8657 	 52.2357 	 124.932
| 36> H 	 -97.0854 	 52.9529 	 125.299
| 37> H 	 -98.8389 	 52.7508 	 125.066
| 38> H 	 -97.7205 	 52.2333 	 123.864
| 39> H 	 -90.4734 	 51.7264 	 127.87
| 40> H 	 -94.9808 	 49.8615 	 121.376
| 41> *
| 42>
| 43>                          ****END OF INPUT****

CARTESIAN COORDINATES (ANGSTROEM)
---------------------------------
  S    -91.570500   51.515100  125.671000
  C    -91.230800   51.176900  127.351000
  C    -91.974400   50.150700  127.929000
  C    -93.018800   49.818200  127.030000
  C    -93.032800   50.495900  125.823000
  H    -93.775100   49.011800  127.276000
  C    -91.816800   49.467900  129.293000
  H    -92.844300   49.241100  129.644000
  H    -91.467600   50.209100  129.939000
  C    -91.080000   48.121400  129.403000
  H    -91.551300   47.358000  128.805000
  H    -90.131500   48.386800  128.968000
  C    -90.895800   47.550600  130.820000
  H    -91.892600   47.176100  131.007000
  H    -90.079200   46.857900  130.841000
  H    -90.687000   48.408400  131.495000
  S    -93.263300   50.290100  123.083000
  C    -94.819900   49.867000  122.441000
  C    -95.790100   49.840900  123.412000
  C    -95.309100   50.231700  124.662000
  C    -93.947500   50.337400  124.729000
  H    -96.815200   49.711100  123.051000
  C    -96.239500   50.299300  125.848000
  H    -95.880700   50.723300  126.718000
  H    -96.412400   49.294700  126.191000
  C    -97.687100   50.820500  125.687000
  H    -98.088800   50.960300  126.735000
  H    -98.319000   50.082300  125.298000
  C    -97.865700   52.235700  124.932000
  H    -97.085400   52.952900  125.299000
  H    -98.838900   52.750800  125.066000
  H    -97.720500   52.233300  123.864000
  H    -90.473400   51.726400  127.870000
  H    -94.980800   49.861500  121.376000

 Total Charge           Charge          ....    0
 Multiplicity           Mult            ....    1
 Number of Electrons    NEL             ....  134
 Basis Dimension        Dim             ....  322

ORBITAL ENERGIES
----------------

  NO   OCC          E(Eh)            E(eV)
   0   2.0000     -88.968683     -2420.9609
   1   2.0000     -88.960993     -2420.7517
   2   2.0000     -10.329831      -281.0890
   3   2.0000     -10.323414      -280.9144
   4   2.0000     -10.316409      -280.7238
   5   2.0000     -10.314029      -280.6590
   6   2.0000     -10.304267      -280.3934
   7   2.0000     -10.299809      -280.2721
   8   2.0000     -10.298220      -280.2288
   9   2.0000     -10.294110      -280.1170
  10   2.0000     -10.293107      -280.0897
  11   2.0000     -10.290516      -280.0192
  12   2.0000     -10.284200      -279.8473
  13   2.0000     -10.282958      -279.8135
  14   2.0000     -10.282247      -279.7942
  15   2.0000     -10.281851      -279.7834
  16   2.0000      -8.083060      -219.9512
  17   2.0000      -8.076061      -219.7608
  18   2.0000      -6.041521      -164.3981
  19   2.0000      -6.037907      -164.2998
  20   2.0000      -6.034546      -164.2083
  21   2.0000      -6.033604      -164.1827
  22   2.0000      -6.030622      -164.1016
  23   2.0000      -6.026746      -163.9961
  24   2.0000      -1.007774       -27.4229
  25   2.0000      -0.984855       -26.7993
  26   2.0000      -0.912861       -24.8402
  27   2.0000      -0.903640       -24.5893
  28   2.0000      -0.872153       -23.7325
  29   2.0000      -0.853044       -23.2125
  30   2.0000      -0.840857       -22.8809
  31   2.0000      -0.812207       -22.1013
  32   2.0000      -0.787449       -21.4276
  33   2.0000      -0.776254       -21.1229
  34   2.0000      -0.709267       -19.3001
  35   2.0000      -0.699281       -19.0284
  36   2.0000      -0.698200       -18.9990
  37   2.0000      -0.658761       -17.9258
  38   2.0000      -0.639603       -17.4045
  39   2.0000      -0.622222       -16.9315
  40   2.0000      -0.603902       -16.4330
  41   2.0000      -0.577098       -15.7036
  42   2.0000      -0.560729       -15.2582
  43   2.0000      -0.552314       -15.0292
  44   2.0000      -0.532179       -14.4813
  45   2.0000      -0.522641       -14.2218
  46   2.0000      -0.513852       -13.9826
  47   2.0000      -0.510068       -13.8797
  48   2.0000      -0.507864       -13.8197
  49   2.0000      -0.499967       -13.6048
  50   2.0000      -0.484704       -13.1895
  51   2.0000      -0.479015       -13.0347
  52   2.0000      -0.470665       -12.8075
  53   2.0000      -0.466471       -12.6933
  54   2.0000      -0.454562       -12.3693
  55   2.0000      -0.450713       -12.2645
  56   2.0000      -0.443304       -12.0629
  57   2.0000      -0.438591       -11.9347
  58   2.0000      -0.432059       -11.7569
  59   2.0000      -0.429100       -11.6764
  60   2.0000      -0.422166       -11.4877
  61   2.0000      -0.416571       -11.3355
  62   2.0000      -0.413832       -11.2609
  63   2.0000      -0.352504        -9.5921
  64   2.0000      -0.334830        -9.1112
  65   2.0000      -0.330442        -8.9918
  66   2.0000      -0.281470        -7.6592
  67   0.0000       0.023628         0.6429
  68   0.0000       0.066932         1.8213
  69   0.0000       0.099583         2.7098
  70   0.0000       0.121578         3.3083
  71   0.0000       0.137048         3.7293

MULLIKEN ATOMIC CHARGES
-----------------------
   0 S :    0.109296
   1 C :   -0.122499
   2 C :   -0.070000
   3 C :   -0.015224
   4 C :   -0.133989
   5 H :    0.031771
   6 C :    0.074680
   7 H :    0.011687
   8 H :    0.008221
   9 C :   -0.070592
  10 H :    0.028677
  11 H :    0.019822
  12 C :   -0.024964
  13 H :    0.032974
  14 H :    0.046394
  15 H :    0.031565
  16 S :    0.083891
  17 C :   -0.092839
  18 C :   -0.041563
  19 C :   -0.006001
  20 C :   -0.143339
  21 H :    0.029867
  22 C :    0.093882
  23 H :    0.003501
  24 H :    0.025792
  25 C :   -0.087056
  26 H :    0.034820
  27 H :    0.020542
  28 C :   -0.081339
  29 H :    0.038478
  30 H :    0.039185
  31 H :    0.030023
  32 H :    0.037105
  33 H :    0.057230
Sum of atomic charges:   -0.0000000

LOEWDIN ATOMIC CHARGES
----------------------
   0 S :    0.388809
   1 C :   -0.183843
   2 C :   -0.063405
   3 C :   -0.062121
   4 C :   -0.182609
   5 H :    0.039980
   6 C :   -0.027579
   7 H :    0.028479
   8 H :    0.021591
   9 C :   -0.038062
  10 H :    0.022015
  11 H :    0.017984
  12 C :   -0.056279
  13 H :    0.026615
  14 H :    0.028019
  15 H :    0.028469
  16 S :    0.385177
  17 C :   -0.178480
  18 C :   -0.073869
  19 C :   -0.058165
  20 C :   -0.183591
  21 H :    0.037959
  22 C :   -0.030082
  23 H :    0.019702
  24 H :    0.037020
  25 C :   -0.035404
  26 H :    0.035526
  27 H :    0.010535
  28 C :   -0.079954
  29 H :    0.032173
  30 H :    0.028488
  31 H :    0.019631
  32 H :    0.019075
  33 H :    0.026197

  Mayer bond orders larger than 0.100000
B(  0-S ,  1-C ) :   1.1477 B(  0-S ,  4-C ) :   1.1218 B(  1-C ,  2-C ) :   1.6036
B(  1-C , 32-H ) :   0.9695 B(  2-C ,  3-C ) :   1.2494 B(  2-C ,  6-C ) :   1.0204
B(  3-C ,  4-C ) :   1.5742 B(  3-C ,  5-H ) :   0.9816 B(  4-C , 20-C ) :   1.0852
B(  6-C ,  7-H ) :   0.9380 B(  6-C ,  8-H ) :   0.9347 B(  6-C ,  9-C ) :   1.0602
B(  9-C , 10-H ) :   0.9585 B(  9-C , 11-H ) :   0.9555 B(  9-C , 12-C ) :   1.0711
B( 12-C , 13-H ) :   0.9788 B( 12-C , 14-H ) :   0.9749 B( 12-C , 15-H ) :   0.9764
B( 16-S , 17-C ) :   1.1615 B( 16-S , 20-C ) :   1.1170 B( 17-C , 18-C ) :   1.6077
B( 17-C , 20-C ) :   0.1028 B( 17-C , 33-H ) :   0.9675 B( 18-C , 19-C ) :   1.2274
B( 18-C , 21-H ) :   0.9883 B( 19-C , 20-C ) :   1.6024 B( 19-C , 22-C ) :   1.0464
B( 22-C , 23-H ) :   0.9316 B( 22-C , 24-H ) :   0.9256 B( 22-C , 25-C ) :   1.0794
B( 25-C , 26-H ) :   0.9564 B( 25-C , 27-H ) :   0.9574 B( 25-C , 28-C ) :   1.0575
B( 28-C , 29-H ) :   0.9778 B( 28-C , 30-H ) :   0.9796 B( 28-C , 31-H ) :   0.9768

Dispersion correction           -0.013706559
FINAL SINGLE POINT ENERGY     -1339.862567332335

DIPOLE MOMENT
-------------
                                X             Y             Z
Electronic contribution:     12.01298       6.68463     -20.91319
Nuclear contribution   :    -12.34637      -6.93445      21.42589
                        -----------------------------------------
Total Dipole Moment    :     -0.33339      -0.24983       0.51270
                        -----------------------------------------
Magnitude (a.u.)       :      0.66062
Magnitude (Debye)      :      1.67917

Rotational constants in cm-1:     0.020170     0.007274     0.006227
Rotational constants in MHz :   604.690455   218.079928   186.668452

                             ****ORCA TERMINATED NORMALLY****
TOTAL RUN TIME: 0 days 0 hours 0 minutes 32 seconds 168 msec
