                         Program Version 4.2.1 -  RELEASE  -
|  1> ! wB97X-D3 SP def2-SVP
|  2> %pal
|  3> nprocs 16
|  4> end
|  5>
|  6> * xyz 0 1
|  7> S 	 -41.1287 	 51.4459 	 103.022
|  8> C 	 -40.1761 	 50.0964 	 103.459
|  9> C 	 -40.8648 	 48.9662 	 103.97
| 10> C 	 -42.2566 	 49.2338 	 103.934
| 11> C 	 -42.5748 	 50.5442 	 103.528
| 12> H 	 -43.0197 	 48.5364 	 104.16
| 13> C 	 -40.2447 	 47.5904 	 104.164
| 14> H 	 -39.1818 	 47.7019 	 103.926
| 15> H 	 -40.6384 	 46.8731 	 103.428
| 16> C 	 -40.4815 	 46.859 	 105.547
| 17> H 	 -41.5593 	 46.6957 	 105.595
| 18> H 	 -40.0918 	 45.842 	 105.523
| 19> C 	 -39.8603 	 47.7501 	 106.675
| 20> H 	 -40.3287 	 47.658 	 107.637
| 21> H 	 -38.7928 	 47.6096 	 106.79
| 22> H 	 -39.9774 	 48.7839 	 106.373
| 23> S 	 -43.9634 	 52.8584 	 103.403
| 24> C 	 -45.7159 	 52.8529 	 103.21
| 25> C 	 -46.1957 	 51.5565 	 103.213
| 26> C 	 -45.1957 	 50.5753 	 103.214
| 27> C 	 -43.8926 	 51.0969 	 103.28
| 28> H 	 -47.2803 	 51.4885 	 102.992
| 29> C 	 -45.4373 	 49.0223 	 103.015
| 30> H 	 -45.5044 	 48.6684 	 104.027
| 31> H 	 -44.5891 	 48.6305 	 102.462
| 32> C 	 -46.67 	 48.6828 	 102.241
| 33> H 	 -47.5257 	 49.2387 	 102.594
| 34> H 	 -46.8658 	 47.5939 	 102.3
| 35> C 	 -46.5917 	 48.9939 	 100.689
| 36> H 	 -46.2742 	 50.0378 	 100.635
| 37> H 	 -47.5559 	 48.8898 	 100.247
| 38> H 	 -45.7356 	 48.3889 	 100.295
| 39> H 	 -39.1272 	 50.0828 	 103.354
| 40> H 	 -46.4439 	 53.6698 	 103.351
| 41> *
| 42>
| 43>                          ****END OF INPUT****

CARTESIAN COORDINATES (ANGSTROEM)
---------------------------------
  S    -41.128700   51.445900  103.022000
  C    -40.176100   50.096400  103.459000
  C    -40.864800   48.966200  103.970000
  C    -42.256600   49.233800  103.934000
  C    -42.574800   50.544200  103.528000
  H    -43.019700   48.536400  104.160000
  C    -40.244700   47.590400  104.164000
  H    -39.181800   47.701900  103.926000
  H    -40.638400   46.873100  103.428000
  C    -40.481500   46.859000  105.547000
  H    -41.559300   46.695700  105.595000
  H    -40.091800   45.842000  105.523000
  C    -39.860300   47.750100  106.675000
  H    -40.328700   47.658000  107.637000
  H    -38.792800   47.609600  106.790000
  H    -39.977400   48.783900  106.373000
  S    -43.963400   52.858400  103.403000
  C    -45.715900   52.852900  103.210000
  C    -46.195700   51.556500  103.213000
  C    -45.195700   50.575300  103.214000
  C    -43.892600   51.096900  103.280000
  H    -47.280300   51.488500  102.992000
  C    -45.437300   49.022300  103.015000
  H    -45.504400   48.668400  104.027000
  H    -44.589100   48.630500  102.462000
  C    -46.670000   48.682800  102.241000
  H    -47.525700   49.238700  102.594000
  H    -46.865800   47.593900  102.300000
  C    -46.591700   48.993900  100.689000
  H    -46.274200   50.037800  100.635000
  H    -47.555900   48.889800  100.247000
  H    -45.735600   48.388900  100.295000
  H    -39.127200   50.082800  103.354000
  H    -46.443900   53.669800  103.351000

 Total Charge           Charge          ....    0
 Multiplicity           Mult            ....    1
 Number of Electrons    NEL             ....  134
 Basis Dimension        Dim             ....  322

ORBITAL ENERGIES
----------------

  NO   OCC          E(Eh)            E(eV)
   0   2.0000     -88.974591     -2421.1217
   1   2.0000     -88.966003     -2420.8880
   2   2.0000     -10.334672      -281.2207
   3   2.0000     -10.329765      -281.0872
   4   2.0000     -10.319212      -280.8000
   5   2.0000     -10.314086      -280.6605
   6   2.0000     -10.307323      -280.4765
   7   2.0000     -10.306133      -280.4441
   8   2.0000     -10.298167      -280.2274
   9   2.0000     -10.295987      -280.1680
  10   2.0000     -10.295683      -280.1598
  11   2.0000     -10.294060      -280.1156
  12   2.0000     -10.293341      -280.0961
  13   2.0000     -10.285652      -279.8868
  14   2.0000     -10.278116      -279.6818
  15   2.0000     -10.272758      -279.5360
  16   2.0000      -8.089303      -220.1211
  17   2.0000      -8.080330      -219.8770
  18   2.0000      -6.047682      -164.5658
  19   2.0000      -6.043941      -164.4640
  20   2.0000      -6.040080      -164.3589
  21   2.0000      -6.038847      -164.3254
  22   2.0000      -6.034895      -164.2178
  23   2.0000      -6.031111      -164.1149
  24   2.0000      -1.006817       -27.3969
  25   2.0000      -0.983201       -26.7543
  26   2.0000      -0.909792       -24.7567
  27   2.0000      -0.905361       -24.6361
  28   2.0000      -0.869528       -23.6611
  29   2.0000      -0.853368       -23.2213
  30   2.0000      -0.839713       -22.8498
  31   2.0000      -0.811853       -22.0916
  32   2.0000      -0.783304       -21.3148
  33   2.0000      -0.772401       -21.0181
  34   2.0000      -0.714262       -19.4360
  35   2.0000      -0.697738       -18.9864
  36   2.0000      -0.693488       -18.8708
  37   2.0000      -0.653934       -17.7944
  38   2.0000      -0.638725       -17.3806
  39   2.0000      -0.625576       -17.0228
  40   2.0000      -0.594380       -16.1739
  41   2.0000      -0.563627       -15.3371
  42   2.0000      -0.562435       -15.3046
  43   2.0000      -0.547839       -14.9074
  44   2.0000      -0.540520       -14.7083
  45   2.0000      -0.534827       -14.5534
  46   2.0000      -0.525443       -14.2980
  47   2.0000      -0.508277       -13.8309
  48   2.0000      -0.500445       -13.6178
  49   2.0000      -0.493743       -13.4354
  50   2.0000      -0.489377       -13.3166
  51   2.0000      -0.480394       -13.0722
  52   2.0000      -0.469829       -12.7847
  53   2.0000      -0.465813       -12.6754
  54   2.0000      -0.457310       -12.4440
  55   2.0000      -0.454093       -12.3565
  56   2.0000      -0.443316       -12.0632
  57   2.0000      -0.437835       -11.9141
  58   2.0000      -0.430935       -11.7263
  59   2.0000      -0.428125       -11.6499
  60   2.0000      -0.423639       -11.5278
  61   2.0000      -0.420850       -11.4519
  62   2.0000      -0.403884       -10.9902
  63   2.0000      -0.360835        -9.8188
  64   2.0000      -0.338899        -9.2219
  65   2.0000      -0.332195        -9.0395
  66   2.0000      -0.276508        -7.5242
  67   0.0000       0.016255         0.4423
  68   0.0000       0.074456         2.0261
  69   0.0000       0.094497         2.5714
  70   0.0000       0.112784         3.0690
  71   0.0000       0.140806         3.8315

MULLIKEN ATOMIC CHARGES
-----------------------
   0 S :    0.127794
   1 C :   -0.095265
   2 C :   -0.075786
   3 C :   -0.002174
   4 C :   -0.114405
   5 H :   -0.001700
   6 C :    0.020706
   7 H :    0.019310
   8 H :    0.041533
   9 C :   -0.065541
  10 H :    0.027279
  11 H :    0.032789
  12 C :   -0.040063
  13 H :    0.032258
  14 H :    0.029905
  15 H :    0.033817
  16 S :    0.081033
  17 C :   -0.092635
  18 C :   -0.077566
  19 C :   -0.082059
  20 C :   -0.120778
  21 H :    0.039127
  22 C :    0.080300
  23 H :    0.047808
  24 H :    0.037193
  25 C :   -0.096656
  26 H :    0.022846
  27 H :    0.035230
  28 C :   -0.057569
  29 H :    0.034915
  30 H :    0.042200
  31 H :    0.038907
  32 H :    0.030754
  33 H :    0.066493
Sum of atomic charges:   -0.0000000

LOEWDIN ATOMIC CHARGES
----------------------
   0 S :    0.421577
   1 C :   -0.198781
   2 C :   -0.064425
   3 C :   -0.054717
   4 C :   -0.185777
   5 H :    0.023922
   6 C :   -0.032780
   7 H :    0.027423
   8 H :    0.034928
   9 C :   -0.038091
  10 H :    0.021567
  11 H :    0.024595
  12 C :   -0.066118
  13 H :    0.022969
  14 H :    0.026135
  15 H :    0.026878
  16 S :    0.391011
  17 C :   -0.190707
  18 C :   -0.085295
  19 C :   -0.062184
  20 C :   -0.188422
  21 H :    0.040322
  22 C :   -0.027228
  23 H :    0.032846
  24 H :    0.031673
  25 C :   -0.044948
  26 H :    0.016929
  27 H :    0.027193
  28 C :   -0.062650
  29 H :    0.025424
  30 H :    0.022885
  31 H :    0.029730
  32 H :    0.015220
  33 H :    0.038895

  Mayer bond orders larger than 0.100000
B(  0-S ,  1-C ) :   1.1677 B(  0-S ,  4-C ) :   1.1406 B(  1-C ,  2-C ) :   1.5726
B(  1-C ,  4-C ) :   0.1001 B(  1-C , 32-H ) :   0.9627 B(  2-C ,  3-C ) :   1.2548
B(  2-C ,  6-C ) :   1.0292 B(  3-C ,  4-C ) :   1.5548 B(  3-C ,  5-H ) :   0.9952
B(  4-C , 20-C ) :   1.0749 B(  6-C ,  7-H ) :   0.9451 B(  6-C ,  8-H ) :   0.9442
B(  6-C ,  9-C ) :   1.0626 B(  9-C , 10-H ) :   0.9602 B(  9-C , 11-H ) :   0.9593
B(  9-C , 12-C ) :   1.0542 B( 12-C , 13-H ) :   0.9773 B( 12-C , 14-H ) :   0.9757
B( 12-C , 15-H ) :   0.9792 B( 16-S , 17-C ) :   1.1530 B( 16-S , 20-C ) :   1.1343
B( 17-C , 18-C ) :   1.6220 B( 17-C , 20-C ) :   0.1072 B( 17-C , 33-H ) :   0.9569
B( 18-C , 19-C ) :   1.2677 B( 18-C , 21-H ) :   0.9764 B( 19-C , 20-C ) :   1.5839
B( 19-C , 22-C ) :   0.9961 B( 22-C , 23-H ) :   0.9244 B( 22-C , 24-H ) :   0.9449
B( 22-C , 25-C ) :   1.0827 B( 25-C , 26-H ) :   0.9495 B( 25-C , 27-H ) :   0.9537
B( 25-C , 28-C ) :   1.0752 B( 28-C , 29-H ) :   0.9777 B( 28-C , 30-H ) :   0.9764
B( 28-C , 31-H ) :   0.9738

Dispersion correction           -0.014183413
FINAL SINGLE POINT ENERGY     -1339.873794846844

DIPOLE MOMENT
-------------
                                X             Y             Z
Electronic contribution:      4.04922      24.35391      -2.66356
Nuclear contribution   :     -4.27721     -24.96188       2.67673
                        -----------------------------------------
Total Dipole Moment    :     -0.22799      -0.60797       0.01317
                        -----------------------------------------
Magnitude (a.u.)       :      0.64945
Magnitude (Debye)      :      1.65076

Rotational constants in cm-1:     0.019382     0.008345     0.006677
Rotational constants in MHz :   581.071687   250.189667   200.162321

                             ****ORCA TERMINATED NORMALLY****
TOTAL RUN TIME: 0 days 0 hours 0 minutes 29 seconds 927 msec
