                         Program Version 4.2.1 -  RELEASE  -
|  1> ! wB97X-D3 SP def2-SVP
|  2> %pal
|  3> nprocs 16
|  4> end
|  5>
|  6> * xyz 0 1
|  7> S 	 -40.1367 	 29.3077 	 90.3169
|  8> C 	 -39.9236 	 27.843 	 91.2963
|  9> C 	 -40.3451 	 26.7478 	 90.5901
| 10> C 	 -40.7508 	 27.0926 	 89.2769
| 11> C 	 -40.6811 	 28.4299 	 88.9554
| 12> H 	 -41.1007 	 26.3818 	 88.5331
| 13> C 	 -40.0391 	 25.261 	 90.9707
| 14> H 	 -38.9633 	 25.1322 	 91.0335
| 15> H 	 -40.4106 	 24.6124 	 90.1414
| 16> C 	 -40.4787 	 24.6809 	 92.3662
| 17> H 	 -40.3024 	 23.5948 	 92.4803
| 18> H 	 -39.9588 	 25.0791 	 93.1856
| 19> C 	 -41.9947 	 24.9762 	 92.4977
| 20> H 	 -42.282 	 25.9453 	 92.8093
| 21> H 	 -42.5495 	 24.6312 	 91.5974
| 22> H 	 -42.1916 	 24.3864 	 93.4045
| 23> S 	 -42.3889 	 30.3447 	 87.9145
| 24> C 	 -42.3916 	 30.6711 	 86.2601
| 25> C 	 -41.5774 	 29.7686 	 85.5585
| 26> C 	 -40.9226 	 28.8137 	 86.4083
| 27> C 	 -41.1304 	 29.0785 	 87.7503
| 28> H 	 -41.5083 	 29.9124 	 84.5066
| 29> C 	 -40.0219 	 27.7482 	 85.9159
| 30> H 	 -40.0144 	 27.7829 	 84.8824
| 31> H 	 -40.5261 	 26.8302 	 86.199
| 32> C 	 -38.5684 	 27.7494 	 86.3215
| 33> H 	 -38.1525 	 26.8825 	 85.8068
| 34> H 	 -38.3464 	 27.4141 	 87.3649
| 35> C 	 -37.8914 	 29.1087 	 86.1077
| 36> H 	 -36.7765 	 29.0924 	 86.2683
| 37> H 	 -38.2922 	 29.7213 	 86.9021
| 38> H 	 -38.2438 	 29.5108 	 85.1221
| 39> H 	 -39.4089 	 27.8891 	 92.2296
| 40> H 	 -42.9649 	 31.4301 	 85.7012
| 41> *
| 42>
| 43>                          ****END OF INPUT****

CARTESIAN COORDINATES (ANGSTROEM)
---------------------------------
  S    -40.136700   29.307700   90.316900
  C    -39.923600   27.843000   91.296300
  C    -40.345100   26.747800   90.590100
  C    -40.750800   27.092600   89.276900
  C    -40.681100   28.429900   88.955400
  H    -41.100700   26.381800   88.533100
  C    -40.039100   25.261000   90.970700
  H    -38.963300   25.132200   91.033500
  H    -40.410600   24.612400   90.141400
  C    -40.478700   24.680900   92.366200
  H    -40.302400   23.594800   92.480300
  H    -39.958800   25.079100   93.185600
  C    -41.994700   24.976200   92.497700
  H    -42.282000   25.945300   92.809300
  H    -42.549500   24.631200   91.597400
  H    -42.191600   24.386400   93.404500
  S    -42.388900   30.344700   87.914500
  C    -42.391600   30.671100   86.260100
  C    -41.577400   29.768600   85.558500
  C    -40.922600   28.813700   86.408300
  C    -41.130400   29.078500   87.750300
  H    -41.508300   29.912400   84.506600
  C    -40.021900   27.748200   85.915900
  H    -40.014400   27.782900   84.882400
  H    -40.526100   26.830200   86.199000
  C    -38.568400   27.749400   86.321500
  H    -38.152500   26.882500   85.806800
  H    -38.346400   27.414100   87.364900
  C    -37.891400   29.108700   86.107700
  H    -36.776500   29.092400   86.268300
  H    -38.292200   29.721300   86.902100
  H    -38.243800   29.510800   85.122100
  H    -39.408900   27.889100   92.229600
  H    -42.964900   31.430100   85.701200

 Total Charge           Charge          ....    0
 Multiplicity           Mult            ....    1
 Number of Electrons    NEL             ....  134
 Basis Dimension        Dim             ....  322

ORBITAL ENERGIES
----------------

  NO   OCC          E(Eh)            E(eV)
   0   2.0000     -88.965524     -2420.8750
   1   2.0000     -88.965022     -2420.8613
   2   2.0000     -10.325777      -280.9787
   3   2.0000     -10.324647      -280.9479
   4   2.0000     -10.315451      -280.6977
   5   2.0000     -10.314659      -280.6762
   6   2.0000     -10.305422      -280.4248
   7   2.0000     -10.302166      -280.3362
   8   2.0000     -10.299248      -280.2568
   9   2.0000     -10.292054      -280.0610
  10   2.0000     -10.291496      -280.0458
  11   2.0000     -10.288353      -279.9603
  12   2.0000     -10.281715      -279.7797
  13   2.0000     -10.281326      -279.7691
  14   2.0000     -10.278650      -279.6963
  15   2.0000     -10.272346      -279.5247
  16   2.0000      -8.080713      -219.8874
  17   2.0000      -8.080132      -219.8716
  18   2.0000      -6.039131      -164.3331
  19   2.0000      -6.038543      -164.3171
  20   2.0000      -6.035041      -164.2218
  21   2.0000      -6.034466      -164.2062
  22   2.0000      -6.031641      -164.1293
  23   2.0000      -6.031078      -164.1140
  24   2.0000      -1.011110       -27.5137
  25   2.0000      -0.987262       -26.8648
  26   2.0000      -0.917118       -24.9560
  27   2.0000      -0.905746       -24.6466
  28   2.0000      -0.869596       -23.6629
  29   2.0000      -0.850030       -23.1305
  30   2.0000      -0.843161       -22.9436
  31   2.0000      -0.809667       -22.0322
  32   2.0000      -0.785135       -21.3646
  33   2.0000      -0.774945       -21.0873
  34   2.0000      -0.709955       -19.3189
  35   2.0000      -0.704177       -19.1616
  36   2.0000      -0.687522       -18.7084
  37   2.0000      -0.663444       -18.0532
  38   2.0000      -0.643801       -17.5187
  39   2.0000      -0.614381       -16.7181
  40   2.0000      -0.587115       -15.9762
  41   2.0000      -0.571333       -15.5468
  42   2.0000      -0.564077       -15.3493
  43   2.0000      -0.551943       -15.0191
  44   2.0000      -0.541427       -14.7330
  45   2.0000      -0.539659       -14.6849
  46   2.0000      -0.513286       -13.9672
  47   2.0000      -0.511751       -13.9255
  48   2.0000      -0.502883       -13.6841
  49   2.0000      -0.497617       -13.5409
  50   2.0000      -0.487713       -13.2713
  51   2.0000      -0.482130       -13.1194
  52   2.0000      -0.473405       -12.8820
  53   2.0000      -0.467096       -12.7103
  54   2.0000      -0.462863       -12.5951
  55   2.0000      -0.448680       -12.2092
  56   2.0000      -0.444007       -12.0820
  57   2.0000      -0.440206       -11.9786
  58   2.0000      -0.428843       -11.6694
  59   2.0000      -0.425054       -11.5663
  60   2.0000      -0.416521       -11.3341
  61   2.0000      -0.405135       -11.0243
  62   2.0000      -0.399511       -10.8712
  63   2.0000      -0.344854        -9.3840
  64   2.0000      -0.333491        -9.0748
  65   2.0000      -0.328084        -8.9276
  66   2.0000      -0.291569        -7.9340
  67   0.0000       0.029218         0.7951
  68   0.0000       0.066755         1.8165
  69   0.0000       0.112888         3.0718
  70   0.0000       0.118211         3.2167
  71   0.0000       0.134547         3.6612

MULLIKEN ATOMIC CHARGES
-----------------------
   0 S :    0.107301
   1 C :   -0.137368
   2 C :   -0.024657
   3 C :    0.018089
   4 C :   -0.160829
   5 H :    0.007062
   6 C :    0.018057
   7 H :    0.040170
   8 H :    0.035035
   9 C :   -0.072729
  10 H :    0.036449
  11 H :    0.014634
  12 C :   -0.051387
  13 H :    0.034248
  14 H :    0.044190
  15 H :    0.020392
  16 S :    0.120120
  17 C :   -0.092070
  18 C :   -0.055667
  19 C :   -0.042585
  20 C :   -0.160452
  21 H :    0.006151
  22 C :    0.113182
  23 H :   -0.006696
  24 H :    0.028115
  25 C :   -0.070825
  26 H :    0.018399
  27 H :    0.029562
  28 C :   -0.051186
  29 H :    0.049192
  30 H :    0.041078
  31 H :    0.032872
  32 H :    0.047543
  33 H :    0.064607
Sum of atomic charges:   -0.0000000

LOEWDIN ATOMIC CHARGES
----------------------
   0 S :    0.417969
   1 C :   -0.182170
   2 C :   -0.062809
   3 C :   -0.065297
   4 C :   -0.210649
   5 H :    0.029152
   6 C :   -0.032553
   7 H :    0.031210
   8 H :    0.032095
   9 C :   -0.038673
  10 H :    0.030167
  11 H :    0.014148
  12 C :   -0.067297
  13 H :    0.019766
  14 H :    0.029874
  15 H :    0.026501
  16 S :    0.420955
  17 C :   -0.209448
  18 C :   -0.078138
  19 C :   -0.050533
  20 C :   -0.193243
  21 H :    0.025213
  22 C :   -0.030469
  23 H :    0.021834
  24 H :    0.036367
  25 C :   -0.046256
  26 H :    0.021704
  27 H :    0.025848
  28 C :   -0.067131
  29 H :    0.034105
  30 H :    0.028338
  31 H :    0.026941
  32 H :    0.023667
  33 H :    0.038811

  Mayer bond orders larger than 0.100000
B(  0-S ,  1-C ) :   1.1436 B(  0-S ,  4-C ) :   1.1663 B(  1-C ,  2-C ) :   1.5796
B(  1-C ,  4-C ) :   0.1032 B(  1-C , 32-H ) :   0.9803 B(  2-C ,  3-C ) :   1.2686
B(  2-C ,  6-C ) :   1.0011 B(  3-C ,  4-C ) :   1.5542 B(  3-C ,  5-H ) :   0.9921
B(  4-C , 20-C ) :   1.0499 B(  6-C ,  7-H ) :   0.9477 B(  6-C ,  8-H ) :   0.9513
B(  6-C ,  9-C ) :   1.0701 B(  9-C , 10-H ) :   0.9612 B(  9-C , 11-H ) :   0.9531
B(  9-C , 12-C ) :   1.0739 B( 12-C , 13-H ) :   0.9740 B( 12-C , 14-H ) :   0.9792
B( 12-C , 15-H ) :   0.9757 B( 16-S , 17-C ) :   1.1799 B( 16-S , 20-C ) :   1.1363
B( 17-C , 18-C ) :   1.5902 B( 17-C , 20-C ) :   0.1023 B( 17-C , 33-H ) :   0.9616
B( 18-C , 19-C ) :   1.2377 B( 18-C , 21-H ) :   0.9969 B( 19-C , 20-C ) :   1.5782
B( 19-C , 22-C ) :   1.0516 B( 22-C , 23-H ) :   0.9223 B( 22-C , 24-H ) :   0.9156
B( 22-C , 25-C ) :   1.0819 B( 25-C , 26-H ) :   0.9527 B( 25-C , 27-H ) :   0.9481
B( 25-C , 28-C ) :   1.0649 B( 28-C , 29-H ) :   0.9729 B( 28-C , 30-H ) :   0.9673
B( 28-C , 31-H ) :   0.9782

Dispersion correction           -0.015400800
FINAL SINGLE POINT ENERGY     -1339.869744246729

DIPOLE MOMENT
-------------
                                X             Y             Z
Electronic contribution:     -8.94935      19.63055      -0.90344
Nuclear contribution   :      9.20182     -20.19030       0.78003
                        -----------------------------------------
Total Dipole Moment    :      0.25247      -0.55975      -0.12341
                        -----------------------------------------
Magnitude (a.u.)       :      0.62633
Magnitude (Debye)      :      1.59199

Rotational constants in cm-1:     0.022421     0.008226     0.007244
Rotational constants in MHz :   672.151620   246.616115   217.154677

                             ****ORCA TERMINATED NORMALLY****
TOTAL RUN TIME: 0 days 0 hours 0 minutes 29 seconds 604 msec
