                         Program Version 4.2.1 -  RELEASE  -
|  1> ! wB97X-D3 SP def2-SVP
|  2> %pal
|  3> nprocs 16
|  4> end
|  5>
|  6> * xyz 0 1
|  7> S 	 26.0961 	 33.3295 	 57.8743
|  8> C 	 25.8318 	 31.6603 	 57.5963
|  9> C 	 26.7049 	 31.2005 	 56.6097
| 10> C 	 27.6602 	 32.1854 	 56.2124
| 11> C 	 27.5752 	 33.3747 	 56.961
| 12> H 	 28.5374 	 32.0163 	 55.5198
| 13> C 	 26.8282 	 29.7186 	 56.0578
| 14> H 	 26.4237 	 29.0297 	 56.8085
| 15> H 	 27.936 	 29.5446 	 56.055
| 16> C 	 26.0948 	 29.5458 	 54.7498
| 17> H 	 25.0279 	 29.8692 	 54.8965
| 18> H 	 26.4035 	 30.2016 	 53.983
| 19> C 	 26.2645 	 28.1126 	 54.2587
| 20> H 	 25.5093 	 28.0063 	 53.4375
| 21> H 	 27.1401 	 27.9349 	 53.6325
| 22> H 	 26.1221 	 27.3249 	 55.023
| 23> S 	 27.8092 	 36.137 	 56.818
| 24> C 	 29.2819 	 36.9309 	 57.27
| 25> C 	 30.1587 	 36.0439 	 57.7926
| 26> C 	 29.7896 	 34.691 	 57.5705
| 27> C 	 28.4688 	 34.5402 	 57.0922
| 28> H 	 31.0001 	 36.4351 	 58.3062
| 29> C 	 30.5615 	 33.4655 	 58.0964
| 30> H 	 30.0678 	 32.5346 	 57.878
| 31> H 	 30.7687 	 33.5992 	 59.1093
| 32> C 	 31.9923 	 33.3098 	 57.5668
| 33> H 	 32.4764 	 32.6905 	 58.2614
| 34> H 	 32.5399 	 34.2492 	 57.4391
| 35> C 	 32.0425 	 32.6107 	 56.2326
| 36> H 	 31.4729 	 33.0946 	 55.4862
| 37> H 	 31.54 	 31.574 	 56.2266
| 38> H 	 33.076 	 32.367 	 55.8486
| 39> H 	 25.0095 	 31.101 	 57.9475
| 40> H 	 29.4005 	 38.0268 	 57.3406
| 41> *
| 42>
| 43>                          ****END OF INPUT****

CARTESIAN COORDINATES (ANGSTROEM)
---------------------------------
  S     26.096100   33.329500   57.874300
  C     25.831800   31.660300   57.596300
  C     26.704900   31.200500   56.609700
  C     27.660200   32.185400   56.212400
  C     27.575200   33.374700   56.961000
  H     28.537400   32.016300   55.519800
  C     26.828200   29.718600   56.057800
  H     26.423700   29.029700   56.808500
  H     27.936000   29.544600   56.055000
  C     26.094800   29.545800   54.749800
  H     25.027900   29.869200   54.896500
  H     26.403500   30.201600   53.983000
  C     26.264500   28.112600   54.258700
  H     25.509300   28.006300   53.437500
  H     27.140100   27.934900   53.632500
  H     26.122100   27.324900   55.023000
  S     27.809200   36.137000   56.818000
  C     29.281900   36.930900   57.270000
  C     30.158700   36.043900   57.792600
  C     29.789600   34.691000   57.570500
  C     28.468800   34.540200   57.092200
  H     31.000100   36.435100   58.306200
  C     30.561500   33.465500   58.096400
  H     30.067800   32.534600   57.878000
  H     30.768700   33.599200   59.109300
  C     31.992300   33.309800   57.566800
  H     32.476400   32.690500   58.261400
  H     32.539900   34.249200   57.439100
  C     32.042500   32.610700   56.232600
  H     31.472900   33.094600   55.486200
  H     31.540000   31.574000   56.226600
  H     33.076000   32.367000   55.848600
  H     25.009500   31.101000   57.947500
  H     29.400500   38.026800   57.340600

 Total Charge           Charge          ....    0
 Multiplicity           Mult            ....    1
 Number of Electrons    NEL             ....  134
 Basis Dimension        Dim             ....  322

ORBITAL ENERGIES
----------------

  NO   OCC          E(Eh)            E(eV)
   0   2.0000     -88.964714     -2420.8530
   1   2.0000     -88.963210     -2420.8120
   2   2.0000     -10.333909      -281.1999
   3   2.0000     -10.330890      -281.1178
   4   2.0000     -10.316689      -280.7314
   5   2.0000     -10.311099      -280.5793
   6   2.0000     -10.308186      -280.5000
   7   2.0000     -10.303960      -280.3850
   8   2.0000     -10.301676      -280.3229
   9   2.0000     -10.298707      -280.2421
  10   2.0000     -10.290966      -280.0314
  11   2.0000     -10.286251      -279.9031
  12   2.0000     -10.283231      -279.8209
  13   2.0000     -10.282459      -279.7999
  14   2.0000     -10.278234      -279.6850
  15   2.0000     -10.276776      -279.6453
  16   2.0000      -8.080335      -219.8771
  17   2.0000      -8.078470      -219.8263
  18   2.0000      -6.038742      -164.3225
  19   2.0000      -6.036963      -164.2741
  20   2.0000      -6.034617      -164.2103
  21   2.0000      -6.032818      -164.1613
  22   2.0000      -6.031230      -164.1181
  23   2.0000      -6.029297      -164.0655
  24   2.0000      -1.008600       -27.4454
  25   2.0000      -0.988599       -26.9011
  26   2.0000      -0.912323       -24.8256
  27   2.0000      -0.910653       -24.7801
  28   2.0000      -0.871438       -23.7130
  29   2.0000      -0.847925       -23.0732
  30   2.0000      -0.844105       -22.9693
  31   2.0000      -0.815536       -22.1919
  32   2.0000      -0.780893       -21.2492
  33   2.0000      -0.771397       -20.9908
  34   2.0000      -0.705205       -19.1896
  35   2.0000      -0.698902       -19.0181
  36   2.0000      -0.694392       -18.8954
  37   2.0000      -0.654635       -17.8135
  38   2.0000      -0.642079       -17.4719
  39   2.0000      -0.620379       -16.8814
  40   2.0000      -0.601106       -16.3569
  41   2.0000      -0.571864       -15.5612
  42   2.0000      -0.558424       -15.1955
  43   2.0000      -0.556513       -15.1435
  44   2.0000      -0.543238       -14.7823
  45   2.0000      -0.524554       -14.2738
  46   2.0000      -0.518574       -14.1111
  47   2.0000      -0.511626       -13.9221
  48   2.0000      -0.508592       -13.8395
  49   2.0000      -0.497000       -13.5241
  50   2.0000      -0.492818       -13.4103
  51   2.0000      -0.476940       -12.9782
  52   2.0000      -0.470397       -12.8002
  53   2.0000      -0.466842       -12.7034
  54   2.0000      -0.461608       -12.5610
  55   2.0000      -0.445399       -12.1199
  56   2.0000      -0.445019       -12.1096
  57   2.0000      -0.441409       -12.0114
  58   2.0000      -0.434978       -11.8363
  59   2.0000      -0.420742       -11.4490
  60   2.0000      -0.415845       -11.3157
  61   2.0000      -0.411709       -11.2032
  62   2.0000      -0.405059       -11.0222
  63   2.0000      -0.344800        -9.3825
  64   2.0000      -0.330360        -8.9895
  65   2.0000      -0.328612        -8.9420
  66   2.0000      -0.294496        -8.0136
  67   0.0000       0.032945         0.8965
  68   0.0000       0.062199         1.6925
  69   0.0000       0.114902         3.1266
  70   0.0000       0.122461         3.3323
  71   0.0000       0.128236         3.4895

MULLIKEN ATOMIC CHARGES
-----------------------
   0 S :    0.119377
   1 C :   -0.091972
   2 C :   -0.122867
   3 C :    0.034418
   4 C :   -0.175849
   5 H :    0.034260
   6 C :    0.037602
   7 H :    0.024035
   8 H :    0.038422
   9 C :   -0.055420
  10 H :    0.034996
  11 H :    0.018574
  12 C :   -0.052173
  13 H :    0.026308
  14 H :    0.035020
  15 H :    0.043907
  16 S :    0.099815
  17 C :   -0.096821
  18 C :   -0.030948
  19 C :   -0.016966
  20 C :   -0.156859
  21 H :    0.011887
  22 C :    0.104669
  23 H :    0.023169
  24 H :    0.017255
  25 C :   -0.052831
  26 H :    0.015843
  27 H :    0.033027
  28 C :   -0.087208
  29 H :    0.024935
  30 H :    0.018247
  31 H :    0.040631
  32 H :    0.034438
  33 H :    0.069077
Sum of atomic charges:   -0.0000000

LOEWDIN ATOMIC CHARGES
----------------------
   0 S :    0.431240
   1 C :   -0.207523
   2 C :   -0.066177
   3 C :   -0.072931
   4 C :   -0.200533
   5 H :    0.040285
   6 C :   -0.029140
   7 H :    0.028214
   8 H :    0.033840
   9 C :   -0.045395
  10 H :    0.031996
  11 H :    0.021103
  12 C :   -0.074188
  13 H :    0.032260
  14 H :    0.028029
  15 H :    0.027365
  16 S :    0.410489
  17 C :   -0.188834
  18 C :   -0.073413
  19 C :   -0.049883
  20 C :   -0.206298
  21 H :    0.029493
  22 C :   -0.016964
  23 H :    0.029582
  24 H :    0.027062
  25 C :   -0.038081
  26 H :    0.018000
  27 H :    0.026010
  28 C :   -0.075489
  29 H :    0.015306
  30 H :    0.025210
  31 H :    0.029617
  32 H :    0.021934
  33 H :    0.037815

  Mayer bond orders larger than 0.100000
B(  0-S ,  1-C ) :   1.1556 B(  0-S ,  4-C ) :   1.1779 B(  1-C ,  2-C ) :   1.5883
B(  1-C ,  4-C ) :   0.1071 B(  1-C , 32-H ) :   0.9757 B(  2-C ,  3-C ) :   1.2666
B(  2-C ,  6-C ) :   1.0028 B(  3-C ,  4-C ) :   1.5453 B(  3-C ,  5-H ) :   0.9861
B(  4-C , 20-C ) :   1.0265 B(  6-C ,  7-H ) :   0.9473 B(  6-C ,  8-H ) :   0.9506
B(  6-C ,  9-C ) :   1.0616 B(  9-C , 10-H ) :   0.9547 B(  9-C , 11-H ) :   0.9523
B(  9-C , 12-C ) :   1.0805 B( 12-C , 13-H ) :   0.9702 B( 12-C , 14-H ) :   0.9732
B( 12-C , 15-H ) :   0.9746 B( 16-S , 17-C ) :   1.1617 B( 16-S , 20-C ) :   1.1523
B( 17-C , 18-C ) :   1.6109 B( 17-C , 33-H ) :   0.9619 B( 18-C , 19-C ) :   1.2412
B( 18-C , 21-H ) :   0.9961 B( 19-C , 20-C ) :   1.5631 B( 19-C , 22-C ) :   1.0503
B( 22-C , 23-H ) :   0.9388 B( 22-C , 24-H ) :   0.9342 B( 22-C , 25-C ) :   1.0631
B( 25-C , 26-H ) :   0.9545 B( 25-C , 27-H ) :   0.9559 B( 25-C , 28-C ) :   1.0815
B( 28-C , 29-H ) :   0.9770 B( 28-C , 30-H ) :   0.9688 B( 28-C , 31-H ) :   0.9729

Dispersion correction           -0.014041468
FINAL SINGLE POINT ENERGY     -1339.867047429562

DIPOLE MOMENT
-------------
                                X             Y             Z
Electronic contribution:    -12.67325      24.70289       9.53369
Nuclear contribution   :     13.03793     -25.08699      -9.47896
                        -----------------------------------------
Total Dipole Moment    :      0.36468      -0.38410       0.05473
                        -----------------------------------------
Magnitude (a.u.)       :      0.53246
Magnitude (Debye)      :      1.35341

Rotational constants in cm-1:     0.019606     0.008070     0.006367
Rotational constants in MHz :   587.764917   241.934245   190.865714

                             ****ORCA TERMINATED NORMALLY****
TOTAL RUN TIME: 0 days 0 hours 0 minutes 34 seconds 576 msec
