                         Program Version 4.2.1 -  RELEASE  -
|  1> ! wB97X-D3 SP def2-SVP
|  2> %pal
|  3> nprocs 16
|  4> end
|  5>
|  6> * xyz 0 1
|  7> S 	 -30.3998 	 73.8207 	 159.395
|  8> C 	 -28.884 	 74.3757 	 158.788
|  9> C 	 -29.0015 	 75.7941 	 158.719
| 10> C 	 -30.1697 	 76.3823 	 159.257
| 11> C 	 -31.1255 	 75.4308 	 159.558
| 12> H 	 -30.3395 	 77.4206 	 159.475
| 13> C 	 -27.8502 	 76.6827 	 158.226
| 14> H 	 -26.974 	 76.4495 	 158.818
| 15> H 	 -28.0476 	 77.6997 	 158.497
| 16> C 	 -27.6968 	 76.6496 	 156.699
| 17> H 	 -26.9821 	 77.3793 	 156.223
| 18> H 	 -27.288 	 75.7242 	 156.465
| 19> C 	 -29.0467 	 76.9243 	 156.028
| 20> H 	 -29.6501 	 77.6585 	 156.557
| 21> H 	 -28.8818 	 77.3731 	 155.001
| 22> H 	 -29.6743 	 76.0223 	 155.912
| 23> S 	 -32.7801 	 76.6937 	 161.241
| 24> C 	 -34.4357 	 76.1927 	 161.214
| 25> C 	 -34.8047 	 75.5422 	 160.097
| 26> C 	 -33.6403 	 75.128 	 159.374
| 27> C 	 -32.5136 	 75.5742 	 160.015
| 28> H 	 -35.8165 	 75.5007 	 159.935
| 29> C 	 -33.7389 	 74.3922 	 158.019
| 30> H 	 -32.8659 	 73.6837 	 157.842
| 31> H 	 -33.4608 	 75.2425 	 157.315
| 32> C 	 -35.0083 	 73.7256 	 157.694
| 33> H 	 -34.7608 	 73.3095 	 156.73
| 34> H 	 -35.8755 	 74.3683 	 157.76
| 35> C 	 -35.5227 	 72.6171 	 158.631
| 36> H 	 -36.462 	 72.3043 	 158.495
| 37> H 	 -35.5734 	 72.9174 	 159.641
| 38> H 	 -34.7446 	 71.8085 	 158.668
| 39> H 	 -28.1611 	 73.8464 	 158.237
| 40> H 	 -35.1956 	 76.6448 	 161.919
| 41> *
| 42>
| 43>                          ****END OF INPUT****

CARTESIAN COORDINATES (ANGSTROEM)
---------------------------------
  S    -30.399800   73.820700  159.395000
  C    -28.884000   74.375700  158.788000
  C    -29.001500   75.794100  158.719000
  C    -30.169700   76.382300  159.257000
  C    -31.125500   75.430800  159.558000
  H    -30.339500   77.420600  159.475000
  C    -27.850200   76.682700  158.226000
  H    -26.974000   76.449500  158.818000
  H    -28.047600   77.699700  158.497000
  C    -27.696800   76.649600  156.699000
  H    -26.982100   77.379300  156.223000
  H    -27.288000   75.724200  156.465000
  C    -29.046700   76.924300  156.028000
  H    -29.650100   77.658500  156.557000
  H    -28.881800   77.373100  155.001000
  H    -29.674300   76.022300  155.912000
  S    -32.780100   76.693700  161.241000
  C    -34.435700   76.192700  161.214000
  C    -34.804700   75.542200  160.097000
  C    -33.640300   75.128000  159.374000
  C    -32.513600   75.574200  160.015000
  H    -35.816500   75.500700  159.935000
  C    -33.738900   74.392200  158.019000
  H    -32.865900   73.683700  157.842000
  H    -33.460800   75.242500  157.315000
  C    -35.008300   73.725600  157.694000
  H    -34.760800   73.309500  156.730000
  H    -35.875500   74.368300  157.760000
  C    -35.522700   72.617100  158.631000
  H    -36.462000   72.304300  158.495000
  H    -35.573400   72.917400  159.641000
  H    -34.744600   71.808500  158.668000
  H    -28.161100   73.846400  158.237000
  H    -35.195600   76.644800  161.919000

 Total Charge           Charge          ....    0
 Multiplicity           Mult            ....    1
 Number of Electrons    NEL             ....  134
 Basis Dimension        Dim             ....  322

ORBITAL ENERGIES
----------------

  NO   OCC          E(Eh)            E(eV)
   0   2.0000     -88.966736     -2420.9080
   1   2.0000     -88.964346     -2420.8429
   2   2.0000     -10.330620      -281.1105
   3   2.0000     -10.318230      -280.7733
   4   2.0000     -10.314510      -280.6721
   5   2.0000     -10.309970      -280.5485
   6   2.0000     -10.306040      -280.4416
   7   2.0000     -10.302030      -280.3325
   8   2.0000     -10.299167      -280.2546
   9   2.0000     -10.292091      -280.0620
  10   2.0000     -10.287361      -279.9333
  11   2.0000     -10.283945      -279.8404
  12   2.0000     -10.282989      -279.8143
  13   2.0000     -10.282736      -279.8075
  14   2.0000     -10.277360      -279.6612
  15   2.0000     -10.265213      -279.3307
  16   2.0000      -8.083486      -219.9628
  17   2.0000      -8.078461      -219.8261
  18   2.0000      -6.041698      -164.4030
  19   2.0000      -6.038183      -164.3073
  20   2.0000      -6.037002      -164.2752
  21   2.0000      -6.033971      -164.1927
  22   2.0000      -6.032754      -164.1596
  23   2.0000      -6.029513      -164.0714
  24   2.0000      -1.019063       -27.7301
  25   2.0000      -0.988491       -26.8982
  26   2.0000      -0.917343       -24.9622
  27   2.0000      -0.908653       -24.7257
  28   2.0000      -0.873926       -23.7807
  29   2.0000      -0.853528       -23.2257
  30   2.0000      -0.842847       -22.9350
  31   2.0000      -0.818484       -22.2721
  32   2.0000      -0.790700       -21.5160
  33   2.0000      -0.768647       -20.9159
  34   2.0000      -0.708006       -19.2658
  35   2.0000      -0.701000       -19.0752
  36   2.0000      -0.690874       -18.7996
  37   2.0000      -0.664326       -18.0772
  38   2.0000      -0.640818       -17.4376
  39   2.0000      -0.615543       -16.7498
  40   2.0000      -0.603435       -16.4203
  41   2.0000      -0.574504       -15.6330
  42   2.0000      -0.560680       -15.2569
  43   2.0000      -0.552341       -15.0300
  44   2.0000      -0.545759       -14.8508
  45   2.0000      -0.540093       -14.6967
  46   2.0000      -0.520558       -14.1651
  47   2.0000      -0.508026       -13.8241
  48   2.0000      -0.505199       -13.7472
  49   2.0000      -0.496220       -13.5028
  50   2.0000      -0.486374       -13.2349
  51   2.0000      -0.480937       -13.0869
  52   2.0000      -0.476779       -12.9738
  53   2.0000      -0.463281       -12.6065
  54   2.0000      -0.460686       -12.5359
  55   2.0000      -0.457049       -12.4369
  56   2.0000      -0.448135       -12.1944
  57   2.0000      -0.434752       -11.8302
  58   2.0000      -0.426982       -11.6188
  59   2.0000      -0.423890       -11.5346
  60   2.0000      -0.417463       -11.3597
  61   2.0000      -0.407217       -11.0810
  62   2.0000      -0.401046       -10.9130
  63   2.0000      -0.349465        -9.5094
  64   2.0000      -0.331910        -9.0317
  65   2.0000      -0.326311        -8.8794
  66   2.0000      -0.290215        -7.8972
  67   0.0000       0.029313         0.7977
  68   0.0000       0.068975         1.8769
  69   0.0000       0.101650         2.7660
  70   0.0000       0.119577         3.2539
  71   0.0000       0.138769         3.7761

MULLIKEN ATOMIC CHARGES
-----------------------
   0 S :    0.105518
   1 C :   -0.082889
   2 C :   -0.153994
   3 C :    0.034988
   4 C :   -0.159791
   5 H :    0.014634
   6 C :    0.074696
   7 H :    0.034616
   8 H :    0.005206
   9 C :   -0.047005
  10 H :    0.034846
  11 H :    0.007816
  12 C :   -0.077866
  13 H :    0.026163
  14 H :    0.036644
  15 H :    0.045897
  16 S :    0.121278
  17 C :   -0.101911
  18 C :   -0.021687
  19 C :   -0.032538
  20 C :   -0.149984
  21 H :   -0.011489
  22 C :    0.039396
  23 H :    0.035697
  24 H :    0.055474
  25 C :   -0.034248
  26 H :    0.034826
  27 H :    0.023595
  28 C :   -0.009725
  29 H :    0.006765
  30 H :    0.010669
  31 H :    0.026725
  32 H :    0.044077
  33 H :    0.063604
Sum of atomic charges:   -0.0000000

LOEWDIN ATOMIC CHARGES
----------------------
   0 S :    0.420591
   1 C :   -0.217437
   2 C :   -0.053461
   3 C :   -0.077407
   4 C :   -0.175591
   5 H :    0.029512
   6 C :   -0.031481
   7 H :    0.029627
   8 H :    0.021383
   9 C :   -0.040763
  10 H :    0.030404
  11 H :    0.009940
  12 C :   -0.071035
  13 H :    0.022064
  14 H :    0.030211
  15 H :    0.029207
  16 S :    0.438728
  17 C :   -0.187024
  18 C :   -0.065817
  19 C :   -0.046121
  20 C :   -0.231009
  21 H :    0.021502
  22 C :   -0.043044
  23 H :    0.032423
  24 H :    0.049682
  25 C :   -0.044201
  26 H :    0.032597
  27 H :    0.023500
  28 C :   -0.055455
  29 H :    0.009158
  30 H :    0.021283
  31 H :    0.030143
  32 H :    0.023163
  33 H :    0.034732

  Mayer bond orders larger than 0.100000
B(  0-S ,  1-C ) :   1.1435 B(  0-S ,  4-C ) :   1.1800 B(  1-C ,  2-C ) :   1.5671
B(  1-C ,  4-C ) :   0.1130 B(  1-C , 32-H ) :   0.9741 B(  2-C ,  3-C ) :   1.2775
B(  2-C ,  6-C ) :   1.0152 B(  3-C ,  4-C ) :   1.5470 B(  3-C ,  5-H ) :   0.9887
B(  4-C , 20-C ) :   1.0084 B(  6-C ,  7-H ) :   0.9496 B(  6-C ,  8-H ) :   0.9455
B(  6-C ,  9-C ) :   1.0600 B(  9-C , 10-H ) :   0.9638 B(  9-C , 11-H ) :   0.9609
B(  9-C , 12-C ) :   1.0634 B( 12-C , 13-H ) :   0.9783 B( 12-C , 14-H ) :   0.9769
B( 12-C , 15-H ) :   0.9703 B( 16-S , 17-C ) :   1.1575 B( 16-S , 20-C ) :   1.1525
B( 17-C , 18-C ) :   1.6428 B( 17-C , 33-H ) :   0.9553 B( 18-C , 19-C ) :   1.2046
B( 18-C , 21-H ) :   1.0055 B( 19-C , 20-C ) :   1.6026 B( 19-C , 22-C ) :   1.0177
B( 22-C , 23-H ) :   0.9290 B( 22-C , 24-H ) :   0.9230 B( 22-C , 25-C ) :   1.0895
B( 25-C , 26-H ) :   0.9488 B( 25-C , 27-H ) :   0.9457 B( 25-C , 28-C ) :   1.0813
B( 28-C , 29-H ) :   0.9735 B( 28-C , 30-H ) :   0.9670 B( 28-C , 31-H ) :   0.9711

Dispersion correction           -0.015107955
FINAL SINGLE POINT ENERGY     -1339.837012773834

DIPOLE MOMENT
-------------
                                X             Y             Z
Electronic contribution:      0.63847       1.12344      18.49664
Nuclear contribution   :     -0.90602      -0.83166     -18.89624
                        -----------------------------------------
Total Dipole Moment    :     -0.26754       0.29178      -0.39959
                        -----------------------------------------
Magnitude (a.u.)       :      0.56249
Magnitude (Debye)      :      1.42973

Rotational constants in cm-1:     0.021683     0.008271     0.007259
Rotational constants in MHz :   650.044961   247.960333   217.610962

                             ****ORCA TERMINATED NORMALLY****
TOTAL RUN TIME: 0 days 0 hours 0 minutes 34 seconds 172 msec
