                         Program Version 4.2.1 -  RELEASE  -
|  1> ! wB97X-D3 SP def2-SVP
|  2> %pal
|  3> nprocs 16
|  4> end
|  5>
|  6> * xyz 0 1
|  7> S 	 47.7361 	 11.1816 	 52.4954
|  8> C 	 46.5823 	 10.0463 	 51.8095
|  9> C 	 46.4939 	 10.1643 	 50.439
| 10> C 	 47.3893 	 11.1092 	 49.8473
| 11> C 	 48.1147 	 11.7409 	 50.7862
| 12> H 	 47.5074 	 11.3181 	 48.8328
| 13> C 	 45.6383 	 9.24693 	 49.5172
| 14> H 	 44.6172 	 9.66505 	 49.5645
| 15> H 	 45.6237 	 8.24223 	 49.9594
| 16> C 	 45.9071 	 9.23863 	 47.9847
| 17> H 	 46.9258 	 9.09777 	 47.7187
| 18> H 	 45.5916 	 8.23734 	 47.7384
| 19> C 	 45.2416 	 10.3259 	 47.1654
| 20> H 	 45.3123 	 11.2834 	 47.589
| 21> H 	 45.7206 	 10.3585 	 46.187
| 22> H 	 44.1463 	 10.1851 	 47.1884
| 23> S 	 50.6856 	 12.168 	 51.5853
| 24> C 	 51.4581 	 13.5853 	 51.1134
| 25> C 	 50.7426 	 14.3931 	 50.2288
| 26> C 	 49.5498 	 13.7594 	 49.7797
| 27> C 	 49.2682 	 12.6139 	 50.5558
| 28> H 	 51.0514 	 15.4049 	 50.0531
| 29> C 	 48.5009 	 14.5261 	 49.0093
| 30> H 	 48.0086 	 13.8623 	 48.3259
| 31> H 	 48.9796 	 15.2865 	 48.3084
| 32> C 	 47.5788 	 15.2825 	 49.8994
| 33> H 	 47.9741 	 16.011 	 50.6204
| 34> H 	 46.9388 	 14.6127 	 50.5292
| 35> C 	 46.5842 	 16.0698 	 49.0276
| 36> H 	 46.1189 	 16.6692 	 49.7513
| 37> H 	 45.7852 	 15.4588 	 48.5326
| 38> H 	 47.0475 	 16.7471 	 48.3325
| 39> H 	 45.9945 	 9.35615 	 52.4172
| 40> H 	 52.3953 	 13.9649 	 51.6131
| 41> *
| 42>
| 43>                          ****END OF INPUT****

CARTESIAN COORDINATES (ANGSTROEM)
---------------------------------
  S     47.736100   11.181600   52.495400
  C     46.582300   10.046300   51.809500
  C     46.493900   10.164300   50.439000
  C     47.389300   11.109200   49.847300
  C     48.114700   11.740900   50.786200
  H     47.507400   11.318100   48.832800
  C     45.638300    9.246930   49.517200
  H     44.617200    9.665050   49.564500
  H     45.623700    8.242230   49.959400
  C     45.907100    9.238630   47.984700
  H     46.925800    9.097770   47.718700
  H     45.591600    8.237340   47.738400
  C     45.241600   10.325900   47.165400
  H     45.312300   11.283400   47.589000
  H     45.720600   10.358500   46.187000
  H     44.146300   10.185100   47.188400
  S     50.685600   12.168000   51.585300
  C     51.458100   13.585300   51.113400
  C     50.742600   14.393100   50.228800
  C     49.549800   13.759400   49.779700
  C     49.268200   12.613900   50.555800
  H     51.051400   15.404900   50.053100
  C     48.500900   14.526100   49.009300
  H     48.008600   13.862300   48.325900
  H     48.979600   15.286500   48.308400
  C     47.578800   15.282500   49.899400
  H     47.974100   16.011000   50.620400
  H     46.938800   14.612700   50.529200
  C     46.584200   16.069800   49.027600
  H     46.118900   16.669200   49.751300
  H     45.785200   15.458800   48.532600
  H     47.047500   16.747100   48.332500
  H     45.994500    9.356150   52.417200
  H     52.395300   13.964900   51.613100

 Total Charge           Charge          ....    0
 Multiplicity           Mult            ....    1
 Number of Electrons    NEL             ....  134
 Basis Dimension        Dim             ....  322

ORBITAL ENERGIES
----------------

  NO   OCC          E(Eh)            E(eV)
   0   2.0000     -88.965796     -2420.8824
   1   2.0000     -88.964132     -2420.8371
   2   2.0000     -10.331302      -281.1290
   3   2.0000     -10.328417      -281.0505
   4   2.0000     -10.313210      -280.6367
   5   2.0000     -10.312473      -280.6166
   6   2.0000     -10.304629      -280.4032
   7   2.0000     -10.301098      -280.3071
   8   2.0000     -10.296364      -280.1783
   9   2.0000     -10.292554      -280.0746
  10   2.0000     -10.289941      -280.0035
  11   2.0000     -10.287012      -279.9238
  12   2.0000     -10.285404      -279.8801
  13   2.0000     -10.284441      -279.8539
  14   2.0000     -10.280118      -279.7362
  15   2.0000     -10.270939      -279.4865
  16   2.0000      -8.079261      -219.8479
  17   2.0000      -8.079114      -219.8439
  18   2.0000      -6.037793      -164.2967
  19   2.0000      -6.037591      -164.2912
  20   2.0000      -6.034020      -164.1940
  21   2.0000      -6.033662      -164.1843
  22   2.0000      -6.030218      -164.0906
  23   2.0000      -6.029584      -164.0733
  24   2.0000      -1.001238       -27.2451
  25   2.0000      -0.979053       -26.6414
  26   2.0000      -0.916013       -24.9260
  27   2.0000      -0.907993       -24.7077
  28   2.0000      -0.866774       -23.5861
  29   2.0000      -0.855326       -23.2746
  30   2.0000      -0.846043       -23.0220
  31   2.0000      -0.812400       -22.1065
  32   2.0000      -0.784078       -21.3359
  33   2.0000      -0.768352       -20.9079
  34   2.0000      -0.709651       -19.3106
  35   2.0000      -0.698731       -19.0134
  36   2.0000      -0.688400       -18.7323
  37   2.0000      -0.658983       -17.9318
  38   2.0000      -0.640041       -17.4164
  39   2.0000      -0.625382       -17.0175
  40   2.0000      -0.597573       -16.2608
  41   2.0000      -0.567320       -15.4376
  42   2.0000      -0.561960       -15.2917
  43   2.0000      -0.545486       -14.8434
  44   2.0000      -0.533919       -14.5287
  45   2.0000      -0.526428       -14.3248
  46   2.0000      -0.521007       -14.1773
  47   2.0000      -0.508018       -13.8239
  48   2.0000      -0.504057       -13.7161
  49   2.0000      -0.497059       -13.5257
  50   2.0000      -0.489554       -13.3215
  51   2.0000      -0.485921       -13.2226
  52   2.0000      -0.470783       -12.8107
  53   2.0000      -0.467806       -12.7296
  54   2.0000      -0.453337       -12.3359
  55   2.0000      -0.448469       -12.2035
  56   2.0000      -0.443599       -12.0709
  57   2.0000      -0.442719       -12.0470
  58   2.0000      -0.436390       -11.8748
  59   2.0000      -0.429702       -11.6928
  60   2.0000      -0.415939       -11.3183
  61   2.0000      -0.412114       -11.2142
  62   2.0000      -0.403245       -10.9729
  63   2.0000      -0.350927        -9.5492
  64   2.0000      -0.333402        -9.0723
  65   2.0000      -0.323602        -8.8057
  66   2.0000      -0.282221        -7.6796
  67   0.0000       0.025886         0.7044
  68   0.0000       0.067399         1.8340
  69   0.0000       0.106592         2.9005
  70   0.0000       0.120299         3.2735
  71   0.0000       0.131975         3.5912

MULLIKEN ATOMIC CHARGES
-----------------------
   0 S :    0.093495
   1 C :   -0.144229
   2 C :   -0.061157
   3 C :    0.039229
   4 C :   -0.105241
   5 H :   -0.004766
   6 C :    0.034996
   7 H :    0.033893
   8 H :    0.037692
   9 C :   -0.065175
  10 H :    0.014852
  11 H :    0.017138
  12 C :   -0.025455
  13 H :    0.018098
  14 H :    0.044471
  15 H :    0.035231
  16 S :    0.110996
  17 C :   -0.102917
  18 C :   -0.053424
  19 C :    0.016307
  20 C :   -0.191846
  21 H :    0.016211
  22 C :    0.053273
  23 H :    0.015166
  24 H :    0.025448
  25 C :   -0.090486
  26 H :    0.034093
  27 H :    0.038871
  28 C :   -0.032622
  29 H :    0.012333
  30 H :    0.040587
  31 H :    0.023878
  32 H :    0.049547
  33 H :    0.071514
Sum of atomic charges:   -0.0000000

LOEWDIN ATOMIC CHARGES
----------------------
   0 S :    0.357618
   1 C :   -0.199806
   2 C :   -0.059932
   3 C :   -0.055430
   4 C :   -0.159874
   5 H :    0.025788
   6 C :   -0.032170
   7 H :    0.036017
   8 H :    0.032172
   9 C :   -0.050433
  10 H :    0.018429
  11 H :    0.029661
  12 C :   -0.063339
  13 H :    0.016888
  14 H :    0.034023
  15 H :    0.032106
  16 S :    0.414837
  17 C :   -0.216777
  18 C :   -0.074012
  19 C :   -0.054254
  20 C :   -0.178447
  21 H :    0.029366
  22 C :   -0.037227
  23 H :    0.026320
  24 H :    0.036411
  25 C :   -0.039736
  26 H :    0.028775
  27 H :    0.032487
  28 C :   -0.063526
  29 H :    0.019335
  30 H :    0.029291
  31 H :    0.018288
  32 H :    0.029658
  33 H :    0.037490

  Mayer bond orders larger than 0.100000
B(  0-S ,  1-C ) :   1.1081 B(  0-S ,  4-C ) :   1.1164 B(  1-C ,  2-C ) :   1.6551
B(  1-C , 32-H ) :   0.9699 B(  2-C ,  3-C ) :   1.2108 B(  2-C ,  6-C ) :   0.9986
B(  3-C ,  4-C ) :   1.6078 B(  3-C ,  5-H ) :   0.9990 B(  4-C , 20-C ) :   1.0560
B(  6-C ,  7-H ) :   0.9343 B(  6-C ,  8-H ) :   0.9528 B(  6-C ,  9-C ) :   1.0723
B(  9-C , 10-H ) :   0.9549 B(  9-C , 11-H ) :   0.9472 B(  9-C , 12-C ) :   1.0710
B( 12-C , 13-H ) :   0.9786 B( 12-C , 14-H ) :   0.9727 B( 12-C , 15-H ) :   0.9682
B( 16-S , 17-C ) :   1.1728 B( 16-S , 20-C ) :   1.1437 B( 17-C , 18-C ) :   1.6021
B( 17-C , 33-H ) :   0.9558 B( 18-C , 19-C ) :   1.2400 B( 18-C , 21-H ) :   0.9938
B( 19-C , 20-C ) :   1.5576 B( 19-C , 22-C ) :   1.0605 B( 22-C , 23-H ) :   0.9306
B( 22-C , 24-H ) :   0.9363 B( 22-C , 25-C ) :   1.0674 B( 25-C , 26-H ) :   0.9608
B( 25-C , 27-H ) :   0.9486 B( 25-C , 28-C ) :   1.0798 B( 28-C , 29-H ) :   0.9735
B( 28-C , 30-H ) :   0.9753 B( 28-C , 31-H ) :   0.9745

Dispersion correction           -0.014452346
FINAL SINGLE POINT ENERGY     -1339.858225093159

DIPOLE MOMENT
-------------
                                X             Y             Z
Electronic contribution:     18.40233      -6.46350      20.77154
Nuclear contribution   :    -18.80164       6.60518     -21.18998
                        -----------------------------------------
Total Dipole Moment    :     -0.39931       0.14168      -0.41844
                        -----------------------------------------
Magnitude (a.u.)       :      0.59550
Magnitude (Debye)      :      1.51364

Rotational constants in cm-1:     0.016509     0.009784     0.007452
Rotational constants in MHz :   494.934239   293.315041   223.403016

                             ****ORCA TERMINATED NORMALLY****
TOTAL RUN TIME: 0 days 0 hours 0 minutes 33 seconds 795 msec
