                         Program Version 4.2.1 -  RELEASE  -
|  1> ! wB97X-D3 SP def2-SVP
|  2> %pal
|  3> nprocs 16
|  4> end
|  5>
|  6> * xyz 0 1
|  7> S 	 -102.442 	 46.2451 	 117.9
|  8> C 	 -104.098 	 46.433 	 118.511
|  9> C 	 -104.339 	 47.8187 	 118.622
| 10> C 	 -103.322 	 48.5837 	 117.899
| 11> C 	 -102.168 	 47.9399 	 117.54
| 12> H 	 -103.409 	 49.6533 	 117.679
| 13> C 	 -105.648 	 48.3245 	 119.102
| 14> H 	 -106.096 	 47.6044 	 119.762
| 15> H 	 -106.301 	 48.2581 	 118.201
| 16> C 	 -105.74 	 49.6281 	 119.874
| 17> H 	 -105.012 	 49.5194 	 120.705
| 18> H 	 -105.353 	 50.4674 	 119.253
| 19> C 	 -107.246 	 49.9382 	 120.11
| 20> H 	 -107.489 	 50.9343 	 120.494
| 21> H 	 -107.806 	 49.9423 	 119.203
| 22> H 	 -107.731 	 49.1324 	 120.672
| 23> S 	 -100.638 	 47.4044 	 115.292
| 24> C 	 -99.3741 	 48.5691 	 114.919
| 25> C 	 -99.3841 	 49.6529 	 115.727
| 26> C 	 -100.342 	 49.6423 	 116.817
| 27> C 	 -101.069 	 48.4444 	 116.724
| 28> H 	 -98.5851 	 50.3415 	 115.614
| 29> C 	 -100.521 	 50.7965 	 117.799
| 30> H 	 -99.5738 	 51.1997 	 118.065
| 31> H 	 -100.867 	 50.4267 	 118.8
| 32> C 	 -101.421 	 51.9269 	 117.44
| 33> H 	 -101.75 	 52.4974 	 118.332
| 34> H 	 -102.375 	 51.5016 	 117.108
| 35> C 	 -100.92 	 52.8455 	 116.303
| 36> H 	 -100.724 	 52.2314 	 115.415
| 37> H 	 -99.9748 	 53.3528 	 116.681
| 38> H 	 -101.695 	 53.6043 	 116.092
| 39> H 	 -104.784 	 45.6204 	 118.85
| 40> H 	 -98.6583 	 48.4033 	 114.087
| 41> *
| 42>
| 43>                          ****END OF INPUT****

CARTESIAN COORDINATES (ANGSTROEM)
---------------------------------
  S    -102.442000   46.245100  117.900000
  C    -104.098000   46.433000  118.511000
  C    -104.339000   47.818700  118.622000
  C    -103.322000   48.583700  117.899000
  C    -102.168000   47.939900  117.540000
  H    -103.409000   49.653300  117.679000
  C    -105.648000   48.324500  119.102000
  H    -106.096000   47.604400  119.762000
  H    -106.301000   48.258100  118.201000
  C    -105.740000   49.628100  119.874000
  H    -105.012000   49.519400  120.705000
  H    -105.353000   50.467400  119.253000
  C    -107.246000   49.938200  120.110000
  H    -107.489000   50.934300  120.494000
  H    -107.806000   49.942300  119.203000
  H    -107.731000   49.132400  120.672000
  S    -100.638000   47.404400  115.292000
  C    -99.374100   48.569100  114.919000
  C    -99.384100   49.652900  115.727000
  C    -100.342000   49.642300  116.817000
  C    -101.069000   48.444400  116.724000
  H    -98.585100   50.341500  115.614000
  C    -100.521000   50.796500  117.799000
  H    -99.573800   51.199700  118.065000
  H    -100.867000   50.426700  118.800000
  C    -101.421000   51.926900  117.440000
  H    -101.750000   52.497400  118.332000
  H    -102.375000   51.501600  117.108000
  C    -100.920000   52.845500  116.303000
  H    -100.724000   52.231400  115.415000
  H    -99.974800   53.352800  116.681000
  H    -101.695000   53.604300  116.092000
  H    -104.784000   45.620400  118.850000
  H    -98.658300   48.403300  114.087000

 Total Charge           Charge          ....    0
 Multiplicity           Mult            ....    1
 Number of Electrons    NEL             ....  134
 Basis Dimension        Dim             ....  322

ORBITAL ENERGIES
----------------

  NO   OCC          E(Eh)            E(eV)
   0   2.0000     -88.967303     -2420.9234
   1   2.0000     -88.960897     -2420.7491
   2   2.0000     -10.337982      -281.3108
   3   2.0000     -10.328492      -281.0526
   4   2.0000     -10.322006      -280.8761
   5   2.0000     -10.318927      -280.7923
   6   2.0000     -10.314949      -280.6840
   7   2.0000     -10.306181      -280.4455
   8   2.0000     -10.296200      -280.1738
   9   2.0000     -10.295409      -280.1523
  10   2.0000     -10.295183      -280.1462
  11   2.0000     -10.292290      -280.0674
  12   2.0000     -10.288969      -279.9771
  13   2.0000     -10.288241      -279.9573
  14   2.0000     -10.285788      -279.8905
  15   2.0000     -10.282347      -279.7969
  16   2.0000      -8.081058      -219.8968
  17   2.0000      -8.075165      -219.7364
  18   2.0000      -6.039645      -164.3471
  19   2.0000      -6.035894      -164.2450
  20   2.0000      -6.033829      -164.1888
  21   2.0000      -6.031583      -164.1277
  22   2.0000      -6.029626      -164.0745
  23   2.0000      -6.025853      -163.9718
  24   2.0000      -1.000637       -27.2287
  25   2.0000      -0.978337       -26.6219
  26   2.0000      -0.916104       -24.9285
  27   2.0000      -0.914322       -24.8800
  28   2.0000      -0.869628       -23.6638
  29   2.0000      -0.848606       -23.0918
  30   2.0000      -0.838534       -22.8177
  31   2.0000      -0.815327       -22.1862
  32   2.0000      -0.786731       -21.4080
  33   2.0000      -0.771737       -21.0000
  34   2.0000      -0.715064       -19.4579
  35   2.0000      -0.700371       -19.0581
  36   2.0000      -0.685667       -18.6579
  37   2.0000      -0.657649       -17.8955
  38   2.0000      -0.640592       -17.4314
  39   2.0000      -0.615068       -16.7369
  40   2.0000      -0.600866       -16.3504
  41   2.0000      -0.567007       -15.4291
  42   2.0000      -0.564577       -15.3629
  43   2.0000      -0.554590       -15.0912
  44   2.0000      -0.547903       -14.9092
  45   2.0000      -0.524928       -14.2840
  46   2.0000      -0.513603       -13.9759
  47   2.0000      -0.504850       -13.7377
  48   2.0000      -0.501232       -13.6392
  49   2.0000      -0.498313       -13.5598
  50   2.0000      -0.489434       -13.3182
  51   2.0000      -0.488282       -13.2868
  52   2.0000      -0.474710       -12.9175
  53   2.0000      -0.468773       -12.7560
  54   2.0000      -0.454292       -12.3619
  55   2.0000      -0.449244       -12.2245
  56   2.0000      -0.446418       -12.1476
  57   2.0000      -0.440271       -11.9804
  58   2.0000      -0.432910       -11.7801
  59   2.0000      -0.421331       -11.4650
  60   2.0000      -0.418352       -11.3839
  61   2.0000      -0.413790       -11.2598
  62   2.0000      -0.406101       -11.0506
  63   2.0000      -0.349356        -9.5065
  64   2.0000      -0.335126        -9.1192
  65   2.0000      -0.320139        -8.7114
  66   2.0000      -0.292715        -7.9652
  67   0.0000       0.022703         0.6178
  68   0.0000       0.071959         1.9581
  69   0.0000       0.103167         2.8073
  70   0.0000       0.117625         3.2007
  71   0.0000       0.129842         3.5332

MULLIKEN ATOMIC CHARGES
-----------------------
   0 S :    0.086830
   1 C :   -0.143416
   2 C :   -0.070379
   3 C :    0.009788
   4 C :   -0.119552
   5 H :    0.003567
   6 C :    0.006242
   7 H :    0.010599
   8 H :    0.046558
   9 C :   -0.070271
  10 H :    0.044473
  11 H :    0.031338
  12 C :   -0.027259
  13 H :    0.036565
  14 H :    0.015044
  15 H :    0.027972
  16 S :    0.103454
  17 C :   -0.101615
  18 C :   -0.017756
  19 C :   -0.026632
  20 C :   -0.159012
  21 H :    0.008427
  22 C :    0.089374
  23 H :    0.007896
  24 H :    0.032430
  25 C :   -0.081414
  26 H :    0.033943
  27 H :    0.019774
  28 C :   -0.073217
  29 H :    0.050201
  30 H :    0.037024
  31 H :    0.044384
  32 H :    0.075329
  33 H :    0.069311
Sum of atomic charges:    0.0000000

LOEWDIN ATOMIC CHARGES
----------------------
   0 S :    0.386416
   1 C :   -0.196290
   2 C :   -0.064816
   3 C :   -0.067788
   4 C :   -0.199512
   5 H :    0.026435
   6 C :   -0.046746
   7 H :    0.027073
   8 H :    0.040319
   9 C :   -0.042156
  10 H :    0.031876
  11 H :    0.024179
  12 C :   -0.065537
  13 H :    0.028175
  14 H :    0.024642
  15 H :    0.025894
  16 S :    0.372237
  17 C :   -0.180613
  18 C :   -0.072986
  19 C :   -0.044020
  20 C :   -0.163819
  21 H :    0.026386
  22 C :   -0.035353
  23 H :    0.025532
  24 H :    0.042287
  25 C :   -0.048205
  26 H :    0.029338
  27 H :    0.018799
  28 C :   -0.069222
  29 H :    0.028768
  30 H :    0.028845
  31 H :    0.030085
  32 H :    0.042720
  33 H :    0.037057

  Mayer bond orders larger than 0.100000
B(  0-S ,  1-C ) :   1.1383 B(  0-S ,  4-C ) :   1.1325 B(  1-C ,  2-C ) :   1.5784
B(  1-C , 32-H ) :   0.9666 B(  2-C ,  3-C ) :   1.2295 B(  2-C ,  6-C ) :   1.0420
B(  3-C ,  4-C ) :   1.5836 B(  3-C ,  5-H ) :   0.9847 B(  4-C , 20-C ) :   1.0542
B(  6-C ,  7-H ) :   0.9419 B(  6-C ,  8-H ) :   0.9375 B(  6-C ,  9-C ) :   1.0522
B(  9-C , 10-H ) :   0.9600 B(  9-C , 11-H ) :   0.9539 B(  9-C , 12-C ) :   1.0686
B( 12-C , 13-H ) :   0.9744 B( 12-C , 14-H ) :   0.9700 B( 12-C , 15-H ) :   0.9757
B( 16-S , 17-C ) :   1.1233 B( 16-S , 20-C ) :   1.1309 B( 17-C , 18-C ) :   1.6662
B( 17-C , 33-H ) :   0.9601 B( 18-C , 19-C ) :   1.1940 B( 18-C , 21-H ) :   0.9863
B( 19-C , 20-C ) :   1.6219 B( 19-C , 22-C ) :   1.0504 B( 22-C , 23-H ) :   0.9296
B( 22-C , 24-H ) :   0.9228 B( 22-C , 25-C ) :   1.0792 B( 25-C , 26-H ) :   0.9507
B( 25-C , 27-H ) :   0.9435 B( 25-C , 28-C ) :   1.0785 B( 28-C , 29-H ) :   0.9728
B( 28-C , 30-H ) :   0.9754 B( 28-C , 31-H ) :   0.9726

Dispersion correction           -0.014170787
FINAL SINGLE POINT ENERGY     -1339.872480658574

DIPOLE MOMENT
-------------
                                X             Y             Z
Electronic contribution:     14.85519     -24.93851     -10.60123
Nuclear contribution   :    -15.19016      25.58256      10.73671
                        -----------------------------------------
Total Dipole Moment    :     -0.33498       0.64405       0.13548
                        -----------------------------------------
Magnitude (a.u.)       :      0.73849
Magnitude (Debye)      :      1.87709

Rotational constants in cm-1:     0.017808     0.008955     0.006300
Rotational constants in MHz :   533.861167   268.468522   188.856457

                             ****ORCA TERMINATED NORMALLY****
TOTAL RUN TIME: 0 days 0 hours 0 minutes 32 seconds 24 msec
