                         Program Version 4.2.1 -  RELEASE  -
|  1> ! wB97X-D3 SP def2-SVP
|  2> %pal
|  3> nprocs 16
|  4> end
|  5>
|  6> * xyz 0 1
|  7> S 	 12.0583 	 -27.8934 	 83.3917
|  8> C 	 11.2854 	 -28.3622 	 84.8528
|  9> C 	 10.2145 	 -27.5433 	 85.1562
| 10> C 	 10.1908 	 -26.4123 	 84.2678
| 11> C 	 11.2768 	 -26.3607 	 83.47
| 12> H 	 9.49319 	 -25.5777 	 84.3429
| 13> C 	 9.31538 	 -27.5462 	 86.4339
| 14> H 	 9.9836 	 -27.3866 	 87.3578
| 15> H 	 8.86173 	 -28.5055 	 86.4873
| 16> C 	 8.16102 	 -26.5047 	 86.3937
| 17> H 	 8.47459 	 -25.4248 	 86.33
| 18> H 	 7.62351 	 -26.5713 	 85.411
| 19> C 	 7.21033 	 -26.6476 	 87.6482
| 20> H 	 7.66094 	 -26.4294 	 88.6339
| 21> H 	 6.42851 	 -25.9035 	 87.5015
| 22> H 	 6.79975 	 -27.6661 	 87.7094
| 23> S 	 11.9049 	 -26.1758 	 80.7686
| 24> C 	 12.0299 	 -24.6385 	 80.0142
| 25> C 	 11.4502 	 -23.6204 	 80.8387
| 26> C 	 11.1141 	 -24.0641 	 82.2073
| 27> C 	 11.4402 	 -25.3698 	 82.34
| 28> H 	 11.3228 	 -22.5967 	 80.5837
| 29> C 	 10.5973 	 -22.9703 	 83.194
| 30> H 	 11.1887 	 -22.1316 	 83.1055
| 31> H 	 10.8128 	 -23.3451 	 84.2663
| 32> C 	 9.1189 	 -22.5387 	 83.075
| 33> H 	 8.55648 	 -23.3965 	 83.4413
| 34> H 	 8.82994 	 -22.441 	 82.0104
| 35> C 	 8.94226 	 -21.3063 	 83.9894
| 36> H 	 7.97679 	 -20.9715 	 83.8095
| 37> H 	 9.78318 	 -20.5857 	 83.913
| 38> H 	 8.92709 	 -21.5962 	 84.9829
| 39> H 	 11.5386 	 -29.173 	 85.46
| 40> H 	 12.3375 	 -24.4404 	 79.0603
| 41> *
| 42>
| 43>                          ****END OF INPUT****

CARTESIAN COORDINATES (ANGSTROEM)
---------------------------------
  S     12.058300  -27.893400   83.391700
  C     11.285400  -28.362200   84.852800
  C     10.214500  -27.543300   85.156200
  C     10.190800  -26.412300   84.267800
  C     11.276800  -26.360700   83.470000
  H      9.493190  -25.577700   84.342900
  C      9.315380  -27.546200   86.433900
  H      9.983600  -27.386600   87.357800
  H      8.861730  -28.505500   86.487300
  C      8.161020  -26.504700   86.393700
  H      8.474590  -25.424800   86.330000
  H      7.623510  -26.571300   85.411000
  C      7.210330  -26.647600   87.648200
  H      7.660940  -26.429400   88.633900
  H      6.428510  -25.903500   87.501500
  H      6.799750  -27.666100   87.709400
  S     11.904900  -26.175800   80.768600
  C     12.029900  -24.638500   80.014200
  C     11.450200  -23.620400   80.838700
  C     11.114100  -24.064100   82.207300
  C     11.440200  -25.369800   82.340000
  H     11.322800  -22.596700   80.583700
  C     10.597300  -22.970300   83.194000
  H     11.188700  -22.131600   83.105500
  H     10.812800  -23.345100   84.266300
  C      9.118900  -22.538700   83.075000
  H      8.556480  -23.396500   83.441300
  H      8.829940  -22.441000   82.010400
  C      8.942260  -21.306300   83.989400
  H      7.976790  -20.971500   83.809500
  H      9.783180  -20.585700   83.913000
  H      8.927090  -21.596200   84.982900
  H     11.538600  -29.173000   85.460000
  H     12.337500  -24.440400   79.060300

 Total Charge           Charge          ....    0
 Multiplicity           Mult            ....    1
 Number of Electrons    NEL             ....  134
 Basis Dimension        Dim             ....  322

ORBITAL ENERGIES
----------------

  NO   OCC          E(Eh)            E(eV)
   0   2.0000     -88.964758     -2420.8541
   1   2.0000     -88.963864     -2420.8298
   2   2.0000     -10.331230      -281.1271
   3   2.0000     -10.322926      -280.9011
   4   2.0000     -10.313010      -280.6313
   5   2.0000     -10.306446      -280.4527
   6   2.0000     -10.304671      -280.4044
   7   2.0000     -10.302743      -280.3519
   8   2.0000     -10.302065      -280.3334
   9   2.0000     -10.301492      -280.3178
  10   2.0000     -10.298193      -280.2281
  11   2.0000     -10.295957      -280.1672
  12   2.0000     -10.293282      -280.0945
  13   2.0000     -10.289149      -279.9820
  14   2.0000     -10.287951      -279.9494
  15   2.0000     -10.276049      -279.6255
  16   2.0000      -8.080648      -219.8856
  17   2.0000      -8.078125      -219.8170
  18   2.0000      -6.039134      -164.3332
  19   2.0000      -6.036801      -164.2697
  20   2.0000      -6.035254      -164.2276
  21   2.0000      -6.032931      -164.1644
  22   2.0000      -6.031100      -164.1146
  23   2.0000      -6.028516      -164.0443
  24   2.0000      -1.009758       -27.4769
  25   2.0000      -0.978407       -26.6238
  26   2.0000      -0.911293       -24.7976
  27   2.0000      -0.903193       -24.5771
  28   2.0000      -0.864646       -23.5282
  29   2.0000      -0.853034       -23.2122
  30   2.0000      -0.843003       -22.9393
  31   2.0000      -0.806618       -21.9492
  32   2.0000      -0.785230       -21.3672
  33   2.0000      -0.774308       -21.0700
  34   2.0000      -0.709656       -19.3107
  35   2.0000      -0.704535       -19.1714
  36   2.0000      -0.689593       -18.7648
  37   2.0000      -0.664149       -18.0724
  38   2.0000      -0.640712       -17.4347
  39   2.0000      -0.619714       -16.8633
  40   2.0000      -0.597027       -16.2459
  41   2.0000      -0.566665       -15.4197
  42   2.0000      -0.562195       -15.2981
  43   2.0000      -0.556310       -15.1380
  44   2.0000      -0.534475       -14.5438
  45   2.0000      -0.524022       -14.2594
  46   2.0000      -0.514916       -14.0116
  47   2.0000      -0.508202       -13.8289
  48   2.0000      -0.497910       -13.5488
  49   2.0000      -0.496244       -13.5035
  50   2.0000      -0.493406       -13.4263
  51   2.0000      -0.485990       -13.2245
  52   2.0000      -0.472549       -12.8587
  53   2.0000      -0.467080       -12.7099
  54   2.0000      -0.462743       -12.5919
  55   2.0000      -0.454163       -12.3584
  56   2.0000      -0.444761       -12.1026
  57   2.0000      -0.442879       -12.0513
  58   2.0000      -0.435720       -11.8565
  59   2.0000      -0.425542       -11.5796
  60   2.0000      -0.421451       -11.4683
  61   2.0000      -0.415771       -11.3137
  62   2.0000      -0.410718       -11.1762
  63   2.0000      -0.353179        -9.6105
  64   2.0000      -0.328057        -8.9269
  65   2.0000      -0.325898        -8.8681
  66   2.0000      -0.287425        -7.8212
  67   0.0000       0.027751         0.7551
  68   0.0000       0.071974         1.9585
  69   0.0000       0.091948         2.5020
  70   0.0000       0.116008         3.1567
  71   0.0000       0.124177         3.3790

MULLIKEN ATOMIC CHARGES
-----------------------
   0 S :    0.103129
   1 C :   -0.086764
   2 C :   -0.092745
   3 C :   -0.001036
   4 C :   -0.093794
   5 H :    0.002199
   6 C :    0.078421
   7 H :    0.060506
   8 H :    0.024938
   9 C :   -0.161144
  10 H :    0.038742
  11 H :    0.042904
  12 C :   -0.033715
  13 H :    0.039798
  14 H :    0.034687
  15 H :    0.037546
  16 S :    0.084173
  17 C :   -0.041122
  18 C :   -0.035253
  19 C :   -0.037890
  20 C :   -0.146168
  21 H :    0.004935
  22 C :    0.020261
  23 H :    0.006151
  24 H :    0.035243
  25 C :   -0.084208
  26 H :    0.026585
  27 H :    0.040543
  28 C :    0.019667
  29 H :    0.022298
  30 H :    0.039035
  31 H :    0.009857
  32 H :    0.017152
  33 H :    0.025068
Sum of atomic charges:   -0.0000000

LOEWDIN ATOMIC CHARGES
----------------------
   0 S :    0.421688
   1 C :   -0.193905
   2 C :   -0.062072
   3 C :   -0.064128
   4 C :   -0.198618
   5 H :    0.028239
   6 C :   -0.032192
   7 H :    0.045066
   8 H :    0.025676
   9 C :   -0.054594
  10 H :    0.024553
  11 H :    0.029342
  12 C :   -0.065526
  13 H :    0.028656
  14 H :    0.027426
  15 H :    0.026123
  16 S :    0.375502
  17 C :   -0.182862
  18 C :   -0.059726
  19 C :   -0.063526
  20 C :   -0.159102
  21 H :    0.019230
  22 C :   -0.027945
  23 H :    0.014446
  24 H :    0.036875
  25 C :   -0.036267
  26 H :    0.022801
  27 H :    0.026810
  28 C :   -0.051726
  29 H :    0.021057
  30 H :    0.032377
  31 H :    0.019593
  32 H :    0.016532
  33 H :    0.010193

  Mayer bond orders larger than 0.100000
B(  0-S ,  1-C ) :   1.1428 B(  0-S ,  4-C ) :   1.1527 B(  1-C ,  2-C ) :   1.6212
B(  1-C , 32-H ) :   0.9818 B(  2-C ,  3-C ) :   1.2477 B(  2-C ,  6-C ) :   0.9990
B(  3-C ,  4-C ) :   1.5706 B(  3-C ,  5-H ) :   0.9870 B(  4-C , 20-C ) :   1.0112
B(  6-C ,  7-H ) :   0.9446 B(  6-C ,  8-H ) :   0.9360 B(  6-C ,  9-C ) :   1.0792
B(  9-C , 10-H ) :   0.9483 B(  9-C , 11-H ) :   0.9527 B(  9-C , 12-C ) :   1.0699
B( 12-C , 13-H ) :   0.9763 B( 12-C , 14-H ) :   0.9745 B( 12-C , 15-H ) :   0.9767
B( 16-S , 17-C ) :   1.1398 B( 16-S , 20-C ) :   1.1129 B( 17-C , 18-C ) :   1.6201
B( 17-C , 33-H ) :   0.9822 B( 18-C , 19-C ) :   1.2001 B( 18-C , 21-H ) :   0.9872
B( 19-C , 20-C ) :   1.7037 B( 19-C , 22-C ) :   1.0200 B( 22-C , 23-H ) :   0.9433
B( 22-C , 24-H ) :   0.9415 B( 22-C , 25-C ) :   1.0566 B( 25-C , 26-H ) :   0.9508
B( 25-C , 27-H ) :   0.9597 B( 25-C , 28-C ) :   1.0701 B( 28-C , 29-H ) :   0.9706
B( 28-C , 30-H ) :   0.9765 B( 28-C , 31-H ) :   0.9699

Dispersion correction           -0.013780826
FINAL SINGLE POINT ENERGY     -1339.843169619645

DIPOLE MOMENT
-------------
                                X             Y             Z
Electronic contribution:     21.63860     -16.66763     -20.36722
Nuclear contribution   :    -22.21242      17.11975      20.89361
                        -----------------------------------------
Total Dipole Moment    :     -0.57382       0.45212       0.52640
                        -----------------------------------------
Magnitude (a.u.)       :      0.90043
Magnitude (Debye)      :      2.28871

Rotational constants in cm-1:     0.015283     0.010118     0.006354
Rotational constants in MHz :   458.177135   303.324617   190.499646

                             ****ORCA TERMINATED NORMALLY****
TOTAL RUN TIME: 0 days 0 hours 0 minutes 32 seconds 227 msec
