                         Program Version 4.2.1 -  RELEASE  -
|  1> ! wB97X-D3 SP def2-SVP
|  2> %pal
|  3> nprocs 16
|  4> end
|  5>
|  6> * xyz 0 1
|  7> S 	 -98.4657 	 43.2424 	 120.053
|  8> C 	 -98.3089 	 44.4214 	 121.343
|  9> C 	 -97.11 	 45.0814 	 121.31
| 10> C 	 -96.3372 	 44.7117 	 120.181
| 11> C 	 -96.9506 	 43.7618 	 119.351
| 12> H 	 -95.3701 	 45.1298 	 119.908
| 13> C 	 -96.7537 	 46.3075 	 122.21
| 14> H 	 -96.8039 	 47.2587 	 121.643
| 15> H 	 -95.7209 	 46.1571 	 122.618
| 16> C 	 -97.7127 	 46.6237 	 123.398
| 17> H 	 -98.5795 	 46.9781 	 122.912
| 18> H 	 -97.9522 	 45.844 	 124.028
| 19> C 	 -97.2153 	 47.7509 	 124.25
| 20> H 	 -98.0228 	 47.9283 	 124.996
| 21> H 	 -96.2557 	 47.5202 	 124.819
| 22> H 	 -97.0435 	 48.6744 	 123.747
| 23> S 	 -95.8135 	 41.4454 	 118.314
| 24> C 	 -95.4119 	 41.3849 	 116.615
| 25> C 	 -95.5641 	 42.5937 	 116.034
| 26> C 	 -96.0935 	 43.557 	 116.911
| 27> C 	 -96.3608 	 43.0809 	 118.157
| 28> H 	 -95.4241 	 42.7904 	 115.001
| 29> C 	 -96.3523 	 45.003 	 116.468
| 30> H 	 -97.2995 	 45.4145 	 116.958
| 31> H 	 -96.4312 	 44.9404 	 115.376
| 32> C 	 -95.1683 	 45.9994 	 116.794
| 33> H 	 -95.2316 	 46.2394 	 117.788
| 34> H 	 -95.2526 	 46.988 	 116.302
| 35> C 	 -93.7926 	 45.4371 	 116.532
| 36> H 	 -93.0262 	 46.1935 	 116.535
| 37> H 	 -93.7612 	 45.0719 	 115.507
| 38> H 	 -93.538 	 44.6033 	 117.16
| 39> H 	 -99.0073 	 44.6159 	 122.108
| 40> H 	 -95.017 	 40.4971 	 116.163
| 41> *
| 42>
| 43>                          ****END OF INPUT****

CARTESIAN COORDINATES (ANGSTROEM)
---------------------------------
  S    -98.465700   43.242400  120.053000
  C    -98.308900   44.421400  121.343000
  C    -97.110000   45.081400  121.310000
  C    -96.337200   44.711700  120.181000
  C    -96.950600   43.761800  119.351000
  H    -95.370100   45.129800  119.908000
  C    -96.753700   46.307500  122.210000
  H    -96.803900   47.258700  121.643000
  H    -95.720900   46.157100  122.618000
  C    -97.712700   46.623700  123.398000
  H    -98.579500   46.978100  122.912000
  H    -97.952200   45.844000  124.028000
  C    -97.215300   47.750900  124.250000
  H    -98.022800   47.928300  124.996000
  H    -96.255700   47.520200  124.819000
  H    -97.043500   48.674400  123.747000
  S    -95.813500   41.445400  118.314000
  C    -95.411900   41.384900  116.615000
  C    -95.564100   42.593700  116.034000
  C    -96.093500   43.557000  116.911000
  C    -96.360800   43.080900  118.157000
  H    -95.424100   42.790400  115.001000
  C    -96.352300   45.003000  116.468000
  H    -97.299500   45.414500  116.958000
  H    -96.431200   44.940400  115.376000
  C    -95.168300   45.999400  116.794000
  H    -95.231600   46.239400  117.788000
  H    -95.252600   46.988000  116.302000
  C    -93.792600   45.437100  116.532000
  H    -93.026200   46.193500  116.535000
  H    -93.761200   45.071900  115.507000
  H    -93.538000   44.603300  117.160000
  H    -99.007300   44.615900  122.108000
  H    -95.017000   40.497100  116.163000

 Total Charge           Charge          ....    0
 Multiplicity           Mult            ....    1
 Number of Electrons    NEL             ....  134
 Basis Dimension        Dim             ....  322

ORBITAL ENERGIES
----------------

  NO   OCC          E(Eh)            E(eV)
   0   2.0000     -88.968458     -2420.9548
   1   2.0000     -88.962714     -2420.7985
   2   2.0000     -10.333038      -281.1763
   3   2.0000     -10.322097      -280.8785
   4   2.0000     -10.313784      -280.6523
   5   2.0000     -10.310932      -280.5747
   6   2.0000     -10.302342      -280.3410
   7   2.0000     -10.301602      -280.3208
   8   2.0000     -10.297652      -280.2133
   9   2.0000     -10.296601      -280.1848
  10   2.0000     -10.295821      -280.1635
  11   2.0000     -10.286959      -279.9224
  12   2.0000     -10.282389      -279.7980
  13   2.0000     -10.278859      -279.7020
  14   2.0000     -10.278506      -279.6924
  15   2.0000     -10.268319      -279.4152
  16   2.0000      -8.082897      -219.9468
  17   2.0000      -8.078181      -219.8185
  18   2.0000      -6.041397      -164.3948
  19   2.0000      -6.037347      -164.2846
  20   2.0000      -6.036617      -164.2647
  21   2.0000      -6.033784      -164.1876
  22   2.0000      -6.032610      -164.1557
  23   2.0000      -6.028955      -164.0562
  24   2.0000      -1.009710       -27.4756
  25   2.0000      -0.988552       -26.8999
  26   2.0000      -0.913322       -24.8528
  27   2.0000      -0.904296       -24.6071
  28   2.0000      -0.870500       -23.6875
  29   2.0000      -0.849951       -23.1283
  30   2.0000      -0.849035       -23.1034
  31   2.0000      -0.815049       -22.1786
  32   2.0000      -0.779852       -21.2209
  33   2.0000      -0.771265       -20.9872
  34   2.0000      -0.711381       -19.3577
  35   2.0000      -0.702365       -19.1123
  36   2.0000      -0.689120       -18.7519
  37   2.0000      -0.667623       -18.1669
  38   2.0000      -0.641422       -17.4540
  39   2.0000      -0.613241       -16.6871
  40   2.0000      -0.589805       -16.0494
  41   2.0000      -0.581401       -15.8207
  42   2.0000      -0.570698       -15.5295
  43   2.0000      -0.557074       -15.1588
  44   2.0000      -0.546413       -14.8686
  45   2.0000      -0.519903       -14.1473
  46   2.0000      -0.512923       -13.9573
  47   2.0000      -0.506382       -13.7793
  48   2.0000      -0.500985       -13.6325
  49   2.0000      -0.498856       -13.5746
  50   2.0000      -0.485759       -13.2182
  51   2.0000      -0.482809       -13.1379
  52   2.0000      -0.477792       -13.0014
  53   2.0000      -0.468044       -12.7361
  54   2.0000      -0.459734       -12.5100
  55   2.0000      -0.449785       -12.2393
  56   2.0000      -0.443482       -12.0678
  57   2.0000      -0.436661       -11.8822
  58   2.0000      -0.433561       -11.7978
  59   2.0000      -0.424741       -11.5578
  60   2.0000      -0.424055       -11.5391
  61   2.0000      -0.417401       -11.3581
  62   2.0000      -0.412555       -11.2262
  63   2.0000      -0.341650        -9.2968
  64   2.0000      -0.331878        -9.0308
  65   2.0000      -0.327147        -8.9021
  66   2.0000      -0.306670        -8.3449
  67   0.0000       0.040464         1.1011
  68   0.0000       0.063212         1.7201
  69   0.0000       0.122147         3.3238
  70   0.0000       0.124809         3.3962
  71   0.0000       0.128816         3.5053

MULLIKEN ATOMIC CHARGES
-----------------------
   0 S :    0.125079
   1 C :   -0.109785
   2 C :   -0.057619
   3 C :    0.043966
   4 C :   -0.181832
   5 H :    0.017717
   6 C :    0.015559
   7 H :    0.046268
   8 H :    0.039110
   9 C :   -0.060210
  10 H :    0.021688
  11 H :    0.023140
  12 C :   -0.061493
  13 H :    0.036338
  14 H :    0.039298
  15 H :    0.023546
  16 S :    0.109462
  17 C :   -0.085866
  18 C :   -0.006485
  19 C :   -0.060721
  20 C :   -0.173055
  21 H :    0.006397
  22 C :    0.069701
  23 H :    0.052935
  24 H :    0.019864
  25 C :   -0.040315
  26 H :   -0.006296
  27 H :    0.028096
  28 C :   -0.037821
  29 H :    0.025408
  30 H :    0.010410
  31 H :    0.044095
  32 H :    0.031931
  33 H :    0.051489
Sum of atomic charges:   -0.0000000

LOEWDIN ATOMIC CHARGES
----------------------
   0 S :    0.411600
   1 C :   -0.188501
   2 C :   -0.069292
   3 C :   -0.056685
   4 C :   -0.197447
   5 H :    0.031128
   6 C :   -0.028788
   7 H :    0.037528
   8 H :    0.031958
   9 C :   -0.041151
  10 H :    0.021767
  11 H :    0.013691
  12 C :   -0.063124
  13 H :    0.032545
  14 H :    0.030481
  15 H :    0.017575
  16 S :    0.412834
  17 C :   -0.173870
  18 C :   -0.069968
  19 C :   -0.062671
  20 C :   -0.210084
  21 H :    0.027706
  22 C :   -0.025611
  23 H :    0.042798
  24 H :    0.026212
  25 C :   -0.037230
  26 H :    0.005403
  27 H :    0.028698
  28 C :   -0.063896
  29 H :    0.024198
  30 H :    0.021487
  31 H :    0.025110
  32 H :    0.019621
  33 H :    0.025982

  Mayer bond orders larger than 0.100000
B(  0-S ,  1-C ) :   1.1379 B(  0-S ,  4-C ) :   1.1579 B(  1-C ,  2-C ) :   1.6311
B(  1-C , 32-H ) :   0.9603 B(  2-C ,  3-C ) :   1.2538 B(  2-C ,  6-C ) :   1.0019
B(  3-C ,  4-C ) :   1.5806 B(  3-C ,  5-H ) :   0.9899 B(  4-C , 20-C ) :   0.9952
B(  6-C ,  7-H ) :   0.9490 B(  6-C ,  8-H ) :   0.9457 B(  6-C ,  9-C ) :   1.0715
B(  9-C , 10-H ) :   0.9455 B(  9-C , 11-H ) :   0.9562 B(  9-C , 12-C ) :   1.0991
B( 12-C , 13-H ) :   0.9717 B( 12-C , 14-H ) :   0.9731 B( 12-C , 15-H ) :   0.9732
B( 16-S , 17-C ) :   1.1595 B( 16-S , 20-C ) :   1.1529 B( 17-C , 18-C ) :   1.5933
B( 17-C , 33-H ) :   0.9712 B( 18-C , 19-C ) :   1.2581 B( 18-C , 21-H ) :   0.9940
B( 19-C , 20-C ) :   1.6217 B( 19-C , 22-C ) :   1.0372 B( 22-C , 23-H ) :   0.9377
B( 22-C , 24-H ) :   0.9346 B( 22-C , 25-C ) :   1.0618 B( 25-C , 26-H ) :   0.9515
B( 25-C , 27-H ) :   0.9549 B( 25-C , 28-C ) :   1.0926 B( 28-C , 29-H ) :   0.9710
B( 28-C , 30-H ) :   0.9729 B( 28-C , 31-H ) :   0.9668

Dispersion correction           -0.014750732
FINAL SINGLE POINT ENERGY     -1339.884641601829

DIPOLE MOMENT
-------------
                                X             Y             Z
Electronic contribution:     -7.42292     -25.65056      -6.38493
Nuclear contribution   :      7.60695      26.23941       6.39992
                        -----------------------------------------
Total Dipole Moment    :      0.18403       0.58885       0.01499
                        -----------------------------------------
Magnitude (a.u.)       :      0.61712
Magnitude (Debye)      :      1.56859

Rotational constants in cm-1:     0.022813     0.007565     0.006270
Rotational constants in MHz :   683.930331   226.790311   187.969939

                             ****ORCA TERMINATED NORMALLY****
TOTAL RUN TIME: 0 days 0 hours 0 minutes 34 seconds 438 msec
