                         Program Version 4.2.1 -  RELEASE  -
|  1> ! wB97X-D3 SP def2-SVP
|  2> %pal
|  3> nprocs 16
|  4> end
|  5>
|  6> * xyz 0 1
|  7> S 	 -30.307 	 60.5925 	 120.023
|  8> C 	 -31.9619 	 60.1915 	 119.991
|  9> C 	 -32.6264 	 60.7804 	 118.946
| 10> C 	 -31.8314 	 61.5606 	 118.087
| 11> C 	 -30.541 	 61.6166 	 118.579
| 12> H 	 -31.9891 	 62.016 	 117.198
| 13> C 	 -34.0618 	 60.5595 	 118.753
| 14> H 	 -34.5298 	 61.6584 	 118.704
| 15> H 	 -34.3901 	 60.0051 	 119.611
| 16> C 	 -34.3442 	 59.9011 	 117.417
| 17> H 	 -35.4052 	 59.8121 	 117.171
| 18> H 	 -33.8409 	 60.3925 	 116.613
| 19> C 	 -33.8959 	 58.3651 	 117.369
| 20> H 	 -34.0949 	 57.7229 	 116.484
| 21> H 	 -32.878 	 58.2721 	 117.54
| 22> H 	 -34.3811 	 57.8765 	 118.147
| 23> S 	 -28.048 	 61.2463 	 117.633
| 24> C 	 -27.2191 	 62.4898 	 116.727
| 25> C 	 -28.1165 	 63.4761 	 116.434
| 26> C 	 -29.3768 	 63.4177 	 117.14
| 27> C 	 -29.4519 	 62.2805 	 117.884
| 28> H 	 -27.8371 	 64.3255 	 115.724
| 29> C 	 -30.3241 	 64.5849 	 117.017
| 30> H 	 -30.5744 	 64.7894 	 118.012
| 31> H 	 -31.115 	 64.1226 	 116.479
| 32> C 	 -29.9271 	 65.7971 	 116.11
| 33> H 	 -29.8182 	 65.4322 	 115.108
| 34> H 	 -28.9895 	 66.0699 	 116.541
| 35> C 	 -30.9473 	 66.897 	 116.219
| 36> H 	 -31.0239 	 67.3149 	 117.264
| 37> H 	 -31.8913 	 66.6315 	 115.901
| 38> H 	 -30.5183 	 67.6774 	 115.638
| 39> H 	 -32.4691 	 59.6533 	 120.771
| 40> H 	 -26.2919 	 62.4355 	 116.259
| 41> *
| 42>
| 43>                          ****END OF INPUT****

CARTESIAN COORDINATES (ANGSTROEM)
---------------------------------
  S    -30.307000   60.592500  120.023000
  C    -31.961900   60.191500  119.991000
  C    -32.626400   60.780400  118.946000
  C    -31.831400   61.560600  118.087000
  C    -30.541000   61.616600  118.579000
  H    -31.989100   62.016000  117.198000
  C    -34.061800   60.559500  118.753000
  H    -34.529800   61.658400  118.704000
  H    -34.390100   60.005100  119.611000
  C    -34.344200   59.901100  117.417000
  H    -35.405200   59.812100  117.171000
  H    -33.840900   60.392500  116.613000
  C    -33.895900   58.365100  117.369000
  H    -34.094900   57.722900  116.484000
  H    -32.878000   58.272100  117.540000
  H    -34.381100   57.876500  118.147000
  S    -28.048000   61.246300  117.633000
  C    -27.219100   62.489800  116.727000
  C    -28.116500   63.476100  116.434000
  C    -29.376800   63.417700  117.140000
  C    -29.451900   62.280500  117.884000
  H    -27.837100   64.325500  115.724000
  C    -30.324100   64.584900  117.017000
  H    -30.574400   64.789400  118.012000
  H    -31.115000   64.122600  116.479000
  C    -29.927100   65.797100  116.110000
  H    -29.818200   65.432200  115.108000
  H    -28.989500   66.069900  116.541000
  C    -30.947300   66.897000  116.219000
  H    -31.023900   67.314900  117.264000
  H    -31.891300   66.631500  115.901000
  H    -30.518300   67.677400  115.638000
  H    -32.469100   59.653300  120.771000
  H    -26.291900   62.435500  116.259000

 Total Charge           Charge          ....    0
 Multiplicity           Mult            ....    1
 Number of Electrons    NEL             ....  134
 Basis Dimension        Dim             ....  322

ORBITAL ENERGIES
----------------

  NO   OCC          E(Eh)            E(eV)
   0   2.0000     -88.966978     -2420.9145
   1   2.0000     -88.959053     -2420.6989
   2   2.0000     -10.329006      -281.0665
   3   2.0000     -10.321227      -280.8549
   4   2.0000     -10.308497      -280.5085
   5   2.0000     -10.306136      -280.4442
   6   2.0000     -10.299520      -280.2642
   7   2.0000     -10.295440      -280.1532
   8   2.0000     -10.293136      -280.0905
   9   2.0000     -10.292752      -280.0800
  10   2.0000     -10.288001      -279.9507
  11   2.0000     -10.287566      -279.9389
  12   2.0000     -10.286463      -279.9089
  13   2.0000     -10.284536      -279.8564
  14   2.0000     -10.276086      -279.6265
  15   2.0000     -10.265330      -279.3338
  16   2.0000      -8.081895      -219.9195
  17   2.0000      -8.073982      -219.7042
  18   2.0000      -6.040281      -164.3644
  19   2.0000      -6.036450      -164.2602
  20   2.0000      -6.032705      -164.1582
  21   2.0000      -6.032642      -164.1565
  22   2.0000      -6.028517      -164.0443
  23   2.0000      -6.024498      -163.9349
  24   2.0000      -1.010789       -27.5050
  25   2.0000      -0.988177       -26.8897
  26   2.0000      -0.917859       -24.9762
  27   2.0000      -0.913946       -24.8697
  28   2.0000      -0.874545       -23.7976
  29   2.0000      -0.855327       -23.2746
  30   2.0000      -0.848137       -23.0790
  31   2.0000      -0.817136       -22.2354
  32   2.0000      -0.783073       -21.3085
  33   2.0000      -0.772349       -21.0167
  34   2.0000      -0.717764       -19.5314
  35   2.0000      -0.709910       -19.3176
  36   2.0000      -0.693989       -18.8844
  37   2.0000      -0.657891       -17.9021
  38   2.0000      -0.645942       -17.5770
  39   2.0000      -0.621297       -16.9064
  40   2.0000      -0.595005       -16.1909
  41   2.0000      -0.588758       -16.0209
  42   2.0000      -0.560686       -15.2570
  43   2.0000      -0.547309       -14.8930
  44   2.0000      -0.543697       -14.7947
  45   2.0000      -0.535333       -14.5671
  46   2.0000      -0.523024       -14.2322
  47   2.0000      -0.518591       -14.1116
  48   2.0000      -0.504037       -13.7155
  49   2.0000      -0.501377       -13.6432
  50   2.0000      -0.488340       -13.2884
  51   2.0000      -0.486306       -13.2330
  52   2.0000      -0.474964       -12.9244
  53   2.0000      -0.464659       -12.6440
  54   2.0000      -0.462130       -12.5752
  55   2.0000      -0.449505       -12.2316
  56   2.0000      -0.446171       -12.1409
  57   2.0000      -0.442662       -12.0454
  58   2.0000      -0.439008       -11.9460
  59   2.0000      -0.431156       -11.7323
  60   2.0000      -0.416732       -11.3398
  61   2.0000      -0.410390       -11.1673
  62   2.0000      -0.406164       -11.0523
  63   2.0000      -0.354606        -9.6493
  64   2.0000      -0.328740        -8.9455
  65   2.0000      -0.324983        -8.8432
  66   2.0000      -0.288018        -7.8374
  67   0.0000       0.028953         0.7879
  68   0.0000       0.078292         2.1304
  69   0.0000       0.108249         2.9456
  70   0.0000       0.120656         3.2832
  71   0.0000       0.140437         3.8215

MULLIKEN ATOMIC CHARGES
-----------------------
   0 S :    0.119477
   1 C :   -0.113146
   2 C :   -0.080851
   3 C :    0.058914
   4 C :   -0.161900
   5 H :   -0.032234
   6 C :    0.072146
   7 H :    0.054320
   8 H :    0.009742
   9 C :   -0.065325
  10 H :    0.035649
  11 H :    0.029536
  12 C :   -0.049754
  13 H :    0.036958
  14 H :    0.022599
  15 H :    0.005178
  16 S :    0.086542
  17 C :   -0.039703
  18 C :   -0.094122
  19 C :   -0.070311
  20 C :   -0.152220
  21 H :    0.041796
  22 C :    0.097058
  23 H :    0.031086
  24 H :    0.015170
  25 C :   -0.097721
  26 H :    0.034137
  27 H :    0.030214
  28 C :    0.026861
  29 H :    0.033939
  30 H :    0.017022
  31 H :    0.026051
  32 H :    0.042686
  33 H :    0.030208
Sum of atomic charges:    0.0000000

LOEWDIN ATOMIC CHARGES
----------------------
   0 S :    0.408449
   1 C :   -0.214356
   2 C :   -0.066515
   3 C :   -0.043845
   4 C :   -0.174145
   5 H :    0.015162
   6 C :   -0.032217
   7 H :    0.048473
   8 H :    0.024777
   9 C :   -0.033300
  10 H :    0.025270
  11 H :    0.019082
  12 C :   -0.064270
  13 H :    0.031539
  14 H :    0.014150
  15 H :    0.013000
  16 S :    0.393519
  17 C :   -0.179664
  18 C :   -0.081831
  19 C :   -0.061343
  20 C :   -0.195457
  21 H :    0.039558
  22 C :   -0.025774
  23 H :    0.028472
  24 H :    0.027491
  25 C :   -0.031848
  26 H :    0.023771
  27 H :    0.020832
  28 C :   -0.050375
  29 H :    0.035241
  30 H :    0.013766
  31 H :    0.026692
  32 H :    0.026373
  33 H :    0.019325

  Mayer bond orders larger than 0.100000
B(  0-S ,  1-C ) :   1.1293 B(  0-S ,  4-C ) :   1.1546 B(  1-C ,  2-C ) :   1.6140
B(  1-C , 32-H ) :   0.9650 B(  2-C ,  3-C ) :   1.2072 B(  2-C ,  6-C ) :   1.0369
B(  3-C ,  4-C ) :   1.5751 B(  3-C ,  5-H ) :   1.0131 B(  4-C , 20-C ) :   1.0460
B(  6-C ,  7-H ) :   0.9315 B(  6-C ,  8-H ) :   0.9416 B(  6-C ,  9-C ) :   1.0624
B(  9-C , 10-H ) :   0.9606 B(  9-C , 11-H ) :   0.9613 B(  9-C , 12-C ) :   1.0523
B( 12-C , 13-H ) :   0.9784 B( 12-C , 14-H ) :   0.9797 B( 12-C , 15-H ) :   0.9751
B( 16-S , 17-C ) :   1.1325 B( 16-S , 20-C ) :   1.1334 B( 17-C , 18-C ) :   1.6299
B( 17-C , 33-H ) :   0.9698 B( 18-C , 19-C ) :   1.2366 B( 18-C , 21-H ) :   0.9650
B( 19-C , 20-C ) :   1.6407 B( 19-C , 22-C ) :   1.0010 B( 22-C , 23-H ) :   0.9405
B( 22-C , 24-H ) :   0.9126 B( 22-C , 25-C ) :   1.0901 B( 25-C , 26-H ) :   0.9448
B( 25-C , 27-H ) :   0.9494 B( 25-C , 28-C ) :   1.0916 B( 28-C , 29-H ) :   0.9715
B( 28-C , 30-H ) :   0.9732 B( 28-C , 31-H ) :   0.9683

Dispersion correction           -0.013900081
FINAL SINGLE POINT ENERGY     -1339.846234224421

DIPOLE MOMENT
-------------
                                X             Y             Z
Electronic contribution:     19.22237     -10.00637      11.79334
Nuclear contribution   :    -19.67314      10.44175     -12.22889
                        -----------------------------------------
Total Dipole Moment    :     -0.45077       0.43538      -0.43555
                        -----------------------------------------
Magnitude (a.u.)       :      0.76318
Magnitude (Debye)      :      1.93986

Rotational constants in cm-1:     0.017954     0.008508     0.006740
Rotational constants in MHz :   538.245771   255.062040   202.074244

                             ****ORCA TERMINATED NORMALLY****
TOTAL RUN TIME: 0 days 0 hours 0 minutes 30 seconds 369 msec
