                         Program Version 4.2.1 -  RELEASE  -
|  1> ! wB97X-D3 SP def2-SVP
|  2> %pal
|  3> nprocs 16
|  4> end
|  5>
|  6> * xyz 0 1
|  7> S 	 32.0817 	 10.9577 	 70.0909
|  8> C 	 30.4704 	 11.5761 	 69.5428
|  9> C 	 30.0371 	 10.952 	 68.3696
| 10> C 	 31.1342 	 10.2352 	 67.7711
| 11> C 	 32.1855 	 9.94878 	 68.6803
| 12> H 	 31.1127 	 9.98821 	 66.7399
| 13> C 	 28.6635 	 11.0747 	 67.7572
| 14> H 	 28.01 	 11.1254 	 68.6097
| 15> H 	 28.3807 	 10.1628 	 67.1784
| 16> C 	 28.5779 	 12.36 	 66.9281
| 17> H 	 28.9907 	 13.2413 	 67.4174
| 18> H 	 29.2238 	 12.2054 	 66.0727
| 19> C 	 27.1629 	 12.6043 	 66.3869
| 20> H 	 26.9514 	 13.4842 	 65.7683
| 21> H 	 26.7996 	 11.7155 	 65.9291
| 22> H 	 26.5614 	 12.7338 	 67.2528
| 23> S 	 34.9936 	 10.0134 	 69.0271
| 24> C 	 35.9437 	 8.6082 	 68.5753
| 25> C 	 35.1707 	 7.58813 	 68.0314
| 26> C 	 33.7716 	 8.01969 	 67.8435
| 27> C 	 33.4712 	 9.30608 	 68.3922
| 28> H 	 35.5751 	 6.58816 	 67.849
| 29> C 	 32.6956 	 7.05405 	 67.5725
| 30> H 	 31.9432 	 7.13171 	 68.3446
| 31> H 	 33.0841 	 6.01882 	 67.8026
| 32> C 	 31.9179 	 7.13532 	 66.2155
| 33> H 	 32.5811 	 7.1404 	 65.3283
| 34> H 	 31.4548 	 8.05292 	 66.1546
| 35> C 	 30.8395 	 6.01192 	 66.0825
| 36> H 	 31.1933 	 4.97812 	 65.9864
| 37> H 	 30.2285 	 6.35761 	 65.2038
| 38> H 	 30.2074 	 5.98245 	 66.9336
| 39> H 	 29.7924 	 12.1055 	 70.1879
| 40> H 	 37.0078 	 8.46694 	 68.6613
| 41> *
| 42>
| 43>                          ****END OF INPUT****

CARTESIAN COORDINATES (ANGSTROEM)
---------------------------------
  S     32.081700   10.957700   70.090900
  C     30.470400   11.576100   69.542800
  C     30.037100   10.952000   68.369600
  C     31.134200   10.235200   67.771100
  C     32.185500    9.948780   68.680300
  H     31.112700    9.988210   66.739900
  C     28.663500   11.074700   67.757200
  H     28.010000   11.125400   68.609700
  H     28.380700   10.162800   67.178400
  C     28.577900   12.360000   66.928100
  H     28.990700   13.241300   67.417400
  H     29.223800   12.205400   66.072700
  C     27.162900   12.604300   66.386900
  H     26.951400   13.484200   65.768300
  H     26.799600   11.715500   65.929100
  H     26.561400   12.733800   67.252800
  S     34.993600   10.013400   69.027100
  C     35.943700    8.608200   68.575300
  C     35.170700    7.588130   68.031400
  C     33.771600    8.019690   67.843500
  C     33.471200    9.306080   68.392200
  H     35.575100    6.588160   67.849000
  C     32.695600    7.054050   67.572500
  H     31.943200    7.131710   68.344600
  H     33.084100    6.018820   67.802600
  C     31.917900    7.135320   66.215500
  H     32.581100    7.140400   65.328300
  H     31.454800    8.052920   66.154600
  C     30.839500    6.011920   66.082500
  H     31.193300    4.978120   65.986400
  H     30.228500    6.357610   65.203800
  H     30.207400    5.982450   66.933600
  H     29.792400   12.105500   70.187900
  H     37.007800    8.466940   68.661300

 Total Charge           Charge          ....    0
 Multiplicity           Mult            ....    1
 Number of Electrons    NEL             ....  134
 Basis Dimension        Dim             ....  322

ORBITAL ENERGIES
----------------

  NO   OCC          E(Eh)            E(eV)
   0   2.0000     -88.971548     -2421.0389
   1   2.0000     -88.967554     -2420.9302
   2   2.0000     -10.338390      -281.3219
   3   2.0000     -10.334164      -281.2069
   4   2.0000     -10.319720      -280.8138
   5   2.0000     -10.319555      -280.8094
   6   2.0000     -10.307916      -280.4926
   7   2.0000     -10.307747      -280.4881
   8   2.0000     -10.300978      -280.3039
   9   2.0000     -10.300159      -280.2816
  10   2.0000     -10.300045      -280.2785
  11   2.0000     -10.288515      -279.9647
  12   2.0000     -10.287487      -279.9367
  13   2.0000     -10.283889      -279.8388
  14   2.0000     -10.279941      -279.7314
  15   2.0000     -10.274341      -279.5790
  16   2.0000      -8.085292      -220.0120
  17   2.0000      -8.081142      -219.8991
  18   2.0000      -6.043947      -164.4642
  19   2.0000      -6.039990      -164.3565
  20   2.0000      -6.039871      -164.3533
  21   2.0000      -6.035879      -164.2446
  22   2.0000      -6.035713      -164.2401
  23   2.0000      -6.031819      -164.1341
  24   2.0000      -0.999384       -27.1946
  25   2.0000      -0.974439       -26.5158
  26   2.0000      -0.918877       -25.0039
  27   2.0000      -0.902911       -24.5695
  28   2.0000      -0.868234       -23.6259
  29   2.0000      -0.848850       -23.0984
  30   2.0000      -0.842792       -22.9335
  31   2.0000      -0.813905       -22.1475
  32   2.0000      -0.784079       -21.3359
  33   2.0000      -0.764929       -20.8148
  34   2.0000      -0.711141       -19.3511
  35   2.0000      -0.707776       -19.2596
  36   2.0000      -0.695710       -18.9312
  37   2.0000      -0.658372       -17.9152
  38   2.0000      -0.638325       -17.3697
  39   2.0000      -0.623430       -16.9644
  40   2.0000      -0.591588       -16.0979
  41   2.0000      -0.576604       -15.6902
  42   2.0000      -0.561071       -15.2675
  43   2.0000      -0.552766       -15.0415
  44   2.0000      -0.533236       -14.5101
  45   2.0000      -0.524445       -14.2709
  46   2.0000      -0.511110       -13.9080
  47   2.0000      -0.509724       -13.8703
  48   2.0000      -0.504473       -13.7274
  49   2.0000      -0.502130       -13.6636
  50   2.0000      -0.496713       -13.5162
  51   2.0000      -0.479086       -13.0366
  52   2.0000      -0.467568       -12.7232
  53   2.0000      -0.458630       -12.4800
  54   2.0000      -0.456581       -12.4242
  55   2.0000      -0.453641       -12.3442
  56   2.0000      -0.447926       -12.1887
  57   2.0000      -0.445877       -12.1329
  58   2.0000      -0.433911       -11.8073
  59   2.0000      -0.430336       -11.7100
  60   2.0000      -0.420249       -11.4356
  61   2.0000      -0.416656       -11.3378
  62   2.0000      -0.409251       -11.1363
  63   2.0000      -0.349618        -9.5136
  64   2.0000      -0.330582        -8.9956
  65   2.0000      -0.326216        -8.8768
  66   2.0000      -0.284613        -7.7447
  67   0.0000       0.016123         0.4387
  68   0.0000       0.068302         1.8586
  69   0.0000       0.092085         2.5058
  70   0.0000       0.115136         3.1330
  71   0.0000       0.126096         3.4313

MULLIKEN ATOMIC CHARGES
-----------------------
   0 S :    0.099330
   1 C :   -0.112714
   2 C :   -0.115850
   3 C :    0.015535
   4 C :   -0.112944
   5 H :    0.029288
   6 C :    0.060281
   7 H :    0.021236
   8 H :    0.041321
   9 C :   -0.079623
  10 H :    0.035139
  11 H :    0.020862
  12 C :   -0.003316
  13 H :    0.043730
  14 H :    0.016840
  15 H :    0.009492
  16 S :    0.098422
  17 C :   -0.087859
  18 C :   -0.041122
  19 C :   -0.014734
  20 C :   -0.140213
  21 H :    0.033911
  22 C :    0.004176
  23 H :    0.025355
  24 H :    0.020605
  25 C :   -0.022787
  26 H :    0.027665
  27 H :   -0.020600
  28 C :   -0.052016
  29 H :    0.039537
  30 H :    0.039583
  31 H :    0.018174
  32 H :    0.045785
  33 H :    0.057511
Sum of atomic charges:   -0.0000000

LOEWDIN ATOMIC CHARGES
----------------------
   0 S :    0.393923
   1 C :   -0.183064
   2 C :   -0.050100
   3 C :   -0.053449
   4 C :   -0.191990
   5 H :    0.023516
   6 C :   -0.028749
   7 H :    0.028539
   8 H :    0.038253
   9 C :   -0.036604
  10 H :    0.026768
  11 H :    0.021526
  12 C :   -0.064857
  13 H :    0.030228
  14 H :    0.020569
  15 H :    0.019418
  16 S :    0.383590
  17 C :   -0.185019
  18 C :   -0.069703
  19 C :   -0.055061
  20 C :   -0.190116
  21 H :    0.036094
  22 C :   -0.043775
  23 H :    0.030348
  24 H :    0.033177
  25 C :   -0.030078
  26 H :    0.025504
  27 H :    0.005323
  28 C :   -0.064522
  29 H :    0.026128
  30 H :    0.034340
  31 H :    0.017161
  32 H :    0.021551
  33 H :    0.031132

  Mayer bond orders larger than 0.100000
B(  0-S ,  1-C ) :   1.1230 B(  0-S ,  4-C ) :   1.1459 B(  1-C ,  2-C ) :   1.6216
B(  1-C , 32-H ) :   0.9625 B(  2-C ,  3-C ) :   1.2426 B(  2-C ,  6-C ) :   1.0231
B(  3-C ,  4-C ) :   1.5516 B(  3-C ,  5-H ) :   0.9784 B(  4-C , 20-C ) :   1.0739
B(  6-C ,  7-H ) :   0.9360 B(  6-C ,  8-H ) :   0.9427 B(  6-C ,  9-C ) :   1.0551
B(  9-C , 10-H ) :   0.9608 B(  9-C , 11-H ) :   0.9554 B(  9-C , 12-C ) :   1.0739
B( 12-C , 13-H ) :   0.9750 B( 12-C , 14-H ) :   0.9699 B( 12-C , 15-H ) :   0.9733
B( 16-S , 17-C ) :   1.1468 B( 16-S , 20-C ) :   1.1184 B( 17-C , 18-C ) :   1.6205
B( 17-C , 33-H ) :   0.9655 B( 18-C , 19-C ) :   1.2418 B( 18-C , 21-H ) :   0.9855
B( 19-C , 20-C ) :   1.5650 B( 19-C , 22-C ) :   1.0592 B( 22-C , 23-H ) :   0.9287
B( 22-C , 24-H ) :   0.9484 B( 22-C , 25-C ) :   1.0471 B( 25-C , 26-H ) :   0.9555
B( 25-C , 27-H ) :   0.9484 B( 25-C , 28-C ) :   1.0802 B( 28-C , 29-H ) :   0.9788
B( 28-C , 30-H ) :   0.9755 B( 28-C , 31-H ) :   0.9743

Dispersion correction           -0.013956176
FINAL SINGLE POINT ENERGY     -1339.861052425462

DIPOLE MOMENT
-------------
                                X             Y             Z
Electronic contribution:     24.78067       6.68810      17.84544
Nuclear contribution   :    -25.32192      -6.94435     -18.13111
                        -----------------------------------------
Total Dipole Moment    :     -0.54125      -0.25624      -0.28568
                        -----------------------------------------
Magnitude (a.u.)       :      0.66349
Magnitude (Debye)      :      1.68646

Rotational constants in cm-1:     0.018639     0.008462     0.006278
Rotational constants in MHz :   558.788618   253.689619   188.223259

                             ****ORCA TERMINATED NORMALLY****
TOTAL RUN TIME: 0 days 0 hours 0 minutes 30 seconds 625 msec
