                         Program Version 4.2.1 -  RELEASE  -
|  1> ! wB97X-D3 SP def2-SVP
|  2> %pal
|  3> nprocs 16
|  4> end
|  5>
|  6> * xyz 0 1
|  7> S 	 9.55974 	 -7.24125 	 68.5352
|  8> C 	 9.56971 	 -5.54807 	 69.0719
|  9> C 	 10.8512 	 -5.16154 	 69.4913
| 10> C 	 11.8903 	 -6.16067 	 69.3062
| 11> C 	 11.313 	 -7.31596 	 68.7439
| 12> H 	 12.9215 	 -6.00954 	 69.5574
| 13> C 	 11.1884 	 -3.77384 	 70.0724
| 14> H 	 10.4504 	 -3.00488 	 69.741
| 15> H 	 12.1461 	 -3.40542 	 69.5803
| 16> C 	 11.2252 	 -3.81629 	 71.7186
| 17> H 	 10.1882 	 -3.89254 	 72.082
| 18> H 	 11.7375 	 -4.7417 	 72.0207
| 19> C 	 11.9179 	 -2.61872 	 72.3276
| 20> H 	 11.6853 	 -1.67554 	 71.9017
| 21> H 	 11.6523 	 -2.33187 	 73.3848
| 22> H 	 12.9766 	 -2.65044 	 72.2106
| 23> S 	 11.2058 	 -10.0427 	 68.2679
| 24> C 	 12.5614 	 -10.8591 	 67.5748
| 25> C 	 13.6055 	 -10.0222 	 67.5004
| 26> C 	 13.3466 	 -8.71989 	 67.8835
| 27> C 	 12.0439 	 -8.46103 	 68.2592
| 28> H 	 14.5578 	 -10.4382 	 67.2433
| 29> C 	 14.4268 	 -7.66585 	 67.7566
| 30> H 	 15.3528 	 -8.2033 	 68.1668
| 31> H 	 14.3002 	 -6.96177 	 68.4905
| 32> C 	 14.648 	 -7.08644 	 66.2796
| 33> H 	 13.7696 	 -6.50271 	 66.1639
| 34> H 	 14.7228 	 -7.91321 	 65.5153
| 35> C 	 15.8434 	 -6.06459 	 66.1245
| 36> H 	 15.6126 	 -5.45001 	 65.2822
| 37> H 	 16.8071 	 -6.67103 	 66.0309
| 38> H 	 15.9547 	 -5.46009 	 66.9695
| 39> H 	 8.67212 	 -4.92336 	 69.254
| 40> H 	 12.7962 	 -11.9281 	 67.6299
| 41> *
| 42>
| 43>                          ****END OF INPUT****

CARTESIAN COORDINATES (ANGSTROEM)
---------------------------------
  S      9.559740   -7.241250   68.535200
  C      9.569710   -5.548070   69.071900
  C     10.851200   -5.161540   69.491300
  C     11.890300   -6.160670   69.306200
  C     11.313000   -7.315960   68.743900
  H     12.921500   -6.009540   69.557400
  C     11.188400   -3.773840   70.072400
  H     10.450400   -3.004880   69.741000
  H     12.146100   -3.405420   69.580300
  C     11.225200   -3.816290   71.718600
  H     10.188200   -3.892540   72.082000
  H     11.737500   -4.741700   72.020700
  C     11.917900   -2.618720   72.327600
  H     11.685300   -1.675540   71.901700
  H     11.652300   -2.331870   73.384800
  H     12.976600   -2.650440   72.210600
  S     11.205800  -10.042700   68.267900
  C     12.561400  -10.859100   67.574800
  C     13.605500  -10.022200   67.500400
  C     13.346600   -8.719890   67.883500
  C     12.043900   -8.461030   68.259200
  H     14.557800  -10.438200   67.243300
  C     14.426800   -7.665850   67.756600
  H     15.352800   -8.203300   68.166800
  H     14.300200   -6.961770   68.490500
  C     14.648000   -7.086440   66.279600
  H     13.769600   -6.502710   66.163900
  H     14.722800   -7.913210   65.515300
  C     15.843400   -6.064590   66.124500
  H     15.612600   -5.450010   65.282200
  H     16.807100   -6.671030   66.030900
  H     15.954700   -5.460090   66.969500
  H      8.672120   -4.923360   69.254000
  H     12.796200  -11.928100   67.629900

 Total Charge           Charge          ....    0
 Multiplicity           Mult            ....    1
 Number of Electrons    NEL             ....  134
 Basis Dimension        Dim             ....  322

ORBITAL ENERGIES
----------------

  NO   OCC          E(Eh)            E(eV)
   0   2.0000     -88.972526     -2421.0655
   1   2.0000     -88.961226     -2420.7580
   2   2.0000     -10.339208      -281.3441
   3   2.0000     -10.328791      -281.0607
   4   2.0000     -10.320066      -280.8233
   5   2.0000     -10.309867      -280.5457
   6   2.0000     -10.309133      -280.5258
   7   2.0000     -10.308444      -280.5070
   8   2.0000     -10.301797      -280.3261
   9   2.0000     -10.298168      -280.2274
  10   2.0000     -10.297836      -280.2184
  11   2.0000     -10.294742      -280.1342
  12   2.0000     -10.292086      -280.0619
  13   2.0000     -10.282215      -279.7933
  14   2.0000     -10.280513      -279.7470
  15   2.0000     -10.275850      -279.6201
  16   2.0000      -8.086218      -220.0372
  17   2.0000      -8.076113      -219.7622
  18   2.0000      -6.044895      -164.4900
  19   2.0000      -6.040999      -164.3839
  20   2.0000      -6.036723      -164.2676
  21   2.0000      -6.034729      -164.2133
  22   2.0000      -6.030582      -164.1005
  23   2.0000      -6.026754      -163.9963
  24   2.0000      -1.009521       -27.4705
  25   2.0000      -0.981891       -26.7186
  26   2.0000      -0.900181       -24.4952
  27   2.0000      -0.899352       -24.4726
  28   2.0000      -0.871286       -23.7089
  29   2.0000      -0.853297       -23.2194
  30   2.0000      -0.845619       -23.0104
  31   2.0000      -0.815554       -22.1924
  32   2.0000      -0.780429       -21.2365
  33   2.0000      -0.768071       -20.9003
  34   2.0000      -0.710950       -19.3459
  35   2.0000      -0.703898       -19.1540
  36   2.0000      -0.698671       -19.0118
  37   2.0000      -0.663717       -18.0607
  38   2.0000      -0.634730       -17.2719
  39   2.0000      -0.624090       -16.9823
  40   2.0000      -0.591820       -16.1042
  41   2.0000      -0.564125       -15.3506
  42   2.0000      -0.558211       -15.1897
  43   2.0000      -0.553717       -15.0674
  44   2.0000      -0.529506       -14.4086
  45   2.0000      -0.519715       -14.1422
  46   2.0000      -0.515236       -14.0203
  47   2.0000      -0.510931       -13.9031
  48   2.0000      -0.507850       -13.8193
  49   2.0000      -0.501144       -13.6368
  50   2.0000      -0.488161       -13.2835
  51   2.0000      -0.481127       -13.0921
  52   2.0000      -0.474386       -12.9087
  53   2.0000      -0.461577       -12.5602
  54   2.0000      -0.458166       -12.4673
  55   2.0000      -0.452858       -12.3229
  56   2.0000      -0.442291       -12.0354
  57   2.0000      -0.438138       -11.9223
  58   2.0000      -0.432666       -11.7734
  59   2.0000      -0.428558       -11.6617
  60   2.0000      -0.423353       -11.5200
  61   2.0000      -0.413780       -11.2595
  62   2.0000      -0.404866       -11.0170
  63   2.0000      -0.360977        -9.8227
  64   2.0000      -0.334711        -9.1079
  65   2.0000      -0.329403        -8.9635
  66   2.0000      -0.282223        -7.6797
  67   0.0000       0.015985         0.4350
  68   0.0000       0.077327         2.1042
  69   0.0000       0.096857         2.6356
  70   0.0000       0.115194         3.1346
  71   0.0000       0.134796         3.6680

MULLIKEN ATOMIC CHARGES
-----------------------
   0 S :    0.114794
   1 C :   -0.124268
   2 C :   -0.092178
   3 C :   -0.001283
   4 C :   -0.099715
   5 H :    0.019516
   6 C :   -0.005557
   7 H :    0.033347
   8 H :    0.040927
   9 C :   -0.060450
  10 H :    0.037225
  11 H :    0.040966
  12 C :   -0.036055
  13 H :    0.007732
  14 H :    0.036272
  15 H :    0.025413
  16 S :    0.072002
  17 C :   -0.062959
  18 C :   -0.055324
  19 C :   -0.063665
  20 C :   -0.114012
  21 H :    0.006191
  22 C :    0.085917
  23 H :    0.019107
  24 H :   -0.031814
  25 C :   -0.071233
  26 H :    0.031173
  27 H :    0.048811
  28 C :   -0.032988
  29 H :    0.040614
  30 H :    0.043372
  31 H :    0.017126
  32 H :    0.063123
  33 H :    0.067874
Sum of atomic charges:    0.0000000

LOEWDIN ATOMIC CHARGES
----------------------
   0 S :    0.395026
   1 C :   -0.206197
   2 C :   -0.059003
   3 C :   -0.062826
   4 C :   -0.174877
   5 H :    0.029686
   6 C :   -0.038677
   7 H :    0.030913
   8 H :    0.033774
   9 C :   -0.034533
  10 H :    0.028611
  11 H :    0.026852
  12 C :   -0.078406
  13 H :    0.019592
  14 H :    0.035407
  15 H :    0.022071
  16 S :    0.387173
  17 C :   -0.195081
  18 C :   -0.073525
  19 C :   -0.064219
  20 C :   -0.178592
  21 H :    0.029788
  22 C :   -0.029476
  23 H :    0.035006
  24 H :    0.006339
  25 C :   -0.030657
  26 H :    0.021851
  27 H :    0.032304
  28 C :   -0.061370
  29 H :    0.026259
  30 H :    0.034130
  31 H :    0.014576
  32 H :    0.037012
  33 H :    0.041067

  Mayer bond orders larger than 0.100000
B(  0-S ,  1-C ) :   1.1102 B(  0-S ,  4-C ) :   1.1525 B(  1-C ,  2-C ) :   1.6316
B(  1-C , 32-H ) :   0.9614 B(  2-C ,  3-C ) :   1.2320 B(  2-C ,  6-C ) :   1.0245
B(  3-C ,  4-C ) :   1.5440 B(  3-C ,  5-H ) :   0.9943 B(  4-C , 20-C ) :   1.0873
B(  6-C ,  7-H ) :   0.9478 B(  6-C ,  8-H ) :   0.9544 B(  6-C ,  9-C ) :   1.0251
B(  9-C , 10-H ) :   0.9593 B(  9-C , 11-H ) :   0.9666 B(  9-C , 12-C ) :   1.0742
B( 12-C , 13-H ) :   0.9695 B( 12-C , 14-H ) :   0.9719 B( 12-C , 15-H ) :   0.9761
B( 16-S , 17-C ) :   1.1518 B( 16-S , 20-C ) :   1.1236 B( 17-C , 18-C ) :   1.6160
B( 17-C , 33-H ) :   0.9539 B( 18-C , 19-C ) :   1.2703 B( 18-C , 21-H ) :   0.9931
B( 19-C , 20-C ) :   1.5761 B( 19-C , 22-C ) :   1.0393 B( 22-C , 23-H ) :   0.9294
B( 22-C , 24-H ) :   0.9333 B( 22-C , 25-C ) :   1.0399 B( 25-C , 26-H ) :   0.9581
B( 25-C , 27-H ) :   0.9620 B( 25-C , 28-C ) :   1.0730 B( 28-C , 29-H ) :   0.9771
B( 28-C , 30-H ) :   0.9783 B( 28-C , 31-H ) :   0.9766

Dispersion correction           -0.013659968
FINAL SINGLE POINT ENERGY     -1339.856106725592

DIPOLE MOMENT
-------------
                                X             Y             Z
Electronic contribution:    -18.95684     -23.60124      -4.87229
Nuclear contribution   :     19.54436      24.10388       5.07830
                        -----------------------------------------
Total Dipole Moment    :      0.58752       0.50264       0.20601
                        -----------------------------------------
Magnitude (a.u.)       :      0.80017
Magnitude (Debye)      :      2.03386

Rotational constants in cm-1:     0.017023     0.008444     0.006365
Rotational constants in MHz :   510.337715   253.159717   190.809149

                             ****ORCA TERMINATED NORMALLY****
TOTAL RUN TIME: 0 days 0 hours 0 minutes 32 seconds 940 msec
