                         Program Version 4.2.1 -  RELEASE  -
|  1> ! wB97X-D3 SP def2-SVP
|  2> %pal
|  3> nprocs 16
|  4> end
|  5>
|  6> * xyz 0 1
|  7> S 	 57.1242 	 13.6368 	 76.5034
|  8> C 	 58.5732 	 14.5257 	 76.4689
|  9> C 	 59.6461 	 13.627 	 76.5291
| 10> C 	 59.2609 	 12.2905 	 76.776
| 11> C 	 57.8977 	 12.1262 	 76.9142
| 12> H 	 59.9627 	 11.4694 	 76.9705
| 13> C 	 61.0566 	 14.1591 	 76.5715
| 14> H 	 61.4507 	 13.971 	 77.5729
| 15> H 	 61.0291 	 15.2726 	 76.3403
| 16> C 	 62.037 	 13.5319 	 75.6557
| 17> H 	 62.1087 	 12.4748 	 75.9789
| 18> H 	 61.4601 	 13.4601 	 74.6883
| 19> C 	 63.4296 	 14.2303 	 75.6501
| 20> H 	 63.9967 	 13.993 	 76.5313
| 21> H 	 64.1406 	 13.6842 	 74.9126
| 22> H 	 63.5742 	 15.2611 	 75.4163
| 23> S 	 55.9041 	 11.207 	 78.4414
| 24> C 	 55.3681 	 9.57103 	 78.3375
| 25> C 	 56.1568 	 8.86715 	 77.4405
| 26> C 	 57.129 	 9.65872 	 76.7576
| 27> C 	 57.111 	 10.9721 	 77.1924
| 28> H 	 55.8291 	 7.84849 	 77.3333
| 29> C 	 58.0265 	 8.95379 	 75.7426
| 30> H 	 58.8972 	 8.76123 	 76.2478
| 31> H 	 58.4325 	 9.54966 	 74.8905
| 32> C 	 57.5185 	 7.61655 	 75.2745
| 33> H 	 56.4792 	 7.78775 	 75.0071
| 34> H 	 57.4866 	 6.93433 	 76.1178
| 35> C 	 58.4009 	 7.00374 	 74.1416
| 36> H 	 58.2031 	 7.55172 	 73.2345
| 37> H 	 58.1556 	 5.93637 	 74.0222
| 38> H 	 59.4411 	 7.06481 	 74.4306
| 39> H 	 58.6385 	 15.6543 	 76.4805
| 40> H 	 54.4685 	 9.1766 	 78.8212
| 41> *
| 42>
| 43>                          ****END OF INPUT****

CARTESIAN COORDINATES (ANGSTROEM)
---------------------------------
  S     57.124200   13.636800   76.503400
  C     58.573200   14.525700   76.468900
  C     59.646100   13.627000   76.529100
  C     59.260900   12.290500   76.776000
  C     57.897700   12.126200   76.914200
  H     59.962700   11.469400   76.970500
  C     61.056600   14.159100   76.571500
  H     61.450700   13.971000   77.572900
  H     61.029100   15.272600   76.340300
  C     62.037000   13.531900   75.655700
  H     62.108700   12.474800   75.978900
  H     61.460100   13.460100   74.688300
  C     63.429600   14.230300   75.650100
  H     63.996700   13.993000   76.531300
  H     64.140600   13.684200   74.912600
  H     63.574200   15.261100   75.416300
  S     55.904100   11.207000   78.441400
  C     55.368100    9.571030   78.337500
  C     56.156800    8.867150   77.440500
  C     57.129000    9.658720   76.757600
  C     57.111000   10.972100   77.192400
  H     55.829100    7.848490   77.333300
  C     58.026500    8.953790   75.742600
  H     58.897200    8.761230   76.247800
  H     58.432500    9.549660   74.890500
  C     57.518500    7.616550   75.274500
  H     56.479200    7.787750   75.007100
  H     57.486600    6.934330   76.117800
  C     58.400900    7.003740   74.141600
  H     58.203100    7.551720   73.234500
  H     58.155600    5.936370   74.022200
  H     59.441100    7.064810   74.430600
  H     58.638500   15.654300   76.480500
  H     54.468500    9.176600   78.821200

 Total Charge           Charge          ....    0
 Multiplicity           Mult            ....    1
 Number of Electrons    NEL             ....  134
 Basis Dimension        Dim             ....  322

ORBITAL ENERGIES
----------------

  NO   OCC          E(Eh)            E(eV)
   0   2.0000     -88.963435     -2420.8181
   1   2.0000     -88.961902     -2420.7764
   2   2.0000     -10.326026      -280.9855
   3   2.0000     -10.324328      -280.9392
   4   2.0000     -10.315924      -280.7106
   5   2.0000     -10.314651      -280.6759
   6   2.0000     -10.309521      -280.5363
   7   2.0000     -10.298008      -280.2230
   8   2.0000     -10.295215      -280.1470
   9   2.0000     -10.291608      -280.0489
  10   2.0000     -10.290815      -280.0273
  11   2.0000     -10.287299      -279.9316
  12   2.0000     -10.286342      -279.9056
  13   2.0000     -10.285868      -279.8927
  14   2.0000     -10.283991      -279.8416
  15   2.0000     -10.281905      -279.7849
  16   2.0000      -8.078735      -219.8336
  17   2.0000      -8.077718      -219.8059
  18   2.0000      -6.037139      -164.2789
  19   2.0000      -6.036058      -164.2495
  20   2.0000      -6.033015      -164.1667
  21   2.0000      -6.031935      -164.1373
  22   2.0000      -6.029691      -164.0762
  23   2.0000      -6.028704      -164.0494
  24   2.0000      -1.013169       -27.5697
  25   2.0000      -0.989407       -26.9231
  26   2.0000      -0.917669       -24.9710
  27   2.0000      -0.914246       -24.8779
  28   2.0000      -0.873612       -23.7722
  29   2.0000      -0.851123       -23.1602
  30   2.0000      -0.843954       -22.9652
  31   2.0000      -0.815680       -22.1958
  32   2.0000      -0.785183       -21.3659
  33   2.0000      -0.773692       -21.0532
  34   2.0000      -0.714254       -19.4358
  35   2.0000      -0.704587       -19.1728
  36   2.0000      -0.685609       -18.6564
  37   2.0000      -0.652679       -17.7603
  38   2.0000      -0.638615       -17.3776
  39   2.0000      -0.625212       -17.0129
  40   2.0000      -0.603447       -16.4206
  41   2.0000      -0.573804       -15.6140
  42   2.0000      -0.573146       -15.5961
  43   2.0000      -0.562261       -15.2999
  44   2.0000      -0.528332       -14.3766
  45   2.0000      -0.518136       -14.0992
  46   2.0000      -0.515380       -14.0242
  47   2.0000      -0.512985       -13.9590
  48   2.0000      -0.510226       -13.8839
  49   2.0000      -0.496713       -13.5163
  50   2.0000      -0.490995       -13.3607
  51   2.0000      -0.482499       -13.1295
  52   2.0000      -0.475838       -12.9482
  53   2.0000      -0.472716       -12.8633
  54   2.0000      -0.459038       -12.4911
  55   2.0000      -0.450117       -12.2483
  56   2.0000      -0.446657       -12.1542
  57   2.0000      -0.433992       -11.8095
  58   2.0000      -0.425993       -11.5919
  59   2.0000      -0.423924       -11.5356
  60   2.0000      -0.420328       -11.4377
  61   2.0000      -0.412817       -11.2333
  62   2.0000      -0.411439       -11.1958
  63   2.0000      -0.346720        -9.4347
  64   2.0000      -0.331984        -9.0337
  65   2.0000      -0.327369        -8.9082
  66   2.0000      -0.291619        -7.9353
  67   0.0000       0.026314         0.7160
  68   0.0000       0.076184         2.0731
  69   0.0000       0.120110         3.2684
  70   0.0000       0.122991         3.3468
  71   0.0000       0.132636         3.6092

MULLIKEN ATOMIC CHARGES
-----------------------
   0 S :    0.118958
   1 C :   -0.144982
   2 C :   -0.089674
   3 C :    0.028080
   4 C :   -0.156269
   5 H :    0.018789
   6 C :    0.050961
   7 H :    0.030669
   8 H :    0.025319
   9 C :   -0.101437
  10 H :    0.026146
  11 H :    0.036052
  12 C :   -0.044471
  13 H :    0.024139
  14 H :    0.031076
  15 H :    0.040927
  16 S :    0.112995
  17 C :   -0.096479
  18 C :   -0.079260
  19 C :    0.013243
  20 C :   -0.177556
  21 H :    0.021202
  22 C :    0.103120
  23 H :    0.003768
  24 H :    0.030521
  25 C :   -0.128012
  26 H :    0.032654
  27 H :    0.029689
  28 C :   -0.010551
  29 H :    0.040175
  30 H :    0.037782
  31 H :    0.028747
  32 H :    0.078691
  33 H :    0.064986
Sum of atomic charges:    0.0000000

LOEWDIN ATOMIC CHARGES
----------------------
   0 S :    0.430509
   1 C :   -0.223096
   2 C :   -0.071072
   3 C :   -0.068341
   4 C :   -0.198740
   5 H :    0.034575
   6 C :   -0.040867
   7 H :    0.028693
   8 H :    0.032704
   9 C :   -0.050872
  10 H :    0.025069
  11 H :    0.028621
  12 C :   -0.073235
  13 H :    0.025565
  14 H :    0.038717
  15 H :    0.023122
  16 S :    0.421875
  17 C :   -0.193486
  18 C :   -0.080355
  19 C :   -0.043963
  20 C :   -0.206490
  21 H :    0.031848
  22 C :   -0.033473
  23 H :    0.021948
  24 H :    0.036813
  25 C :   -0.042267
  26 H :    0.022090
  27 H :    0.019918
  28 C :   -0.056499
  29 H :    0.026511
  30 H :    0.030567
  31 H :    0.024182
  32 H :    0.044979
  33 H :    0.034448

  Mayer bond orders larger than 0.100000
B(  0-S ,  1-C ) :   1.1590 B(  0-S ,  4-C ) :   1.1754 B(  1-C ,  2-C ) :   1.5593
B(  1-C ,  4-C ) :   0.1053 B(  1-C , 32-H ) :   0.9632 B(  2-C ,  3-C ) :   1.2674
B(  2-C ,  6-C ) :   1.0355 B(  3-C ,  4-C ) :   1.5405 B(  3-C ,  5-H ) :   0.9975
B(  4-C , 20-C ) :   1.0562 B(  6-C ,  7-H ) :   0.9380 B(  6-C ,  8-H ) :   0.9443
B(  6-C ,  9-C ) :   1.0569 B(  9-C , 10-H ) :   0.9497 B(  9-C , 11-H ) :   0.9615
B(  9-C , 12-C ) :   1.0726 B( 12-C , 13-H ) :   0.9700 B( 12-C , 14-H ) :   0.9719
B( 12-C , 15-H ) :   0.9801 B( 16-S , 17-C ) :   1.1682 B( 16-S , 20-C ) :   1.1505
B( 17-C , 18-C ) :   1.5956 B( 17-C , 20-C ) :   0.1046 B( 17-C , 33-H ) :   0.9626
B( 18-C , 19-C ) :   1.2325 B( 18-C , 21-H ) :   0.9879 B( 19-C , 20-C ) :   1.5832
B( 19-C , 22-C ) :   1.0262 B( 22-C , 23-H ) :   0.9060 B( 22-C , 24-H ) :   0.9380
B( 22-C , 25-C ) :   1.0848 B( 25-C , 26-H ) :   0.9627 B( 25-C , 27-H ) :   0.9373
B( 25-C , 28-C ) :   1.0706 B( 28-C , 29-H ) :   0.9763 B( 28-C , 30-H ) :   0.9738
B( 28-C , 31-H ) :   0.9734

Dispersion correction           -0.013075995
FINAL SINGLE POINT ENERGY     -1339.870340003784

DIPOLE MOMENT
-------------
                                X             Y             Z
Electronic contribution:    -24.16139      10.19245      13.35038
Nuclear contribution   :     24.62919     -10.60927     -13.44533
                        -----------------------------------------
Total Dipole Moment    :      0.46780      -0.41682      -0.09495
                        -----------------------------------------
Magnitude (a.u.)       :      0.63371
Magnitude (Debye)      :      1.61077

Rotational constants in cm-1:     0.017398     0.008030     0.005932
Rotational constants in MHz :   521.583401   240.743482   177.829562

                             ****ORCA TERMINATED NORMALLY****
TOTAL RUN TIME: 0 days 0 hours 0 minutes 27 seconds 445 msec
