                         Program Version 4.2.1 -  RELEASE  -
|  1> ! wB97X-D3 SP def2-SVP
|  2> %pal
|  3> nprocs 16
|  4> end
|  5>
|  6> * xyz 0 1
|  7> S 	 -37.1149 	 36.6945 	 82.4428
|  8> C 	 -35.9632 	 36.7124 	 81.1246
|  9> C 	 -36.6152 	 36.7177 	 79.858
| 10> C 	 -38.0437 	 36.6868 	 80.0163
| 11> C 	 -38.4611 	 36.7237 	 81.3217
| 12> H 	 -38.7833 	 36.7127 	 79.2506
| 13> C 	 -35.9 	 36.9638 	 78.5127
| 14> H 	 -35.9801 	 36.0085 	 77.9663
| 15> H 	 -34.871 	 37.007 	 78.6986
| 16> C 	 -36.3611 	 38.1454 	 77.6574
| 17> H 	 -37.3642 	 37.8392 	 77.3792
| 18> H 	 -36.4261 	 39.0041 	 78.2886
| 19> C 	 -35.6992 	 38.3802 	 76.2522
| 20> H 	 -34.6435 	 38.6333 	 76.2587
| 21> H 	 -35.91 	 37.5056 	 75.6003
| 22> H 	 -36.1159 	 39.279 	 75.8056
| 23> S 	 -40.2553 	 38.4074 	 82.3735
| 24> C 	 -41.8865 	 37.8863 	 82.7789
| 25> C 	 -42.0725 	 36.6042 	 82.3821
| 26> C 	 -40.9578 	 36.0233 	 81.7745
| 27> C 	 -39.8138 	 36.8406 	 81.841
| 28> H 	 -42.9902 	 36.0812 	 82.7267
| 29> C 	 -41.0286 	 34.5526 	 81.3879
| 30> H 	 -40.6712 	 34.5604 	 80.3184
| 31> H 	 -42.1058 	 34.2539 	 81.3325
| 32> C 	 -40.209 	 33.6179 	 82.3141
| 33> H 	 -40.4629 	 33.714 	 83.3994
| 34> H 	 -39.1931 	 33.8549 	 82.2373
| 35> C 	 -40.4202 	 32.1423 	 81.8718
| 36> H 	 -40.2276 	 31.9746 	 80.8047
| 37> H 	 -41.4672 	 31.8362 	 82.0615
| 38> H 	 -39.7084 	 31.4633 	 82.3596
| 39> H 	 -34.8689 	 36.7781 	 81.262
| 40> H 	 -42.5495 	 38.501 	 83.3138
| 41> *
| 42>
| 43>                          ****END OF INPUT****

CARTESIAN COORDINATES (ANGSTROEM)
---------------------------------
  S    -37.114900   36.694500   82.442800
  C    -35.963200   36.712400   81.124600
  C    -36.615200   36.717700   79.858000
  C    -38.043700   36.686800   80.016300
  C    -38.461100   36.723700   81.321700
  H    -38.783300   36.712700   79.250600
  C    -35.900000   36.963800   78.512700
  H    -35.980100   36.008500   77.966300
  H    -34.871000   37.007000   78.698600
  C    -36.361100   38.145400   77.657400
  H    -37.364200   37.839200   77.379200
  H    -36.426100   39.004100   78.288600
  C    -35.699200   38.380200   76.252200
  H    -34.643500   38.633300   76.258700
  H    -35.910000   37.505600   75.600300
  H    -36.115900   39.279000   75.805600
  S    -40.255300   38.407400   82.373500
  C    -41.886500   37.886300   82.778900
  C    -42.072500   36.604200   82.382100
  C    -40.957800   36.023300   81.774500
  C    -39.813800   36.840600   81.841000
  H    -42.990200   36.081200   82.726700
  C    -41.028600   34.552600   81.387900
  H    -40.671200   34.560400   80.318400
  H    -42.105800   34.253900   81.332500
  C    -40.209000   33.617900   82.314100
  H    -40.462900   33.714000   83.399400
  H    -39.193100   33.854900   82.237300
  C    -40.420200   32.142300   81.871800
  H    -40.227600   31.974600   80.804700
  H    -41.467200   31.836200   82.061500
  H    -39.708400   31.463300   82.359600
  H    -34.868900   36.778100   81.262000
  H    -42.549500   38.501000   83.313800

 Total Charge           Charge          ....    0
 Multiplicity           Mult            ....    1
 Number of Electrons    NEL             ....  134
 Basis Dimension        Dim             ....  322

ORBITAL ENERGIES
----------------

  NO   OCC          E(Eh)            E(eV)
   0   2.0000     -88.967668     -2420.9333
   1   2.0000     -88.961317     -2420.7605
   2   2.0000     -10.327165      -281.0165
   3   2.0000     -10.322454      -280.8882
   4   2.0000     -10.320969      -280.8478
   5   2.0000     -10.309930      -280.5475
   6   2.0000     -10.309277      -280.5297
   7   2.0000     -10.299557      -280.2652
   8   2.0000     -10.296203      -280.1739
   9   2.0000     -10.294015      -280.1144
  10   2.0000     -10.289899      -280.0024
  11   2.0000     -10.288687      -279.9694
  12   2.0000     -10.287615      -279.9402
  13   2.0000     -10.285537      -279.8837
  14   2.0000     -10.284546      -279.8567
  15   2.0000     -10.277918      -279.6764
  16   2.0000      -8.082136      -219.9261
  17   2.0000      -8.076852      -219.7823
  18   2.0000      -6.040589      -164.3728
  19   2.0000      -6.036575      -164.2636
  20   2.0000      -6.035179      -164.2256
  21   2.0000      -6.033093      -164.1688
  22   2.0000      -6.031118      -164.1151
  23   2.0000      -6.027879      -164.0269
  24   2.0000      -1.009341       -27.4656
  25   2.0000      -0.983699       -26.7678
  26   2.0000      -0.907474       -24.6936
  27   2.0000      -0.901837       -24.5402
  28   2.0000      -0.870545       -23.6887
  29   2.0000      -0.847569       -23.0635
  30   2.0000      -0.845347       -23.0031
  31   2.0000      -0.815793       -22.1989
  32   2.0000      -0.781157       -21.2564
  33   2.0000      -0.764701       -20.8086
  34   2.0000      -0.711189       -19.3524
  35   2.0000      -0.699652       -19.0385
  36   2.0000      -0.688741       -18.7416
  37   2.0000      -0.660609       -17.9761
  38   2.0000      -0.645961       -17.5775
  39   2.0000      -0.619774       -16.8649
  40   2.0000      -0.592730       -16.1290
  41   2.0000      -0.571230       -15.5440
  42   2.0000      -0.561030       -15.2664
  43   2.0000      -0.557087       -15.1591
  44   2.0000      -0.521690       -14.1959
  45   2.0000      -0.518062       -14.0972
  46   2.0000      -0.512349       -13.9417
  47   2.0000      -0.509542       -13.8653
  48   2.0000      -0.504469       -13.7273
  49   2.0000      -0.499586       -13.5944
  50   2.0000      -0.492050       -13.3894
  51   2.0000      -0.481315       -13.0972
  52   2.0000      -0.471188       -12.8217
  53   2.0000      -0.464947       -12.6519
  54   2.0000      -0.458049       -12.4642
  55   2.0000      -0.450822       -12.2675
  56   2.0000      -0.443376       -12.0649
  57   2.0000      -0.437616       -11.9081
  58   2.0000      -0.431784       -11.7494
  59   2.0000      -0.423036       -11.5114
  60   2.0000      -0.420204       -11.4343
  61   2.0000      -0.415294       -11.3007
  62   2.0000      -0.412878       -11.2350
  63   2.0000      -0.344167        -9.3653
  64   2.0000      -0.330397        -8.9906
  65   2.0000      -0.321352        -8.7444
  66   2.0000      -0.300626        -8.1804
  67   0.0000       0.036513         0.9936
  68   0.0000       0.062422         1.6986
  69   0.0000       0.122744         3.3400
  70   0.0000       0.123730         3.3669
  71   0.0000       0.125533         3.4159

MULLIKEN ATOMIC CHARGES
-----------------------
   0 S :    0.120502
   1 C :   -0.133688
   2 C :   -0.106184
   3 C :    0.066906
   4 C :   -0.193130
   5 H :    0.002545
   6 C :    0.101256
   7 H :    0.026174
   8 H :   -0.006848
   9 C :   -0.075820
  10 H :    0.024998
  11 H :    0.036579
  12 C :   -0.052377
  13 H :    0.032136
  14 H :    0.042609
  15 H :    0.033999
  16 S :    0.109900
  17 C :   -0.082338
  18 C :   -0.044433
  19 C :   -0.015078
  20 C :   -0.174675
  21 H :    0.034975
  22 C :    0.037370
  23 H :    0.034599
  24 H :    0.022635
  25 C :   -0.039638
  26 H :    0.039730
  27 H :    0.022164
  28 C :   -0.060630
  29 H :    0.026652
  30 H :    0.033308
  31 H :    0.034947
  32 H :    0.063136
  33 H :    0.037720
Sum of atomic charges:   -0.0000000

LOEWDIN ATOMIC CHARGES
----------------------
   0 S :    0.410416
   1 C :   -0.204759
   2 C :   -0.057700
   3 C :   -0.055536
   4 C :   -0.202039
   5 H :    0.027957
   6 C :   -0.032381
   7 H :    0.033550
   8 H :    0.016763
   9 C :   -0.038188
  10 H :    0.024748
  11 H :    0.023005
  12 C :   -0.064786
  13 H :    0.021938
  14 H :    0.031435
  15 H :    0.029831
  16 S :    0.424759
  17 C :   -0.173180
  18 C :   -0.079399
  19 C :   -0.060671
  20 C :   -0.221583
  21 H :    0.040674
  22 C :   -0.034526
  23 H :    0.037665
  24 H :    0.030317
  25 C :   -0.033995
  26 H :    0.031790
  27 H :    0.016758
  28 C :   -0.069706
  29 H :    0.024140
  30 H :    0.024921
  31 H :    0.026221
  32 H :    0.033496
  33 H :    0.018066

  Mayer bond orders larger than 0.100000
B(  0-S ,  1-C ) :   1.1495 B(  0-S ,  4-C ) :   1.1532 B(  1-C ,  2-C ) :   1.6004
B(  1-C ,  4-C ) :   0.1012 B(  1-C , 32-H ) :   0.9633 B(  2-C ,  3-C ) :   1.2246
B(  2-C ,  6-C ) :   1.0285 B(  3-C ,  4-C ) :   1.6053 B(  3-C ,  5-H ) :   0.9988
B(  4-C , 20-C ) :   0.9982 B(  6-C ,  7-H ) :   0.9315 B(  6-C ,  8-H ) :   0.9372
B(  6-C ,  9-C ) :   1.0547 B(  9-C , 10-H ) :   0.9524 B(  9-C , 11-H ) :   0.9632
B(  9-C , 12-C ) :   1.0785 B( 12-C , 13-H ) :   0.9775 B( 12-C , 14-H ) :   0.9755
B( 12-C , 15-H ) :   0.9742 B( 16-S , 17-C ) :   1.1660 B( 16-S , 20-C ) :   1.1771
B( 17-C , 18-C ) :   1.5891 B( 17-C , 20-C ) :   0.1117 B( 17-C , 33-H ) :   0.9758
B( 18-C , 19-C ) :   1.2717 B( 18-C , 21-H ) :   0.9821 B( 19-C , 20-C ) :   1.5554
B( 19-C , 22-C ) :   1.0433 B( 22-C , 23-H ) :   0.9243 B( 22-C , 24-H ) :   0.9439
B( 22-C , 25-C ) :   1.0624 B( 25-C , 26-H ) :   0.9575 B( 25-C , 27-H ) :   0.9521
B( 25-C , 28-C ) :   1.0810 B( 28-C , 29-H ) :   0.9746 B( 28-C , 30-H ) :   0.9778
B( 28-C , 31-H ) :   0.9749

Dispersion correction           -0.013997262
FINAL SINGLE POINT ENERGY     -1339.882833186766

DIPOLE MOMENT
-------------
                                X             Y             Z
Electronic contribution:     -3.26527      12.45326      18.27815
Nuclear contribution   :      3.22033     -12.60484     -18.67145
                        -----------------------------------------
Total Dipole Moment    :     -0.04493      -0.15158      -0.39330
                        -----------------------------------------
Magnitude (a.u.)       :      0.42388
Magnitude (Debye)      :      1.07742

Rotational constants in cm-1:     0.018115     0.007780     0.006904
Rotational constants in MHz :   543.074923   233.249105   206.963994

                             ****ORCA TERMINATED NORMALLY****
TOTAL RUN TIME: 0 days 0 hours 0 minutes 29 seconds 561 msec
