                         Program Version 4.2.1 -  RELEASE  -
|  1> ! wB97X-D3 SP def2-SVP
|  2> %pal
|  3> nprocs 16
|  4> end
|  5>
|  6> * xyz 0 1
|  7> S 	 -16.3917 	 -4.21015 	 85.4238
|  8> C 	 -15.2145 	 -3.96286 	 86.6855
|  9> C 	 -14.5134 	 -5.15483 	 86.9862
| 10> C 	 -14.8469 	 -6.19342 	 86.0495
| 11> C 	 -15.6837 	 -5.79528 	 85.0387
| 12> H 	 -14.4964 	 -7.18352 	 86.0718
| 13> C 	 -13.7007 	 -5.4157 	 88.2103
| 14> H 	 -14.2643 	 -6.10178 	 88.914
| 15> H 	 -13.6711 	 -4.42204 	 88.6636
| 16> C 	 -12.2624 	 -5.97698 	 87.9982
| 17> H 	 -11.6964 	 -6.12682 	 88.9596
| 18> H 	 -12.3945 	 -7.06076 	 87.6839
| 19> C 	 -11.3675 	 -5.21181 	 86.997
| 20> H 	 -10.433 	 -5.78144 	 86.7535
| 21> H 	 -11.9548 	 -5.05632 	 86.089
| 22> H 	 -11.0233 	 -4.1942 	 87.4175
| 23> S 	 -17.9016 	 -6.96385 	 83.8249
| 24> C 	 -17.6019 	 -7.79956 	 82.3023
| 25> C 	 -16.3101 	 -7.76551 	 81.9085
| 26> C 	 -15.5201 	 -6.9906 	 82.8255
| 27> C 	 -16.1605 	 -6.54699 	 83.9293
| 28> H 	 -16.0546 	 -8.16021 	 80.9228
| 29> C 	 -14.0569 	 -6.61039 	 82.4523
| 30> H 	 -13.7122 	 -6.07016 	 83.2736
| 31> H 	 -14.1528 	 -5.90316 	 81.6122
| 32> C 	 -13.2064 	 -7.84122 	 82.1693
| 33> H 	 -13.7892 	 -8.25831 	 81.3321
| 34> H 	 -13.2739 	 -8.59986 	 82.9744
| 35> C 	 -11.7634 	 -7.51346 	 81.8797
| 36> H 	 -11.629 	 -6.78782 	 81.1112
| 37> H 	 -11.2226 	 -8.44004 	 81.6521
| 38> H 	 -11.2144 	 -7.14253 	 82.7547
| 39> H 	 -15.1173 	 -3.08871 	 87.3356
| 40> H 	 -18.233 	 -8.40139 	 81.697
| 41> *
| 42>
| 43>                          ****END OF INPUT****

CARTESIAN COORDINATES (ANGSTROEM)
---------------------------------
  S    -16.391700   -4.210150   85.423800
  C    -15.214500   -3.962860   86.685500
  C    -14.513400   -5.154830   86.986200
  C    -14.846900   -6.193420   86.049500
  C    -15.683700   -5.795280   85.038700
  H    -14.496400   -7.183520   86.071800
  C    -13.700700   -5.415700   88.210300
  H    -14.264300   -6.101780   88.914000
  H    -13.671100   -4.422040   88.663600
  C    -12.262400   -5.976980   87.998200
  H    -11.696400   -6.126820   88.959600
  H    -12.394500   -7.060760   87.683900
  C    -11.367500   -5.211810   86.997000
  H    -10.433000   -5.781440   86.753500
  H    -11.954800   -5.056320   86.089000
  H    -11.023300   -4.194200   87.417500
  S    -17.901600   -6.963850   83.824900
  C    -17.601900   -7.799560   82.302300
  C    -16.310100   -7.765510   81.908500
  C    -15.520100   -6.990600   82.825500
  C    -16.160500   -6.546990   83.929300
  H    -16.054600   -8.160210   80.922800
  C    -14.056900   -6.610390   82.452300
  H    -13.712200   -6.070160   83.273600
  H    -14.152800   -5.903160   81.612200
  C    -13.206400   -7.841220   82.169300
  H    -13.789200   -8.258310   81.332100
  H    -13.273900   -8.599860   82.974400
  C    -11.763400   -7.513460   81.879700
  H    -11.629000   -6.787820   81.111200
  H    -11.222600   -8.440040   81.652100
  H    -11.214400   -7.142530   82.754700
  H    -15.117300   -3.088710   87.335600
  H    -18.233000   -8.401390   81.697000

 Total Charge           Charge          ....    0
 Multiplicity           Mult            ....    1
 Number of Electrons    NEL             ....  134
 Basis Dimension        Dim             ....  322

ORBITAL ENERGIES
----------------

  NO   OCC          E(Eh)            E(eV)
   0   2.0000     -88.966973     -2420.9144
   1   2.0000     -88.964179     -2420.8384
   2   2.0000     -10.327690      -281.0307
   3   2.0000     -10.321536      -280.8633
   4   2.0000     -10.320206      -280.8271
   5   2.0000     -10.313982      -280.6577
   6   2.0000     -10.303972      -280.3853
   7   2.0000     -10.300400      -280.2881
   8   2.0000     -10.299369      -280.2601
   9   2.0000     -10.298407      -280.2339
  10   2.0000     -10.291946      -280.0581
  11   2.0000     -10.290989      -280.0320
  12   2.0000     -10.287719      -279.9431
  13   2.0000     -10.286936      -279.9218
  14   2.0000     -10.283824      -279.8371
  15   2.0000     -10.275850      -279.6201
  16   2.0000      -8.081429      -219.9069
  17   2.0000      -8.078294      -219.8216
  18   2.0000      -6.039914      -164.3544
  19   2.0000      -6.036996      -164.2750
  20   2.0000      -6.036124      -164.2513
  21   2.0000      -6.033073      -164.1683
  22   2.0000      -6.032071      -164.1410
  23   2.0000      -6.028698      -164.0492
  24   2.0000      -1.006494       -27.3881
  25   2.0000      -0.982550       -26.7365
  26   2.0000      -0.909440       -24.7471
  27   2.0000      -0.908193       -24.7132
  28   2.0000      -0.873508       -23.7694
  29   2.0000      -0.848130       -23.0788
  30   2.0000      -0.842816       -22.9342
  31   2.0000      -0.819935       -22.3116
  32   2.0000      -0.782378       -21.2896
  33   2.0000      -0.769999       -20.9527
  34   2.0000      -0.711795       -19.3689
  35   2.0000      -0.700296       -19.0560
  36   2.0000      -0.691300       -18.8112
  37   2.0000      -0.656216       -17.8566
  38   2.0000      -0.641285       -17.4503
  39   2.0000      -0.621195       -16.9036
  40   2.0000      -0.589708       -16.0468
  41   2.0000      -0.567975       -15.4554
  42   2.0000      -0.562298       -15.3009
  43   2.0000      -0.548959       -14.9379
  44   2.0000      -0.541027       -14.7221
  45   2.0000      -0.527497       -14.3539
  46   2.0000      -0.516979       -14.0677
  47   2.0000      -0.510394       -13.8885
  48   2.0000      -0.507204       -13.8017
  49   2.0000      -0.495756       -13.4902
  50   2.0000      -0.489615       -13.3231
  51   2.0000      -0.480770       -13.0824
  52   2.0000      -0.470499       -12.8029
  53   2.0000      -0.466408       -12.6916
  54   2.0000      -0.456208       -12.4140
  55   2.0000      -0.449999       -12.2451
  56   2.0000      -0.443042       -12.0558
  57   2.0000      -0.440628       -11.9901
  58   2.0000      -0.439495       -11.9593
  59   2.0000      -0.425487       -11.5781
  60   2.0000      -0.417110       -11.3501
  61   2.0000      -0.408440       -11.1142
  62   2.0000      -0.405543       -11.0354
  63   2.0000      -0.344380        -9.3711
  64   2.0000      -0.331308        -9.0153
  65   2.0000      -0.328899        -8.9498
  66   2.0000      -0.297254        -8.0887
  67   0.0000       0.033707         0.9172
  68   0.0000       0.059284         1.6132
  69   0.0000       0.105939         2.8827
  70   0.0000       0.116880         3.1805
  71   0.0000       0.128905         3.5077

MULLIKEN ATOMIC CHARGES
-----------------------
   0 S :    0.112830
   1 C :   -0.105068
   2 C :   -0.129062
   3 C :    0.068174
   4 C :   -0.186104
   5 H :   -0.003255
   6 C :    0.072269
   7 H :    0.059934
   8 H :    0.010406
   9 C :   -0.113931
  10 H :    0.038432
  11 H :    0.032090
  12 C :   -0.078833
  13 H :    0.044511
  14 H :    0.051180
  15 H :    0.043346
  16 S :    0.097931
  17 C :   -0.050072
  18 C :   -0.059165
  19 C :   -0.054086
  20 C :   -0.159126
  21 H :    0.032021
  22 C :    0.117114
  23 H :    0.001096
  24 H :    0.040975
  25 C :   -0.106641
  26 H :    0.022788
  27 H :    0.033121
  28 C :   -0.005201
  29 H :    0.024512
  30 H :    0.031241
  31 H :    0.028392
  32 H :    0.053037
  33 H :    0.035149
Sum of atomic charges:    0.0000000

LOEWDIN ATOMIC CHARGES
----------------------
   0 S :    0.398359
   1 C :   -0.200109
   2 C :   -0.068191
   3 C :   -0.046980
   4 C :   -0.183649
   5 H :    0.025172
   6 C :   -0.038733
   7 H :    0.045677
   8 H :    0.027806
   9 C :   -0.056105
  10 H :    0.028795
  11 H :    0.025605
  12 C :   -0.075787
  13 H :    0.031740
  14 H :    0.025718
  15 H :    0.032998
  16 S :    0.371105
  17 C :   -0.165682
  18 C :   -0.079817
  19 C :   -0.046000
  20 C :   -0.196416
  21 H :    0.036131
  22 C :   -0.020687
  23 H :    0.013957
  24 H :    0.036058
  25 C :   -0.044963
  26 H :    0.023223
  27 H :    0.028809
  28 C :   -0.064310
  29 H :    0.021042
  30 H :    0.029292
  31 H :    0.028673
  32 H :    0.030924
  33 H :    0.026345

  Mayer bond orders larger than 0.100000
B(  0-S ,  1-C ) :   1.1443 B(  0-S ,  4-C ) :   1.1279 B(  1-C ,  2-C ) :   1.6059
B(  1-C , 32-H ) :   0.9601 B(  2-C ,  3-C ) :   1.2110 B(  2-C ,  6-C ) :   1.0313
B(  3-C ,  4-C ) :   1.5948 B(  3-C ,  5-H ) :   1.0048 B(  4-C , 20-C ) :   1.0524
B(  6-C ,  7-H ) :   0.9417 B(  6-C ,  8-H ) :   0.9330 B(  6-C ,  9-C ) :   1.0565
B(  9-C , 10-H ) :   0.9575 B(  9-C , 11-H ) :   0.9536 B(  9-C , 12-C ) :   1.0716
B( 12-C , 13-H ) :   0.9732 B( 12-C , 14-H ) :   0.9720 B( 12-C , 15-H ) :   0.9736
B( 16-S , 17-C ) :   1.1316 B( 16-S , 20-C ) :   1.0898 B( 17-C , 18-C ) :   1.6914
B( 17-C , 33-H ) :   0.9575 B( 18-C , 19-C ) :   1.1835 B( 18-C , 21-H ) :   0.9812
B( 19-C , 20-C ) :   1.6823 B( 19-C , 22-C ) :   1.0275 B( 22-C , 23-H ) :   0.9281
B( 22-C , 24-H ) :   0.9369 B( 22-C , 25-C ) :   1.0485 B( 25-C , 26-H ) :   0.9563
B( 25-C , 27-H ) :   0.9565 B( 25-C , 28-C ) :   1.0912 B( 28-C , 29-H ) :   0.9717
B( 28-C , 30-H ) :   0.9714 B( 28-C , 31-H ) :   0.9706

Dispersion correction           -0.014473900
FINAL SINGLE POINT ENERGY     -1339.877440177947

DIPOLE MOMENT
-------------
                                X             Y             Z
Electronic contribution:    -30.08256       5.31467      -1.17849
Nuclear contribution   :     30.64942      -5.58792       1.16563
                        -----------------------------------------
Total Dipole Moment    :      0.56686      -0.27325      -0.01287
                        -----------------------------------------
Magnitude (a.u.)       :      0.62941
Magnitude (Debye)      :      1.59984

Rotational constants in cm-1:     0.016477     0.010051     0.006954
Rotational constants in MHz :   493.961582   301.325166   208.473384

                             ****ORCA TERMINATED NORMALLY****
TOTAL RUN TIME: 0 days 0 hours 0 minutes 34 seconds 407 msec
