                         Program Version 4.2.1 -  RELEASE  -
|  1> ! wB97X-D3 SP def2-SVP
|  2> %pal
|  3> nprocs 16
|  4> end
|  5>
|  6> * xyz 0 1
|  7> S 	 8.42448 	 -28.9516 	 81.3376
|  8> C 	 8.61064 	 -29.1249 	 83.0896
|  9> C 	 8.55233 	 -27.9548 	 83.7651
| 10> C 	 8.33137 	 -26.8338 	 82.8967
| 11> C 	 8.29339 	 -27.1707 	 81.5681
| 12> H 	 8.35813 	 -25.8312 	 83.1706
| 13> C 	 8.88957 	 -27.7615 	 85.2312
| 14> H 	 9.93446 	 -27.4909 	 85.3142
| 15> H 	 8.68332 	 -28.7503 	 85.7543
| 16> C 	 8.15135 	 -26.6917 	 86.0034
| 17> H 	 8.46474 	 -26.6108 	 86.9866
| 18> H 	 8.46875 	 -25.7314 	 85.6018
| 19> C 	 6.70376 	 -26.8385 	 85.9771
| 20> H 	 6.45733 	 -27.8 	 86.4637
| 21> H 	 6.19432 	 -26.0234 	 86.4867
| 22> H 	 6.41085 	 -26.8662 	 84.9462
| 23> S 	 6.69333 	 -25.6182 	 80.0753
| 24> C 	 7.29567 	 -24.8107 	 78.6285
| 25> C 	 8.67139 	 -24.9673 	 78.5685
| 26> C 	 9.19386 	 -25.8886 	 79.5236
| 27> C 	 8.24984 	 -26.2792 	 80.4594
| 28> H 	 9.31333 	 -24.501 	 77.8553
| 29> C 	 10.6245 	 -26.3957 	 79.3815
| 30> H 	 10.9517 	 -26.4749 	 78.3093
| 31> H 	 10.6302 	 -27.4568 	 79.5934
| 32> C 	 11.7044 	 -25.6798 	 80.2122
| 33> H 	 11.1652 	 -25.3645 	 81.0933
| 34> H 	 11.8879 	 -24.738 	 79.7308
| 35> C 	 12.9881 	 -26.411 	 80.5766
| 36> H 	 13.6319 	 -26.651 	 79.7172
| 37> H 	 12.9115 	 -27.3157 	 81.1633
| 38> H 	 13.5833 	 -25.7115 	 81.197
| 39> H 	 8.90239 	 -30.0953 	 83.4938
| 40> H 	 6.71133 	 -24.15 	 78.026
| 41> *
| 42>
| 43>                          ****END OF INPUT****

CARTESIAN COORDINATES (ANGSTROEM)
---------------------------------
  S      8.424480  -28.951600   81.337600
  C      8.610640  -29.124900   83.089600
  C      8.552330  -27.954800   83.765100
  C      8.331370  -26.833800   82.896700
  C      8.293390  -27.170700   81.568100
  H      8.358130  -25.831200   83.170600
  C      8.889570  -27.761500   85.231200
  H      9.934460  -27.490900   85.314200
  H      8.683320  -28.750300   85.754300
  C      8.151350  -26.691700   86.003400
  H      8.464740  -26.610800   86.986600
  H      8.468750  -25.731400   85.601800
  C      6.703760  -26.838500   85.977100
  H      6.457330  -27.800000   86.463700
  H      6.194320  -26.023400   86.486700
  H      6.410850  -26.866200   84.946200
  S      6.693330  -25.618200   80.075300
  C      7.295670  -24.810700   78.628500
  C      8.671390  -24.967300   78.568500
  C      9.193860  -25.888600   79.523600
  C      8.249840  -26.279200   80.459400
  H      9.313330  -24.501000   77.855300
  C     10.624500  -26.395700   79.381500
  H     10.951700  -26.474900   78.309300
  H     10.630200  -27.456800   79.593400
  C     11.704400  -25.679800   80.212200
  H     11.165200  -25.364500   81.093300
  H     11.887900  -24.738000   79.730800
  C     12.988100  -26.411000   80.576600
  H     13.631900  -26.651000   79.717200
  H     12.911500  -27.315700   81.163300
  H     13.583300  -25.711500   81.197000
  H      8.902390  -30.095300   83.493800
  H      6.711330  -24.150000   78.026000

 Total Charge           Charge          ....    0
 Multiplicity           Mult            ....    1
 Number of Electrons    NEL             ....  134
 Basis Dimension        Dim             ....  322

ORBITAL ENERGIES
----------------

  NO   OCC          E(Eh)            E(eV)
   0   2.0000     -88.965111     -2420.8638
   1   2.0000     -88.964296     -2420.8416
   2   2.0000     -10.329324      -281.0752
   3   2.0000     -10.322173      -280.8806
   4   2.0000     -10.318298      -280.7752
   5   2.0000     -10.314083      -280.6605
   6   2.0000     -10.302895      -280.3560
   7   2.0000     -10.300771      -280.2982
   8   2.0000     -10.294342      -280.1233
   9   2.0000     -10.292512      -280.0735
  10   2.0000     -10.292101      -280.0623
  11   2.0000     -10.289279      -279.9855
  12   2.0000     -10.280692      -279.7518
  13   2.0000     -10.279485      -279.7190
  14   2.0000     -10.272097      -279.5180
  15   2.0000     -10.267230      -279.3855
  16   2.0000      -8.079208      -219.8464
  17   2.0000      -8.078906      -219.8382
  18   2.0000      -6.037721      -164.2947
  19   2.0000      -6.037467      -164.2878
  20   2.0000      -6.033724      -164.1860
  21   2.0000      -6.033526      -164.1806
  22   2.0000      -6.030102      -164.0874
  23   2.0000      -6.029484      -164.0706
  24   2.0000      -1.007343       -27.4112
  25   2.0000      -0.983049       -26.7501
  26   2.0000      -0.922585       -25.1048
  27   2.0000      -0.904078       -24.6012
  28   2.0000      -0.876873       -23.8609
  29   2.0000      -0.850502       -23.1433
  30   2.0000      -0.847097       -23.0507
  31   2.0000      -0.816821       -22.2268
  32   2.0000      -0.784151       -21.3378
  33   2.0000      -0.773040       -21.0355
  34   2.0000      -0.711104       -19.3501
  35   2.0000      -0.699468       -19.0335
  36   2.0000      -0.691952       -18.8290
  37   2.0000      -0.668799       -18.1989
  38   2.0000      -0.645407       -17.5624
  39   2.0000      -0.622006       -16.9256
  40   2.0000      -0.598932       -16.2978
  41   2.0000      -0.565224       -15.3805
  42   2.0000      -0.562545       -15.3076
  43   2.0000      -0.554325       -15.0839
  44   2.0000      -0.552450       -15.0329
  45   2.0000      -0.522499       -14.2179
  46   2.0000      -0.517098       -14.0710
  47   2.0000      -0.513829       -13.9820
  48   2.0000      -0.507469       -13.8089
  49   2.0000      -0.500287       -13.6135
  50   2.0000      -0.492572       -13.4036
  51   2.0000      -0.479127       -13.0377
  52   2.0000      -0.474731       -12.9181
  53   2.0000      -0.469533       -12.7766
  54   2.0000      -0.455741       -12.4013
  55   2.0000      -0.447056       -12.1650
  56   2.0000      -0.441188       -12.0053
  57   2.0000      -0.438764       -11.9394
  58   2.0000      -0.430924       -11.7260
  59   2.0000      -0.426715       -11.6115
  60   2.0000      -0.422872       -11.5069
  61   2.0000      -0.408877       -11.1261
  62   2.0000      -0.408069       -11.1041
  63   2.0000      -0.336507        -9.1568
  64   2.0000      -0.334330        -9.0976
  65   2.0000      -0.323087        -8.7916
  66   2.0000      -0.307331        -8.3629
  67   0.0000       0.037885         1.0309
  68   0.0000       0.057028         1.5518
  69   0.0000       0.109117         2.9692
  70   0.0000       0.119631         3.2553
  71   0.0000       0.128215         3.4889

MULLIKEN ATOMIC CHARGES
-----------------------
   0 S :    0.103328
   1 C :   -0.142344
   2 C :   -0.062939
   3 C :    0.063152
   4 C :   -0.152705
   5 H :   -0.008363
   6 C :    0.053238
   7 H :    0.045302
   8 H :    0.027928
   9 C :   -0.048605
  10 H :    0.005145
  11 H :    0.007892
  12 C :   -0.023923
  13 H :    0.024817
  14 H :    0.033818
  15 H :    0.030880
  16 S :    0.112295
  17 C :   -0.083622
  18 C :   -0.014559
  19 C :   -0.032780
  20 C :   -0.190722
  21 H :    0.010104
  22 C :    0.055610
  23 H :    0.023882
  24 H :    0.007163
  25 C :   -0.038336
  26 H :    0.018928
  27 H :    0.013901
  28 C :   -0.044652
  29 H :    0.032132
  30 H :    0.037957
  31 H :    0.031664
  32 H :    0.050347
  33 H :    0.054067
Sum of atomic charges:   -0.0000000

LOEWDIN ATOMIC CHARGES
----------------------
   0 S :    0.372587
   1 C :   -0.182188
   2 C :   -0.067610
   3 C :   -0.047403
   4 C :   -0.176229
   5 H :    0.022752
   6 C :   -0.027805
   7 H :    0.036001
   8 H :    0.034116
   9 C :   -0.047402
  10 H :    0.017133
  11 H :    0.018890
  12 C :   -0.058736
  13 H :    0.027879
  14 H :    0.027131
  15 H :    0.023526
  16 S :    0.416989
  17 C :   -0.178747
  18 C :   -0.063418
  19 C :   -0.054057
  20 C :   -0.210932
  21 H :    0.026987
  22 C :   -0.039561
  23 H :    0.032346
  24 H :    0.024107
  25 C :   -0.042878
  26 H :    0.024326
  27 H :    0.021591
  28 C :   -0.067174
  29 H :    0.026169
  30 H :    0.025774
  31 H :    0.032756
  32 H :    0.028007
  33 H :    0.025076

  Mayer bond orders larger than 0.100000
B(  0-S ,  1-C ) :   1.1227 B(  0-S ,  4-C ) :   1.1192 B(  1-C ,  2-C ) :   1.6649
B(  1-C , 32-H ) :   0.9651 B(  2-C ,  3-C ) :   1.1859 B(  2-C ,  6-C ) :   1.0133
B(  3-C ,  4-C ) :   1.6279 B(  3-C ,  5-H ) :   1.0016 B(  4-C , 20-C ) :   1.0321
B(  6-C ,  7-H ) :   0.9364 B(  6-C ,  8-H ) :   0.9421 B(  6-C ,  9-C ) :   1.0887
B(  9-C , 10-H ) :   0.9454 B(  9-C , 11-H ) :   0.9372 B(  9-C , 12-C ) :   1.0934
B( 12-C , 13-H ) :   0.9707 B( 12-C , 14-H ) :   0.9697 B( 12-C , 15-H ) :   0.9709
B( 16-S , 17-C ) :   1.1558 B( 16-S , 20-C ) :   1.1577 B( 17-C , 18-C ) :   1.5829
B( 17-C , 20-C ) :   0.1046 B( 17-C , 33-H ) :   0.9735 B( 18-C , 19-C ) :   1.2631
B( 18-C , 21-H ) :   0.9899 B( 19-C , 20-C ) :   1.5853 B( 19-C , 22-C ) :   1.0466
B( 22-C , 23-H ) :   0.9365 B( 22-C , 24-H ) :   0.9301 B( 22-C , 25-C ) :   1.0489
B( 25-C , 26-H ) :   0.9566 B( 25-C , 27-H ) :   0.9500 B( 25-C , 28-C ) :   1.0868
B( 28-C , 29-H ) :   0.9745 B( 28-C , 30-H ) :   0.9748 B( 28-C , 31-H ) :   0.9709

Dispersion correction           -0.014622244
FINAL SINGLE POINT ENERGY     -1339.883783149218

DIPOLE MOMENT
-------------
                                X             Y             Z
Electronic contribution:    -14.83212      -4.12398     -14.82218
Nuclear contribution   :     15.36274       4.39732      15.10897
                        -----------------------------------------
Total Dipole Moment    :      0.53062       0.27333       0.28680
                        -----------------------------------------
Magnitude (a.u.)       :      0.66221
Magnitude (Debye)      :      1.68320

Rotational constants in cm-1:     0.017380     0.009135     0.007556
Rotational constants in MHz :   521.037917   273.854050   226.531527

                             ****ORCA TERMINATED NORMALLY****
TOTAL RUN TIME: 0 days 0 hours 0 minutes 32 seconds 488 msec
