                         Program Version 4.2.1 -  RELEASE  -
|  1> ! wB97X-D3 SP def2-SVP
|  2> %pal
|  3> nprocs 16
|  4> end
|  5>
|  6> * xyz 0 1
|  7> S 	 9.32049 	 -15.534 	 56.3048
|  8> C 	 8.13369 	 -15.007 	 57.3991
|  9> C 	 6.84526 	 -15.2904 	 56.9636
| 10> C 	 6.8861 	 -15.9622 	 55.6852
| 11> C 	 8.17868 	 -16.2668 	 55.2578
| 12> H 	 6.00154 	 -16.3164 	 55.1749
| 13> C 	 5.60532 	 -14.9093 	 57.7765
| 14> H 	 5.8597 	 -13.9716 	 58.2313
| 15> H 	 5.50554 	 -15.5435 	 58.6723
| 16> C 	 4.25034 	 -14.7654 	 57.0368
| 17> H 	 3.64185 	 -14.1457 	 57.6059
| 18> H 	 4.31541 	 -14.4767 	 55.9908
| 19> C 	 3.40991 	 -16.0831 	 56.928
| 20> H 	 3.08972 	 -16.3501 	 57.9466
| 21> H 	 2.47299 	 -15.8103 	 56.4172
| 22> H 	 3.96485 	 -16.9288 	 56.4728
| 23> S 	 9.4899 	 -16.086 	 52.8479
| 24> C 	 9.38938 	 -17.4358 	 51.7244
| 25> C 	 8.68755 	 -18.4835 	 52.3057
| 26> C 	 8.22721 	 -18.218 	 53.6312
| 27> C 	 8.56895 	 -17.0007 	 54.0607
| 28> H 	 8.57663 	 -19.4117 	 51.7494
| 29> C 	 7.27727 	 -19.1985 	 54.3241
| 30> H 	 6.95376 	 -18.8168 	 55.2724
| 31> H 	 7.80674 	 -20.127 	 54.6122
| 32> C 	 6.02941 	 -19.6433 	 53.6031
| 33> H 	 6.21587 	 -20.3572 	 52.8437
| 34> H 	 5.56837 	 -18.771 	 53.1194
| 35> C 	 4.91209 	 -20.2474 	 54.5289
| 36> H 	 5.26537 	 -21.2765 	 54.8943
| 37> H 	 3.93846 	 -20.3926 	 54.0642
| 38> H 	 4.81299 	 -19.6519 	 55.4356
| 39> H 	 8.37348 	 -14.3065 	 58.2173
| 40> H 	 9.88461 	 -17.5091 	 50.7797
| 41> *
| 42>
| 43>                          ****END OF INPUT****

CARTESIAN COORDINATES (ANGSTROEM)
---------------------------------
  S      9.320490  -15.534000   56.304800
  C      8.133690  -15.007000   57.399100
  C      6.845260  -15.290400   56.963600
  C      6.886100  -15.962200   55.685200
  C      8.178680  -16.266800   55.257800
  H      6.001540  -16.316400   55.174900
  C      5.605320  -14.909300   57.776500
  H      5.859700  -13.971600   58.231300
  H      5.505540  -15.543500   58.672300
  C      4.250340  -14.765400   57.036800
  H      3.641850  -14.145700   57.605900
  H      4.315410  -14.476700   55.990800
  C      3.409910  -16.083100   56.928000
  H      3.089720  -16.350100   57.946600
  H      2.472990  -15.810300   56.417200
  H      3.964850  -16.928800   56.472800
  S      9.489900  -16.086000   52.847900
  C      9.389380  -17.435800   51.724400
  C      8.687550  -18.483500   52.305700
  C      8.227210  -18.218000   53.631200
  C      8.568950  -17.000700   54.060700
  H      8.576630  -19.411700   51.749400
  C      7.277270  -19.198500   54.324100
  H      6.953760  -18.816800   55.272400
  H      7.806740  -20.127000   54.612200
  C      6.029410  -19.643300   53.603100
  H      6.215870  -20.357200   52.843700
  H      5.568370  -18.771000   53.119400
  C      4.912090  -20.247400   54.528900
  H      5.265370  -21.276500   54.894300
  H      3.938460  -20.392600   54.064200
  H      4.812990  -19.651900   55.435600
  H      8.373480  -14.306500   58.217300
  H      9.884610  -17.509100   50.779700

 Total Charge           Charge          ....    0
 Multiplicity           Mult            ....    1
 Number of Electrons    NEL             ....  134
 Basis Dimension        Dim             ....  322

ORBITAL ENERGIES
----------------

  NO   OCC          E(Eh)            E(eV)
   0   2.0000     -88.965672     -2420.8790
   1   2.0000     -88.963491     -2420.8197
   2   2.0000     -10.326155      -280.9890
   3   2.0000     -10.323872      -280.9268
   4   2.0000     -10.318471      -280.7799
   5   2.0000     -10.310075      -280.5514
   6   2.0000     -10.303789      -280.3803
   7   2.0000     -10.300969      -280.3036
   8   2.0000     -10.296434      -280.1802
   9   2.0000     -10.295342      -280.1505
  10   2.0000     -10.294172      -280.1187
  11   2.0000     -10.289824      -280.0004
  12   2.0000     -10.287017      -279.9240
  13   2.0000     -10.285929      -279.8944
  14   2.0000     -10.284991      -279.8688
  15   2.0000     -10.283498      -279.8282
  16   2.0000      -8.081882      -219.9192
  17   2.0000      -8.077967      -219.8127
  18   2.0000      -6.040150      -164.3608
  19   2.0000      -6.036610      -164.2645
  20   2.0000      -6.036026      -164.2486
  21   2.0000      -6.032969      -164.1654
  22   2.0000      -6.032516      -164.1531
  23   2.0000      -6.028588      -164.0462
  24   2.0000      -1.011220       -27.5167
  25   2.0000      -0.987612       -26.8743
  26   2.0000      -0.909128       -24.7386
  27   2.0000      -0.907937       -24.7062
  28   2.0000      -0.870788       -23.6954
  29   2.0000      -0.850757       -23.1503
  30   2.0000      -0.844127       -22.9699
  31   2.0000      -0.815509       -22.1911
  32   2.0000      -0.782835       -21.3020
  33   2.0000      -0.774065       -21.0634
  34   2.0000      -0.707476       -19.2514
  35   2.0000      -0.699984       -19.0475
  36   2.0000      -0.690143       -18.7797
  37   2.0000      -0.660935       -17.9849
  38   2.0000      -0.642619       -17.4865
  39   2.0000      -0.624817       -17.0021
  40   2.0000      -0.601113       -16.3571
  41   2.0000      -0.570082       -15.5127
  42   2.0000      -0.566942       -15.4273
  43   2.0000      -0.547963       -14.9108
  44   2.0000      -0.536474       -14.5982
  45   2.0000      -0.526344       -14.3225
  46   2.0000      -0.519842       -14.1456
  47   2.0000      -0.513512       -13.9734
  48   2.0000      -0.505860       -13.7652
  49   2.0000      -0.498642       -13.5687
  50   2.0000      -0.490157       -13.3378
  51   2.0000      -0.479923       -13.0594
  52   2.0000      -0.470902       -12.8139
  53   2.0000      -0.466394       -12.6912
  54   2.0000      -0.459318       -12.4987
  55   2.0000      -0.452793       -12.3211
  56   2.0000      -0.446176       -12.1411
  57   2.0000      -0.433277       -11.7901
  58   2.0000      -0.432245       -11.7620
  59   2.0000      -0.424709       -11.5569
  60   2.0000      -0.423332       -11.5195
  61   2.0000      -0.419145       -11.4055
  62   2.0000      -0.413348       -11.2478
  63   2.0000      -0.341800        -9.3009
  64   2.0000      -0.332480        -9.0472
  65   2.0000      -0.327808        -8.9201
  66   2.0000      -0.299921        -8.1613
  67   0.0000       0.036710         0.9989
  68   0.0000       0.068640         1.8678
  69   0.0000       0.116166         3.1610
  70   0.0000       0.118872         3.2347
  71   0.0000       0.128848         3.5061

MULLIKEN ATOMIC CHARGES
-----------------------
   0 S :    0.133900
   1 C :   -0.137253
   2 C :   -0.104759
   3 C :    0.046735
   4 C :   -0.181781
   5 H :    0.004528
   6 C :    0.079330
   7 H :    0.015071
   8 H :    0.039188
   9 C :   -0.053067
  10 H :    0.016395
  11 H :    0.039687
  12 C :   -0.090225
  13 H :    0.022770
  14 H :    0.039415
  15 H :    0.048133
  16 S :    0.100548
  17 C :   -0.084721
  18 C :   -0.049452
  19 C :    0.006284
  20 C :   -0.159153
  21 H :    0.022568
  22 C :    0.087014
  23 H :    0.004693
  24 H :    0.028227
  25 C :   -0.070376
  26 H :    0.024393
  27 H :    0.030536
  28 C :   -0.083669
  29 H :    0.031376
  30 H :    0.046168
  31 H :    0.033497
  32 H :    0.060457
  33 H :    0.053546
Sum of atomic charges:   -0.0000000

LOEWDIN ATOMIC CHARGES
----------------------
   0 S :    0.450178
   1 C :   -0.223417
   2 C :   -0.061905
   3 C :   -0.062462
   4 C :   -0.212360
   5 H :    0.027125
   6 C :   -0.033487
   7 H :    0.029622
   8 H :    0.037492
   9 C :   -0.034664
  10 H :    0.018966
  11 H :    0.026964
  12 C :   -0.067903
  13 H :    0.020579
  14 H :    0.028501
  15 H :    0.023375
  16 S :    0.386347
  17 C :   -0.174788
  18 C :   -0.068919
  19 C :   -0.055759
  20 C :   -0.187661
  21 H :    0.032250
  22 C :   -0.030526
  23 H :    0.023699
  24 H :    0.035904
  25 C :   -0.039914
  26 H :    0.016419
  27 H :    0.024338
  28 C :   -0.067080
  29 H :    0.029622
  30 H :    0.027594
  31 H :    0.021108
  32 H :    0.033163
  33 H :    0.027600

  Mayer bond orders larger than 0.100000
B(  0-S ,  1-C ) :   1.1687 B(  0-S ,  4-C ) :   1.1871 B(  1-C ,  2-C ) :   1.5817
B(  1-C ,  4-C ) :   0.1004 B(  1-C , 32-H ) :   0.9650 B(  2-C ,  3-C ) :   1.2805
B(  2-C ,  6-C ) :   1.0084 B(  3-C ,  4-C ) :   1.5317 B(  3-C ,  5-H ) :   0.9941
B(  4-C , 20-C ) :   1.0065 B(  6-C ,  7-H ) :   0.9381 B(  6-C ,  8-H ) :   0.9375
B(  6-C ,  9-C ) :   1.0682 B(  9-C , 10-H ) :   0.9540 B(  9-C , 11-H ) :   0.9645
B(  9-C , 12-C ) :   1.0736 B( 12-C , 13-H ) :   0.9751 B( 12-C , 14-H ) :   0.9749
B( 12-C , 15-H ) :   0.9781 B( 16-S , 17-C ) :   1.1426 B( 16-S , 20-C ) :   1.1261
B( 17-C , 18-C ) :   1.6332 B( 17-C , 33-H ) :   0.9702 B( 18-C , 19-C ) :   1.2005
B( 18-C , 21-H ) :   0.9904 B( 19-C , 20-C ) :   1.6665 B( 19-C , 22-C ) :   1.0518
B( 22-C , 23-H ) :   0.9339 B( 22-C , 24-H ) :   0.9229 B( 22-C , 25-C ) :   1.0616
B( 25-C , 26-H ) :   0.9505 B( 25-C , 27-H ) :   0.9583 B( 25-C , 28-C ) :   1.0825
B( 28-C , 29-H ) :   0.9742 B( 28-C , 30-H ) :   0.9761 B( 28-C , 31-H ) :   0.9764

Dispersion correction           -0.014457475
FINAL SINGLE POINT ENERGY     -1339.887374071386

DIPOLE MOMENT
-------------
                                X             Y             Z
Electronic contribution:     29.26743      11.68613      -7.26017
Nuclear contribution   :    -29.88772     -11.88971       7.38947
                        -----------------------------------------
Total Dipole Moment    :     -0.62029      -0.20358       0.12929
                        -----------------------------------------
Magnitude (a.u.)       :      0.66552
Magnitude (Debye)      :      1.69162

Rotational constants in cm-1:     0.015806     0.010303     0.007009
Rotational constants in MHz :   473.846164   308.890750   210.132571

                             ****ORCA TERMINATED NORMALLY****
TOTAL RUN TIME: 0 days 0 hours 0 minutes 30 seconds 696 msec
