                         Program Version 4.2.1 -  RELEASE  -
|  1> ! wB97X-D3 SP def2-SVP
|  2> %pal
|  3> nprocs 16
|  4> end
|  5>
|  6> * xyz 0 1
|  7> S 	 15.03 	 37.1237 	 63.4228
|  8> C 	 16.5342 	 37.6242 	 63.9856
|  9> C 	 17.5415 	 36.708 	 63.7108
| 10> C 	 17.0124 	 35.5509 	 63.115
| 11> C 	 15.6634 	 35.5456 	 62.9311
| 12> H 	 17.6176 	 34.7276 	 62.8601
| 13> C 	 18.9921 	 36.9039 	 63.9786
| 14> H 	 19.4083 	 35.8944 	 64.1198
| 15> H 	 19.1846 	 37.4148 	 64.922
| 16> C 	 19.6331 	 37.7157 	 62.8205
| 17> H 	 19.0616 	 38.6375 	 62.7332
| 18> H 	 20.6485 	 38.0408 	 63.0795
| 19> C 	 19.8054 	 36.9122 	 61.4583
| 20> H 	 18.8453 	 36.4745 	 61.2781
| 21> H 	 19.9875 	 37.5575 	 60.6033
| 22> H 	 20.5723 	 36.1396 	 61.5608
| 23> S 	 14.2327 	 34.9736 	 60.738
| 24> C 	 13.6032 	 33.3483 	 60.5171
| 25> C 	 14.0402 	 32.4371 	 61.4584
| 26> C 	 14.7519 	 33.1511 	 62.5142
| 27> C 	 14.8959 	 34.5144 	 62.2863
| 28> H 	 13.8285 	 31.3361 	 61.4027
| 29> C 	 15.3083 	 32.4375 	 63.7663
| 30> H 	 15.7341 	 33.1901 	 64.4738
| 31> H 	 16.0152 	 31.7352 	 63.4299
| 32> C 	 14.3181 	 31.6856 	 64.6447
| 33> H 	 14.8528 	 31.2097 	 65.4755
| 34> H 	 13.7357 	 30.975 	 63.9301
| 35> C 	 13.2649 	 32.6267 	 65.3371
| 36> H 	 12.4456 	 32.0892 	 65.8479
| 37> H 	 12.7536 	 33.2256 	 64.5677
| 38> H 	 13.9474 	 33.0877 	 66.1244
| 39> H 	 16.799 	 38.5352 	 64.4334
| 40> H 	 13.1203 	 33.0889 	 59.5902
| 41> *
| 42>
| 43>                          ****END OF INPUT****

CARTESIAN COORDINATES (ANGSTROEM)
---------------------------------
  S     15.030000   37.123700   63.422800
  C     16.534200   37.624200   63.985600
  C     17.541500   36.708000   63.710800
  C     17.012400   35.550900   63.115000
  C     15.663400   35.545600   62.931100
  H     17.617600   34.727600   62.860100
  C     18.992100   36.903900   63.978600
  H     19.408300   35.894400   64.119800
  H     19.184600   37.414800   64.922000
  C     19.633100   37.715700   62.820500
  H     19.061600   38.637500   62.733200
  H     20.648500   38.040800   63.079500
  C     19.805400   36.912200   61.458300
  H     18.845300   36.474500   61.278100
  H     19.987500   37.557500   60.603300
  H     20.572300   36.139600   61.560800
  S     14.232700   34.973600   60.738000
  C     13.603200   33.348300   60.517100
  C     14.040200   32.437100   61.458400
  C     14.751900   33.151100   62.514200
  C     14.895900   34.514400   62.286300
  H     13.828500   31.336100   61.402700
  C     15.308300   32.437500   63.766300
  H     15.734100   33.190100   64.473800
  H     16.015200   31.735200   63.429900
  C     14.318100   31.685600   64.644700
  H     14.852800   31.209700   65.475500
  H     13.735700   30.975000   63.930100
  C     13.264900   32.626700   65.337100
  H     12.445600   32.089200   65.847900
  H     12.753600   33.225600   64.567700
  H     13.947400   33.087700   66.124400
  H     16.799000   38.535200   64.433400
  H     13.120300   33.088900   59.590200

 Total Charge           Charge          ....    0
 Multiplicity           Mult            ....    1
 Number of Electrons    NEL             ....  134
 Basis Dimension        Dim             ....  322

ORBITAL ENERGIES
----------------

  NO   OCC          E(Eh)            E(eV)
   0   2.0000     -88.967370     -2420.9252
   1   2.0000     -88.963845     -2420.8293
   2   2.0000     -10.324709      -280.9496
   3   2.0000     -10.324387      -280.9409
   4   2.0000     -10.319056      -280.7958
   5   2.0000     -10.309295      -280.5302
   6   2.0000     -10.305886      -280.4374
   7   2.0000     -10.304773      -280.4071
   8   2.0000     -10.292481      -280.0727
   9   2.0000     -10.292084      -280.0618
  10   2.0000     -10.292011      -280.0599
  11   2.0000     -10.290002      -280.0052
  12   2.0000     -10.288706      -279.9699
  13   2.0000     -10.285477      -279.8820
  14   2.0000     -10.280890      -279.7572
  15   2.0000     -10.276729      -279.6440
  16   2.0000      -8.082792      -219.9440
  17   2.0000      -8.078982      -219.8403
  18   2.0000      -6.041126      -164.3874
  19   2.0000      -6.037428      -164.2868
  20   2.0000      -6.037121      -164.2784
  21   2.0000      -6.033779      -164.1875
  22   2.0000      -6.033511      -164.1802
  23   2.0000      -6.029698      -164.0764
  24   2.0000      -1.012093       -27.5404
  25   2.0000      -0.987029       -26.8584
  26   2.0000      -0.910023       -24.7630
  27   2.0000      -0.904641       -24.6165
  28   2.0000      -0.873285       -23.7633
  29   2.0000      -0.847876       -23.0719
  30   2.0000      -0.839656       -22.8482
  31   2.0000      -0.815081       -22.1795
  32   2.0000      -0.781205       -21.2577
  33   2.0000      -0.769968       -20.9519
  34   2.0000      -0.706353       -19.2208
  35   2.0000      -0.701358       -19.0849
  36   2.0000      -0.682558       -18.5733
  37   2.0000      -0.657236       -17.8843
  38   2.0000      -0.645041       -17.5525
  39   2.0000      -0.619595       -16.8600
  40   2.0000      -0.594749       -16.1839
  41   2.0000      -0.573035       -15.5931
  42   2.0000      -0.556749       -15.1499
  43   2.0000      -0.550763       -14.9870
  44   2.0000      -0.544084       -14.8053
  45   2.0000      -0.540779       -14.7154
  46   2.0000      -0.511861       -13.9284
  47   2.0000      -0.509510       -13.8645
  48   2.0000      -0.503937       -13.7128
  49   2.0000      -0.494158       -13.4467
  50   2.0000      -0.484930       -13.1956
  51   2.0000      -0.473930       -12.8963
  52   2.0000      -0.469255       -12.7691
  53   2.0000      -0.464927       -12.6513
  54   2.0000      -0.460633       -12.5345
  55   2.0000      -0.448336       -12.1998
  56   2.0000      -0.445476       -12.1220
  57   2.0000      -0.439278       -11.9534
  58   2.0000      -0.435137       -11.8407
  59   2.0000      -0.422169       -11.4878
  60   2.0000      -0.416758       -11.3406
  61   2.0000      -0.415432       -11.3045
  62   2.0000      -0.397794       -10.8245
  63   2.0000      -0.348493        -9.4830
  64   2.0000      -0.330623        -8.9967
  65   2.0000      -0.328032        -8.9262
  66   2.0000      -0.295798        -8.0491
  67   0.0000       0.036079         0.9817
  68   0.0000       0.063817         1.7365
  69   0.0000       0.110125         2.9967
  70   0.0000       0.127957         3.4819
  71   0.0000       0.133114         3.6222

MULLIKEN ATOMIC CHARGES
-----------------------
   0 S :    0.133742
   1 C :   -0.074259
   2 C :   -0.130462
   3 C :    0.070730
   4 C :   -0.178461
   5 H :   -0.007153
   6 C :    0.070063
   7 H :    0.022190
   8 H :    0.027293
   9 C :   -0.073322
  10 H :    0.025947
  11 H :    0.026081
  12 C :   -0.044236
  13 H :    0.028179
  14 H :    0.037784
  15 H :    0.036927
  16 S :    0.100951
  17 C :   -0.086801
  18 C :   -0.049229
  19 C :   -0.057624
  20 C :   -0.153429
  21 H :    0.050355
  22 C :    0.094901
  23 H :    0.028957
  24 H :    0.026696
  25 C :   -0.122089
  26 H :    0.039737
  27 H :    0.030442
  28 C :   -0.083628
  29 H :    0.038303
  30 H :    0.053884
  31 H :    0.043426
  32 H :    0.018951
  33 H :    0.055155
Sum of atomic charges:   -0.0000000

LOEWDIN ATOMIC CHARGES
----------------------
   0 S :    0.432551
   1 C :   -0.206761
   2 C :   -0.069927
   3 C :   -0.051676
   4 C :   -0.203324
   5 H :    0.024618
   6 C :   -0.033539
   7 H :    0.030518
   8 H :    0.032566
   9 C :   -0.034634
  10 H :    0.021987
  11 H :    0.019314
  12 C :   -0.062493
  13 H :    0.021325
  14 H :    0.028022
  15 H :    0.026021
  16 S :    0.403406
  17 C :   -0.175188
  18 C :   -0.076746
  19 C :   -0.051940
  20 C :   -0.201954
  21 H :    0.044900
  22 C :   -0.033463
  23 H :    0.033867
  24 H :    0.025948
  25 C :   -0.047639
  26 H :    0.025581
  27 H :    0.021989
  28 C :   -0.075419
  29 H :    0.025466
  30 H :    0.029627
  31 H :    0.034376
  32 H :    0.019270
  33 H :    0.023352

  Mayer bond orders larger than 0.100000
B(  0-S ,  1-C ) :   1.1663 B(  0-S ,  4-C ) :   1.1525 B(  1-C ,  2-C ) :   1.5794
B(  1-C , 32-H ) :   0.9674 B(  2-C ,  3-C ) :   1.2841 B(  2-C ,  6-C ) :   1.0265
B(  3-C ,  4-C ) :   1.5433 B(  3-C ,  5-H ) :   1.0014 B(  4-C , 20-C ) :   1.0357
B(  6-C ,  7-H ) :   0.9427 B(  6-C ,  8-H ) :   0.9382 B(  6-C ,  9-C ) :   1.0603
B(  9-C , 10-H ) :   0.9590 B(  9-C , 11-H ) :   0.9601 B(  9-C , 12-C ) :   1.0634
B( 12-C , 13-H ) :   0.9782 B( 12-C , 14-H ) :   0.9741 B( 12-C , 15-H ) :   0.9778
B( 16-S , 17-C ) :   1.1567 B( 16-S , 20-C ) :   1.1417 B( 17-C , 18-C ) :   1.6236
B( 17-C , 33-H ) :   0.9674 B( 18-C , 19-C ) :   1.2079 B( 18-C , 21-H ) :   0.9821
B( 19-C , 20-C ) :   1.6301 B( 19-C , 22-C ) :   1.0350 B( 22-C , 23-H ) :   0.9359
B( 22-C , 24-H ) :   0.9305 B( 22-C , 25-C ) :   1.0722 B( 25-C , 26-H ) :   0.9608
B( 25-C , 27-H ) :   0.9532 B( 25-C , 28-C ) :   1.0613 B( 28-C , 29-H ) :   0.9767
B( 28-C , 30-H ) :   0.9759 B( 28-C , 31-H ) :   0.9766

Dispersion correction           -0.014860284
FINAL SINGLE POINT ENERGY     -1339.878643831918

DIPOLE MOMENT
-------------
                                X             Y             Z
Electronic contribution:    -13.57928       7.75818      -9.09156
Nuclear contribution   :     14.06544      -8.06826       9.19196
                        -----------------------------------------
Total Dipole Moment    :      0.48616      -0.31008       0.10041
                        -----------------------------------------
Magnitude (a.u.)       :      0.58531
Magnitude (Debye)      :      1.48774

Rotational constants in cm-1:     0.020296     0.008333     0.007618
Rotational constants in MHz :   608.461276   249.821928   228.372244

                             ****ORCA TERMINATED NORMALLY****
TOTAL RUN TIME: 0 days 0 hours 0 minutes 35 seconds 876 msec
