                         Program Version 4.2.1 -  RELEASE  -
|  1> ! wB97X-D3 SP def2-SVP
|  2> %pal
|  3> nprocs 16
|  4> end
|  5>
|  6> * xyz 0 1
|  7> S 	 -33.1463 	 58.2624 	 107.104
|  8> C 	 -31.4478 	 58.0968 	 107.131
|  9> C 	 -30.977 	 57.809 	 108.402
| 10> C 	 -32.0666 	 57.7757 	 109.372
| 11> C 	 -33.3471 	 58.0652 	 108.784
| 12> H 	 -31.9353 	 57.6098 	 110.434
| 13> C 	 -29.5523 	 57.4762 	 108.652
| 14> H 	 -29.0969 	 58.2144 	 109.402
| 15> H 	 -29.0498 	 57.564 	 107.774
| 16> C 	 -29.3374 	 56.0661 	 109.093
| 17> H 	 -29.6146 	 56.0471 	 110.178
| 18> H 	 -29.935 	 55.4005 	 108.582
| 19> C 	 -27.9233 	 55.5326 	 108.873
| 20> H 	 -27.6815 	 55.3785 	 107.85
| 21> H 	 -27.1193 	 56.2427 	 109.227
| 22> H 	 -27.7483 	 54.6161 	 109.512
| 23> S 	 -35.631 	 59.5379 	 109.252
| 24> C 	 -36.6808 	 58.9943 	 110.521
| 25> C 	 -36.4043 	 57.7246 	 110.977
| 26> C 	 -35.1543 	 57.25 	 110.501
| 27> C 	 -34.6024 	 58.106 	 109.511
| 28> H 	 -37.0872 	 57.2706 	 111.636
| 29> C 	 -34.5453 	 55.9579 	 110.873
| 30> H 	 -35.0682 	 55.5993 	 111.66
| 31> H 	 -33.4895 	 56.1568 	 111.196
| 32> C 	 -34.6603 	 54.8195 	 109.855
| 33> H 	 -34.1546 	 55.2323 	 108.957
| 34> H 	 -35.7035 	 54.6397 	 109.51
| 35> C 	 -34.068 	 53.4646 	 110.301
| 36> H 	 -33.0152 	 53.5489 	 110.523
| 37> H 	 -34.1986 	 52.8892 	 109.392
| 38> H 	 -34.5466 	 53.0103 	 111.147
| 39> H 	 -30.8016 	 58.3903 	 106.372
| 40> H 	 -37.6175 	 59.4455 	 110.755
| 41> *
| 42>
| 43>                          ****END OF INPUT****

CARTESIAN COORDINATES (ANGSTROEM)
---------------------------------
  S    -33.146300   58.262400  107.104000
  C    -31.447800   58.096800  107.131000
  C    -30.977000   57.809000  108.402000
  C    -32.066600   57.775700  109.372000
  C    -33.347100   58.065200  108.784000
  H    -31.935300   57.609800  110.434000
  C    -29.552300   57.476200  108.652000
  H    -29.096900   58.214400  109.402000
  H    -29.049800   57.564000  107.774000
  C    -29.337400   56.066100  109.093000
  H    -29.614600   56.047100  110.178000
  H    -29.935000   55.400500  108.582000
  C    -27.923300   55.532600  108.873000
  H    -27.681500   55.378500  107.850000
  H    -27.119300   56.242700  109.227000
  H    -27.748300   54.616100  109.512000
  S    -35.631000   59.537900  109.252000
  C    -36.680800   58.994300  110.521000
  C    -36.404300   57.724600  110.977000
  C    -35.154300   57.250000  110.501000
  C    -34.602400   58.106000  109.511000
  H    -37.087200   57.270600  111.636000
  C    -34.545300   55.957900  110.873000
  H    -35.068200   55.599300  111.660000
  H    -33.489500   56.156800  111.196000
  C    -34.660300   54.819500  109.855000
  H    -34.154600   55.232300  108.957000
  H    -35.703500   54.639700  109.510000
  C    -34.068000   53.464600  110.301000
  H    -33.015200   53.548900  110.523000
  H    -34.198600   52.889200  109.392000
  H    -34.546600   53.010300  111.147000
  H    -30.801600   58.390300  106.372000
  H    -37.617500   59.445500  110.755000

 Total Charge           Charge          ....    0
 Multiplicity           Mult            ....    1
 Number of Electrons    NEL             ....  134
 Basis Dimension        Dim             ....  322

ORBITAL ENERGIES
----------------

  NO   OCC          E(Eh)            E(eV)
   0   2.0000     -88.967439     -2420.9271
   1   2.0000     -88.967064     -2420.9169
   2   2.0000     -10.331428      -281.1324
   3   2.0000     -10.328848      -281.0622
   4   2.0000     -10.313090      -280.6335
   5   2.0000     -10.305100      -280.4160
   6   2.0000     -10.304028      -280.3869
   7   2.0000     -10.300470      -280.2900
   8   2.0000     -10.298615      -280.2396
   9   2.0000     -10.290933      -280.0305
  10   2.0000     -10.285936      -279.8945
  11   2.0000     -10.284452      -279.8542
  12   2.0000     -10.282834      -279.8101
  13   2.0000     -10.279978      -279.7324
  14   2.0000     -10.279908      -279.7305
  15   2.0000     -10.274624      -279.5867
  16   2.0000      -8.082997      -219.9495
  17   2.0000      -8.081912      -219.9200
  18   2.0000      -6.041368      -164.3940
  19   2.0000      -6.040259      -164.3638
  20   2.0000      -6.037151      -164.2792
  21   2.0000      -6.036536      -164.2625
  22   2.0000      -6.034030      -164.1943
  23   2.0000      -6.032791      -164.1606
  24   2.0000      -1.007107       -27.4048
  25   2.0000      -0.985790       -26.8247
  26   2.0000      -0.923248       -25.1229
  27   2.0000      -0.911490       -24.8029
  28   2.0000      -0.871495       -23.7146
  29   2.0000      -0.853078       -23.2134
  30   2.0000      -0.846674       -23.0392
  31   2.0000      -0.814036       -22.1511
  32   2.0000      -0.785628       -21.3780
  33   2.0000      -0.772633       -21.0244
  34   2.0000      -0.712701       -19.3936
  35   2.0000      -0.697894       -18.9907
  36   2.0000      -0.689215       -18.7545
  37   2.0000      -0.664833       -18.0910
  38   2.0000      -0.642686       -17.4884
  39   2.0000      -0.620664       -16.8891
  40   2.0000      -0.595590       -16.2068
  41   2.0000      -0.578710       -15.7475
  42   2.0000      -0.573277       -15.5997
  43   2.0000      -0.561359       -15.2753
  44   2.0000      -0.530034       -14.4230
  45   2.0000      -0.521836       -14.1999
  46   2.0000      -0.518814       -14.1177
  47   2.0000      -0.513321       -13.9682
  48   2.0000      -0.508927       -13.8486
  49   2.0000      -0.500302       -13.6139
  50   2.0000      -0.493098       -13.4179
  51   2.0000      -0.487027       -13.2527
  52   2.0000      -0.472631       -12.8609
  53   2.0000      -0.468413       -12.7462
  54   2.0000      -0.458716       -12.4823
  55   2.0000      -0.451430       -12.2840
  56   2.0000      -0.444367       -12.0918
  57   2.0000      -0.436269       -11.8715
  58   2.0000      -0.430530       -11.7153
  59   2.0000      -0.429592       -11.6898
  60   2.0000      -0.424103       -11.5404
  61   2.0000      -0.413562       -11.2536
  62   2.0000      -0.408284       -11.1100
  63   2.0000      -0.344711        -9.3801
  64   2.0000      -0.331801        -9.0288
  65   2.0000      -0.327213        -8.9039
  66   2.0000      -0.287089        -7.8121
  67   0.0000       0.024951         0.6790
  68   0.0000       0.072597         1.9755
  69   0.0000       0.117867         3.2073
  70   0.0000       0.118897         3.2354
  71   0.0000       0.126877         3.4525

MULLIKEN ATOMIC CHARGES
-----------------------
   0 S :    0.128217
   1 C :   -0.099059
   2 C :   -0.124573
   3 C :    0.017112
   4 C :   -0.150348
   5 H :    0.016118
   6 C :    0.122878
   7 H :    0.045841
   8 H :   -0.027302
   9 C :   -0.056568
  10 H :    0.030112
  11 H :    0.017748
  12 C :   -0.074905
  13 H :    0.033158
  14 H :    0.025270
  15 H :    0.045138
  16 S :    0.113868
  17 C :   -0.071482
  18 C :   -0.031323
  19 C :   -0.039186
  20 C :   -0.170987
  21 H :    0.002886
  22 C :    0.142648
  23 H :   -0.028999
  24 H :    0.027002
  25 C :   -0.115796
  26 H :    0.035229
  27 H :    0.029530
  28 C :   -0.017746
  29 H :    0.027124
  30 H :    0.038740
  31 H :    0.032584
  32 H :    0.031752
  33 H :    0.045319
Sum of atomic charges:   -0.0000000

LOEWDIN ATOMIC CHARGES
----------------------
   0 S :    0.447646
   1 C :   -0.214322
   2 C :   -0.054710
   3 C :   -0.066761
   4 C :   -0.217196
   5 H :    0.025879
   6 C :   -0.030204
   7 H :    0.041823
   8 H :    0.012595
   9 C :   -0.036497
  10 H :    0.027632
  11 H :    0.016440
  12 C :   -0.069333
  13 H :    0.018945
  14 H :    0.026632
  15 H :    0.035727
  16 S :    0.406006
  17 C :   -0.182108
  18 C :   -0.064192
  19 C :   -0.043116
  20 C :   -0.195131
  21 H :    0.026740
  22 C :   -0.034574
  23 H :    0.011879
  24 H :    0.037394
  25 C :   -0.038269
  26 H :    0.026376
  27 H :    0.026953
  28 C :   -0.060376
  29 H :    0.023249
  30 H :    0.032824
  31 H :    0.021648
  32 H :    0.017775
  33 H :    0.022628

  Mayer bond orders larger than 0.100000
B(  0-S ,  1-C ) :   1.1493 B(  0-S ,  4-C ) :   1.1859 B(  1-C ,  2-C ) :   1.5831
B(  1-C , 32-H ) :   0.9694 B(  2-C ,  3-C ) :   1.2676 B(  2-C ,  6-C ) :   1.0511
B(  3-C ,  4-C ) :   1.5041 B(  3-C ,  5-H ) :   0.9941 B(  4-C , 20-C ) :   1.0625
B(  6-C ,  7-H ) :   0.9238 B(  6-C ,  8-H ) :   0.9284 B(  6-C ,  9-C ) :   1.0697
B(  9-C , 10-H ) :   0.9506 B(  9-C , 11-H ) :   0.9549 B(  9-C , 12-C ) :   1.0909
B( 12-C , 13-H ) :   0.9752 B( 12-C , 14-H ) :   0.9728 B( 12-C , 15-H ) :   0.9737
B( 16-S , 17-C ) :   1.1665 B( 16-S , 20-C ) :   1.1423 B( 17-C , 18-C ) :   1.6086
B( 17-C , 20-C ) :   0.1063 B( 17-C , 33-H ) :   0.9627 B( 18-C , 19-C ) :   1.2497
B( 18-C , 21-H ) :   0.9973 B( 19-C , 20-C ) :   1.5462 B( 19-C , 22-C ) :   1.0643
B( 22-C , 23-H ) :   0.9069 B( 22-C , 24-H ) :   0.9209 B( 22-C , 25-C ) :   1.0629
B( 25-C , 26-H ) :   0.9564 B( 25-C , 27-H ) :   0.9537 B( 25-C , 28-C ) :   1.0786
B( 28-C , 29-H ) :   0.9739 B( 28-C , 30-H ) :   0.9737 B( 28-C , 31-H ) :   0.9757

Dispersion correction           -0.014369008
FINAL SINGLE POINT ENERGY     -1339.867209429280

DIPOLE MOMENT
-------------
                                X             Y             Z
Electronic contribution:    -18.89604      23.46842      -8.28546
Nuclear contribution   :     19.11499     -23.91810       8.60201
                        -----------------------------------------
Total Dipole Moment    :      0.21895      -0.44968       0.31654
                        -----------------------------------------
Magnitude (a.u.)       :      0.59190
Magnitude (Debye)      :      1.50450

Rotational constants in cm-1:     0.019034     0.008839     0.006799
Rotational constants in MHz :   570.614894   265.000212   203.815274

                             ****ORCA TERMINATED NORMALLY****
TOTAL RUN TIME: 0 days 0 hours 0 minutes 31 seconds 273 msec
