                         Program Version 4.2.1 -  RELEASE  -
|  1> ! wB97X-D3 SP def2-SVP
|  2> %pal
|  3> nprocs 16
|  4> end
|  5>
|  6> * xyz 0 1
|  7> S 	 -23.5809 	 30.9839 	 41.7383
|  8> C 	 -22.4872 	 30.9777 	 43.1464
|  9> C 	 -21.6911 	 32.1065 	 43.1738
| 10> C 	 -21.8573 	 32.8633 	 41.9796
| 11> C 	 -22.7597 	 32.3613 	 41.0888
| 12> H 	 -21.3485 	 33.7888 	 41.7609
| 13> C 	 -20.5572 	 32.4034 	 44.1834
| 14> H 	 -20.3698 	 31.5141 	 44.7726
| 15> H 	 -20.9591 	 33.1935 	 44.7921
| 16> C 	 -19.2656 	 32.7669 	 43.502
| 17> H 	 -19.1177 	 32.0295 	 42.6863
| 18> H 	 -19.2315 	 33.7693 	 43.0942
| 19> C 	 -18.1643 	 32.6926 	 44.6171
| 20> H 	 -18.1569 	 31.7294 	 45.1195
| 21> H 	 -17.1617 	 32.8275 	 44.1914
| 22> H 	 -18.3525 	 33.4254 	 45.4133
| 23> S 	 -24.798 	 33.5906 	 39.6065
| 24> C 	 -24.4872 	 34.227 	 38.0236
| 25> C 	 -23.1683 	 34.0991 	 37.7666
| 26> C 	 -22.3735 	 33.4421 	 38.781
| 27> C 	 -23.1512 	 33.0365 	 39.864
| 28> H 	 -22.8362 	 34.3462 	 36.7627
| 29> C 	 -20.9123 	 33.1974 	 38.4823
| 30> H 	 -20.717 	 33.2855 	 37.4308
| 31> H 	 -20.471 	 32.2835 	 38.8406
| 32> C 	 -20.0901 	 34.3058 	 39.0158
| 33> H 	 -20.1669 	 34.3574 	 40.1186
| 34> H 	 -20.4946 	 35.2448 	 38.6991
| 35> C 	 -18.6561 	 34.3064 	 38.4627
| 36> H 	 -17.9858 	 35.0329 	 38.9892
| 37> H 	 -18.5991 	 34.3729 	 37.3753
| 38> H 	 -18.162 	 33.3104 	 38.7636
| 39> H 	 -22.4928 	 30.217 	 43.8909
| 40> H 	 -25.3048 	 34.5751 	 37.377
| 41> *
| 42>
| 43>                          ****END OF INPUT****

CARTESIAN COORDINATES (ANGSTROEM)
---------------------------------
  S    -23.580900   30.983900   41.738300
  C    -22.487200   30.977700   43.146400
  C    -21.691100   32.106500   43.173800
  C    -21.857300   32.863300   41.979600
  C    -22.759700   32.361300   41.088800
  H    -21.348500   33.788800   41.760900
  C    -20.557200   32.403400   44.183400
  H    -20.369800   31.514100   44.772600
  H    -20.959100   33.193500   44.792100
  C    -19.265600   32.766900   43.502000
  H    -19.117700   32.029500   42.686300
  H    -19.231500   33.769300   43.094200
  C    -18.164300   32.692600   44.617100
  H    -18.156900   31.729400   45.119500
  H    -17.161700   32.827500   44.191400
  H    -18.352500   33.425400   45.413300
  S    -24.798000   33.590600   39.606500
  C    -24.487200   34.227000   38.023600
  C    -23.168300   34.099100   37.766600
  C    -22.373500   33.442100   38.781000
  C    -23.151200   33.036500   39.864000
  H    -22.836200   34.346200   36.762700
  C    -20.912300   33.197400   38.482300
  H    -20.717000   33.285500   37.430800
  H    -20.471000   32.283500   38.840600
  C    -20.090100   34.305800   39.015800
  H    -20.166900   34.357400   40.118600
  H    -20.494600   35.244800   38.699100
  C    -18.656100   34.306400   38.462700
  H    -17.985800   35.032900   38.989200
  H    -18.599100   34.372900   37.375300
  H    -18.162000   33.310400   38.763600
  H    -22.492800   30.217000   43.890900
  H    -25.304800   34.575100   37.377000

 Total Charge           Charge          ....    0
 Multiplicity           Mult            ....    1
 Number of Electrons    NEL             ....  134
 Basis Dimension        Dim             ....  322

ORBITAL ENERGIES
----------------

  NO   OCC          E(Eh)            E(eV)
   0   2.0000     -88.966325     -2420.8968
   1   2.0000     -88.959119     -2420.7007
   2   2.0000     -10.327662      -281.0300
   3   2.0000     -10.325931      -280.9829
   4   2.0000     -10.315468      -280.6982
   5   2.0000     -10.315354      -280.6950
   6   2.0000     -10.304973      -280.4126
   7   2.0000     -10.301386      -280.3150
   8   2.0000     -10.292796      -280.0812
   9   2.0000     -10.291427      -280.0440
  10   2.0000     -10.290999      -280.0323
  11   2.0000     -10.290263      -280.0123
  12   2.0000     -10.287615      -279.9402
  13   2.0000     -10.283916      -279.8396
  14   2.0000     -10.282950      -279.8133
  15   2.0000     -10.279894      -279.7301
  16   2.0000      -8.080963      -219.8942
  17   2.0000      -8.074489      -219.7180
  18   2.0000      -6.039454      -164.3419
  19   2.0000      -6.035573      -164.2363
  20   2.0000      -6.033043      -164.1675
  21   2.0000      -6.031650      -164.1295
  22   2.0000      -6.028785      -164.0516
  23   2.0000      -6.025276      -163.9561
  24   2.0000      -1.008449       -27.4413
  25   2.0000      -0.986360       -26.8402
  26   2.0000      -0.920614       -25.0512
  27   2.0000      -0.917468       -24.9656
  28   2.0000      -0.872077       -23.7304
  29   2.0000      -0.847695       -23.0669
  30   2.0000      -0.842143       -22.9159
  31   2.0000      -0.814731       -22.1699
  32   2.0000      -0.780836       -21.2476
  33   2.0000      -0.772871       -21.0309
  34   2.0000      -0.711229       -19.3535
  35   2.0000      -0.698669       -19.0118
  36   2.0000      -0.691055       -18.8046
  37   2.0000      -0.659824       -17.9547
  38   2.0000      -0.643632       -17.5141
  39   2.0000      -0.623817       -16.9749
  40   2.0000      -0.605338       -16.4721
  41   2.0000      -0.579028       -15.7562
  42   2.0000      -0.572174       -15.5696
  43   2.0000      -0.564867       -15.3708
  44   2.0000      -0.526816       -14.3354
  45   2.0000      -0.521623       -14.1941
  46   2.0000      -0.514696       -14.0056
  47   2.0000      -0.511284       -13.9128
  48   2.0000      -0.508530       -13.8378
  49   2.0000      -0.499665       -13.5966
  50   2.0000      -0.492466       -13.4007
  51   2.0000      -0.479431       -13.0460
  52   2.0000      -0.472086       -12.8461
  53   2.0000      -0.467087       -12.7101
  54   2.0000      -0.461057       -12.5460
  55   2.0000      -0.445765       -12.1299
  56   2.0000      -0.444849       -12.1050
  57   2.0000      -0.443056       -12.0562
  58   2.0000      -0.433439       -11.7945
  59   2.0000      -0.432428       -11.7670
  60   2.0000      -0.416468       -11.3327
  61   2.0000      -0.414149       -11.2696
  62   2.0000      -0.412390       -11.2217
  63   2.0000      -0.346570        -9.4306
  64   2.0000      -0.332645        -9.0517
  65   2.0000      -0.325651        -8.8614
  66   2.0000      -0.298504        -8.1227
  67   0.0000       0.034040         0.9263
  68   0.0000       0.072893         1.9835
  69   0.0000       0.117736         3.2037
  70   0.0000       0.127059         3.4574
  71   0.0000       0.131018         3.5652

MULLIKEN ATOMIC CHARGES
-----------------------
   0 S :    0.110678
   1 C :   -0.124313
   2 C :   -0.076014
   3 C :    0.016081
   4 C :   -0.143201
   5 H :    0.009178
   6 C :    0.087433
   7 H :    0.016923
   8 H :    0.039607
   9 C :   -0.100676
  10 H :    0.047424
  11 H :    0.038182
  12 C :   -0.051200
  13 H :    0.026132
  14 H :    0.036891
  15 H :    0.033452
  16 S :    0.091398
  17 C :   -0.105155
  18 C :   -0.028988
  19 C :   -0.036920
  20 C :   -0.152229
  21 H :    0.018192
  22 C :    0.129163
  23 H :    0.000932
  24 H :    0.023825
  25 C :   -0.087829
  26 H :    0.017128
  27 H :    0.013705
  28 C :   -0.066730
  29 H :    0.042363
  30 H :    0.042697
  31 H :    0.024677
  32 H :    0.034517
  33 H :    0.072678
Sum of atomic charges:   -0.0000000

LOEWDIN ATOMIC CHARGES
----------------------
   0 S :    0.400782
   1 C :   -0.180565
   2 C :   -0.060297
   3 C :   -0.059191
   4 C :   -0.200014
   5 H :    0.026882
   6 C :   -0.025377
   7 H :    0.029113
   8 H :    0.033081
   9 C :   -0.040217
  10 H :    0.030976
  11 H :    0.023044
  12 C :   -0.064396
  13 H :    0.021710
  14 H :    0.025724
  15 H :    0.027527
  16 S :    0.399440
  17 C :   -0.190137
  18 C :   -0.076466
  19 C :   -0.050674
  20 C :   -0.196728
  21 H :    0.030328
  22 C :   -0.026003
  23 H :    0.028590
  24 H :    0.029079
  25 C :   -0.044398
  26 H :    0.019684
  27 H :    0.018385
  28 C :   -0.072855
  29 H :    0.031661
  30 H :    0.024624
  31 H :    0.027840
  32 H :    0.020106
  33 H :    0.038742

  Mayer bond orders larger than 0.100000
B(  0-S ,  1-C ) :   1.1312 B(  0-S ,  4-C ) :   1.1442 B(  1-C ,  2-C ) :   1.6231
B(  1-C , 32-H ) :   0.9728 B(  2-C ,  3-C ) :   1.2342 B(  2-C ,  6-C ) :   1.0075
B(  3-C ,  4-C ) :   1.5854 B(  3-C ,  5-H ) :   0.9893 B(  4-C , 20-C ) :   1.0358
B(  6-C ,  7-H ) :   0.9528 B(  6-C ,  8-H ) :   0.9236 B(  6-C ,  9-C ) :   1.0763
B(  9-C , 10-H ) :   0.9611 B(  9-C , 11-H ) :   0.9446 B(  9-C , 12-C ) :   1.0793
B( 12-C , 13-H ) :   0.9773 B( 12-C , 14-H ) :   0.9752 B( 12-C , 15-H ) :   0.9740
B( 16-S , 17-C ) :   1.1501 B( 16-S , 20-C ) :   1.1413 B( 17-C , 18-C ) :   1.6144
B( 17-C , 33-H ) :   0.9668 B( 18-C , 19-C ) :   1.2363 B( 18-C , 21-H ) :   0.9873
B( 19-C , 20-C ) :   1.5985 B( 19-C , 22-C ) :   1.0535 B( 22-C , 23-H ) :   0.9287
B( 22-C , 24-H ) :   0.9326 B( 22-C , 25-C ) :   1.0623 B( 25-C , 26-H ) :   0.9459
B( 25-C , 27-H ) :   0.9502 B( 25-C , 28-C ) :   1.0822 B( 28-C , 29-H ) :   0.9727
B( 28-C , 30-H ) :   0.9731 B( 28-C , 31-H ) :   0.9707

Dispersion correction           -0.014386320
FINAL SINGLE POINT ENERGY     -1339.887935794056

DIPOLE MOMENT
-------------
                                X             Y             Z
Electronic contribution:    -31.79327      -6.89596      -4.73492
Nuclear contribution   :     32.45557       7.09426       4.78359
                        -----------------------------------------
Total Dipole Moment    :      0.66230       0.19829       0.04866
                        -----------------------------------------
Magnitude (a.u.)       :      0.69306
Magnitude (Debye)      :      1.76161

Rotational constants in cm-1:     0.017118     0.009743     0.006707
Rotational constants in MHz :   513.187938   292.074618   201.058735

                             ****ORCA TERMINATED NORMALLY****
TOTAL RUN TIME: 0 days 0 hours 0 minutes 35 seconds 675 msec
