                         Program Version 4.2.1 -  RELEASE  -
|  1> ! wB97X-D3 SP def2-SVP
|  2> %pal
|  3> nprocs 16
|  4> end
|  5>
|  6> * xyz 0 1
|  7> S 	 -66.4998 	 48.8593 	 123.617
|  8> C 	 -66.8759 	 49.7485 	 125.042
|  9> C 	 -67.9921 	 49.2986 	 125.634
| 10> C 	 -68.5672 	 48.1851 	 124.913
| 11> C 	 -67.8418 	 47.71 	 123.852
| 12> H 	 -69.3993 	 47.5764 	 125.219
| 13> C 	 -68.4064 	 49.6553 	 127.011
| 14> H 	 -69.2043 	 49.002 	 127.369
| 15> H 	 -68.8294 	 50.6788 	 127.146
| 16> C 	 -67.2428 	 49.5 	 128.005
| 17> H 	 -66.939 	 48.4778 	 127.942
| 18> H 	 -66.3711 	 50.0702 	 127.749
| 19> C 	 -67.4627 	 49.9264 	 129.482
| 20> H 	 -68.426 	 49.5641 	 129.942
| 21> H 	 -66.752 	 49.7147 	 130.212
| 22> H 	 -67.5761 	 51.03 	 129.546
| 23> S 	 -66.4151 	 45.9086 	 122.494
| 24> C 	 -67.1978 	 44.3478 	 122.075
| 25> C 	 -68.5223 	 44.2712 	 122.501
| 26> C 	 -68.9223 	 45.5312 	 123.012
| 27> C 	 -67.9202 	 46.5223 	 123.03
| 28> H 	 -69.0649 	 43.3461 	 122.389
| 29> C 	 -70.3602 	 45.769 	 123.471
| 30> H 	 -70.9573 	 45.4385 	 122.626
| 31> H 	 -70.5619 	 46.8447 	 123.517
| 32> C 	 -70.8181 	 45.1622 	 124.815
| 33> H 	 -70.3416 	 45.6254 	 125.623
| 34> H 	 -70.511 	 44.1383 	 124.857
| 35> C 	 -72.3631 	 45.2009 	 124.911
| 36> H 	 -72.6168 	 46.217 	 125.204
| 37> H 	 -72.7265 	 44.527 	 125.635
| 38> H 	 -72.8043 	 44.9372 	 123.993
| 39> H 	 -66.1799 	 50.4721 	 125.51
| 40> H 	 -66.59 	 43.5445 	 121.651
| 41> *
| 42>
| 43>                          ****END OF INPUT****

CARTESIAN COORDINATES (ANGSTROEM)
---------------------------------
  S    -66.499800   48.859300  123.617000
  C    -66.875900   49.748500  125.042000
  C    -67.992100   49.298600  125.634000
  C    -68.567200   48.185100  124.913000
  C    -67.841800   47.710000  123.852000
  H    -69.399300   47.576400  125.219000
  C    -68.406400   49.655300  127.011000
  H    -69.204300   49.002000  127.369000
  H    -68.829400   50.678800  127.146000
  C    -67.242800   49.500000  128.005000
  H    -66.939000   48.477800  127.942000
  H    -66.371100   50.070200  127.749000
  C    -67.462700   49.926400  129.482000
  H    -68.426000   49.564100  129.942000
  H    -66.752000   49.714700  130.212000
  H    -67.576100   51.030000  129.546000
  S    -66.415100   45.908600  122.494000
  C    -67.197800   44.347800  122.075000
  C    -68.522300   44.271200  122.501000
  C    -68.922300   45.531200  123.012000
  C    -67.920200   46.522300  123.030000
  H    -69.064900   43.346100  122.389000
  C    -70.360200   45.769000  123.471000
  H    -70.957300   45.438500  122.626000
  H    -70.561900   46.844700  123.517000
  C    -70.818100   45.162200  124.815000
  H    -70.341600   45.625400  125.623000
  H    -70.511000   44.138300  124.857000
  C    -72.363100   45.200900  124.911000
  H    -72.616800   46.217000  125.204000
  H    -72.726500   44.527000  125.635000
  H    -72.804300   44.937200  123.993000
  H    -66.179900   50.472100  125.510000
  H    -66.590000   43.544500  121.651000

 Total Charge           Charge          ....    0
 Multiplicity           Mult            ....    1
 Number of Electrons    NEL             ....  134
 Basis Dimension        Dim             ....  322

ORBITAL ENERGIES
----------------

  NO   OCC          E(Eh)            E(eV)
   0   2.0000     -88.968465     -2420.9550
   1   2.0000     -88.958892     -2420.6945
   2   2.0000     -10.331296      -281.1289
   3   2.0000     -10.327249      -281.0187
   4   2.0000     -10.326099      -280.9875
   5   2.0000     -10.309006      -280.5223
   6   2.0000     -10.308247      -280.5017
   7   2.0000     -10.301804      -280.3263
   8   2.0000     -10.296440      -280.1804
   9   2.0000     -10.293729      -280.1066
  10   2.0000     -10.291982      -280.0591
  11   2.0000     -10.291769      -280.0533
  12   2.0000     -10.284682      -279.8604
  13   2.0000     -10.284018      -279.8424
  14   2.0000     -10.279625      -279.7228
  15   2.0000     -10.273696      -279.5615
  16   2.0000      -8.083380      -219.9600
  17   2.0000      -8.074207      -219.7103
  18   2.0000      -6.041765      -164.4048
  19   2.0000      -6.037925      -164.3003
  20   2.0000      -6.034165      -164.1980
  21   2.0000      -6.032840      -164.1619
  22   2.0000      -6.028630      -164.0474
  23   2.0000      -6.024807      -163.9433
  24   2.0000      -1.011556       -27.5258
  25   2.0000      -0.987240       -26.8642
  26   2.0000      -0.914359       -24.8810
  27   2.0000      -0.910231       -24.7687
  28   2.0000      -0.874339       -23.7920
  29   2.0000      -0.855912       -23.2906
  30   2.0000      -0.844131       -22.9700
  31   2.0000      -0.819146       -22.2901
  32   2.0000      -0.782779       -21.3005
  33   2.0000      -0.771038       -20.9810
  34   2.0000      -0.713206       -19.4073
  35   2.0000      -0.709014       -19.2933
  36   2.0000      -0.696710       -18.9584
  37   2.0000      -0.672194       -18.2913
  38   2.0000      -0.639086       -17.3904
  39   2.0000      -0.619357       -16.8536
  40   2.0000      -0.597798       -16.2669
  41   2.0000      -0.575604       -15.6630
  42   2.0000      -0.570577       -15.5262
  43   2.0000      -0.560315       -15.2469
  44   2.0000      -0.528762       -14.3883
  45   2.0000      -0.528285       -14.3754
  46   2.0000      -0.519031       -14.1236
  47   2.0000      -0.512447       -13.9444
  48   2.0000      -0.511446       -13.9172
  49   2.0000      -0.497491       -13.5374
  50   2.0000      -0.494464       -13.4551
  51   2.0000      -0.479500       -13.0479
  52   2.0000      -0.473579       -12.8867
  53   2.0000      -0.464809       -12.6481
  54   2.0000      -0.458672       -12.4811
  55   2.0000      -0.454885       -12.3780
  56   2.0000      -0.448985       -12.2175
  57   2.0000      -0.446188       -12.1414
  58   2.0000      -0.430718       -11.7204
  59   2.0000      -0.424966       -11.5639
  60   2.0000      -0.422476       -11.4962
  61   2.0000      -0.418007       -11.3745
  62   2.0000      -0.409405       -11.1405
  63   2.0000      -0.364896        -9.9293
  64   2.0000      -0.337046        -9.1715
  65   2.0000      -0.324558        -8.8317
  66   2.0000      -0.283325        -7.7097
  67   0.0000       0.017945         0.4883
  68   0.0000       0.081781         2.2254
  69   0.0000       0.097580         2.6553
  70   0.0000       0.116043         3.1577
  71   0.0000       0.133223         3.6252

MULLIKEN ATOMIC CHARGES
-----------------------
   0 S :    0.075176
   1 C :   -0.129252
   2 C :   -0.050206
   3 C :    0.021755
   4 C :   -0.138049
   5 H :   -0.025265
   6 C :    0.076765
   7 H :    0.019497
   8 H :    0.035438
   9 C :   -0.082945
  10 H :    0.029874
  11 H :    0.023713
  12 C :   -0.055344
  13 H :    0.022621
  14 H :    0.026806
  15 H :    0.023754
  16 S :    0.092631
  17 C :   -0.110975
  18 C :   -0.002427
  19 C :   -0.081833
  20 C :   -0.051988
  21 H :    0.026234
  22 C :    0.005398
  23 H :    0.027015
  24 H :    0.026897
  25 C :   -0.035752
  26 H :    0.018880
  27 H :    0.011692
  28 C :   -0.001533
  29 H :    0.028715
  30 H :    0.024521
  31 H :    0.018920
  32 H :    0.063657
  33 H :    0.065610
Sum of atomic charges:    0.0000000

LOEWDIN ATOMIC CHARGES
----------------------
   0 S :    0.383032
   1 C :   -0.197554
   2 C :   -0.071318
   3 C :   -0.069763
   4 C :   -0.169937
   5 H :    0.024443
   6 C :   -0.031060
   7 H :    0.030225
   8 H :    0.034142
   9 C :   -0.036663
  10 H :    0.022980
  11 H :    0.019800
  12 C :   -0.072028
  13 H :    0.025518
  14 H :    0.018605
  15 H :    0.026819
  16 S :    0.411477
  17 C :   -0.164806
  18 C :   -0.064048
  19 C :   -0.051842
  20 C :   -0.215302
  21 H :    0.037625
  22 C :   -0.036595
  23 H :    0.031776
  24 H :    0.028812
  25 C :   -0.029533
  26 H :    0.013783
  27 H :    0.018195
  28 C :   -0.048618
  29 H :    0.026758
  30 H :    0.021083
  31 H :    0.018925
  32 H :    0.037039
  33 H :    0.028030

  Mayer bond orders larger than 0.100000
B(  0-S ,  1-C ) :   1.1329 B(  0-S ,  4-C ) :   1.1277 B(  1-C ,  2-C ) :   1.6352
B(  1-C , 32-H ) :   0.9615 B(  2-C ,  3-C ) :   1.2203 B(  2-C ,  6-C ) :   1.0333
B(  3-C ,  4-C ) :   1.6119 B(  3-C ,  5-H ) :   0.9866 B(  4-C , 20-C ) :   1.0558
B(  6-C ,  7-H ) :   0.9438 B(  6-C ,  8-H ) :   0.9318 B(  6-C ,  9-C ) :   1.0595
B(  9-C , 10-H ) :   0.9588 B(  9-C , 11-H ) :   0.9560 B(  9-C , 12-C ) :   1.0733
B( 12-C , 13-H ) :   0.9756 B( 12-C , 14-H ) :   0.9773 B( 12-C , 15-H ) :   0.9737
B( 16-S , 17-C ) :   1.1681 B( 16-S , 20-C ) :   1.1395 B( 17-C , 18-C ) :   1.5744
B( 17-C , 33-H ) :   0.9673 B( 18-C , 19-C ) :   1.2602 B( 18-C , 21-H ) :   0.9990
B( 19-C , 20-C ) :   1.5659 B( 19-C , 22-C ) :   1.0282 B( 22-C , 23-H ) :   0.9384
B( 22-C , 24-H ) :   0.9425 B( 22-C , 25-C ) :   1.0578 B( 25-C , 26-H ) :   0.9521
B( 25-C , 27-H ) :   0.9534 B( 25-C , 28-C ) :   1.0783 B( 28-C , 29-H ) :   0.9769
B( 28-C , 30-H ) :   0.9750 B( 28-C , 31-H ) :   0.9765

Dispersion correction           -0.013850043
FINAL SINGLE POINT ENERGY     -1339.872292250468

DIPOLE MOMENT
-------------
                                X             Y             Z
Electronic contribution:     18.50144      -1.03121     -23.79641
Nuclear contribution   :    -18.90118       0.57055      24.34482
                        -----------------------------------------
Total Dipole Moment    :     -0.39975      -0.46067       0.54841
                        -----------------------------------------
Magnitude (a.u.)       :      0.82022
Magnitude (Debye)      :      2.08484

Rotational constants in cm-1:     0.017240     0.008903     0.006482
Rotational constants in MHz :   516.835770   266.917375   194.325961

                             ****ORCA TERMINATED NORMALLY****
TOTAL RUN TIME: 0 days 0 hours 0 minutes 34 seconds 563 msec
