                         Program Version 4.2.1 -  RELEASE  -
|  1> ! wB97X-D3 SP def2-SVP
|  2> %pal
|  3> nprocs 16
|  4> end
|  5>
|  6> * xyz 0 1
|  7> S 	 -46.0659 	 33.0158 	 94.3161
|  8> C 	 -45.3558 	 32.2441 	 92.8763
|  9> C 	 -45.984 	 32.6565 	 91.782
| 10> C 	 -47.0635 	 33.5846 	 92.0511
| 11> C 	 -47.2572 	 33.8396 	 93.4023
| 12> H 	 -47.5703 	 34.2223 	 91.2572
| 13> C 	 -45.5679 	 32.3086 	 90.3349
| 14> H 	 -44.6055 	 31.7743 	 90.3342
| 15> H 	 -45.2307 	 33.2552 	 90.0384
| 16> C 	 -46.6117 	 31.595 	 89.4162
| 17> H 	 -46.7518 	 30.5939 	 89.8827
| 18> H 	 -47.5077 	 32.17 	 89.5943
| 19> C 	 -46.4344 	 31.3747 	 87.9103
| 20> H 	 -45.8116 	 30.4869 	 87.8034
| 21> H 	 -47.3912 	 31.3483 	 87.3577
| 22> H 	 -45.9525 	 32.2425 	 87.3663
| 23> S 	 -46.9526 	 36.2177 	 94.5251
| 24> C 	 -48.2241 	 37.2798 	 94.7412
| 25> C 	 -49.3973 	 36.7345 	 94.2196
| 26> C 	 -49.2486 	 35.4607 	 93.6028
| 27> C 	 -47.973 	 34.9492 	 93.926
| 28> H 	 -50.2977 	 37.3364 	 94.3073
| 29> C 	 -50.3313 	 34.7577 	 92.8512
| 30> H 	 -49.9607 	 34.4356 	 91.852
| 31> H 	 -51.2295 	 35.3841 	 92.633
| 32> C 	 -50.9251 	 33.5018 	 93.6069
| 33> H 	 -50.0663 	 32.8636 	 93.6826
| 34> H 	 -51.534 	 32.8908 	 92.9894
| 35> C 	 -51.5738 	 33.8027 	 94.9919
| 36> H 	 -51.9253 	 34.8713 	 95.0026
| 37> H 	 -50.7676 	 33.8044 	 95.7453
| 38> H 	 -52.3225 	 33.1093 	 95.1748
| 39> H 	 -44.4535 	 31.7429 	 92.9056
| 40> H 	 -48.2353 	 38.2393 	 95.2357
| 41> *
| 42>
| 43>                          ****END OF INPUT****

CARTESIAN COORDINATES (ANGSTROEM)
---------------------------------
  S    -46.065900   33.015800   94.316100
  C    -45.355800   32.244100   92.876300
  C    -45.984000   32.656500   91.782000
  C    -47.063500   33.584600   92.051100
  C    -47.257200   33.839600   93.402300
  H    -47.570300   34.222300   91.257200
  C    -45.567900   32.308600   90.334900
  H    -44.605500   31.774300   90.334200
  H    -45.230700   33.255200   90.038400
  C    -46.611700   31.595000   89.416200
  H    -46.751800   30.593900   89.882700
  H    -47.507700   32.170000   89.594300
  C    -46.434400   31.374700   87.910300
  H    -45.811600   30.486900   87.803400
  H    -47.391200   31.348300   87.357700
  H    -45.952500   32.242500   87.366300
  S    -46.952600   36.217700   94.525100
  C    -48.224100   37.279800   94.741200
  C    -49.397300   36.734500   94.219600
  C    -49.248600   35.460700   93.602800
  C    -47.973000   34.949200   93.926000
  H    -50.297700   37.336400   94.307300
  C    -50.331300   34.757700   92.851200
  H    -49.960700   34.435600   91.852000
  H    -51.229500   35.384100   92.633000
  C    -50.925100   33.501800   93.606900
  H    -50.066300   32.863600   93.682600
  H    -51.534000   32.890800   92.989400
  C    -51.573800   33.802700   94.991900
  H    -51.925300   34.871300   95.002600
  H    -50.767600   33.804400   95.745300
  H    -52.322500   33.109300   95.174800
  H    -44.453500   31.742900   92.905600
  H    -48.235300   38.239300   95.235700

 Total Charge           Charge          ....    0
 Multiplicity           Mult            ....    1
 Number of Electrons    NEL             ....  134
 Basis Dimension        Dim             ....  322

ORBITAL ENERGIES
----------------

  NO   OCC          E(Eh)            E(eV)
   0   2.0000     -88.966077     -2420.8900
   1   2.0000     -88.962358     -2420.7888
   2   2.0000     -10.325320      -280.9662
   3   2.0000     -10.322099      -280.8786
   4   2.0000     -10.310033      -280.5503
   5   2.0000     -10.306903      -280.4651
   6   2.0000     -10.306438      -280.4524
   7   2.0000     -10.301547      -280.3193
   8   2.0000     -10.299105      -280.2529
   9   2.0000     -10.297713      -280.2150
  10   2.0000     -10.292915      -280.0844
  11   2.0000     -10.291594      -280.0485
  12   2.0000     -10.291420      -280.0438
  13   2.0000     -10.287864      -279.9470
  14   2.0000     -10.278663      -279.6966
  15   2.0000     -10.274460      -279.5823
  16   2.0000      -8.082323      -219.9312
  17   2.0000      -8.077674      -219.8047
  18   2.0000      -6.040660      -164.3747
  19   2.0000      -6.036451      -164.2602
  20   2.0000      -6.036215      -164.2537
  21   2.0000      -6.033306      -164.1746
  22   2.0000      -6.032057      -164.1406
  23   2.0000      -6.028387      -164.0408
  24   2.0000      -1.017541       -27.6887
  25   2.0000      -0.990356       -26.9490
  26   2.0000      -0.908641       -24.7254
  27   2.0000      -0.905301       -24.6345
  28   2.0000      -0.875801       -23.8318
  29   2.0000      -0.848768       -23.0962
  30   2.0000      -0.842775       -22.9331
  31   2.0000      -0.811542       -22.0832
  32   2.0000      -0.786357       -21.3979
  33   2.0000      -0.777208       -21.1489
  34   2.0000      -0.714398       -19.4398
  35   2.0000      -0.700325       -19.0568
  36   2.0000      -0.691740       -18.8232
  37   2.0000      -0.660926       -17.9847
  38   2.0000      -0.641875       -17.4663
  39   2.0000      -0.618118       -16.8198
  40   2.0000      -0.591970       -16.1083
  41   2.0000      -0.566838       -15.4244
  42   2.0000      -0.561701       -15.2847
  43   2.0000      -0.552430       -15.0324
  44   2.0000      -0.544182       -14.8080
  45   2.0000      -0.521845       -14.2001
  46   2.0000      -0.517118       -14.0715
  47   2.0000      -0.511853       -13.9282
  48   2.0000      -0.506903       -13.7935
  49   2.0000      -0.501591       -13.6490
  50   2.0000      -0.488805       -13.3010
  51   2.0000      -0.487293       -13.2599
  52   2.0000      -0.470418       -12.8007
  53   2.0000      -0.468861       -12.7584
  54   2.0000      -0.460588       -12.5332
  55   2.0000      -0.451084       -12.2746
  56   2.0000      -0.441444       -12.0123
  57   2.0000      -0.434013       -11.8101
  58   2.0000      -0.428162       -11.6509
  59   2.0000      -0.424034       -11.5386
  60   2.0000      -0.416540       -11.3346
  61   2.0000      -0.414463       -11.2781
  62   2.0000      -0.404034       -10.9943
  63   2.0000      -0.345959        -9.4140
  64   2.0000      -0.332370        -9.0442
  65   2.0000      -0.327025        -8.8988
  66   2.0000      -0.293811        -7.9950
  67   0.0000       0.027189         0.7398
  68   0.0000       0.072319         1.9679
  69   0.0000       0.114561         3.1174
  70   0.0000       0.121279         3.3002
  71   0.0000       0.130461         3.5500

MULLIKEN ATOMIC CHARGES
-----------------------
   0 S :    0.084577
   1 C :   -0.102650
   2 C :   -0.089413
   3 C :   -0.008175
   4 C :   -0.141301
   5 H :    0.049222
   6 C :    0.095525
   7 H :    0.006804
   8 H :    0.014579
   9 C :   -0.081177
  10 H :    0.040270
  11 H :    0.021649
  12 C :   -0.057638
  13 H :    0.045249
  14 H :    0.045084
  15 H :    0.031784
  16 S :    0.133930
  17 C :   -0.083701
  18 C :   -0.059384
  19 C :   -0.018454
  20 C :   -0.152976
  21 H :    0.015357
  22 C :    0.032447
  23 H :    0.030634
  24 H :    0.030087
  25 C :   -0.073520
  26 H :    0.023331
  27 H :    0.012833
  28 C :   -0.026902
  29 H :    0.028341
  30 H :    0.044154
  31 H :    0.032784
  32 H :    0.022446
  33 H :    0.054203
Sum of atomic charges:    0.0000000

LOEWDIN ATOMIC CHARGES
----------------------
   0 S :    0.400628
   1 C :   -0.174085
   2 C :   -0.059016
   3 C :   -0.071781
   4 C :   -0.214689
   5 H :    0.041144
   6 C :   -0.029775
   7 H :    0.026280
   8 H :    0.024361
   9 C :   -0.046791
  10 H :    0.033018
  11 H :    0.020016
  12 C :   -0.073870
  13 H :    0.028028
  14 H :    0.035193
  15 H :    0.030413
  16 S :    0.462266
  17 C :   -0.217971
  18 C :   -0.075385
  19 C :   -0.051432
  20 C :   -0.213015
  21 H :    0.028668
  22 C :   -0.035838
  23 H :    0.033801
  24 H :    0.031845
  25 C :   -0.037784
  26 H :    0.020713
  27 H :    0.015827
  28 C :   -0.059870
  29 H :    0.029315
  30 H :    0.033509
  31 H :    0.017628
  32 H :    0.016068
  33 H :    0.032583

  Mayer bond orders larger than 0.100000
B(  0-S ,  1-C ) :   1.1100 B(  0-S ,  4-C ) :   1.1541 B(  1-C ,  2-C ) :   1.6567
B(  1-C , 32-H ) :   0.9790 B(  2-C ,  3-C ) :   1.2295 B(  2-C ,  6-C ) :   1.0042
B(  3-C ,  4-C ) :   1.5693 B(  3-C ,  5-H ) :   0.9731 B(  4-C , 20-C ) :   1.0433
B(  6-C ,  7-H ) :   0.9422 B(  6-C ,  8-H ) :   0.9326 B(  6-C ,  9-C ) :   1.0446
B(  9-C , 10-H ) :   0.9586 B(  9-C , 11-H ) :   0.9619 B(  9-C , 12-C ) :   1.0777
B( 12-C , 13-H ) :   0.9784 B( 12-C , 14-H ) :   0.9734 B( 12-C , 15-H ) :   0.9744
B( 16-S , 17-C ) :   1.1892 B( 16-S , 20-C ) :   1.1782 B( 17-C , 18-C ) :   1.5666
B( 17-C , 20-C ) :   0.1057 B( 17-C , 33-H ) :   0.9675 B( 18-C , 19-C ) :   1.2726
B( 18-C , 21-H ) :   0.9916 B( 19-C , 20-C ) :   1.5175 B( 19-C , 22-C ) :   1.0596
B( 22-C , 23-H ) :   0.9284 B( 22-C , 24-H ) :   0.9424 B( 22-C , 25-C ) :   1.0722
B( 25-C , 26-H ) :   0.9578 B( 25-C , 27-H ) :   0.9613 B( 25-C , 28-C ) :   1.0521
B( 28-C , 29-H ) :   0.9805 B( 28-C , 30-H ) :   0.9748 B( 28-C , 31-H ) :   0.9781

Dispersion correction           -0.014457161
FINAL SINGLE POINT ENERGY     -1339.856858535888

DIPOLE MOMENT
-------------
                                X             Y             Z
Electronic contribution:     13.04754      11.02752      18.64891
Nuclear contribution   :    -13.17964     -10.92526     -19.26644
                        -----------------------------------------
Total Dipole Moment    :     -0.13210       0.10226      -0.61753
                        -----------------------------------------
Magnitude (a.u.)       :      0.63973
Magnitude (Debye)      :      1.62607

Rotational constants in cm-1:     0.019026     0.008263     0.007043
Rotational constants in MHz :   570.392908   247.733227   211.152037

                             ****ORCA TERMINATED NORMALLY****
TOTAL RUN TIME: 0 days 0 hours 0 minutes 28 seconds 359 msec
