                         Program Version 4.2.1 -  RELEASE  -
|  1> ! wB97X-D3 SP def2-SVP
|  2> %pal
|  3> nprocs 16
|  4> end
|  5>
|  6> * xyz 0 1
|  7> S 	 -4.64307 	 -16.2379 	 69.8633
|  8> C 	 -4.9245 	 -17.0954 	 68.3502
|  9> C 	 -5.53131 	 -16.2571 	 67.4528
| 10> C 	 -5.55011 	 -14.8929 	 67.8552
| 11> C 	 -5.02148 	 -14.6955 	 69.1445
| 12> H 	 -5.84591 	 -14.0549 	 67.3017
| 13> C 	 -5.86142 	 -16.7669 	 66.0589
| 14> H 	 -5.19971 	 -17.6236 	 65.8164
| 15> H 	 -5.65099 	 -16.0854 	 65.2654
| 16> C 	 -7.36377 	 -17.2467 	 65.929
| 17> H 	 -7.47332 	 -17.5652 	 64.8499
| 18> H 	 -7.53762 	 -18.0065 	 66.6072
| 19> C 	 -8.52301 	 -16.2505 	 66.2895
| 20> H 	 -8.70907 	 -15.4159 	 65.6445
| 21> H 	 -9.47977 	 -16.8588 	 66.3418
| 22> H 	 -8.43139 	 -15.8201 	 67.2582
| 23> S 	 -5.84019 	 -13.5093 	 71.4557
| 24> C 	 -5.92815 	 -11.703 	 71.4533
| 25> C 	 -5.46158 	 -11.1485 	 70.323
| 26> C 	 -4.9094 	 -12.13 	 69.4521
| 27> C 	 -5.15765 	 -13.4256 	 69.8593
| 28> H 	 -5.37662 	 -10.1138 	 70.2649
| 29> C 	 -4.51171 	 -11.8724 	 68.0481
| 30> H 	 -5.34665 	 -12.0327 	 67.3099
| 31> H 	 -3.76637 	 -12.5917 	 67.8327
| 32> C 	 -4.01746 	 -10.5091 	 67.6753
| 33> H 	 -3.25322 	 -10.1382 	 68.3423
| 34> H 	 -4.79153 	 -9.73525 	 67.7825
| 35> C 	 -3.36361 	 -10.4837 	 66.2754
| 36> H 	 -2.51776 	 -11.1434 	 66.3225
| 37> H 	 -3.13199 	 -9.51145 	 66.0501
| 38> H 	 -4.00762 	 -10.8945 	 65.5555
| 39> H 	 -4.81249 	 -18.1541 	 68.203
| 40> H 	 -6.20389 	 -11.1704 	 72.3364
| 41> *
| 42>
| 43>                          ****END OF INPUT****

CARTESIAN COORDINATES (ANGSTROEM)
---------------------------------
  S     -4.643070  -16.237900   69.863300
  C     -4.924500  -17.095400   68.350200
  C     -5.531310  -16.257100   67.452800
  C     -5.550110  -14.892900   67.855200
  C     -5.021480  -14.695500   69.144500
  H     -5.845910  -14.054900   67.301700
  C     -5.861420  -16.766900   66.058900
  H     -5.199710  -17.623600   65.816400
  H     -5.650990  -16.085400   65.265400
  C     -7.363770  -17.246700   65.929000
  H     -7.473320  -17.565200   64.849900
  H     -7.537620  -18.006500   66.607200
  C     -8.523010  -16.250500   66.289500
  H     -8.709070  -15.415900   65.644500
  H     -9.479770  -16.858800   66.341800
  H     -8.431390  -15.820100   67.258200
  S     -5.840190  -13.509300   71.455700
  C     -5.928150  -11.703000   71.453300
  C     -5.461580  -11.148500   70.323000
  C     -4.909400  -12.130000   69.452100
  C     -5.157650  -13.425600   69.859300
  H     -5.376620  -10.113800   70.264900
  C     -4.511710  -11.872400   68.048100
  H     -5.346650  -12.032700   67.309900
  H     -3.766370  -12.591700   67.832700
  C     -4.017460  -10.509100   67.675300
  H     -3.253220  -10.138200   68.342300
  H     -4.791530   -9.735250   67.782500
  C     -3.363610  -10.483700   66.275400
  H     -2.517760  -11.143400   66.322500
  H     -3.131990   -9.511450   66.050100
  H     -4.007620  -10.894500   65.555500
  H     -4.812490  -18.154100   68.203000
  H     -6.203890  -11.170400   72.336400

 Total Charge           Charge          ....    0
 Multiplicity           Mult            ....    1
 Number of Electrons    NEL             ....  134
 Basis Dimension        Dim             ....  322

ORBITAL ENERGIES
----------------

  NO   OCC          E(Eh)            E(eV)
   0   2.0000     -88.968999     -2420.9695
   1   2.0000     -88.963263     -2420.8135
   2   2.0000     -10.331859      -281.1442
   3   2.0000     -10.325390      -280.9681
   4   2.0000     -10.315250      -280.6922
   5   2.0000     -10.314967      -280.6845
   6   2.0000     -10.301481      -280.3176
   7   2.0000     -10.296983      -280.1951
   8   2.0000     -10.294194      -280.1193
   9   2.0000     -10.293376      -280.0970
  10   2.0000     -10.290213      -280.0109
  11   2.0000     -10.288599      -279.9670
  12   2.0000     -10.284564      -279.8572
  13   2.0000     -10.281168      -279.7648
  14   2.0000     -10.276468      -279.6369
  15   2.0000     -10.266585      -279.3680
  16   2.0000      -8.083466      -219.9623
  17   2.0000      -8.077828      -219.8089
  18   2.0000      -6.041994      -164.4110
  19   2.0000      -6.037989      -164.3020
  20   2.0000      -6.036335      -164.2570
  21   2.0000      -6.034251      -164.2003
  22   2.0000      -6.032570      -164.1546
  23   2.0000      -6.028392      -164.0409
  24   2.0000      -1.009059       -27.4579
  25   2.0000      -0.985793       -26.8248
  26   2.0000      -0.915990       -24.9254
  27   2.0000      -0.904885       -24.6232
  28   2.0000      -0.872298       -23.7364
  29   2.0000      -0.855261       -23.2728
  30   2.0000      -0.843052       -22.9406
  31   2.0000      -0.821042       -22.3417
  32   2.0000      -0.784556       -21.3489
  33   2.0000      -0.773368       -21.0444
  34   2.0000      -0.708871       -19.2894
  35   2.0000      -0.703771       -19.1506
  36   2.0000      -0.698446       -19.0057
  37   2.0000      -0.658958       -17.9312
  38   2.0000      -0.645714       -17.5708
  39   2.0000      -0.618403       -16.8276
  40   2.0000      -0.603973       -16.4349
  41   2.0000      -0.580951       -15.8085
  42   2.0000      -0.572698       -15.5839
  43   2.0000      -0.545421       -14.8417
  44   2.0000      -0.535972       -14.5846
  45   2.0000      -0.531869       -14.4729
  46   2.0000      -0.519947       -14.1485
  47   2.0000      -0.515080       -14.0160
  48   2.0000      -0.505695       -13.7607
  49   2.0000      -0.498103       -13.5541
  50   2.0000      -0.489232       -13.3127
  51   2.0000      -0.479897       -13.0587
  52   2.0000      -0.474807       -12.9201
  53   2.0000      -0.470936       -12.8148
  54   2.0000      -0.459607       -12.5065
  55   2.0000      -0.452092       -12.3020
  56   2.0000      -0.444823       -12.1043
  57   2.0000      -0.435879       -11.8609
  58   2.0000      -0.434107       -11.8126
  59   2.0000      -0.424611       -11.5543
  60   2.0000      -0.418910       -11.3991
  61   2.0000      -0.417058       -11.3487
  62   2.0000      -0.413005       -11.2384
  63   2.0000      -0.354879        -9.6568
  64   2.0000      -0.333382        -9.0718
  65   2.0000      -0.328529        -8.9397
  66   2.0000      -0.289416        -7.8754
  67   0.0000       0.023676         0.6442
  68   0.0000       0.073246         1.9931
  69   0.0000       0.101486         2.7616
  70   0.0000       0.118053         3.2124
  71   0.0000       0.133411         3.6303

MULLIKEN ATOMIC CHARGES
-----------------------
   0 S :    0.107775
   1 C :   -0.112956
   2 C :   -0.055529
   3 C :    0.036416
   4 C :   -0.138843
   5 H :   -0.020104
   6 C :    0.053226
   7 H :    0.028525
   8 H :    0.020719
   9 C :   -0.059249
  10 H :    0.041991
  11 H :    0.016072
  12 C :   -0.072272
  13 H :    0.026627
  14 H :    0.037336
  15 H :    0.032554
  16 S :    0.087271
  17 C :   -0.084979
  18 C :    0.002824
  19 C :   -0.025478
  20 C :   -0.132175
  21 H :    0.004503
  22 C :    0.014264
  23 H :    0.054287
  24 H :    0.022376
  25 C :   -0.106923
  26 H :    0.017268
  27 H :    0.023697
  28 C :    0.037327
  29 H :    0.023774
  30 H :    0.016339
  31 H :    0.008263
  32 H :    0.048917
  33 H :    0.046157
Sum of atomic charges:   -0.0000000

LOEWDIN ATOMIC CHARGES
----------------------
   0 S :    0.403901
   1 C :   -0.186900
   2 C :   -0.064317
   3 C :   -0.049813
   4 C :   -0.196270
   5 H :    0.020286
   6 C :   -0.030712
   7 H :    0.034919
   8 H :    0.023349
   9 C :   -0.031606
  10 H :    0.030903
  11 H :    0.013379
  12 C :   -0.071034
  13 H :    0.017217
  14 H :    0.035797
  15 H :    0.021175
  16 S :    0.377125
  17 C :   -0.152372
  18 C :   -0.058915
  19 C :   -0.064980
  20 C :   -0.186079
  21 H :    0.026394
  22 C :   -0.039938
  23 H :    0.036849
  24 H :    0.028123
  25 C :   -0.042595
  26 H :    0.018961
  27 H :    0.019255
  28 C :   -0.041194
  29 H :    0.026103
  30 H :    0.016012
  31 H :    0.016107
  32 H :    0.028900
  33 H :    0.021974

  Mayer bond orders larger than 0.100000
B(  0-S ,  1-C ) :   1.1352 B(  0-S ,  4-C ) :   1.1570 B(  1-C ,  2-C ) :   1.6008
B(  1-C , 32-H ) :   0.9687 B(  2-C ,  3-C ) :   1.2438 B(  2-C ,  6-C ) :   1.0174
B(  3-C ,  4-C ) :   1.5229 B(  3-C ,  5-H ) :   1.0051 B(  4-C , 20-C ) :   1.0592
B(  6-C ,  7-H ) :   0.9488 B(  6-C ,  8-H ) :   0.9504 B(  6-C ,  9-C ) :   1.0571
B(  9-C , 10-H ) :   0.9588 B(  9-C , 11-H ) :   0.9595 B(  9-C , 12-C ) :   1.0736
B( 12-C , 13-H ) :   0.9792 B( 12-C , 14-H ) :   0.9757 B( 12-C , 15-H ) :   0.9721
B( 16-S , 17-C ) :   1.1259 B( 16-S , 20-C ) :   1.1329 B( 17-C , 18-C ) :   1.6508
B( 17-C , 33-H ) :   0.9679 B( 18-C , 19-C ) :   1.2054 B( 18-C , 21-H ) :   0.9957
B( 19-C , 20-C ) :   1.6130 B( 19-C , 22-C ) :   1.0674 B( 22-C , 23-H ) :   0.9216
B( 22-C , 24-H ) :   0.9233 B( 22-C , 25-C ) :   1.0779 B( 25-C , 26-H ) :   0.9562
B( 25-C , 27-H ) :   0.9438 B( 25-C , 28-C ) :   1.0858 B( 28-C , 29-H ) :   0.9740
B( 28-C , 30-H ) :   0.9707 B( 28-C , 31-H ) :   0.9736

Dispersion correction           -0.014009041
FINAL SINGLE POINT ENERGY     -1339.864975842253

DIPOLE MOMENT
-------------
                                X             Y             Z
Electronic contribution:      3.94209      -6.77213      25.75709
Nuclear contribution   :     -4.04184       7.01133     -26.34570
                        -----------------------------------------
Total Dipole Moment    :     -0.09975       0.23920      -0.58861
                        -----------------------------------------
Magnitude (a.u.)       :      0.64314
Magnitude (Debye)      :      1.63472

Rotational constants in cm-1:     0.016590     0.009043     0.007121
Rotational constants in MHz :   497.353131   271.115863   213.478246

                             ****ORCA TERMINATED NORMALLY****
TOTAL RUN TIME: 0 days 0 hours 0 minutes 35 seconds 139 msec
