                         Program Version 4.2.1 -  RELEASE  -
|  1> ! wB97X-D3 SP def2-SVP
|  2> %pal
|  3> nprocs 16
|  4> end
|  5>
|  6> * xyz 0 1
|  7> S 	 -1.26372 	 30.0312 	 39.9053
|  8> C 	 -1.17291 	 28.6977 	 38.7829
|  9> C 	 -0.625847 	 27.6376 	 39.4145
| 10> C 	 -0.431044 	 27.8136 	 40.8324
| 11> C 	 -0.731697 	 29.0413 	 41.2602
| 12> H 	 0.0900558 	 27.2074 	 41.5521
| 13> C 	 -0.23352 	 26.2801 	 38.7232
| 14> H 	 -0.853307 	 26.1448 	 37.786
| 15> H 	 -0.657796 	 25.7286 	 39.6197
| 16> C 	 1.19589 	 25.8717 	 38.5188
| 17> H 	 1.67392 	 26.4518 	 37.7105
| 18> H 	 1.74915 	 26.0949 	 39.4027
| 19> C 	 1.30223 	 24.405 	 38.2088
| 20> H 	 0.791007 	 24.1624 	 37.2944
| 21> H 	 2.30991 	 23.9251 	 38.1782
| 22> H 	 0.722917 	 23.8049 	 38.9212
| 23> S 	 -1.09928 	 28.744 	 43.9877
| 24> C 	 0.0230821 	 29.5451 	 45.0045
| 25> C 	 0.766602 	 30.5422 	 44.3714
| 26> C 	 0.504696 	 30.5427 	 42.995
| 27> C 	 -0.339622 	 29.5607 	 42.5396
| 28> H 	 1.4613 	 31.124 	 44.9332
| 29> C 	 1.4204 	 31.4222 	 42.1253
| 30> H 	 1.55595 	 30.9849 	 41.169
| 31> H 	 2.41815 	 31.3217 	 42.5608
| 32> C 	 0.96368 	 32.8837 	 41.9921
| 33> H 	 0.538864 	 33.3738 	 42.9743
| 34> H 	 0.0816993 	 32.8131 	 41.2355
| 35> C 	 2.032 	 33.8193 	 41.4703
| 36> H 	 2.80656 	 34.0729 	 42.2166
| 37> H 	 1.58144 	 34.7539 	 41.2126
| 38> H 	 2.56417 	 33.3868 	 40.6447
| 39> H 	 -1.30849 	 28.7022 	 37.7413
| 40> H 	 0.0106757 	 29.5415 	 46.1048
| 41> *
| 42>
| 43>                          ****END OF INPUT****

CARTESIAN COORDINATES (ANGSTROEM)
---------------------------------
  S     -1.263720   30.031200   39.905300
  C     -1.172910   28.697700   38.782900
  C     -0.625847   27.637600   39.414500
  C     -0.431044   27.813600   40.832400
  C     -0.731697   29.041300   41.260200
  H      0.090056   27.207400   41.552100
  C     -0.233520   26.280100   38.723200
  H     -0.853307   26.144800   37.786000
  H     -0.657796   25.728600   39.619700
  C      1.195890   25.871700   38.518800
  H      1.673920   26.451800   37.710500
  H      1.749150   26.094900   39.402700
  C      1.302230   24.405000   38.208800
  H      0.791007   24.162400   37.294400
  H      2.309910   23.925100   38.178200
  H      0.722917   23.804900   38.921200
  S     -1.099280   28.744000   43.987700
  C      0.023082   29.545100   45.004500
  C      0.766602   30.542200   44.371400
  C      0.504696   30.542700   42.995000
  C     -0.339622   29.560700   42.539600
  H      1.461300   31.124000   44.933200
  C      1.420400   31.422200   42.125300
  H      1.555950   30.984900   41.169000
  H      2.418150   31.321700   42.560800
  C      0.963680   32.883700   41.992100
  H      0.538864   33.373800   42.974300
  H      0.081699   32.813100   41.235500
  C      2.032000   33.819300   41.470300
  H      2.806560   34.072900   42.216600
  H      1.581440   34.753900   41.212600
  H      2.564170   33.386800   40.644700
  H     -1.308490   28.702200   37.741300
  H      0.010676   29.541500   46.104800

 Total Charge           Charge          ....    0
 Multiplicity           Mult            ....    1
 Number of Electrons    NEL             ....  134
 Basis Dimension        Dim             ....  322

ORBITAL ENERGIES
----------------

  NO   OCC          E(Eh)            E(eV)
   0   2.0000     -88.966919     -2420.9129
   1   2.0000     -88.964327     -2420.8424
   2   2.0000     -10.329562      -281.0817
   3   2.0000     -10.326009      -280.9850
   4   2.0000     -10.317040      -280.7409
   5   2.0000     -10.309077      -280.5242
   6   2.0000     -10.303479      -280.3719
   7   2.0000     -10.303060      -280.3605
   8   2.0000     -10.301086      -280.3068
   9   2.0000     -10.298455      -280.2352
  10   2.0000     -10.290261      -280.0123
  11   2.0000     -10.290042      -280.0063
  12   2.0000     -10.287398      -279.9343
  13   2.0000     -10.285322      -279.8778
  14   2.0000     -10.277588      -279.6674
  15   2.0000     -10.272993      -279.5423
  16   2.0000      -8.081173      -219.8999
  17   2.0000      -8.078887      -219.8377
  18   2.0000      -6.039609      -164.3461
  19   2.0000      -6.037572      -164.2907
  20   2.0000      -6.035839      -164.2435
  21   2.0000      -6.033464      -164.1789
  22   2.0000      -6.031947      -164.1376
  23   2.0000      -6.029407      -164.0685
  24   2.0000      -1.011625       -27.5277
  25   2.0000      -0.987802       -26.8795
  26   2.0000      -0.914663       -24.8892
  27   2.0000      -0.905711       -24.6456
  28   2.0000      -0.879758       -23.9394
  29   2.0000      -0.854481       -23.2516
  30   2.0000      -0.847964       -23.0743
  31   2.0000      -0.815864       -22.2008
  32   2.0000      -0.783258       -21.3135
  33   2.0000      -0.771501       -20.9936
  34   2.0000      -0.708609       -19.2822
  35   2.0000      -0.702965       -19.1286
  36   2.0000      -0.685975       -18.6663
  37   2.0000      -0.667788       -18.1714
  38   2.0000      -0.643702       -17.5160
  39   2.0000      -0.618114       -16.8197
  40   2.0000      -0.596425       -16.2295
  41   2.0000      -0.570094       -15.5130
  42   2.0000      -0.563682       -15.3386
  43   2.0000      -0.552779       -15.0419
  44   2.0000      -0.531587       -14.4652
  45   2.0000      -0.523763       -14.2523
  46   2.0000      -0.522260       -14.2114
  47   2.0000      -0.518164       -14.1000
  48   2.0000      -0.506780       -13.7902
  49   2.0000      -0.504186       -13.7196
  50   2.0000      -0.496291       -13.5048
  51   2.0000      -0.474751       -12.9186
  52   2.0000      -0.469682       -12.7807
  53   2.0000      -0.464771       -12.6471
  54   2.0000      -0.458236       -12.4692
  55   2.0000      -0.453325       -12.3356
  56   2.0000      -0.445381       -12.1194
  57   2.0000      -0.436449       -11.8764
  58   2.0000      -0.435107       -11.8399
  59   2.0000      -0.422634       -11.5005
  60   2.0000      -0.416592       -11.3360
  61   2.0000      -0.406659       -11.0658
  62   2.0000      -0.404349       -11.0029
  63   2.0000      -0.353457        -9.6181
  64   2.0000      -0.333282        -9.0691
  65   2.0000      -0.324987        -8.8434
  66   2.0000      -0.298063        -8.1107
  67   0.0000       0.031382         0.8539
  68   0.0000       0.068290         1.8583
  69   0.0000       0.104416         2.8413
  70   0.0000       0.111397         3.0313
  71   0.0000       0.129746         3.5306

MULLIKEN ATOMIC CHARGES
-----------------------
   0 S :    0.097000
   1 C :   -0.086383
   2 C :   -0.075884
   3 C :    0.023102
   4 C :   -0.123080
   5 H :    0.016170
   6 C :   -0.026292
   7 H :    0.036092
   8 H :    0.047240
   9 C :    0.005671
  10 H :    0.031288
  11 H :    0.015388
  12 C :   -0.054306
  13 H :    0.017233
  14 H :    0.045264
  15 H :    0.016599
  16 S :    0.104883
  17 C :   -0.088040
  18 C :   -0.047842
  19 C :    0.014812
  20 C :   -0.196196
  21 H :    0.012857
  22 C :    0.063279
  23 H :    0.015350
  24 H :    0.020037
  25 C :   -0.132372
  26 H :    0.047430
  27 H :    0.041750
  28 C :   -0.015276
  29 H :    0.029924
  30 H :    0.030701
  31 H :    0.024167
  32 H :    0.027474
  33 H :    0.061964
Sum of atomic charges:    0.0000000

LOEWDIN ATOMIC CHARGES
----------------------
   0 S :    0.395582
   1 C :   -0.191176
   2 C :   -0.062914
   3 C :   -0.066305
   4 C :   -0.191247
   5 H :    0.032361
   6 C :   -0.038306
   7 H :    0.033232
   8 H :    0.044414
   9 C :   -0.044774
  10 H :    0.027877
  11 H :    0.022053
  12 C :   -0.069775
  13 H :    0.021557
  14 H :    0.032349
  15 H :    0.024379
  16 S :    0.393498
  17 C :   -0.194090
  18 C :   -0.070965
  19 C :   -0.050394
  20 C :   -0.173139
  21 H :    0.029972
  22 C :   -0.031141
  23 H :    0.021761
  24 H :    0.028167
  25 C :   -0.051657
  26 H :    0.033389
  27 H :    0.031049
  28 C :   -0.066771
  29 H :    0.027126
  30 H :    0.025249
  31 H :    0.021570
  32 H :    0.024197
  33 H :    0.032869

  Mayer bond orders larger than 0.100000
B(  0-S ,  1-C ) :   1.1113 B(  0-S ,  4-C ) :   1.1232 B(  1-C ,  2-C ) :   1.6648
B(  1-C , 32-H ) :   0.9741 B(  2-C ,  3-C ) :   1.2047 B(  2-C ,  6-C ) :   0.9781
B(  3-C ,  4-C ) :   1.6218 B(  3-C ,  5-H ) :   0.9875 B(  4-C , 20-C ) :   1.0358
B(  6-C ,  7-H ) :   0.9481 B(  6-C ,  8-H ) :   0.9452 B(  6-C ,  9-C ) :   1.0740
B(  9-C , 10-H ) :   0.9495 B(  9-C , 11-H ) :   0.9474 B(  9-C , 12-C ) :   1.0793
B( 12-C , 13-H ) :   0.9722 B( 12-C , 14-H ) :   0.9737 B( 12-C , 15-H ) :   0.9726
B( 16-S , 17-C ) :   1.1695 B( 16-S , 20-C ) :   1.1151 B( 17-C , 18-C ) :   1.6094
B( 17-C , 20-C ) :   0.1012 B( 17-C , 33-H ) :   0.9576 B( 18-C , 19-C ) :   1.2350
B( 18-C , 21-H ) :   0.9976 B( 19-C , 20-C ) :   1.6129 B( 19-C , 22-C ) :   1.0278
B( 22-C , 23-H ) :   0.9335 B( 22-C , 24-H ) :   0.9501 B( 22-C , 25-C ) :   1.0432
B( 25-C , 26-H ) :   0.9617 B( 25-C , 27-H ) :   0.9487 B( 25-C , 28-C ) :   1.0834
B( 28-C , 29-H ) :   0.9729 B( 28-C , 30-H ) :   0.9719 B( 28-C , 31-H ) :   0.9712

Dispersion correction           -0.013868211
FINAL SINGLE POINT ENERGY     -1339.860405660912

DIPOLE MOMENT
-------------
                                X             Y             Z
Electronic contribution:    -16.04091       1.89327      11.68125
Nuclear contribution   :     16.65099      -1.96976     -11.80956
                        -----------------------------------------
Total Dipole Moment    :      0.61008      -0.07649      -0.12830
                        -----------------------------------------
Magnitude (a.u.)       :      0.62810
Magnitude (Debye)      :      1.59650

Rotational constants in cm-1:     0.018222     0.007764     0.006593
Rotational constants in MHz :   546.294143   232.753860   197.642068

                             ****ORCA TERMINATED NORMALLY****
TOTAL RUN TIME: 0 days 0 hours 0 minutes 31 seconds 984 msec
