                         Program Version 4.2.1 -  RELEASE  -
|  1> ! wB97X-D3 SP def2-SVP
|  2> %pal
|  3> nprocs 16
|  4> end
|  5>
|  6> * xyz 0 1
|  7> S 	 47.2965 	 10.0973 	 77.9184
|  8> C 	 47.2006 	 9.24551 	 79.4865
|  9> C 	 47.5572 	 10.0423 	 80.57
| 10> C 	 47.8299 	 11.3672 	 80.1324
| 11> C 	 47.7095 	 11.6009 	 78.7687
| 12> H 	 48.1412 	 12.0718 	 80.8902
| 13> C 	 47.7187 	 9.45508 	 82.0122
| 14> H 	 48.7111 	 9.72644 	 82.399
| 15> H 	 47.7709 	 8.37611 	 81.9737
| 16> C 	 46.5466 	 9.79641 	 82.9561
| 17> H 	 45.4965 	 9.5521 	 82.6083
| 18> H 	 46.7368 	 9.07552 	 83.7233
| 19> C 	 46.5158 	 11.188 	 83.5813
| 20> H 	 47.4519 	 11.503 	 84.0853
| 21> H 	 46.4236 	 11.8188 	 82.7209
| 22> H 	 45.6343 	 11.4108 	 84.3522
| 23> S 	 49.4638 	 12.9052 	 77.2477
| 24> C 	 49.2515 	 14.576 	 76.7831
| 25> C 	 48.0272 	 15.0219 	 77.1802
| 26> C 	 47.2824 	 14.0451 	 77.9112
| 27> C 	 47.9218 	 12.8156 	 78.0467
| 28> H 	 47.7245 	 16.0402 	 77.0032
| 29> C 	 46.0233 	 14.4008 	 78.6253
| 30> H 	 45.6165 	 13.4397 	 79.0655
| 31> H 	 45.3139 	 14.8695 	 77.9429
| 32> C 	 46.2215 	 15.2475 	 79.9023
| 33> H 	 45.2994 	 15.5302 	 80.3171
| 34> H 	 46.6424 	 16.2441 	 79.6184
| 35> C 	 47.0635 	 14.6319 	 80.9702
| 36> H 	 46.6363 	 13.5908 	 81.124
| 37> H 	 47.0073 	 15.2103 	 81.8766
| 38> H 	 48.083 	 14.5348 	 80.6323
| 39> H 	 46.9378 	 8.19985 	 79.6597
| 40> H 	 49.873 	 15.1412 	 76.1438
| 41> *
| 42>
| 43>                          ****END OF INPUT****

CARTESIAN COORDINATES (ANGSTROEM)
---------------------------------
  S     47.296500   10.097300   77.918400
  C     47.200600    9.245510   79.486500
  C     47.557200   10.042300   80.570000
  C     47.829900   11.367200   80.132400
  C     47.709500   11.600900   78.768700
  H     48.141200   12.071800   80.890200
  C     47.718700    9.455080   82.012200
  H     48.711100    9.726440   82.399000
  H     47.770900    8.376110   81.973700
  C     46.546600    9.796410   82.956100
  H     45.496500    9.552100   82.608300
  H     46.736800    9.075520   83.723300
  C     46.515800   11.188000   83.581300
  H     47.451900   11.503000   84.085300
  H     46.423600   11.818800   82.720900
  H     45.634300   11.410800   84.352200
  S     49.463800   12.905200   77.247700
  C     49.251500   14.576000   76.783100
  C     48.027200   15.021900   77.180200
  C     47.282400   14.045100   77.911200
  C     47.921800   12.815600   78.046700
  H     47.724500   16.040200   77.003200
  C     46.023300   14.400800   78.625300
  H     45.616500   13.439700   79.065500
  H     45.313900   14.869500   77.942900
  C     46.221500   15.247500   79.902300
  H     45.299400   15.530200   80.317100
  H     46.642400   16.244100   79.618400
  C     47.063500   14.631900   80.970200
  H     46.636300   13.590800   81.124000
  H     47.007300   15.210300   81.876600
  H     48.083000   14.534800   80.632300
  H     46.937800    8.199850   79.659700
  H     49.873000   15.141200   76.143800

 Total Charge           Charge          ....    0
 Multiplicity           Mult            ....    1
 Number of Electrons    NEL             ....  134
 Basis Dimension        Dim             ....  322

ORBITAL ENERGIES
----------------

  NO   OCC          E(Eh)            E(eV)
   0   2.0000     -88.969810     -2420.9916
   1   2.0000     -88.960286     -2420.7325
   2   2.0000     -10.332205      -281.1536
   3   2.0000     -10.322713      -280.8953
   4   2.0000     -10.318044      -280.7683
   5   2.0000     -10.313115      -280.6341
   6   2.0000     -10.304389      -280.3967
   7   2.0000     -10.302017      -280.3321
   8   2.0000     -10.301495      -280.3179
   9   2.0000     -10.296718      -280.1879
  10   2.0000     -10.291413      -280.0436
  11   2.0000     -10.290234      -280.0115
  12   2.0000     -10.289903      -280.0025
  13   2.0000     -10.288024      -279.9514
  14   2.0000     -10.278887      -279.7027
  15   2.0000     -10.273843      -279.5655
  16   2.0000      -8.083327      -219.9585
  17   2.0000      -8.075635      -219.7492
  18   2.0000      -6.041896      -164.4084
  19   2.0000      -6.038075      -164.3044
  20   2.0000      -6.034200      -164.1989
  21   2.0000      -6.034013      -164.1938
  22   2.0000      -6.029882      -164.0814
  23   2.0000      -6.026444      -163.9879
  24   2.0000      -1.007136       -27.4056
  25   2.0000      -0.980644       -26.6847
  26   2.0000      -0.911994       -24.8166
  27   2.0000      -0.909926       -24.7603
  28   2.0000      -0.873136       -23.7592
  29   2.0000      -0.848225       -23.0814
  30   2.0000      -0.843987       -22.9661
  31   2.0000      -0.816806       -22.2264
  32   2.0000      -0.784478       -21.3467
  33   2.0000      -0.770705       -20.9720
  34   2.0000      -0.709925       -19.3180
  35   2.0000      -0.696542       -18.9539
  36   2.0000      -0.693056       -18.8590
  37   2.0000      -0.660285       -17.9673
  38   2.0000      -0.636484       -17.3196
  39   2.0000      -0.623430       -16.9644
  40   2.0000      -0.592439       -16.1211
  41   2.0000      -0.573588       -15.6081
  42   2.0000      -0.561009       -15.2658
  43   2.0000      -0.550053       -14.9677
  44   2.0000      -0.542132       -14.7522
  45   2.0000      -0.536088       -14.5877
  46   2.0000      -0.518494       -14.1089
  47   2.0000      -0.515295       -14.0219
  48   2.0000      -0.503857       -13.7106
  49   2.0000      -0.496621       -13.5137
  50   2.0000      -0.492231       -13.3943
  51   2.0000      -0.480028       -13.0622
  52   2.0000      -0.470518       -12.8035
  53   2.0000      -0.457249       -12.4424
  54   2.0000      -0.452877       -12.3234
  55   2.0000      -0.447702       -12.1826
  56   2.0000      -0.442212       -12.0332
  57   2.0000      -0.440562       -11.9883
  58   2.0000      -0.435567       -11.8524
  59   2.0000      -0.428005       -11.6466
  60   2.0000      -0.415958       -11.3188
  61   2.0000      -0.410916       -11.1816
  62   2.0000      -0.403212       -10.9720
  63   2.0000      -0.339384        -9.2351
  64   2.0000      -0.332411        -9.0454
  65   2.0000      -0.320592        -8.7237
  66   2.0000      -0.305815        -8.3217
  67   0.0000       0.037823         1.0292
  68   0.0000       0.055061         1.4983
  69   0.0000       0.110460         3.0058
  70   0.0000       0.123840         3.3699
  71   0.0000       0.131251         3.5715

MULLIKEN ATOMIC CHARGES
-----------------------
   0 S :    0.122662
   1 C :   -0.122604
   2 C :   -0.104146
   3 C :    0.057584
   4 C :   -0.163283
   5 H :    0.006563
   6 C :    0.064548
   7 H :    0.038781
   8 H :    0.018609
   9 C :   -0.067830
  10 H :    0.044061
  11 H :    0.018959
  12 C :   -0.077833
  13 H :    0.032531
  14 H :    0.019958
  15 H :    0.058004
  16 S :    0.102414
  17 C :   -0.065016
  18 C :   -0.038340
  19 C :   -0.016649
  20 C :   -0.179487
  21 H :    0.015973
  22 C :    0.048913
  23 H :    0.034449
  24 H :    0.032454
  25 C :   -0.057307
  26 H :    0.012173
  27 H :    0.012115
  28 C :   -0.063617
  29 H :    0.040058
  30 H :    0.036463
  31 H :    0.050401
  32 H :    0.046639
  33 H :    0.041800
Sum of atomic charges:   -0.0000000

LOEWDIN ATOMIC CHARGES
----------------------
   0 S :    0.390817
   1 C :   -0.185400
   2 C :   -0.067603
   3 C :   -0.055976
   4 C :   -0.199012
   5 H :    0.030333
   6 C :   -0.021321
   7 H :    0.036312
   8 H :    0.031489
   9 C :   -0.047873
  10 H :    0.035922
  11 H :    0.018259
  12 C :   -0.079619
  13 H :    0.024497
  14 H :    0.017242
  15 H :    0.042973
  16 S :    0.414294
  17 C :   -0.175392
  18 C :   -0.071405
  19 C :   -0.055908
  20 C :   -0.211392
  21 H :    0.030836
  22 C :   -0.033676
  23 H :    0.036434
  24 H :    0.032054
  25 C :   -0.039903
  26 H :    0.015727
  27 H :    0.018825
  28 C :   -0.064049
  29 H :    0.028655
  30 H :    0.026916
  31 H :    0.024728
  32 H :    0.028887
  33 H :    0.023330

  Mayer bond orders larger than 0.100000
B(  0-S ,  1-C ) :   1.1409 B(  0-S ,  4-C ) :   1.1364 B(  1-C ,  2-C ) :   1.6303
B(  1-C ,  4-C ) :   0.1063 B(  1-C , 32-H ) :   0.9584 B(  2-C ,  3-C ) :   1.2601
B(  2-C ,  6-C ) :   1.0082 B(  3-C ,  4-C ) :   1.5688 B(  3-C ,  5-H ) :   0.9894
B(  4-C , 20-C ) :   1.0234 B(  6-C ,  7-H ) :   0.9434 B(  6-C ,  8-H ) :   0.9439
B(  6-C ,  9-C ) :   1.0622 B(  9-C , 10-H ) :   0.9554 B(  9-C , 11-H ) :   0.9549
B(  9-C , 12-C ) :   1.0729 B( 12-C , 13-H ) :   0.9723 B( 12-C , 14-H ) :   0.9760
B( 12-C , 15-H ) :   0.9704 B( 16-S , 17-C ) :   1.1578 B( 16-S , 20-C ) :   1.1509
B( 17-C , 18-C ) :   1.6094 B( 17-C , 20-C ) :   0.1010 B( 17-C , 33-H ) :   0.9710
B( 18-C , 19-C ) :   1.2309 B( 18-C , 21-H ) :   0.9943 B( 19-C , 20-C ) :   1.5895
B( 19-C , 22-C ) :   1.0644 B( 22-C , 23-H ) :   0.9340 B( 22-C , 24-H ) :   0.9297
B( 22-C , 25-C ) :   1.0729 B( 25-C , 26-H ) :   0.9534 B( 25-C , 27-H ) :   0.9477
B( 25-C , 28-C ) :   1.0870 B( 28-C , 29-H ) :   0.9619 B( 28-C , 30-H ) :   0.9656
B( 28-C , 31-H ) :   0.9669

Dispersion correction           -0.016187059
FINAL SINGLE POINT ENERGY     -1339.876008554920

DIPOLE MOMENT
-------------
                                X             Y             Z
Electronic contribution:     10.24902      -6.57681     -26.48353
Nuclear contribution   :    -10.39272       6.78774      27.08181
                        -----------------------------------------
Total Dipole Moment    :     -0.14370       0.21093       0.59828
                        -----------------------------------------
Magnitude (a.u.)       :      0.65044
Magnitude (Debye)      :      1.65330

Rotational constants in cm-1:     0.019614     0.009865     0.007481
Rotational constants in MHz :   588.002260   295.733613   224.277068

                             ****ORCA TERMINATED NORMALLY****
TOTAL RUN TIME: 0 days 0 hours 0 minutes 33 seconds 428 msec
