                         Program Version 4.2.1 -  RELEASE  -
|  1> ! wB97X-D3 SP def2-SVP
|  2> %pal
|  3> nprocs 16
|  4> end
|  5>
|  6> * xyz 0 1
|  7> S 	 -93.7203 	 56.7687 	 129.181
|  8> C 	 -93.5337 	 55.6526 	 130.556
|  9> C 	 -92.3557 	 54.8938 	 130.463
| 10> C 	 -91.6703 	 55.2119 	 129.206
| 11> C 	 -92.3003 	 56.1529 	 128.43
| 12> H 	 -90.7213 	 54.8085 	 128.732
| 13> C 	 -91.8911 	 53.8909 	 131.439
| 14> H 	 -91.9891 	 54.2189 	 132.462
| 15> H 	 -90.7936 	 53.7165 	 131.38
| 16> C 	 -92.5158 	 52.538 	 131.093
| 17> H 	 -93.596 	 52.5483 	 130.864
| 18> H 	 -92.0698 	 52.1865 	 130.202
| 19> C 	 -92.1943 	 51.5986 	 132.343
| 20> H 	 -92.5059 	 52.0132 	 133.272
| 21> H 	 -92.659 	 50.7038 	 132.08
| 22> H 	 -91.1 	 51.4582 	 132.316
| 23> S 	 -91.77 	 58.3172 	 126.946
| 24> C 	 -91.4304 	 58.2099 	 125.197
| 25> C 	 -91.4027 	 56.9111 	 124.775
| 26> C 	 -91.6287 	 55.9682 	 125.88
| 27> C 	 -91.8675 	 56.5831 	 127.087
| 28> H 	 -91.4471 	 56.7403 	 123.724
| 29> C 	 -91.9562 	 54.4564 	 125.699
| 30> H 	 -92.5446 	 54.3967 	 124.821
| 31> H 	 -92.6968 	 54.0467 	 126.402
| 32> C 	 -90.6692 	 53.5816 	 125.595
| 33> H 	 -90.1942 	 53.703 	 126.52
| 34> H 	 -89.9793 	 53.9225 	 124.791
| 35> C 	 -90.9965 	 52.0685 	 125.506
| 36> H 	 -90.1036 	 51.4024 	 125.472
| 37> H 	 -91.5942 	 51.7009 	 124.689
| 38> H 	 -91.6135 	 51.7455 	 126.386
| 39> H 	 -94.2328 	 55.4707 	 131.336
| 40> H 	 -91.4327 	 59.0913 	 124.517
| 41> *
| 42>
| 43>                          ****END OF INPUT****

CARTESIAN COORDINATES (ANGSTROEM)
---------------------------------
  S    -93.720300   56.768700  129.181000
  C    -93.533700   55.652600  130.556000
  C    -92.355700   54.893800  130.463000
  C    -91.670300   55.211900  129.206000
  C    -92.300300   56.152900  128.430000
  H    -90.721300   54.808500  128.732000
  C    -91.891100   53.890900  131.439000
  H    -91.989100   54.218900  132.462000
  H    -90.793600   53.716500  131.380000
  C    -92.515800   52.538000  131.093000
  H    -93.596000   52.548300  130.864000
  H    -92.069800   52.186500  130.202000
  C    -92.194300   51.598600  132.343000
  H    -92.505900   52.013200  133.272000
  H    -92.659000   50.703800  132.080000
  H    -91.100000   51.458200  132.316000
  S    -91.770000   58.317200  126.946000
  C    -91.430400   58.209900  125.197000
  C    -91.402700   56.911100  124.775000
  C    -91.628700   55.968200  125.880000
  C    -91.867500   56.583100  127.087000
  H    -91.447100   56.740300  123.724000
  C    -91.956200   54.456400  125.699000
  H    -92.544600   54.396700  124.821000
  H    -92.696800   54.046700  126.402000
  C    -90.669200   53.581600  125.595000
  H    -90.194200   53.703000  126.520000
  H    -89.979300   53.922500  124.791000
  C    -90.996500   52.068500  125.506000
  H    -90.103600   51.402400  125.472000
  H    -91.594200   51.700900  124.689000
  H    -91.613500   51.745500  126.386000
  H    -94.232800   55.470700  131.336000
  H    -91.432700   59.091300  124.517000

 Total Charge           Charge          ....    0
 Multiplicity           Mult            ....    1
 Number of Electrons    NEL             ....  134
 Basis Dimension        Dim             ....  322

ORBITAL ENERGIES
----------------

  NO   OCC          E(Eh)            E(eV)
   0   2.0000     -88.968373     -2420.9525
   1   2.0000     -88.960023     -2420.7253
   2   2.0000     -10.327179      -281.0168
   3   2.0000     -10.327056      -281.0135
   4   2.0000     -10.321532      -280.8632
   5   2.0000     -10.315793      -280.7070
   6   2.0000     -10.309829      -280.5447
   7   2.0000     -10.307505      -280.4815
   8   2.0000     -10.299373      -280.2602
   9   2.0000     -10.298766      -280.2437
  10   2.0000     -10.291546      -280.0472
  11   2.0000     -10.291375      -280.0425
  12   2.0000     -10.288683      -279.9693
  13   2.0000     -10.288330      -279.9597
  14   2.0000     -10.281937      -279.7857
  15   2.0000     -10.277080      -279.6536
  16   2.0000      -8.082856      -219.9457
  17   2.0000      -8.074926      -219.7299
  18   2.0000      -6.041502      -164.3976
  19   2.0000      -6.037330      -164.2841
  20   2.0000      -6.033556      -164.1814
  21   2.0000      -6.033540      -164.1810
  22   2.0000      -6.029401      -164.0684
  23   2.0000      -6.025546      -163.9634
  24   2.0000      -1.005155       -27.3516
  25   2.0000      -0.979566       -26.6553
  26   2.0000      -0.917993       -24.9799
  27   2.0000      -0.900596       -24.5065
  28   2.0000      -0.868779       -23.6407
  29   2.0000      -0.845753       -23.0141
  30   2.0000      -0.840826       -22.8800
  31   2.0000      -0.816603       -22.2209
  32   2.0000      -0.779629       -21.2148
  33   2.0000      -0.769552       -20.9406
  34   2.0000      -0.709229       -19.2991
  35   2.0000      -0.705466       -19.1967
  36   2.0000      -0.695029       -18.9127
  37   2.0000      -0.662869       -18.0376
  38   2.0000      -0.644053       -17.5256
  39   2.0000      -0.611557       -16.6413
  40   2.0000      -0.591669       -16.1001
  41   2.0000      -0.575070       -15.6484
  42   2.0000      -0.562222       -15.2988
  43   2.0000      -0.554019       -15.0756
  44   2.0000      -0.534166       -14.5354
  45   2.0000      -0.521385       -14.1876
  46   2.0000      -0.515236       -14.0203
  47   2.0000      -0.510727       -13.8976
  48   2.0000      -0.503086       -13.6897
  49   2.0000      -0.498886       -13.5754
  50   2.0000      -0.494324       -13.4513
  51   2.0000      -0.477003       -12.9799
  52   2.0000      -0.467909       -12.7324
  53   2.0000      -0.462780       -12.5929
  54   2.0000      -0.458925       -12.4880
  55   2.0000      -0.454020       -12.3545
  56   2.0000      -0.447870       -12.1871
  57   2.0000      -0.439093       -11.9483
  58   2.0000      -0.436421       -11.8756
  59   2.0000      -0.422405       -11.4942
  60   2.0000      -0.421520       -11.4702
  61   2.0000      -0.414903       -11.2901
  62   2.0000      -0.409113       -11.1325
  63   2.0000      -0.346470        -9.4279
  64   2.0000      -0.328783        -8.9466
  65   2.0000      -0.327116        -8.9013
  66   2.0000      -0.297177        -8.0866
  67   0.0000       0.035218         0.9583
  68   0.0000       0.068938         1.8759
  69   0.0000       0.108969         2.9652
  70   0.0000       0.118799         3.2327
  71   0.0000       0.125152         3.4055

MULLIKEN ATOMIC CHARGES
-----------------------
   0 S :    0.122168
   1 C :   -0.103384
   2 C :   -0.076368
   3 C :    0.010338
   4 C :   -0.138717
   5 H :    0.033692
   6 C :    0.047760
   7 H :    0.027742
   8 H :    0.026913
   9 C :   -0.101286
  10 H :    0.036499
  11 H :    0.019085
  12 C :    0.000956
  13 H :    0.034628
  14 H :    0.022775
  15 H :    0.028320
  16 S :    0.079213
  17 C :   -0.109703
  18 C :   -0.015529
  19 C :   -0.029276
  20 C :   -0.161306
  21 H :    0.021085
  22 C :    0.035578
  23 H :    0.009297
  24 H :    0.034592
  25 C :   -0.035130
  26 H :    0.012783
  27 H :    0.042768
  28 C :   -0.072334
  29 H :    0.037669
  30 H :    0.023887
  31 H :    0.027313
  32 H :    0.033959
  33 H :    0.074011
Sum of atomic charges:   -0.0000000

LOEWDIN ATOMIC CHARGES
----------------------
   0 S :    0.407660
   1 C :   -0.188870
   2 C :   -0.051434
   3 C :   -0.073083
   4 C :   -0.212328
   5 H :    0.041930
   6 C :   -0.040653
   7 H :    0.028208
   8 H :    0.037960
   9 C :   -0.027369
  10 H :    0.023000
  11 H :    0.018541
  12 C :   -0.050462
  13 H :    0.020417
  14 H :    0.016651
  15 H :    0.028373
  16 S :    0.382727
  17 C :   -0.176730
  18 C :   -0.068373
  19 C :   -0.056598
  20 C :   -0.190824
  21 H :    0.031878
  22 C :   -0.028639
  23 H :    0.022351
  24 H :    0.034580
  25 C :   -0.034532
  26 H :    0.015383
  27 H :    0.030282
  28 C :   -0.077515
  29 H :    0.029087
  30 H :    0.019090
  31 H :    0.028614
  32 H :    0.022365
  33 H :    0.038314

  Mayer bond orders larger than 0.100000
B(  0-S ,  1-C ) :   1.1242 B(  0-S ,  4-C ) :   1.1479 B(  1-C ,  2-C ) :   1.6226
B(  1-C , 32-H ) :   0.9722 B(  2-C ,  3-C ) :   1.2027 B(  2-C ,  6-C ) :   1.0355
B(  3-C ,  4-C ) :   1.6072 B(  3-C ,  5-H ) :   0.9828 B(  4-C , 20-C ) :   1.0038
B(  6-C ,  7-H ) :   0.9498 B(  6-C ,  8-H ) :   0.9371 B(  6-C ,  9-C ) :   1.0408
B(  9-C , 10-H ) :   0.9664 B(  9-C , 11-H ) :   0.9553 B(  9-C , 12-C ) :   1.0667
B( 12-C , 13-H ) :   0.9812 B( 12-C , 14-H ) :   0.9756 B( 12-C , 15-H ) :   0.9736
B( 16-S , 17-C ) :   1.1313 B( 16-S , 20-C ) :   1.1325 B( 17-C , 18-C ) :   1.6642
B( 17-C , 33-H ) :   0.9605 B( 18-C , 19-C ) :   1.1927 B( 18-C , 21-H ) :   0.9901
B( 19-C , 20-C ) :   1.6490 B( 19-C , 22-C ) :   1.0254 B( 22-C , 23-H ) :   0.9410
B( 22-C , 24-H ) :   0.9496 B( 22-C , 25-C ) :   1.0455 B( 25-C , 26-H ) :   0.9547
B( 25-C , 27-H ) :   0.9599 B( 25-C , 28-C ) :   1.0743 B( 28-C , 29-H ) :   0.9757
B( 28-C , 30-H ) :   0.9778 B( 28-C , 31-H ) :   0.9728

Dispersion correction           -0.014093234
FINAL SINGLE POINT ENERGY     -1339.866142553596

DIPOLE MOMENT
-------------
                                X             Y             Z
Electronic contribution:     -6.10054      31.30747      -3.97439
Nuclear contribution   :      6.08672     -32.00385       3.89137
                        -----------------------------------------
Total Dipole Moment    :     -0.01382      -0.69638      -0.08302
                        -----------------------------------------
Magnitude (a.u.)       :      0.70145
Magnitude (Debye)      :      1.78295

Rotational constants in cm-1:     0.018079     0.008943     0.006392
Rotational constants in MHz :   541.994961   268.104363   191.626927

                             ****ORCA TERMINATED NORMALLY****
TOTAL RUN TIME: 0 days 0 hours 0 minutes 34 seconds 60 msec
