                         Program Version 4.2.1 -  RELEASE  -
|  1> ! wB97X-D3 SP def2-SVP
|  2> %pal
|  3> nprocs 16
|  4> end
|  5>
|  6> * xyz 0 1
|  7> S 	 -10.3236 	 48.8245 	 32.2541
|  8> C 	 -9.54952 	 48.2135 	 33.6932
|  9> C 	 -9.60917 	 48.9877 	 34.7732
| 10> C 	 -10.3041 	 50.1772 	 34.4884
| 11> C 	 -10.9694 	 50.1805 	 33.2357
| 12> H 	 -10.3612 	 51.0322 	 35.1655
| 13> C 	 -8.99749 	 48.7194 	 36.1447
| 14> H 	 -9.61543 	 49.2333 	 36.9197
| 15> H 	 -8.00994 	 49.1651 	 36.145
| 16> C 	 -8.9785 	 47.2702 	 36.5693
| 17> H 	 -10.0049 	 46.844 	 36.508
| 18> H 	 -8.37539 	 46.7519 	 35.8875
| 19> C 	 -8.58019 	 46.9145 	 37.9681
| 20> H 	 -7.49304 	 46.9909 	 37.9749
| 21> H 	 -9.00316 	 47.7205 	 38.506
| 22> H 	 -8.90636 	 45.9716 	 38.2743
| 23> S 	 -11.3879 	 51.7545 	 30.9488
| 24> C 	 -12.3848 	 53.2051 	 31.086
| 25> C 	 -12.9207 	 53.2309 	 32.3401
| 26> C 	 -12.5266 	 52.1862 	 33.2155
| 27> C 	 -11.7065 	 51.2627 	 32.6135
| 28> H 	 -13.6531 	 54.0343 	 32.5656
| 29> C 	 -13.0607 	 52.1105 	 34.6151
| 30> H 	 -13.1016 	 53.0746 	 35.0939
| 31> H 	 -12.3309 	 51.7285 	 35.3084
| 32> C 	 -14.3 	 51.199 	 34.8821
| 33> H 	 -14.5446 	 51.1971 	 35.9836
| 34> H 	 -14.0561 	 50.1704 	 34.5256
| 35> C 	 -15.479 	 51.7103 	 34.0517
| 36> H 	 -15.3481 	 51.4852 	 33.0067
| 37> H 	 -15.9591 	 52.6942 	 34.2014
| 38> H 	 -16.1413 	 50.8896 	 34.404
| 39> H 	 -9.04265 	 47.241 	 33.5369
| 40> H 	 -12.5398 	 53.8761 	 30.2483
| 41> *
| 42>
| 43>                          ****END OF INPUT****

CARTESIAN COORDINATES (ANGSTROEM)
---------------------------------
  S    -10.323600   48.824500   32.254100
  C     -9.549520   48.213500   33.693200
  C     -9.609170   48.987700   34.773200
  C    -10.304100   50.177200   34.488400
  C    -10.969400   50.180500   33.235700
  H    -10.361200   51.032200   35.165500
  C     -8.997490   48.719400   36.144700
  H     -9.615430   49.233300   36.919700
  H     -8.009940   49.165100   36.145000
  C     -8.978500   47.270200   36.569300
  H    -10.004900   46.844000   36.508000
  H     -8.375390   46.751900   35.887500
  C     -8.580190   46.914500   37.968100
  H     -7.493040   46.990900   37.974900
  H     -9.003160   47.720500   38.506000
  H     -8.906360   45.971600   38.274300
  S    -11.387900   51.754500   30.948800
  C    -12.384800   53.205100   31.086000
  C    -12.920700   53.230900   32.340100
  C    -12.526600   52.186200   33.215500
  C    -11.706500   51.262700   32.613500
  H    -13.653100   54.034300   32.565600
  C    -13.060700   52.110500   34.615100
  H    -13.101600   53.074600   35.093900
  H    -12.330900   51.728500   35.308400
  C    -14.300000   51.199000   34.882100
  H    -14.544600   51.197100   35.983600
  H    -14.056100   50.170400   34.525600
  C    -15.479000   51.710300   34.051700
  H    -15.348100   51.485200   33.006700
  H    -15.959100   52.694200   34.201400
  H    -16.141300   50.889600   34.404000
  H     -9.042650   47.241000   33.536900
  H    -12.539800   53.876100   30.248300

 Total Charge           Charge          ....    0
 Multiplicity           Mult            ....    1
 Number of Electrons    NEL             ....  134
 Basis Dimension        Dim             ....  322

ORBITAL ENERGIES
----------------

  NO   OCC          E(Eh)            E(eV)
   0   2.0000     -88.964526     -2420.8478
   1   2.0000     -88.961784     -2420.7732
   2   2.0000     -10.334806      -281.2244
   3   2.0000     -10.326483      -280.9979
   4   2.0000     -10.317968      -280.7662
   5   2.0000     -10.311998      -280.6037
   6   2.0000     -10.298636      -280.2401
   7   2.0000     -10.298558      -280.2380
   8   2.0000     -10.297333      -280.2047
   9   2.0000     -10.297274      -280.2031
  10   2.0000     -10.294869      -280.1376
  11   2.0000     -10.293416      -280.0981
  12   2.0000     -10.280927      -279.7582
  13   2.0000     -10.277992      -279.6784
  14   2.0000     -10.272358      -279.5251
  15   2.0000     -10.269891      -279.4579
  16   2.0000      -8.079162      -219.8452
  17   2.0000      -8.076380      -219.7695
  18   2.0000      -6.037603      -164.2915
  19   2.0000      -6.035016      -164.2211
  20   2.0000      -6.033934      -164.1917
  21   2.0000      -6.030851      -164.1078
  22   2.0000      -6.029767      -164.0783
  23   2.0000      -6.027064      -164.0047
  24   2.0000      -1.006663       -27.3927
  25   2.0000      -0.986614       -26.8471
  26   2.0000      -0.920171       -25.0391
  27   2.0000      -0.905485       -24.6395
  28   2.0000      -0.874752       -23.8032
  29   2.0000      -0.855713       -23.2851
  30   2.0000      -0.843651       -22.9569
  31   2.0000      -0.813259       -22.1299
  32   2.0000      -0.786756       -21.4087
  33   2.0000      -0.775772       -21.1098
  34   2.0000      -0.710134       -19.3237
  35   2.0000      -0.696763       -18.9599
  36   2.0000      -0.683895       -18.6097
  37   2.0000      -0.663602       -18.0575
  38   2.0000      -0.636813       -17.3285
  39   2.0000      -0.617176       -16.7942
  40   2.0000      -0.598261       -16.2795
  41   2.0000      -0.585036       -15.9196
  42   2.0000      -0.566757       -15.4222
  43   2.0000      -0.552481       -15.0338
  44   2.0000      -0.537232       -14.6188
  45   2.0000      -0.534017       -14.5313
  46   2.0000      -0.521930       -14.2024
  47   2.0000      -0.516155       -14.0453
  48   2.0000      -0.506308       -13.7773
  49   2.0000      -0.495565       -13.4850
  50   2.0000      -0.488270       -13.2865
  51   2.0000      -0.486549       -13.2397
  52   2.0000      -0.479256       -13.0412
  53   2.0000      -0.466323       -12.6893
  54   2.0000      -0.459289       -12.4979
  55   2.0000      -0.444771       -12.1028
  56   2.0000      -0.441576       -12.0159
  57   2.0000      -0.433437       -11.7944
  58   2.0000      -0.428607       -11.6630
  59   2.0000      -0.422141       -11.4870
  60   2.0000      -0.416904       -11.3445
  61   2.0000      -0.412046       -11.2123
  62   2.0000      -0.393223       -10.7001
  63   2.0000      -0.357906        -9.7391
  64   2.0000      -0.334785        -9.1100
  65   2.0000      -0.327965        -8.9244
  66   2.0000      -0.284212        -7.7338
  67   0.0000       0.019822         0.5394
  68   0.0000       0.078380         2.1328
  69   0.0000       0.099868         2.7175
  70   0.0000       0.125436         3.4133
  71   0.0000       0.138113         3.7583

MULLIKEN ATOMIC CHARGES
-----------------------
   0 S :    0.088339
   1 C :   -0.163827
   2 C :   -0.038034
   3 C :   -0.004332
   4 C :   -0.151700
   5 H :    0.030736
   6 C :    0.090610
   7 H :    0.022301
   8 H :    0.042593
   9 C :   -0.131908
  10 H :    0.030379
  11 H :    0.013355
  12 C :    0.033237
  13 H :    0.022479
  14 H :    0.010848
  15 H :    0.030303
  16 S :    0.081488
  17 C :   -0.105703
  18 C :   -0.028351
  19 C :   -0.053636
  20 C :   -0.105774
  21 H :    0.029266
  22 C :    0.084891
  23 H :    0.012471
  24 H :   -0.014014
  25 C :   -0.087639
  26 H :    0.042774
  27 H :    0.045325
  28 C :   -0.072289
  29 H :    0.044356
  30 H :    0.047521
  31 H :    0.027304
  32 H :    0.062058
  33 H :    0.064573
Sum of atomic charges:    0.0000000

LOEWDIN ATOMIC CHARGES
----------------------
   0 S :    0.382175
   1 C :   -0.187074
   2 C :   -0.073356
   3 C :   -0.050187
   4 C :   -0.174915
   5 H :    0.031713
   6 C :   -0.024702
   7 H :    0.030917
   8 H :    0.034149
   9 C :   -0.045923
  10 H :    0.029540
  11 H :    0.009837
  12 C :   -0.047288
  13 H :    0.025508
  14 H :    0.020593
  15 H :    0.021002
  16 S :    0.383477
  17 C :   -0.178715
  18 C :   -0.072518
  19 C :   -0.063715
  20 C :   -0.191698
  21 H :    0.037580
  22 C :   -0.048196
  23 H :    0.028572
  24 H :    0.023236
  25 C :   -0.031331
  26 H :    0.030218
  27 H :    0.034198
  28 C :   -0.081891
  29 H :    0.025813
  30 H :    0.027037
  31 H :    0.033836
  32 H :    0.029156
  33 H :    0.032951

  Mayer bond orders larger than 0.100000
B(  0-S ,  1-C ) :   1.1388 B(  0-S ,  4-C ) :   1.1367 B(  1-C ,  2-C ) :   1.6246
B(  1-C , 32-H ) :   0.9616 B(  2-C ,  3-C ) :   1.2577 B(  2-C ,  6-C ) :   1.0041
B(  3-C ,  4-C ) :   1.5599 B(  3-C ,  5-H ) :   0.9796 B(  4-C , 20-C ) :   1.0807
B(  6-C ,  7-H ) :   0.9400 B(  6-C ,  8-H ) :   0.9285 B(  6-C ,  9-C ) :   1.0785
B(  9-C , 10-H ) :   0.9604 B(  9-C , 11-H ) :   0.9486 B(  9-C , 12-C ) :   1.0855
B( 12-C , 13-H ) :   0.9734 B( 12-C , 14-H ) :   0.9726 B( 12-C , 15-H ) :   0.9743
B( 16-S , 17-C ) :   1.1433 B( 16-S , 20-C ) :   1.1273 B( 17-C , 18-C ) :   1.5985
B( 17-C , 33-H ) :   0.9722 B( 18-C , 19-C ) :   1.2462 B( 18-C , 21-H ) :   0.9877
B( 19-C , 20-C ) :   1.5898 B( 19-C , 22-C ) :   1.0523 B( 22-C , 23-H ) :   0.9292
B( 22-C , 24-H ) :   0.9186 B( 22-C , 25-C ) :   1.0674 B( 25-C , 26-H ) :   0.9575
B( 25-C , 27-H ) :   0.9535 B( 25-C , 28-C ) :   1.0693 B( 28-C , 29-H ) :   0.9703
B( 28-C , 30-H ) :   0.9764 B( 28-C , 31-H ) :   0.9754

Dispersion correction           -0.014092519
FINAL SINGLE POINT ENERGY     -1339.860310059607

DIPOLE MOMENT
-------------
                                X             Y             Z
Electronic contribution:      5.42914       5.58140     -26.20664
Nuclear contribution   :     -5.42595      -5.50957      26.87866
                        -----------------------------------------
Total Dipole Moment    :      0.00319       0.07182       0.67202
                        -----------------------------------------
Magnitude (a.u.)       :      0.67585
Magnitude (Debye)      :      1.71788

Rotational constants in cm-1:     0.021892     0.007692     0.006244
Rotational constants in MHz :   656.307372   230.589457   187.188878

                             ****ORCA TERMINATED NORMALLY****
TOTAL RUN TIME: 0 days 0 hours 0 minutes 33 seconds 366 msec
