                         Program Version 4.2.1 -  RELEASE  -
|  1> ! wB97X-D3 SP def2-SVP
|  2> %pal
|  3> nprocs 16
|  4> end
|  5>
|  6> * xyz 0 1
|  7> S 	 34.9482 	 5.7396 	 88.9905
|  8> C 	 33.6624 	 5.71598 	 87.7995
|  9> C 	 34.1374 	 5.72605 	 86.4954
| 10> C 	 35.571 	 5.6842 	 86.4086
| 11> C 	 36.1233 	 5.5608 	 87.6798
| 12> H 	 36.3239 	 5.65736 	 85.5567
| 13> C 	 33.3935 	 5.64289 	 85.197
| 14> H 	 33.9937 	 6.18968 	 84.4656
| 15> H 	 32.4079 	 6.09584 	 85.4116
| 16> C 	 33.0812 	 4.19565 	 84.6908
| 17> H 	 32.7417 	 3.60712 	 85.5695
| 18> H 	 32.2612 	 4.1267 	 83.9718
| 19> C 	 34.308 	 3.43551 	 84.0728
| 20> H 	 34.1573 	 2.45797 	 83.6094
| 21> H 	 34.737 	 4.13217 	 83.2948
| 22> H 	 35.1425 	 3.28749 	 84.8021
| 23> S 	 38.0348 	 3.57484 	 88.0625
| 24> C 	 39.6719 	 3.86857 	 87.8582
| 25> C 	 39.8663 	 5.19429 	 87.6045
| 26> C 	 38.6667 	 5.94897 	 87.736
| 27> C 	 37.5266 	 5.25449 	 87.9189
| 28> H 	 40.8243 	 5.59556 	 87.2916
| 29> C 	 38.724 	 7.41 	 87.4191
| 30> H 	 39.0848 	 7.9094 	 88.2931
| 31> H 	 37.7322 	 7.79298 	 87.3398
| 32> C 	 39.4212 	 7.79674 	 86.1121
| 33> H 	 38.8101 	 7.35523 	 85.299
| 34> H 	 40.4577 	 7.34693 	 86.0734
| 35> C 	 39.6191 	 9.38709 	 86.0437
| 36> H 	 40.1653 	 9.67927 	 85.1186
| 37> H 	 40.0648 	 9.79065 	 86.8485
| 38> H 	 38.5852 	 9.76186 	 85.8721
| 39> H 	 32.6868 	 5.52308 	 88.0279
| 40> H 	 40.4285 	 3.12124 	 87.8556
| 41> *
| 42>
| 43>                          ****END OF INPUT****

CARTESIAN COORDINATES (ANGSTROEM)
---------------------------------
  S     34.948200    5.739600   88.990500
  C     33.662400    5.715980   87.799500
  C     34.137400    5.726050   86.495400
  C     35.571000    5.684200   86.408600
  C     36.123300    5.560800   87.679800
  H     36.323900    5.657360   85.556700
  C     33.393500    5.642890   85.197000
  H     33.993700    6.189680   84.465600
  H     32.407900    6.095840   85.411600
  C     33.081200    4.195650   84.690800
  H     32.741700    3.607120   85.569500
  H     32.261200    4.126700   83.971800
  C     34.308000    3.435510   84.072800
  H     34.157300    2.457970   83.609400
  H     34.737000    4.132170   83.294800
  H     35.142500    3.287490   84.802100
  S     38.034800    3.574840   88.062500
  C     39.671900    3.868570   87.858200
  C     39.866300    5.194290   87.604500
  C     38.666700    5.948970   87.736000
  C     37.526600    5.254490   87.918900
  H     40.824300    5.595560   87.291600
  C     38.724000    7.410000   87.419100
  H     39.084800    7.909400   88.293100
  H     37.732200    7.792980   87.339800
  C     39.421200    7.796740   86.112100
  H     38.810100    7.355230   85.299000
  H     40.457700    7.346930   86.073400
  C     39.619100    9.387090   86.043700
  H     40.165300    9.679270   85.118600
  H     40.064800    9.790650   86.848500
  H     38.585200    9.761860   85.872100
  H     32.686800    5.523080   88.027900
  H     40.428500    3.121240   87.855600

 Total Charge           Charge          ....    0
 Multiplicity           Mult            ....    1
 Number of Electrons    NEL             ....  134
 Basis Dimension        Dim             ....  322

ORBITAL ENERGIES
----------------

  NO   OCC          E(Eh)            E(eV)
   0   2.0000     -88.969515     -2420.9836
   1   2.0000     -88.956180     -2420.6207
   2   2.0000     -10.331169      -281.1254
   3   2.0000     -10.318124      -280.7704
   4   2.0000     -10.311078      -280.5787
   5   2.0000     -10.310850      -280.5725
   6   2.0000     -10.304652      -280.4038
   7   2.0000     -10.303111      -280.3619
   8   2.0000     -10.297311      -280.2041
   9   2.0000     -10.296622      -280.1853
  10   2.0000     -10.294751      -280.1344
  11   2.0000     -10.293640      -280.1042
  12   2.0000     -10.286488      -279.9096
  13   2.0000     -10.283992      -279.8417
  14   2.0000     -10.279252      -279.7127
  15   2.0000     -10.277564      -279.6667
  16   2.0000      -8.083830      -219.9722
  17   2.0000      -8.072796      -219.6719
  18   2.0000      -6.042295      -164.4192
  19   2.0000      -6.038472      -164.3152
  20   2.0000      -6.034601      -164.2098
  21   2.0000      -6.031202      -164.1174
  22   2.0000      -6.026885      -163.9999
  23   2.0000      -6.023662      -163.9122
  24   2.0000      -1.013465       -27.5778
  25   2.0000      -0.988731       -26.9047
  26   2.0000      -0.909376       -24.7454
  27   2.0000      -0.907013       -24.6811
  28   2.0000      -0.871764       -23.7219
  29   2.0000      -0.845503       -23.0073
  30   2.0000      -0.844059       -22.9680
  31   2.0000      -0.814575       -22.1657
  32   2.0000      -0.780820       -21.2472
  33   2.0000      -0.772847       -21.0302
  34   2.0000      -0.708318       -19.2743
  35   2.0000      -0.703919       -19.1546
  36   2.0000      -0.698798       -19.0153
  37   2.0000      -0.658070       -17.9070
  38   2.0000      -0.646866       -17.6021
  39   2.0000      -0.610986       -16.6258
  40   2.0000      -0.600407       -16.3379
  41   2.0000      -0.572521       -15.5791
  42   2.0000      -0.562349       -15.3023
  43   2.0000      -0.550593       -14.9824
  44   2.0000      -0.541351       -14.7309
  45   2.0000      -0.525547       -14.3009
  46   2.0000      -0.519894       -14.1470
  47   2.0000      -0.513212       -13.9652
  48   2.0000      -0.508659       -13.8413
  49   2.0000      -0.499398       -13.5893
  50   2.0000      -0.487005       -13.2521
  51   2.0000      -0.480336       -13.0706
  52   2.0000      -0.467889       -12.7319
  53   2.0000      -0.464399       -12.6369
  54   2.0000      -0.456912       -12.4332
  55   2.0000      -0.446051       -12.1377
  56   2.0000      -0.444183       -12.0868
  57   2.0000      -0.441734       -12.0202
  58   2.0000      -0.439987       -11.9727
  59   2.0000      -0.423692       -11.5293
  60   2.0000      -0.416062       -11.3216
  61   2.0000      -0.414185       -11.2705
  62   2.0000      -0.403356       -10.9759
  63   2.0000      -0.337384        -9.1807
  64   2.0000      -0.326252        -8.8778
  65   2.0000      -0.322926        -8.7873
  66   2.0000      -0.311832        -8.4854
  67   0.0000       0.038043         1.0352
  68   0.0000       0.060443         1.6447
  69   0.0000       0.106592         2.9005
  70   0.0000       0.125172         3.4061
  71   0.0000       0.134580         3.6621

MULLIKEN ATOMIC CHARGES
-----------------------
   0 S :    0.122830
   1 C :   -0.074865
   2 C :   -0.092119
   3 C :    0.026499
   4 C :   -0.206008
   5 H :    0.050008
   6 C :    0.068355
   7 H :    0.033552
   8 H :    0.029992
   9 C :   -0.059754
  10 H :    0.029764
  11 H :    0.037127
  12 C :   -0.098069
  13 H :    0.044373
  14 H :    0.025291
  15 H :    0.045041
  16 S :    0.097446
  17 C :   -0.060885
  18 C :   -0.045215
  19 C :   -0.039341
  20 C :   -0.147759
  21 H :    0.016000
  22 C :    0.096768
  23 H :    0.021625
  24 H :    0.005803
  25 C :   -0.132701
  26 H :    0.040261
  27 H :    0.038139
  28 C :   -0.021291
  29 H :    0.037815
  30 H :    0.020221
  31 H :    0.032999
  32 H :    0.011289
  33 H :    0.046810
Sum of atomic charges:    0.0000000

LOEWDIN ATOMIC CHARGES
----------------------
   0 S :    0.401920
   1 C :   -0.183817
   2 C :   -0.059290
   3 C :   -0.058826
   4 C :   -0.189552
   5 H :    0.049515
   6 C :   -0.030662
   7 H :    0.031519
   8 H :    0.036125
   9 C :   -0.039635
  10 H :    0.026608
  11 H :    0.024051
  12 C :   -0.080582
  13 H :    0.026881
  14 H :    0.024760
  15 H :    0.028395
  16 S :    0.426359
  17 C :   -0.190518
  18 C :   -0.081585
  19 C :   -0.058068
  20 C :   -0.211756
  21 H :    0.028906
  22 C :   -0.035965
  23 H :    0.029133
  24 H :    0.023945
  25 C :   -0.036397
  26 H :    0.027340
  27 H :    0.021383
  28 C :   -0.054112
  29 H :    0.030601
  30 H :    0.006928
  31 H :    0.030685
  32 H :    0.008556
  33 H :    0.027152

  Mayer bond orders larger than 0.100000
B(  0-S ,  1-C ) :   1.1311 B(  0-S ,  4-C ) :   1.1517 B(  1-C ,  2-C ) :   1.6290
B(  1-C , 32-H ) :   0.9766 B(  2-C ,  3-C ) :   1.2023 B(  2-C ,  6-C ) :   1.0323
B(  3-C ,  4-C ) :   1.6093 B(  3-C ,  5-H ) :   0.9772 B(  4-C , 20-C ) :   1.0103
B(  6-C ,  7-H ) :   0.9442 B(  6-C ,  8-H ) :   0.9320 B(  6-C ,  9-C ) :   1.0604
B(  9-C , 10-H ) :   0.9544 B(  9-C , 11-H ) :   0.9616 B(  9-C , 12-C ) :   1.0651
B( 12-C , 13-H ) :   0.9757 B( 12-C , 14-H ) :   0.9763 B( 12-C , 15-H ) :   0.9731
B( 16-S , 17-C ) :   1.1945 B( 16-S , 20-C ) :   1.1232 B( 17-C , 18-C ) :   1.5686
B( 17-C , 33-H ) :   0.9719 B( 18-C , 19-C ) :   1.2533 B( 18-C , 21-H ) :   0.9972
B( 19-C , 20-C ) :   1.6131 B( 19-C , 22-C ) :   1.0451 B( 22-C , 23-H ) :   0.9261
B( 22-C , 24-H ) :   0.9311 B( 22-C , 25-C ) :   1.0540 B( 25-C , 26-H ) :   0.9595
B( 25-C , 27-H ) :   0.9568 B( 25-C , 28-C ) :   1.0673 B( 28-C , 29-H ) :   0.9768
B( 28-C , 30-H ) :   0.9799 B( 28-C , 31-H ) :   0.9775

Dispersion correction           -0.014826111
FINAL SINGLE POINT ENERGY     -1339.862586256467

DIPOLE MOMENT
-------------
                                X             Y             Z
Electronic contribution:     -0.84230      -9.52591      20.64224
Nuclear contribution   :      0.93692       9.67508     -21.19902
                        -----------------------------------------
Total Dipole Moment    :      0.09461       0.14917      -0.55677
                        -----------------------------------------
Magnitude (a.u.)       :      0.58412
Magnitude (Debye)      :      1.48472

Rotational constants in cm-1:     0.016964     0.008633     0.007877
Rotational constants in MHz :   508.577605   258.809876   236.146709

                             ****ORCA TERMINATED NORMALLY****
TOTAL RUN TIME: 0 days 0 hours 0 minutes 30 seconds 882 msec
