                         Program Version 4.2.1 -  RELEASE  -
|  1> ! wB97X-D3 SP def2-SVP
|  2> %pal
|  3> nprocs 16
|  4> end
|  5>
|  6> * xyz 0 1
|  7> S 	 55.8091 	 2.51987 	 84.2684
|  8> C 	 55.3708 	 3.44133 	 82.784
|  9> C 	 54.1121 	 3.04117 	 82.3192
| 10> C 	 53.6948 	 1.87855 	 82.9838
| 11> C 	 54.5151 	 1.41135 	 83.9923
| 12> H 	 52.8222 	 1.30517 	 82.8384
| 13> C 	 53.363 	 3.49613 	 81.0351
| 14> H 	 53.2764 	 2.54546 	 80.472
| 15> H 	 54.1395 	 4.08445 	 80.491
| 16> C 	 52.1368 	 4.26463 	 81.4252
| 17> H 	 51.499 	 3.58616 	 81.9565
| 18> H 	 52.4743 	 5.13664 	 82.1128
| 19> C 	 51.5313 	 5.01582 	 80.2154
| 20> H 	 50.674 	 5.64217 	 80.5225
| 21> H 	 52.2296 	 5.80866 	 79.7576
| 22> H 	 51.2783 	 4.22941 	 79.4749
| 23> S 	 53.5877 	 0.648349 	 86.5045
| 24> C 	 53.4156 	 -0.984979 	 86.9389
| 25> C 	 53.8192 	 -1.79279 	 85.8934
| 26> C 	 54.2447 	 -1.08457 	 84.7552
| 27> C 	 54.187 	 0.272932 	 84.9326
| 28> H 	 53.7695 	 -2.88079 	 85.9922
| 29> C 	 54.8121 	 -1.86479 	 83.5741
| 30> H 	 54.4849 	 -2.89658 	 83.7198
| 31> H 	 55.9256 	 -1.85082 	 83.4767
| 32> C 	 54.1764 	 -1.59376 	 82.2253
| 33> H 	 54.4655 	 -0.614498 	 81.9696
| 34> H 	 53.0487 	 -1.6139 	 82.3895
| 35> C 	 54.6576 	 -2.60739 	 81.1773
| 36> H 	 55.7294 	 -2.35398 	 80.9239
| 37> H 	 54.1432 	 -2.86669 	 80.1972
| 38> H 	 54.7056 	 -3.60911 	 81.5709
| 39> H 	 55.9372 	 4.25628 	 82.3554
| 40> H 	 53.2906 	 -1.29817 	 87.9733
| 41> *
| 42>
| 43>                          ****END OF INPUT****

CARTESIAN COORDINATES (ANGSTROEM)
---------------------------------
  S     55.809100    2.519870   84.268400
  C     55.370800    3.441330   82.784000
  C     54.112100    3.041170   82.319200
  C     53.694800    1.878550   82.983800
  C     54.515100    1.411350   83.992300
  H     52.822200    1.305170   82.838400
  C     53.363000    3.496130   81.035100
  H     53.276400    2.545460   80.472000
  H     54.139500    4.084450   80.491000
  C     52.136800    4.264630   81.425200
  H     51.499000    3.586160   81.956500
  H     52.474300    5.136640   82.112800
  C     51.531300    5.015820   80.215400
  H     50.674000    5.642170   80.522500
  H     52.229600    5.808660   79.757600
  H     51.278300    4.229410   79.474900
  S     53.587700    0.648349   86.504500
  C     53.415600   -0.984979   86.938900
  C     53.819200   -1.792790   85.893400
  C     54.244700   -1.084570   84.755200
  C     54.187000    0.272932   84.932600
  H     53.769500   -2.880790   85.992200
  C     54.812100   -1.864790   83.574100
  H     54.484900   -2.896580   83.719800
  H     55.925600   -1.850820   83.476700
  C     54.176400   -1.593760   82.225300
  H     54.465500   -0.614498   81.969600
  H     53.048700   -1.613900   82.389500
  C     54.657600   -2.607390   81.177300
  H     55.729400   -2.353980   80.923900
  H     54.143200   -2.866690   80.197200
  H     54.705600   -3.609110   81.570900
  H     55.937200    4.256280   82.355400
  H     53.290600   -1.298170   87.973300

 Total Charge           Charge          ....    0
 Multiplicity           Mult            ....    1
 Number of Electrons    NEL             ....  134
 Basis Dimension        Dim             ....  322

ORBITAL ENERGIES
----------------

  NO   OCC          E(Eh)            E(eV)
   0   2.0000     -88.967706     -2420.9344
   1   2.0000     -88.964164     -2420.8380
   2   2.0000     -10.328861      -281.0626
   3   2.0000     -10.325846      -280.9806
   4   2.0000     -10.320437      -280.8334
   5   2.0000     -10.312755      -280.6243
   6   2.0000     -10.302216      -280.3376
   7   2.0000     -10.299488      -280.2633
   8   2.0000     -10.298720      -280.2424
   9   2.0000     -10.294614      -280.1307
  10   2.0000     -10.291334      -280.0414
  11   2.0000     -10.290731      -280.0250
  12   2.0000     -10.289889      -280.0021
  13   2.0000     -10.286396      -279.9071
  14   2.0000     -10.283722      -279.8343
  15   2.0000     -10.283469      -279.8274
  16   2.0000      -8.081865      -219.9187
  17   2.0000      -8.080411      -219.8792
  18   2.0000      -6.040323      -164.3655
  19   2.0000      -6.038704      -164.3215
  20   2.0000      -6.036477      -164.2609
  21   2.0000      -6.034498      -164.2071
  22   2.0000      -6.032686      -164.1577
  23   2.0000      -6.031520      -164.1260
  24   2.0000      -1.011976       -27.5373
  25   2.0000      -0.988496       -26.8983
  26   2.0000      -0.914186       -24.8763
  27   2.0000      -0.912350       -24.8263
  28   2.0000      -0.863850       -23.5066
  29   2.0000      -0.851395       -23.1676
  30   2.0000      -0.845545       -23.0085
  31   2.0000      -0.811127       -22.0719
  32   2.0000      -0.779018       -21.1982
  33   2.0000      -0.771887       -21.0041
  34   2.0000      -0.704844       -19.1798
  35   2.0000      -0.695664       -18.9300
  36   2.0000      -0.686220       -18.6730
  37   2.0000      -0.662043       -18.0151
  38   2.0000      -0.644443       -17.5362
  39   2.0000      -0.617929       -16.8147
  40   2.0000      -0.597460       -16.2577
  41   2.0000      -0.571173       -15.5424
  42   2.0000      -0.570211       -15.5162
  43   2.0000      -0.559959       -15.2372
  44   2.0000      -0.527936       -14.3659
  45   2.0000      -0.522561       -14.2196
  46   2.0000      -0.512848       -13.9553
  47   2.0000      -0.506974       -13.7955
  48   2.0000      -0.506172       -13.7736
  49   2.0000      -0.497262       -13.5312
  50   2.0000      -0.491210       -13.3665
  51   2.0000      -0.474040       -12.8993
  52   2.0000      -0.468801       -12.7567
  53   2.0000      -0.464865       -12.6496
  54   2.0000      -0.461627       -12.5615
  55   2.0000      -0.450476       -12.2581
  56   2.0000      -0.441192       -12.0054
  57   2.0000      -0.436986       -11.8910
  58   2.0000      -0.430322       -11.7097
  59   2.0000      -0.425630       -11.5820
  60   2.0000      -0.419670       -11.4198
  61   2.0000      -0.412117       -11.2143
  62   2.0000      -0.403189       -10.9713
  63   2.0000      -0.337574        -9.1859
  64   2.0000      -0.330588        -8.9958
  65   2.0000      -0.329423        -8.9641
  66   2.0000      -0.306871        -8.3504
  67   0.0000       0.040418         1.0998
  68   0.0000       0.057801         1.5728
  69   0.0000       0.115743         3.1495
  70   0.0000       0.126181         3.4336
  71   0.0000       0.133314         3.6277

MULLIKEN ATOMIC CHARGES
-----------------------
   0 S :    0.111162
   1 C :   -0.128461
   2 C :   -0.082391
   3 C :    0.060555
   4 C :   -0.178978
   5 H :   -0.004226
   6 C :    0.040826
   7 H :    0.048200
   8 H :    0.019919
   9 C :   -0.080169
  10 H :    0.036205
  11 H :    0.047174
  12 C :   -0.065809
  13 H :    0.042910
  14 H :    0.044533
  15 H :    0.040656
  16 S :    0.121864
  17 C :   -0.100772
  18 C :   -0.050698
  19 C :   -0.013089
  20 C :   -0.180058
  21 H :    0.024439
  22 C :    0.054690
  23 H :    0.005966
  24 H :    0.052439
  25 C :   -0.080779
  26 H :    0.036627
  27 H :    0.038621
  28 C :   -0.065981
  29 H :    0.032983
  30 H :    0.046154
  31 H :    0.011669
  32 H :    0.047382
  33 H :    0.066438
Sum of atomic charges:   -0.0000000

LOEWDIN ATOMIC CHARGES
----------------------
   0 S :    0.399876
   1 C :   -0.184013
   2 C :   -0.060504
   3 C :   -0.060845
   4 C :   -0.205547
   5 H :    0.023561
   6 C :   -0.032062
   7 H :    0.036316
   8 H :    0.030339
   9 C :   -0.046172
  10 H :    0.023686
  11 H :    0.040046
  12 C :   -0.076008
  13 H :    0.027483
  14 H :    0.034720
  15 H :    0.026619
  16 S :    0.444041
  17 C :   -0.206612
  18 C :   -0.073918
  19 C :   -0.064027
  20 C :   -0.210492
  21 H :    0.033466
  22 C :   -0.028345
  23 H :    0.027200
  24 H :    0.037335
  25 C :   -0.043352
  26 H :    0.014573
  27 H :    0.029452
  28 C :   -0.082303
  29 H :    0.032315
  30 H :    0.035349
  31 H :    0.018040
  32 H :    0.026538
  33 H :    0.033242

  Mayer bond orders larger than 0.100000
B(  0-S ,  1-C ) :   1.1409 B(  0-S ,  4-C ) :   1.1610 B(  1-C ,  2-C ) :   1.5974
B(  1-C ,  4-C ) :   0.1054 B(  1-C , 32-H ) :   0.9701 B(  2-C ,  3-C ) :   1.2416
B(  2-C ,  6-C ) :   1.0034 B(  3-C ,  4-C ) :   1.5877 B(  3-C ,  5-H ) :   0.9945
B(  4-C , 20-C ) :   0.9847 B(  6-C ,  7-H ) :   0.9476 B(  6-C ,  8-H ) :   0.9460
B(  6-C ,  9-C ) :   1.0465 B(  9-C , 10-H ) :   0.9594 B(  9-C , 11-H ) :   0.9548
B(  9-C , 12-C ) :   1.0747 B( 12-C , 13-H ) :   0.9754 B( 12-C , 14-H ) :   0.9748
B( 12-C , 15-H ) :   0.9726 B( 16-S , 17-C ) :   1.1864 B( 16-S , 20-C ) :   1.1747
B( 17-C , 18-C ) :   1.5677 B( 17-C , 33-H ) :   0.9649 B( 18-C , 19-C ) :   1.2948
B( 18-C , 21-H ) :   0.9880 B( 19-C , 20-C ) :   1.5838 B( 19-C , 22-C ) :   1.0275
B( 22-C , 23-H ) :   0.9357 B( 22-C , 24-H ) :   0.9401 B( 22-C , 25-C ) :   1.0524
B( 25-C , 26-H ) :   0.9555 B( 25-C , 27-H ) :   0.9573 B( 25-C , 28-C ) :   1.0674
B( 28-C , 29-H ) :   0.9719 B( 28-C , 30-H ) :   0.9763 B( 28-C , 31-H ) :   0.9729

Dispersion correction           -0.014137703
FINAL SINGLE POINT ENERGY     -1339.865757849382

DIPOLE MOMENT
-------------
                                X             Y             Z
Electronic contribution:      8.34726       2.72451      25.59128
Nuclear contribution   :     -8.52120      -2.86781     -25.99734
                        -----------------------------------------
Total Dipole Moment    :     -0.17394      -0.14330      -0.40605
                        -----------------------------------------
Magnitude (a.u.)       :      0.46440
Magnitude (Debye)      :      1.18042

Rotational constants in cm-1:     0.017548     0.008309     0.006965
Rotational constants in MHz :   526.073456   249.086329   208.792916

                             ****ORCA TERMINATED NORMALLY****
TOTAL RUN TIME: 0 days 0 hours 0 minutes 29 seconds 889 msec
