                         Program Version 4.2.1 -  RELEASE  -
|  1> ! wB97X-D3 SP def2-SVP
|  2> %pal
|  3> nprocs 16
|  4> end
|  5>
|  6> * xyz 0 1
|  7> S 	 41.8954 	 12.4015 	 49.2027
|  8> C 	 42.5795 	 11.3445 	 50.4006
|  9> C 	 41.9538 	 11.3963 	 51.6113
| 10> C 	 41.0062 	 12.416 	 51.6803
| 11> C 	 40.9207 	 13.0659 	 50.4818
| 12> H 	 40.418 	 12.8016 	 52.4885
| 13> C 	 42.1254 	 10.6116 	 52.8656
| 14> H 	 42.372 	 11.2084 	 53.74
| 15> H 	 42.8361 	 9.91115 	 52.5716
| 16> C 	 40.877 	 9.8356 	 53.2304
| 17> H 	 40.1855 	 10.5875 	 53.5813
| 18> H 	 40.4664 	 9.33194 	 52.3025
| 19> C 	 41.1969 	 8.85966 	 54.3168
| 20> H 	 40.3991 	 8.13758 	 54.6597
| 21> H 	 42.0177 	 8.16348 	 54.0776
| 22> H 	 41.6285 	 9.37333 	 55.1117
| 23> S 	 40.6931 	 15.6932 	 50.1538
| 24> C 	 39.1554 	 16.4676 	 50.2489
| 25> C 	 38.1221 	 15.5518 	 50.2739
| 26> C 	 38.6078 	 14.2185 	 50.3636
| 27> C 	 39.979 	 14.1347 	 50.2715
| 28> H 	 37.1064 	 15.9382 	 50.3058
| 29> C 	 37.6949 	 12.9901 	 50.7674
| 30> H 	 37.0935 	 13.2269 	 51.6577
| 31> H 	 38.4516 	 12.4087 	 51.2999
| 32> C 	 36.9991 	 12.4142 	 49.5241
| 33> H 	 36.3316 	 13.174 	 49.1644
| 34> H 	 36.3115 	 11.5948 	 49.81
| 35> C 	 37.8621 	 11.8151 	 48.4049
| 36> H 	 38.5413 	 11.0197 	 48.8505
| 37> H 	 38.5136 	 12.6159 	 47.9256
| 38> H 	 37.2493 	 11.5102 	 47.5814
| 39> H 	 43.311 	 10.5483 	 50.2258
| 40> H 	 39.0191 	 17.5426 	 50.356
| 41> *
| 42>
| 43>                          ****END OF INPUT****

CARTESIAN COORDINATES (ANGSTROEM)
---------------------------------
  S     41.895400   12.401500   49.202700
  C     42.579500   11.344500   50.400600
  C     41.953800   11.396300   51.611300
  C     41.006200   12.416000   51.680300
  C     40.920700   13.065900   50.481800
  H     40.418000   12.801600   52.488500
  C     42.125400   10.611600   52.865600
  H     42.372000   11.208400   53.740000
  H     42.836100    9.911150   52.571600
  C     40.877000    9.835600   53.230400
  H     40.185500   10.587500   53.581300
  H     40.466400    9.331940   52.302500
  C     41.196900    8.859660   54.316800
  H     40.399100    8.137580   54.659700
  H     42.017700    8.163480   54.077600
  H     41.628500    9.373330   55.111700
  S     40.693100   15.693200   50.153800
  C     39.155400   16.467600   50.248900
  C     38.122100   15.551800   50.273900
  C     38.607800   14.218500   50.363600
  C     39.979000   14.134700   50.271500
  H     37.106400   15.938200   50.305800
  C     37.694900   12.990100   50.767400
  H     37.093500   13.226900   51.657700
  H     38.451600   12.408700   51.299900
  C     36.999100   12.414200   49.524100
  H     36.331600   13.174000   49.164400
  H     36.311500   11.594800   49.810000
  C     37.862100   11.815100   48.404900
  H     38.541300   11.019700   48.850500
  H     38.513600   12.615900   47.925600
  H     37.249300   11.510200   47.581400
  H     43.311000   10.548300   50.225800
  H     39.019100   17.542600   50.356000

 Total Charge           Charge          ....    0
 Multiplicity           Mult            ....    1
 Number of Electrons    NEL             ....  134
 Basis Dimension        Dim             ....  322

ORBITAL ENERGIES
----------------

  NO   OCC          E(Eh)            E(eV)
   0   2.0000     -88.971679     -2421.0425
   1   2.0000     -88.960177     -2420.7295
   2   2.0000     -10.320318      -280.8301
   3   2.0000     -10.314795      -280.6798
   4   2.0000     -10.311936      -280.6020
   5   2.0000     -10.310638      -280.5667
   6   2.0000     -10.301043      -280.3056
   7   2.0000     -10.293164      -280.0912
   8   2.0000     -10.291450      -280.0446
   9   2.0000     -10.290660      -280.0231
  10   2.0000     -10.287018      -279.9240
  11   2.0000     -10.285036      -279.8700
  12   2.0000     -10.283650      -279.8323
  13   2.0000     -10.282323      -279.7962
  14   2.0000     -10.279471      -279.7186
  15   2.0000     -10.276231      -279.6305
  16   2.0000      -8.086453      -220.0436
  17   2.0000      -8.076286      -219.7669
  18   2.0000      -6.044776      -164.4867
  19   2.0000      -6.041217      -164.3899
  20   2.0000      -6.037147      -164.2791
  21   2.0000      -6.034644      -164.2110
  22   2.0000      -6.030535      -164.0992
  23   2.0000      -6.027185      -164.0080
  24   2.0000      -1.015839       -27.6424
  25   2.0000      -0.991190       -26.9716
  26   2.0000      -0.926340       -25.2070
  27   2.0000      -0.899625       -24.4801
  28   2.0000      -0.873449       -23.7678
  29   2.0000      -0.859141       -23.3784
  30   2.0000      -0.843112       -22.9423
  31   2.0000      -0.812627       -22.1127
  32   2.0000      -0.783461       -21.3191
  33   2.0000      -0.771571       -20.9955
  34   2.0000      -0.708489       -19.2790
  35   2.0000      -0.696060       -18.9407
  36   2.0000      -0.693229       -18.8637
  37   2.0000      -0.656881       -17.8747
  38   2.0000      -0.645005       -17.5515
  39   2.0000      -0.623801       -16.9745
  40   2.0000      -0.591331       -16.0909
  41   2.0000      -0.587923       -15.9982
  42   2.0000      -0.560025       -15.2391
  43   2.0000      -0.548099       -14.9145
  44   2.0000      -0.536802       -14.6071
  45   2.0000      -0.523631       -14.2487
  46   2.0000      -0.517217       -14.0742
  47   2.0000      -0.515510       -14.0277
  48   2.0000      -0.502230       -13.6664
  49   2.0000      -0.495045       -13.4709
  50   2.0000      -0.488142       -13.2830
  51   2.0000      -0.481429       -13.1003
  52   2.0000      -0.470490       -12.8027
  53   2.0000      -0.466972       -12.7069
  54   2.0000      -0.453243       -12.3334
  55   2.0000      -0.450082       -12.2474
  56   2.0000      -0.444563       -12.0972
  57   2.0000      -0.436742       -11.8843
  58   2.0000      -0.433370       -11.7926
  59   2.0000      -0.424657       -11.5555
  60   2.0000      -0.421464       -11.4686
  61   2.0000      -0.417040       -11.3482
  62   2.0000      -0.399264       -10.8645
  63   2.0000      -0.342358        -9.3160
  64   2.0000      -0.331824        -9.0294
  65   2.0000      -0.325618        -8.8605
  66   2.0000      -0.300015        -8.1638
  67   0.0000       0.045498         1.2381
  68   0.0000       0.064043         1.7427
  69   0.0000       0.112214         3.0535
  70   0.0000       0.125096         3.4040
  71   0.0000       0.127488         3.4691

MULLIKEN ATOMIC CHARGES
-----------------------
   0 S :    0.139190
   1 C :   -0.120123
   2 C :   -0.083806
   3 C :    0.036326
   4 C :   -0.168496
   5 H :    0.017798
   6 C :    0.118120
   7 H :    0.037928
   8 H :   -0.014224
   9 C :   -0.103410
  10 H :    0.027935
  11 H :    0.043738
  12 C :   -0.011246
  13 H :    0.046180
  14 H :    0.015421
  15 H :    0.003756
  16 S :    0.114093
  17 C :   -0.104474
  18 C :   -0.043828
  19 C :   -0.047863
  20 C :   -0.193167
  21 H :    0.020876
  22 C :    0.092133
  23 H :    0.029328
  24 H :   -0.008574
  25 C :   -0.049766
  26 H :    0.021206
  27 H :    0.028131
  28 C :   -0.067198
  29 H :    0.053649
  30 H :    0.038162
  31 H :    0.033971
  32 H :    0.039593
  33 H :    0.058642
Sum of atomic charges:   -0.0000000

LOEWDIN ATOMIC CHARGES
----------------------
   0 S :    0.421943
   1 C :   -0.208516
   2 C :   -0.063338
   3 C :   -0.055338
   4 C :   -0.196643
   5 H :    0.032496
   6 C :   -0.023092
   7 H :    0.034523
   8 H :    0.017695
   9 C :   -0.039567
  10 H :    0.019884
  11 H :    0.031783
  12 C :   -0.070492
  13 H :    0.034140
  14 H :    0.026734
  15 H :    0.016157
  16 S :    0.429826
  17 C :   -0.194812
  18 C :   -0.076597
  19 C :   -0.055226
  20 C :   -0.219559
  21 H :    0.033656
  22 C :   -0.033740
  23 H :    0.033935
  24 H :    0.025786
  25 C :   -0.044942
  26 H :    0.021053
  27 H :    0.025474
  28 C :   -0.070479
  29 H :    0.035556
  30 H :    0.028911
  31 H :    0.023981
  32 H :    0.029200
  33 H :    0.029613

  Mayer bond orders larger than 0.100000
B(  0-S ,  1-C ) :   1.1198 B(  0-S ,  4-C ) :   1.1603 B(  1-C ,  2-C ) :   1.6518
B(  1-C , 32-H ) :   0.9570 B(  2-C ,  3-C ) :   1.2016 B(  2-C ,  6-C ) :   1.0307
B(  3-C ,  4-C ) :   1.6028 B(  3-C ,  5-H ) :   0.9940 B(  4-C , 20-C ) :   1.0011
B(  6-C ,  7-H ) :   0.9358 B(  6-C ,  8-H ) :   0.9255 B(  6-C ,  9-C ) :   1.0638
B(  9-C , 10-H ) :   0.9501 B(  9-C , 11-H ) :   0.9555 B(  9-C , 12-C ) :   1.0916
B( 12-C , 13-H ) :   0.9727 B( 12-C , 14-H ) :   0.9694 B( 12-C , 15-H ) :   0.9619
B( 16-S , 17-C ) :   1.1703 B( 16-S , 20-C ) :   1.1647 B( 17-C , 18-C ) :   1.6032
B( 17-C , 20-C ) :   0.1021 B( 17-C , 33-H ) :   0.9673 B( 18-C , 19-C ) :   1.2337
B( 18-C , 21-H ) :   0.9958 B( 19-C , 20-C ) :   1.6084 B( 19-C , 22-C ) :   1.0070
B( 22-C , 23-H ) :   0.9452 B( 22-C , 24-H ) :   0.9340 B( 22-C , 25-C ) :   1.0498
B( 25-C , 26-H ) :   0.9572 B( 25-C , 27-H ) :   0.9547 B( 25-C , 28-C ) :   1.0813
B( 28-C , 29-H ) :   0.9738 B( 28-C , 30-H ) :   0.9713 B( 28-C , 31-H ) :   0.9711

Dispersion correction           -0.015467908
FINAL SINGLE POINT ENERGY     -1339.862925942079

DIPOLE MOMENT
-------------
                                X             Y             Z
Electronic contribution:     11.31786      20.42145     -11.62579
Nuclear contribution   :    -11.65332     -20.70038      12.12716
                        -----------------------------------------
Total Dipole Moment    :     -0.33546      -0.27893       0.50138
                        -----------------------------------------
Magnitude (a.u.)       :      0.66462
Magnitude (Debye)      :      1.68932

Rotational constants in cm-1:     0.019091     0.008984     0.008001
Rotational constants in MHz :   572.328377   269.342756   239.860662

                             ****ORCA TERMINATED NORMALLY****
TOTAL RUN TIME: 0 days 0 hours 0 minutes 34 seconds 639 msec
