                         Program Version 4.2.1 -  RELEASE  -
|  1> ! wB97X-D3 SP def2-SVP
|  2> %pal
|  3> nprocs 16
|  4> end
|  5>
|  6> * xyz 0 1
|  7> S 	 37.9278 	 17.543 	 78.7566
|  8> C 	 36.492 	 16.8845 	 77.9555
|  9> C 	 35.4912 	 16.4153 	 78.8529
| 10> C 	 35.9466 	 16.5275 	 80.1887
| 11> C 	 37.2734 	 17.0236 	 80.3497
| 12> H 	 35.3442 	 16.2597 	 81.0566
| 13> C 	 34.2415 	 15.6973 	 78.4737
| 14> H 	 33.8247 	 16.254 	 77.5979
| 15> H 	 33.5148 	 15.889 	 79.2834
| 16> C 	 34.3867 	 14.1966 	 78.1369
| 17> H 	 34.7319 	 14.2069 	 77.084
| 18> H 	 35.1877 	 13.7721 	 78.7968
| 19> C 	 33.0663 	 13.3791 	 78.1424
| 20> H 	 32.3682 	 13.4962 	 77.3749
| 21> H 	 33.3084 	 12.3656 	 78.3204
| 22> H 	 32.5362 	 13.6153 	 79.0562
| 23> S 	 39.7135 	 16.6889 	 81.5914
| 24> C 	 40.0694 	 17.4071 	 83.1307
| 25> C 	 38.9623 	 18.0625 	 83.5634
| 26> C 	 37.7916 	 17.8837 	 82.73
| 27> C 	 38.0805 	 17.1316 	 81.5652
| 28> H 	 38.9461 	 18.5944 	 84.5084
| 29> C 	 36.4916 	 18.6639 	 82.9732
| 30> H 	 35.605 	 18.1484 	 82.4887
| 31> H 	 36.6775 	 19.5699 	 82.4349
| 32> C 	 36.1093 	 18.9076 	 84.4103
| 33> H 	 36.834 	 19.5419 	 84.9584
| 34> H 	 36.146 	 17.9586 	 84.9343
| 35> C 	 34.7245 	 19.5414 	 84.5299
| 36> H 	 34.3993 	 19.9036 	 85.4767
| 37> H 	 34.0148 	 18.8208 	 84.1749
| 38> H 	 34.6582 	 20.3433 	 83.835
| 39> H 	 36.3819 	 16.8845 	 76.8736
| 40> H 	 41.0131 	 17.3844 	 83.5211
| 41> *
| 42>
| 43>                          ****END OF INPUT****

CARTESIAN COORDINATES (ANGSTROEM)
---------------------------------
  S     37.927800   17.543000   78.756600
  C     36.492000   16.884500   77.955500
  C     35.491200   16.415300   78.852900
  C     35.946600   16.527500   80.188700
  C     37.273400   17.023600   80.349700
  H     35.344200   16.259700   81.056600
  C     34.241500   15.697300   78.473700
  H     33.824700   16.254000   77.597900
  H     33.514800   15.889000   79.283400
  C     34.386700   14.196600   78.136900
  H     34.731900   14.206900   77.084000
  H     35.187700   13.772100   78.796800
  C     33.066300   13.379100   78.142400
  H     32.368200   13.496200   77.374900
  H     33.308400   12.365600   78.320400
  H     32.536200   13.615300   79.056200
  S     39.713500   16.688900   81.591400
  C     40.069400   17.407100   83.130700
  C     38.962300   18.062500   83.563400
  C     37.791600   17.883700   82.730000
  C     38.080500   17.131600   81.565200
  H     38.946100   18.594400   84.508400
  C     36.491600   18.663900   82.973200
  H     35.605000   18.148400   82.488700
  H     36.677500   19.569900   82.434900
  C     36.109300   18.907600   84.410300
  H     36.834000   19.541900   84.958400
  H     36.146000   17.958600   84.934300
  C     34.724500   19.541400   84.529900
  H     34.399300   19.903600   85.476700
  H     34.014800   18.820800   84.174900
  H     34.658200   20.343300   83.835000
  H     36.381900   16.884500   76.873600
  H     41.013100   17.384400   83.521100

 Total Charge           Charge          ....    0
 Multiplicity           Mult            ....    1
 Number of Electrons    NEL             ....  134
 Basis Dimension        Dim             ....  322

ORBITAL ENERGIES
----------------

  NO   OCC          E(Eh)            E(eV)
   0   2.0000     -88.971048     -2421.0253
   1   2.0000     -88.962529     -2420.7935
   2   2.0000     -10.337804      -281.3060
   3   2.0000     -10.324466      -280.9430
   4   2.0000     -10.318987      -280.7939
   5   2.0000     -10.311111      -280.5796
   6   2.0000     -10.306116      -280.4437
   7   2.0000     -10.303204      -280.3644
   8   2.0000     -10.299017      -280.2505
   9   2.0000     -10.294900      -280.1385
  10   2.0000     -10.294805      -280.1359
  11   2.0000     -10.294077      -280.1161
  12   2.0000     -10.292296      -280.0676
  13   2.0000     -10.285245      -279.8757
  14   2.0000     -10.272308      -279.5237
  15   2.0000     -10.270598      -279.4772
  16   2.0000      -8.084249      -219.9836
  17   2.0000      -8.078684      -219.8322
  18   2.0000      -6.042785      -164.4325
  19   2.0000      -6.038924      -164.3275
  20   2.0000      -6.037034      -164.2760
  21   2.0000      -6.035122      -164.2240
  22   2.0000      -6.032818      -164.1613
  23   2.0000      -6.029683      -164.0760
  24   2.0000      -1.007176       -27.4066
  25   2.0000      -0.977688       -26.6043
  26   2.0000      -0.913301       -24.8522
  27   2.0000      -0.908646       -24.7255
  28   2.0000      -0.868879       -23.6434
  29   2.0000      -0.851574       -23.1725
  30   2.0000      -0.846655       -23.0387
  31   2.0000      -0.814245       -22.1567
  32   2.0000      -0.782816       -21.3015
  33   2.0000      -0.770632       -20.9700
  34   2.0000      -0.707054       -19.2399
  35   2.0000      -0.702892       -19.1267
  36   2.0000      -0.701445       -19.0873
  37   2.0000      -0.654689       -17.8150
  38   2.0000      -0.636352       -17.3160
  39   2.0000      -0.619000       -16.8438
  40   2.0000      -0.603398       -16.4193
  41   2.0000      -0.570967       -15.5368
  42   2.0000      -0.565760       -15.3951
  43   2.0000      -0.561769       -15.2865
  44   2.0000      -0.533319       -14.5123
  45   2.0000      -0.526231       -14.3195
  46   2.0000      -0.519568       -14.1382
  47   2.0000      -0.510706       -13.8970
  48   2.0000      -0.505664       -13.7598
  49   2.0000      -0.500000       -13.6057
  50   2.0000      -0.490771       -13.3546
  51   2.0000      -0.476050       -12.9540
  52   2.0000      -0.469662       -12.7801
  53   2.0000      -0.467721       -12.7273
  54   2.0000      -0.458960       -12.4889
  55   2.0000      -0.451359       -12.2821
  56   2.0000      -0.449323       -12.2267
  57   2.0000      -0.434712       -11.8291
  58   2.0000      -0.431747       -11.7484
  59   2.0000      -0.429829       -11.6962
  60   2.0000      -0.418944       -11.4001
  61   2.0000      -0.416016       -11.3204
  62   2.0000      -0.412398       -11.2219
  63   2.0000      -0.347816        -9.4645
  64   2.0000      -0.332688        -9.0529
  65   2.0000      -0.327319        -8.9068
  66   2.0000      -0.285495        -7.7687
  67   0.0000       0.024785         0.6744
  68   0.0000       0.067733         1.8431
  69   0.0000       0.107292         2.9196
  70   0.0000       0.126177         3.4335
  71   0.0000       0.130504         3.5512

MULLIKEN ATOMIC CHARGES
-----------------------
   0 S :    0.118854
   1 C :   -0.134230
   2 C :   -0.085090
   3 C :    0.024309
   4 C :   -0.165498
   5 H :    0.019479
   6 C :    0.036593
   7 H :    0.032117
   8 H :    0.021216
   9 C :   -0.079581
  10 H :    0.032487
  11 H :    0.049881
  12 C :   -0.001562
  13 H :    0.031651
  14 H :    0.024354
  15 H :    0.010135
  16 S :    0.098526
  17 C :   -0.057830
  18 C :   -0.025789
  19 C :   -0.069267
  20 C :   -0.136486
  21 H :    0.023324
  22 C :    0.060019
  23 H :    0.024848
  24 H :    0.041682
  25 C :   -0.097512
  26 H :    0.030015
  27 H :    0.028594
  28 C :    0.006487
  29 H :    0.028324
  30 H :    0.017600
  31 H :    0.013647
  32 H :    0.050035
  33 H :    0.028671
Sum of atomic charges:   -0.0000000

LOEWDIN ATOMIC CHARGES
----------------------
   0 S :    0.389489
   1 C :   -0.193798
   2 C :   -0.066373
   3 C :   -0.061386
   4 C :   -0.177593
   5 H :    0.030658
   6 C :   -0.042749
   7 H :    0.035233
   8 H :    0.027968
   9 C :   -0.038220
  10 H :    0.028644
  11 H :    0.033949
  12 C :   -0.060880
  13 H :    0.019634
  14 H :    0.026921
  15 H :    0.024251
  16 S :    0.437884
  17 C :   -0.172795
  18 C :   -0.072276
  19 C :   -0.052793
  20 C :   -0.233370
  21 H :    0.031120
  22 C :   -0.033261
  23 H :    0.035975
  24 H :    0.034650
  25 C :   -0.045089
  26 H :    0.021593
  27 H :    0.023596
  28 C :   -0.056030
  29 H :    0.022522
  30 H :    0.022789
  31 H :    0.021560
  32 H :    0.025013
  33 H :    0.013163

  Mayer bond orders larger than 0.100000
B(  0-S ,  1-C ) :   1.1499 B(  0-S ,  4-C ) :   1.1495 B(  1-C ,  2-C ) :   1.5656
B(  1-C ,  4-C ) :   0.1119 B(  1-C , 32-H ) :   0.9679 B(  2-C ,  3-C ) :   1.2793
B(  2-C ,  6-C ) :   1.0413 B(  3-C ,  4-C ) :   1.5463 B(  3-C ,  5-H ) :   0.9832
B(  4-C , 20-C ) :   1.0637 B(  6-C ,  7-H ) :   0.9357 B(  6-C ,  8-H ) :   0.9402
B(  6-C ,  9-C ) :   1.0472 B(  9-C , 10-H ) :   0.9539 B(  9-C , 11-H ) :   0.9619
B(  9-C , 12-C ) :   1.0755 B( 12-C , 13-H ) :   0.9783 B( 12-C , 14-H ) :   0.9720
B( 12-C , 15-H ) :   0.9719 B( 16-S , 17-C ) :   1.1695 B( 16-S , 20-C ) :   1.1643
B( 17-C , 18-C ) :   1.5617 B( 17-C , 33-H ) :   0.9866 B( 18-C , 19-C ) :   1.2824
B( 18-C , 21-H ) :   0.9903 B( 19-C , 20-C ) :   1.5313 B( 19-C , 22-C ) :   1.0331
B( 22-C , 23-H ) :   0.9391 B( 22-C , 24-H ) :   0.9207 B( 22-C , 25-C ) :   1.0671
B( 25-C , 26-H ) :   0.9443 B( 25-C , 27-H ) :   0.9616 B( 25-C , 28-C ) :   1.0856
B( 28-C , 29-H ) :   0.9739 B( 28-C , 30-H ) :   0.9718 B( 28-C , 31-H ) :   0.9708

Dispersion correction           -0.013410564
FINAL SINGLE POINT ENERGY     -1339.876753838253

DIPOLE MOMENT
-------------
                                X             Y             Z
Electronic contribution:     26.82892       2.95654      -5.86386
Nuclear contribution   :    -27.34377      -2.88554       6.08492
                        -----------------------------------------
Total Dipole Moment    :     -0.51485       0.07101       0.22105
                        -----------------------------------------
Magnitude (a.u.)       :      0.56478
Magnitude (Debye)      :      1.43555

Rotational constants in cm-1:     0.017471     0.007762     0.006176
Rotational constants in MHz :   523.763184   232.688348   185.159693

                             ****ORCA TERMINATED NORMALLY****
TOTAL RUN TIME: 0 days 0 hours 0 minutes 28 seconds 991 msec
