                         Program Version 4.2.1 -  RELEASE  -
|  1> ! wB97X-D3 SP def2-SVP
|  2> %pal
|  3> nprocs 16
|  4> end
|  5>
|  6> * xyz 0 1
|  7> S 	 -6.41795 	 35.2701 	 36.2707
|  8> C 	 -5.89311 	 34.9775 	 34.6068
|  9> C 	 -6.93206 	 35.4094 	 33.7471
| 10> C 	 -8.09346 	 35.8521 	 34.4892
| 11> C 	 -8.05224 	 35.8597 	 35.8438
| 12> H 	 -9.00774 	 36.2411 	 34.096
| 13> C 	 -6.97913 	 35.5579 	 32.2379
| 14> H 	 -7.65108 	 36.3871 	 31.9866
| 15> H 	 -7.23726 	 34.5227 	 31.8467
| 16> C 	 -5.63112 	 35.98 	 31.5341
| 17> H 	 -5.26058 	 36.8667 	 32.075
| 18> H 	 -4.93791 	 35.1603 	 31.4241
| 19> C 	 -5.82994 	 36.4855 	 30.0378
| 20> H 	 -4.86697 	 36.5491 	 29.535
| 21> H 	 -6.50262 	 35.8903 	 29.4649
| 22> H 	 -6.42439 	 37.4079 	 30.0958
| 23> S 	 -8.0333 	 37.5871 	 37.9662
| 24> C 	 -9.49439 	 37.7399 	 38.8547
| 25> C 	 -10.5852 	 37.2239 	 38.1219
| 26> C 	 -10.2151 	 36.4055 	 37.0373
| 27> C 	 -8.8872 	 36.5811 	 36.777
| 28> H 	 -11.6484 	 37.3558 	 38.4004
| 29> C 	 -11.19 	 35.4356 	 36.3998
| 30> H 	 -11.8611 	 35.0693 	 37.1006
| 31> H 	 -10.5785 	 34.6163 	 36.1686
| 32> C 	 -11.9711 	 35.9035 	 35.1654
| 33> H 	 -12.3882 	 35.0183 	 34.7689
| 34> H 	 -11.4013 	 36.4018 	 34.358
| 35> C 	 -13.1146 	 36.9148 	 35.5151
| 36> H 	 -14.012 	 36.3873 	 35.7012
| 37> H 	 -13.3627 	 37.6107 	 34.7303
| 38> H 	 -12.8259 	 37.4101 	 36.4594
| 39> H 	 -4.87372 	 34.7847 	 34.3098
| 40> H 	 -9.5897 	 38.2866 	 39.7783
| 41> *
| 42>
| 43>                          ****END OF INPUT****

CARTESIAN COORDINATES (ANGSTROEM)
---------------------------------
  S     -6.417950   35.270100   36.270700
  C     -5.893110   34.977500   34.606800
  C     -6.932060   35.409400   33.747100
  C     -8.093460   35.852100   34.489200
  C     -8.052240   35.859700   35.843800
  H     -9.007740   36.241100   34.096000
  C     -6.979130   35.557900   32.237900
  H     -7.651080   36.387100   31.986600
  H     -7.237260   34.522700   31.846700
  C     -5.631120   35.980000   31.534100
  H     -5.260580   36.866700   32.075000
  H     -4.937910   35.160300   31.424100
  C     -5.829940   36.485500   30.037800
  H     -4.866970   36.549100   29.535000
  H     -6.502620   35.890300   29.464900
  H     -6.424390   37.407900   30.095800
  S     -8.033300   37.587100   37.966200
  C     -9.494390   37.739900   38.854700
  C    -10.585200   37.223900   38.121900
  C    -10.215100   36.405500   37.037300
  C     -8.887200   36.581100   36.777000
  H    -11.648400   37.355800   38.400400
  C    -11.190000   35.435600   36.399800
  H    -11.861100   35.069300   37.100600
  H    -10.578500   34.616300   36.168600
  C    -11.971100   35.903500   35.165400
  H    -12.388200   35.018300   34.768900
  H    -11.401300   36.401800   34.358000
  C    -13.114600   36.914800   35.515100
  H    -14.012000   36.387300   35.701200
  H    -13.362700   37.610700   34.730300
  H    -12.825900   37.410100   36.459400
  H     -4.873720   34.784700   34.309800
  H     -9.589700   38.286600   39.778300

 Total Charge           Charge          ....    0
 Multiplicity           Mult            ....    1
 Number of Electrons    NEL             ....  134
 Basis Dimension        Dim             ....  322

ORBITAL ENERGIES
----------------

  NO   OCC          E(Eh)            E(eV)
   0   2.0000     -88.969934     -2420.9950
   1   2.0000     -88.959092     -2420.7000
   2   2.0000     -10.325154      -280.9617
   3   2.0000     -10.324952      -280.9562
   4   2.0000     -10.320493      -280.8349
   5   2.0000     -10.319098      -280.7969
   6   2.0000     -10.307772      -280.4887
   7   2.0000     -10.302057      -280.3332
   8   2.0000     -10.299518      -280.2641
   9   2.0000     -10.295949      -280.1670
  10   2.0000     -10.292569      -280.0750
  11   2.0000     -10.288473      -279.9636
  12   2.0000     -10.288184      -279.9557
  13   2.0000     -10.286600      -279.9126
  14   2.0000     -10.279665      -279.7239
  15   2.0000     -10.275829      -279.6195
  16   2.0000      -8.084723      -219.9965
  17   2.0000      -8.073042      -219.6786
  18   2.0000      -6.043179      -164.4433
  19   2.0000      -6.039265      -164.3368
  20   2.0000      -6.035466      -164.2334
  21   2.0000      -6.031739      -164.1320
  22   2.0000      -6.027513      -164.0170
  23   2.0000      -6.023754      -163.9147
  24   2.0000      -1.008142       -27.4329
  25   2.0000      -0.979920       -26.6650
  26   2.0000      -0.914537       -24.8858
  27   2.0000      -0.902382       -24.5551
  28   2.0000      -0.867052       -23.5937
  29   2.0000      -0.854941       -23.2641
  30   2.0000      -0.841035       -22.8857
  31   2.0000      -0.810687       -22.0599
  32   2.0000      -0.791056       -21.5257
  33   2.0000      -0.767424       -20.8827
  34   2.0000      -0.711028       -19.3481
  35   2.0000      -0.703252       -19.1365
  36   2.0000      -0.690660       -18.7938
  37   2.0000      -0.665675       -18.1139
  38   2.0000      -0.642932       -17.4951
  39   2.0000      -0.608254       -16.5514
  40   2.0000      -0.600369       -16.3369
  41   2.0000      -0.578027       -15.7289
  42   2.0000      -0.558748       -15.2043
  43   2.0000      -0.557063       -15.1585
  44   2.0000      -0.546074       -14.8594
  45   2.0000      -0.526585       -14.3291
  46   2.0000      -0.518031       -14.0963
  47   2.0000      -0.508824       -13.8458
  48   2.0000      -0.506810       -13.7910
  49   2.0000      -0.501202       -13.6384
  50   2.0000      -0.488957       -13.3052
  51   2.0000      -0.482638       -13.1332
  52   2.0000      -0.479057       -13.0358
  53   2.0000      -0.466368       -12.6905
  54   2.0000      -0.454881       -12.3779
  55   2.0000      -0.448193       -12.1960
  56   2.0000      -0.445044       -12.1103
  57   2.0000      -0.433383       -11.7930
  58   2.0000      -0.428350       -11.6560
  59   2.0000      -0.423981       -11.5371
  60   2.0000      -0.421856       -11.4793
  61   2.0000      -0.420433       -11.4406
  62   2.0000      -0.405382       -11.0310
  63   2.0000      -0.348809        -9.4916
  64   2.0000      -0.335218        -9.1217
  65   2.0000      -0.319399        -8.6913
  66   2.0000      -0.291336        -7.9276
  67   0.0000       0.022977         0.6252
  68   0.0000       0.068348         1.8598
  69   0.0000       0.109255         2.9730
  70   0.0000       0.124727         3.3940
  71   0.0000       0.133528         3.6335

MULLIKEN ATOMIC CHARGES
-----------------------
   0 S :    0.073014
   1 C :   -0.109783
   2 C :   -0.080061
   3 C :    0.021864
   4 C :   -0.135617
   5 H :   -0.013110
   6 C :    0.040098
   7 H :    0.036021
   8 H :    0.060410
   9 C :   -0.116904
  10 H :    0.046985
  11 H :    0.035551
  12 C :   -0.052140
  13 H :    0.048260
  14 H :    0.016704
  15 H :    0.026578
  16 S :    0.129522
  17 C :   -0.101932
  18 C :   -0.039871
  19 C :   -0.060634
  20 C :   -0.158415
  21 H :    0.028978
  22 C :    0.120413
  23 H :    0.007842
  24 H :    0.018882
  25 C :   -0.062982
  26 H :    0.023704
  27 H :    0.041746
  28 C :   -0.042962
  29 H :    0.018774
  30 H :    0.035544
  31 H :    0.024652
  32 H :    0.059056
  33 H :    0.059812
Sum of atomic charges:   -0.0000000

LOEWDIN ATOMIC CHARGES
----------------------
   0 S :    0.372093
   1 C :   -0.192838
   2 C :   -0.064920
   3 C :   -0.064311
   4 C :   -0.185279
   5 H :    0.023257
   6 C :   -0.037022
   7 H :    0.033638
   8 H :    0.045907
   9 C :   -0.041228
  10 H :    0.028436
  11 H :    0.018492
  12 C :   -0.067202
  13 H :    0.029596
  14 H :    0.017241
  15 H :    0.025185
  16 S :    0.418602
  17 C :   -0.192970
  18 C :   -0.073979
  19 C :   -0.052220
  20 C :   -0.190092
  21 H :    0.029923
  22 C :   -0.017532
  23 H :    0.026016
  24 H :    0.031258
  25 C :   -0.031311
  26 H :    0.019693
  27 H :    0.025755
  28 C :   -0.063672
  29 H :    0.018797
  30 H :    0.025780
  31 H :    0.026606
  32 H :    0.030864
  33 H :    0.027439

  Mayer bond orders larger than 0.100000
B(  0-S ,  1-C ) :   1.1356 B(  0-S ,  4-C ) :   1.1210 B(  1-C ,  2-C ) :   1.5850
B(  1-C , 32-H ) :   0.9722 B(  2-C ,  3-C ) :   1.2456 B(  2-C ,  6-C ) :   1.0181
B(  3-C ,  4-C ) :   1.5963 B(  3-C ,  5-H ) :   0.9921 B(  4-C , 20-C ) :   1.0517
B(  6-C ,  7-H ) :   0.9541 B(  6-C ,  8-H ) :   0.9295 B(  6-C ,  9-C ) :   1.0652
B(  9-C , 10-H ) :   0.9648 B(  9-C , 11-H ) :   0.9565 B(  9-C , 12-C ) :   1.0778
B( 12-C , 13-H ) :   0.9770 B( 12-C , 14-H ) :   0.9756 B( 12-C , 15-H ) :   0.9754
B( 16-S , 17-C ) :   1.1678 B( 16-S , 20-C ) :   1.1344 B( 17-C , 18-C ) :   1.5829
B( 17-C , 33-H ) :   0.9700 B( 18-C , 19-C ) :   1.2595 B( 18-C , 21-H ) :   0.9757
B( 19-C , 20-C ) :   1.6078 B( 19-C , 22-C ) :   1.0349 B( 22-C , 23-H ) :   0.9339
B( 22-C , 24-H ) :   0.9158 B( 22-C , 25-C ) :   1.0774 B( 25-C , 26-H ) :   0.9577
B( 25-C , 27-H ) :   0.9608 B( 25-C , 28-C ) :   1.0563 B( 28-C , 29-H ) :   0.9755
B( 28-C , 30-H ) :   0.9783 B( 28-C , 31-H ) :   0.9809

Dispersion correction           -0.013851976
FINAL SINGLE POINT ENERGY     -1339.854647811779

DIPOLE MOMENT
-------------
                                X             Y             Z
Electronic contribution:     11.91749       0.34135      24.49146
Nuclear contribution   :    -12.39164      -0.29736     -24.95541
                        -----------------------------------------
Total Dipole Moment    :     -0.47415       0.04400      -0.46395
                        -----------------------------------------
Magnitude (a.u.)       :      0.66483
Magnitude (Debye)      :      1.68987

Rotational constants in cm-1:     0.019269     0.007856     0.006206
Rotational constants in MHz :   577.676143   235.527299   186.060077

                             ****ORCA TERMINATED NORMALLY****
TOTAL RUN TIME: 0 days 0 hours 0 minutes 33 seconds 173 msec
