                         Program Version 4.2.1 -  RELEASE  -
|  1> ! wB97X-D3 SP def2-SVP
|  2> %pal
|  3> nprocs 16
|  4> end
|  5>
|  6> * xyz 0 1
|  7> S 	 -43.3511 	 63.3217 	 141.208
|  8> C 	 -41.9959 	 62.554 	 141.944
|  9> C 	 -41.2438 	 61.671 	 141.175
| 10> C 	 -41.9142 	 61.5569 	 139.878
| 11> C 	 -43.0483 	 62.3386 	 139.794
| 12> H 	 -41.7542 	 60.9575 	 139.044
| 13> C 	 -40.0304 	 60.8156 	 141.64
| 14> H 	 -39.2572 	 61.4856 	 141.92
| 15> H 	 -39.7085 	 60.3013 	 140.732
| 16> C 	 -40.1564 	 60.0018 	 142.902
| 17> H 	 -40.369 	 60.7052 	 143.666
| 18> H 	 -41.0795 	 59.3871 	 142.753
| 19> C 	 -38.9066 	 59.1256 	 143.122
| 20> H 	 -38.7982 	 58.9027 	 144.176
| 21> H 	 -38.9255 	 58.1571 	 142.571
| 22> H 	 -37.9541 	 59.6227 	 142.828
| 23> S 	 -45.5695 	 61.8008 	 139.045
| 24> C 	 -45.9963 	 61.8839 	 137.361
| 25> C 	 -44.9936 	 62.5451 	 136.608
| 26> C 	 -43.7682 	 62.8279 	 137.357
| 27> C 	 -43.9682 	 62.3826 	 138.628
| 28> H 	 -45.2055 	 62.5814 	 135.507
| 29> C 	 -42.5401 	 63.5347 	 136.716
| 30> H 	 -41.9812 	 64.0373 	 137.502
| 31> H 	 -42.8809 	 64.4017 	 136.19
| 32> C 	 -41.6035 	 62.5605 	 135.995
| 33> H 	 -42.1857 	 62.0437 	 135.269
| 34> H 	 -41.2526 	 61.8398 	 136.792
| 35> C 	 -40.3802 	 63.1466 	 135.246
| 36> H 	 -39.965 	 62.3142 	 134.641
| 37> H 	 -39.5465 	 63.542 	 135.849
| 38> H 	 -40.6391 	 64.0421 	 134.618
| 39> H 	 -41.75 	 62.7074 	 143.045
| 40> H 	 -46.9368 	 61.4929 	 137.023
| 41> *
| 42>
| 43>                          ****END OF INPUT****

CARTESIAN COORDINATES (ANGSTROEM)
---------------------------------
  S    -43.351100   63.321700  141.208000
  C    -41.995900   62.554000  141.944000
  C    -41.243800   61.671000  141.175000
  C    -41.914200   61.556900  139.878000
  C    -43.048300   62.338600  139.794000
  H    -41.754200   60.957500  139.044000
  C    -40.030400   60.815600  141.640000
  H    -39.257200   61.485600  141.920000
  H    -39.708500   60.301300  140.732000
  C    -40.156400   60.001800  142.902000
  H    -40.369000   60.705200  143.666000
  H    -41.079500   59.387100  142.753000
  C    -38.906600   59.125600  143.122000
  H    -38.798200   58.902700  144.176000
  H    -38.925500   58.157100  142.571000
  H    -37.954100   59.622700  142.828000
  S    -45.569500   61.800800  139.045000
  C    -45.996300   61.883900  137.361000
  C    -44.993600   62.545100  136.608000
  C    -43.768200   62.827900  137.357000
  C    -43.968200   62.382600  138.628000
  H    -45.205500   62.581400  135.507000
  C    -42.540100   63.534700  136.716000
  H    -41.981200   64.037300  137.502000
  H    -42.880900   64.401700  136.190000
  C    -41.603500   62.560500  135.995000
  H    -42.185700   62.043700  135.269000
  H    -41.252600   61.839800  136.792000
  C    -40.380200   63.146600  135.246000
  H    -39.965000   62.314200  134.641000
  H    -39.546500   63.542000  135.849000
  H    -40.639100   64.042100  134.618000
  H    -41.750000   62.707400  143.045000
  H    -46.936800   61.492900  137.023000

 Total Charge           Charge          ....    0
 Multiplicity           Mult            ....    1
 Number of Electrons    NEL             ....  134
 Basis Dimension        Dim             ....  322

ORBITAL ENERGIES
----------------

  NO   OCC          E(Eh)            E(eV)
   0   2.0000     -88.967448     -2420.9274
   1   2.0000     -88.963181     -2420.8112
   2   2.0000     -10.323453      -280.9154
   3   2.0000     -10.322322      -280.8847
   4   2.0000     -10.317019      -280.7404
   5   2.0000     -10.314295      -280.6662
   6   2.0000     -10.309384      -280.5326
   7   2.0000     -10.306454      -280.4529
   8   2.0000     -10.302605      -280.3481
   9   2.0000     -10.293295      -280.0948
  10   2.0000     -10.291467      -280.0451
  11   2.0000     -10.290711      -280.0245
  12   2.0000     -10.289579      -279.9937
  13   2.0000     -10.288012      -279.9510
  14   2.0000     -10.286302      -279.9045
  15   2.0000     -10.285908      -279.8938
  16   2.0000      -8.082651      -219.9401
  17   2.0000      -8.078431      -219.8253
  18   2.0000      -6.040985      -164.3836
  19   2.0000      -6.037269      -164.2824
  20   2.0000      -6.036818      -164.2702
  21   2.0000      -6.033399      -164.1771
  22   2.0000      -6.032994      -164.1661
  23   2.0000      -6.029164      -164.0619
  24   2.0000      -1.003998       -27.3202
  25   2.0000      -0.979592       -26.6561
  26   2.0000      -0.913607       -24.8605
  27   2.0000      -0.905247       -24.6330
  28   2.0000      -0.860039       -23.4028
  29   2.0000      -0.851267       -23.1642
  30   2.0000      -0.846107       -23.0237
  31   2.0000      -0.806723       -21.9521
  32   2.0000      -0.785069       -21.3628
  33   2.0000      -0.771271       -20.9873
  34   2.0000      -0.705491       -19.1974
  35   2.0000      -0.699957       -19.0468
  36   2.0000      -0.683892       -18.6097
  37   2.0000      -0.661086       -17.9891
  38   2.0000      -0.642233       -17.4760
  39   2.0000      -0.611581       -16.6420
  40   2.0000      -0.593989       -16.1633
  41   2.0000      -0.571092       -15.5402
  42   2.0000      -0.561124       -15.2690
  43   2.0000      -0.552604       -15.0371
  44   2.0000      -0.529083       -14.3971
  45   2.0000      -0.519720       -14.1423
  46   2.0000      -0.511621       -13.9219
  47   2.0000      -0.506969       -13.7953
  48   2.0000      -0.506581       -13.7848
  49   2.0000      -0.495249       -13.4764
  50   2.0000      -0.479808       -13.0562
  51   2.0000      -0.475938       -12.9509
  52   2.0000      -0.470997       -12.8165
  53   2.0000      -0.460564       -12.5326
  54   2.0000      -0.458232       -12.4691
  55   2.0000      -0.450895       -12.2695
  56   2.0000      -0.440296       -11.9811
  57   2.0000      -0.437559       -11.9066
  58   2.0000      -0.434127       -11.8132
  59   2.0000      -0.429938       -11.6992
  60   2.0000      -0.426713       -11.6115
  61   2.0000      -0.417424       -11.3587
  62   2.0000      -0.415617       -11.3095
  63   2.0000      -0.337984        -9.1970
  64   2.0000      -0.332438        -9.0461
  65   2.0000      -0.325407        -8.8548
  66   2.0000      -0.297254        -8.0887
  67   0.0000       0.043993         1.1971
  68   0.0000       0.062620         1.7040
  69   0.0000       0.111036         3.0214
  70   0.0000       0.118213         3.2167
  71   0.0000       0.129465         3.5229

MULLIKEN ATOMIC CHARGES
-----------------------
   0 S :    0.132296
   1 C :   -0.157762
   2 C :   -0.074775
   3 C :    0.053335
   4 C :   -0.178405
   5 H :   -0.013215
   6 C :    0.083112
   7 H :    0.018831
   8 H :    0.021419
   9 C :   -0.067395
  10 H :    0.022166
  11 H :    0.040734
  12 C :   -0.056253
  13 H :    0.034163
  14 H :    0.046542
  15 H :    0.030881
  16 S :    0.111042
  17 C :   -0.104009
  18 C :   -0.063230
  19 C :   -0.014537
  20 C :   -0.208787
  21 H :    0.040593
  22 C :    0.111052
  23 H :    0.017435
  24 H :    0.019643
  25 C :   -0.074820
  26 H :    0.025095
  27 H :    0.038348
  28 C :   -0.065650
  29 H :    0.045038
  30 H :    0.035343
  31 H :    0.036237
  32 H :    0.063387
  33 H :    0.052150
Sum of atomic charges:   -0.0000000

LOEWDIN ATOMIC CHARGES
----------------------
   0 S :    0.412782
   1 C :   -0.217321
   2 C :   -0.058943
   3 C :   -0.056028
   4 C :   -0.199448
   5 H :    0.019353
   6 C :   -0.031170
   7 H :    0.027838
   8 H :    0.028944
   9 C :   -0.039155
  10 H :    0.018485
  11 H :    0.030754
  12 C :   -0.068118
  13 H :    0.026427
  14 H :    0.033986
  15 H :    0.027845
  16 S :    0.404577
  17 C :   -0.188877
  18 C :   -0.076116
  19 C :   -0.051471
  20 C :   -0.195001
  21 H :    0.037774
  22 C :   -0.027846
  23 H :    0.031737
  24 H :    0.028454
  25 C :   -0.039913
  26 H :    0.019872
  27 H :    0.032947
  28 C :   -0.075749
  29 H :    0.032952
  30 H :    0.025400
  31 H :    0.029452
  32 H :    0.033415
  33 H :    0.022166

  Mayer bond orders larger than 0.100000
B(  0-S ,  1-C ) :   1.1434 B(  0-S ,  4-C ) :   1.1463 B(  1-C ,  2-C ) :   1.6406
B(  1-C , 32-H ) :   0.9548 B(  2-C ,  3-C ) :   1.1952 B(  2-C ,  6-C ) :   1.0142
B(  3-C ,  4-C ) :   1.6313 B(  3-C ,  5-H ) :   0.9972 B(  4-C , 20-C ) :   0.9852
B(  6-C ,  7-H ) :   0.9271 B(  6-C ,  8-H ) :   0.9486 B(  6-C ,  9-C ) :   1.0627
B(  9-C , 10-H ) :   0.9535 B(  9-C , 11-H ) :   0.9602 B(  9-C , 12-C ) :   1.0738
B( 12-C , 13-H ) :   0.9750 B( 12-C , 14-H ) :   0.9754 B( 12-C , 15-H ) :   0.9744
B( 16-S , 17-C ) :   1.1467 B( 16-S , 20-C ) :   1.1537 B( 17-C , 18-C ) :   1.6337
B( 17-C , 33-H ) :   0.9738 B( 18-C , 19-C ) :   1.1812 B( 18-C , 21-H ) :   0.9794
B( 19-C , 20-C ) :   1.6566 B( 19-C , 22-C ) :   1.0326 B( 22-C , 23-H ) :   0.9274
B( 22-C , 24-H ) :   0.9370 B( 22-C , 25-C ) :   1.0574 B( 25-C , 26-H ) :   0.9615
B( 25-C , 27-H ) :   0.9497 B( 25-C , 28-C ) :   1.0773 B( 28-C , 29-H ) :   0.9751
B( 28-C , 30-H ) :   0.9755 B( 28-C , 31-H ) :   0.9741

Dispersion correction           -0.013760541
FINAL SINGLE POINT ENERGY     -1339.869125707199

DIPOLE MOMENT
-------------
                                X             Y             Z
Electronic contribution:    -26.07874       7.91006       4.77666
Nuclear contribution   :     26.56117      -8.10863      -4.97878
                        -----------------------------------------
Total Dipole Moment    :      0.48243      -0.19857      -0.20213
                        -----------------------------------------
Magnitude (a.u.)       :      0.55949
Magnitude (Debye)      :      1.42211

Rotational constants in cm-1:     0.017648     0.007873     0.006259
Rotational constants in MHz :   529.086875   236.020843   187.625179

                             ****ORCA TERMINATED NORMALLY****
TOTAL RUN TIME: 0 days 0 hours 0 minutes 33 seconds 824 msec
