                         Program Version 4.2.1 -  RELEASE  -
|  1> ! wB97X-D3 SP def2-SVP
|  2> %pal
|  3> nprocs 16
|  4> end
|  5>
|  6> * xyz 0 1
|  7> S 	 -65.8205 	 45.6532 	 126.038
|  8> C 	 -66.2052 	 47.3495 	 126.357
|  9> C 	 -66.5022 	 48.0314 	 125.178
| 10> C 	 -66.0823 	 47.2656 	 124.028
| 11> C 	 -65.8053 	 45.9111 	 124.284
| 12> H 	 -66.0615 	 47.6237 	 122.997
| 13> C 	 -66.9998 	 49.496 	 125.164
| 14> H 	 -67.2918 	 49.5538 	 126.196
| 15> H 	 -67.9452 	 49.3559 	 124.515
| 16> C 	 -66.0567 	 50.5731 	 124.768
| 17> H 	 -65.0648 	 50.4327 	 125.273
| 18> H 	 -65.9194 	 50.4444 	 123.745
| 19> C 	 -66.5914 	 52.0058 	 124.979
| 20> H 	 -66.3195 	 52.4642 	 125.967
| 21> H 	 -66.0774 	 52.5569 	 124.148
| 22> H 	 -67.6358 	 52.0762 	 124.984
| 23> S 	 -63.6346 	 44.2699 	 123.657
| 24> C 	 -63.6829 	 43.2416 	 122.243
| 25> C 	 -64.8567 	 43.5145 	 121.53
| 26> C 	 -65.7785 	 44.4575 	 122.162
| 27> C 	 -65.2441 	 44.9199 	 123.339
| 28> H 	 -65.0549 	 42.9089 	 120.69
| 29> C 	 -67.0626 	 44.8753 	 121.46
| 30> H 	 -67.825 	 45.3029 	 122.164
| 31> H 	 -67.4358 	 44.014 	 120.982
| 32> C 	 -66.9798 	 45.8813 	 120.305
| 33> H 	 -66.1717 	 45.5563 	 119.615
| 34> H 	 -66.5791 	 46.8277 	 120.77
| 35> C 	 -68.3213 	 46.1293 	 119.669
| 36> H 	 -68.6331 	 45.3586 	 118.97
| 37> H 	 -68.2465 	 46.9849 	 118.948
| 38> H 	 -69.086 	 46.419 	 120.406
| 39> H 	 -66.4438 	 47.7184 	 127.322
| 40> H 	 -62.9283 	 42.4991 	 121.998
| 41> *
| 42>
| 43>                          ****END OF INPUT****

CARTESIAN COORDINATES (ANGSTROEM)
---------------------------------
  S    -65.820500   45.653200  126.038000
  C    -66.205200   47.349500  126.357000
  C    -66.502200   48.031400  125.178000
  C    -66.082300   47.265600  124.028000
  C    -65.805300   45.911100  124.284000
  H    -66.061500   47.623700  122.997000
  C    -66.999800   49.496000  125.164000
  H    -67.291800   49.553800  126.196000
  H    -67.945200   49.355900  124.515000
  C    -66.056700   50.573100  124.768000
  H    -65.064800   50.432700  125.273000
  H    -65.919400   50.444400  123.745000
  C    -66.591400   52.005800  124.979000
  H    -66.319500   52.464200  125.967000
  H    -66.077400   52.556900  124.148000
  H    -67.635800   52.076200  124.984000
  S    -63.634600   44.269900  123.657000
  C    -63.682900   43.241600  122.243000
  C    -64.856700   43.514500  121.530000
  C    -65.778500   44.457500  122.162000
  C    -65.244100   44.919900  123.339000
  H    -65.054900   42.908900  120.690000
  C    -67.062600   44.875300  121.460000
  H    -67.825000   45.302900  122.164000
  H    -67.435800   44.014000  120.982000
  C    -66.979800   45.881300  120.305000
  H    -66.171700   45.556300  119.615000
  H    -66.579100   46.827700  120.770000
  C    -68.321300   46.129300  119.669000
  H    -68.633100   45.358600  118.970000
  H    -68.246500   46.984900  118.948000
  H    -69.086000   46.419000  120.406000
  H    -66.443800   47.718400  127.322000
  H    -62.928300   42.499100  121.998000

 Total Charge           Charge          ....    0
 Multiplicity           Mult            ....    1
 Number of Electrons    NEL             ....  134
 Basis Dimension        Dim             ....  322

ORBITAL ENERGIES
----------------

  NO   OCC          E(Eh)            E(eV)
   0   2.0000     -88.965377     -2420.8710
   1   2.0000     -88.963662     -2420.8243
   2   2.0000     -10.333723      -281.1949
   3   2.0000     -10.328741      -281.0593
   4   2.0000     -10.321059      -280.8503
   5   2.0000     -10.315350      -280.6950
   6   2.0000     -10.306933      -280.4659
   7   2.0000     -10.305197      -280.4187
   8   2.0000     -10.299667      -280.2682
   9   2.0000     -10.296758      -280.1890
  10   2.0000     -10.295088      -280.1436
  11   2.0000     -10.291795      -280.0540
  12   2.0000     -10.290419      -280.0165
  13   2.0000     -10.285156      -279.8733
  14   2.0000     -10.284629      -279.8590
  15   2.0000     -10.282757      -279.8080
  16   2.0000      -8.079346      -219.8502
  17   2.0000      -8.078246      -219.8202
  18   2.0000      -6.037893      -164.2994
  19   2.0000      -6.036842      -164.2708
  20   2.0000      -6.033939      -164.1918
  21   2.0000      -6.032683      -164.1577
  22   2.0000      -6.030118      -164.0879
  23   2.0000      -6.028999      -164.0574
  24   2.0000      -0.999414       -27.1954
  25   2.0000      -0.977801       -26.6073
  26   2.0000      -0.914568       -24.8866
  27   2.0000      -0.912106       -24.8197
  28   2.0000      -0.866885       -23.5891
  29   2.0000      -0.851351       -23.1664
  30   2.0000      -0.841907       -22.9095
  31   2.0000      -0.812783       -22.1170
  32   2.0000      -0.782911       -21.3041
  33   2.0000      -0.773077       -21.0365
  34   2.0000      -0.708423       -19.2772
  35   2.0000      -0.697233       -18.9727
  36   2.0000      -0.690294       -18.7839
  37   2.0000      -0.662411       -18.0251
  38   2.0000      -0.640284       -17.4230
  39   2.0000      -0.615518       -16.7491
  40   2.0000      -0.596543       -16.2328
  41   2.0000      -0.571231       -15.5440
  42   2.0000      -0.569534       -15.4978
  43   2.0000      -0.561282       -15.2733
  44   2.0000      -0.533620       -14.5206
  45   2.0000      -0.524823       -14.2812
  46   2.0000      -0.516229       -14.0473
  47   2.0000      -0.508578       -13.8391
  48   2.0000      -0.505461       -13.7543
  49   2.0000      -0.497035       -13.5250
  50   2.0000      -0.495842       -13.4925
  51   2.0000      -0.475486       -12.9386
  52   2.0000      -0.473558       -12.8862
  53   2.0000      -0.468178       -12.7398
  54   2.0000      -0.454847       -12.3770
  55   2.0000      -0.450928       -12.2704
  56   2.0000      -0.444235       -12.0882
  57   2.0000      -0.436877       -11.8880
  58   2.0000      -0.428945       -11.6722
  59   2.0000      -0.423351       -11.5200
  60   2.0000      -0.421181       -11.4609
  61   2.0000      -0.414622       -11.2824
  62   2.0000      -0.407972       -11.1015
  63   2.0000      -0.341912        -9.3039
  64   2.0000      -0.330053        -8.9812
  65   2.0000      -0.324767        -8.8374
  66   2.0000      -0.298751        -8.1294
  67   0.0000       0.030024         0.8170
  68   0.0000       0.069403         1.8885
  69   0.0000       0.113444         3.0870
  70   0.0000       0.117823         3.2061
  71   0.0000       0.127140         3.4596

MULLIKEN ATOMIC CHARGES
-----------------------
   0 S :    0.101826
   1 C :   -0.107377
   2 C :   -0.131316
   3 C :    0.030735
   4 C :   -0.162156
   5 H :    0.013920
   6 C :    0.052887
   7 H :    0.004410
   8 H :    0.050138
   9 C :   -0.033957
  10 H :    0.045916
  11 H :    0.012668
  12 C :   -0.053495
  13 H :    0.039623
  14 H :    0.047484
  15 H :    0.023885
  16 S :    0.109667
  17 C :   -0.107601
  18 C :   -0.025197
  19 C :   -0.010411
  20 C :   -0.158805
  21 H :    0.006312
  22 C :    0.070539
  23 H :    0.034971
  24 H :    0.005611
  25 C :   -0.092669
  26 H :    0.030786
  27 H :    0.023376
  28 C :   -0.042366
  29 H :    0.035470
  30 H :    0.031986
  31 H :    0.042735
  32 H :    0.042536
  33 H :    0.067869
Sum of atomic charges:    0.0000000

LOEWDIN ATOMIC CHARGES
----------------------
   0 S :    0.389316
   1 C :   -0.187018
   2 C :   -0.063489
   3 C :   -0.060510
   4 C :   -0.190514
   5 H :    0.028504
   6 C :   -0.036184
   7 H :    0.023468
   8 H :    0.043922
   9 C :   -0.043080
  10 H :    0.037378
  11 H :    0.016201
  12 C :   -0.064226
  13 H :    0.030978
  14 H :    0.037817
  15 H :    0.016518
  16 S :    0.399551
  17 C :   -0.185782
  18 C :   -0.067230
  19 C :   -0.052388
  20 C :   -0.196326
  21 H :    0.021454
  22 C :   -0.033167
  23 H :    0.035454
  24 H :    0.022937
  25 C :   -0.045850
  26 H :    0.026147
  27 H :    0.021874
  28 C :   -0.071097
  29 H :    0.026968
  30 H :    0.033908
  31 H :    0.031027
  32 H :    0.019562
  33 H :    0.033877

  Mayer bond orders larger than 0.100000
B(  0-S ,  1-C ) :   1.1423 B(  0-S ,  4-C ) :   1.1464 B(  1-C ,  2-C ) :   1.6119
B(  1-C , 32-H ) :   0.9641 B(  2-C ,  3-C ) :   1.2304 B(  2-C ,  6-C ) :   1.0117
B(  3-C ,  4-C ) :   1.5809 B(  3-C ,  5-H ) :   0.9856 B(  4-C , 20-C ) :   1.0244
B(  6-C ,  7-H ) :   0.9383 B(  6-C ,  8-H ) :   0.9311 B(  6-C ,  9-C ) :   1.0741
B(  9-C , 10-H ) :   0.9518 B(  9-C , 11-H ) :   0.9554 B(  9-C , 12-C ) :   1.0697
B( 12-C , 13-H ) :   0.9767 B( 12-C , 14-H ) :   0.9793 B( 12-C , 15-H ) :   0.9772
B( 16-S , 17-C ) :   1.1485 B( 16-S , 20-C ) :   1.1387 B( 17-C , 18-C ) :   1.6168
B( 17-C , 33-H ) :   0.9696 B( 18-C , 19-C ) :   1.2138 B( 18-C , 21-H ) :   0.9919
B( 19-C , 20-C ) :   1.6218 B( 19-C , 22-C ) :   1.0582 B( 22-C , 23-H ) :   0.9308
B( 22-C , 24-H ) :   0.9260 B( 22-C , 25-C ) :   1.0682 B( 25-C , 26-H ) :   0.9495
B( 25-C , 27-H ) :   0.9504 B( 25-C , 28-C ) :   1.0873 B( 28-C , 29-H ) :   0.9721
B( 28-C , 30-H ) :   0.9695 B( 28-C , 31-H ) :   0.9705

Dispersion correction           -0.013638001
FINAL SINGLE POINT ENERGY     -1339.871481648346

DIPOLE MOMENT
-------------
                                X             Y             Z
Electronic contribution:     14.55302     -22.51652      14.12197
Nuclear contribution   :    -14.87780      22.94198     -14.61747
                        -----------------------------------------
Total Dipole Moment    :     -0.32478       0.42546      -0.49549
                        -----------------------------------------
Magnitude (a.u.)       :      0.72939
Magnitude (Debye)      :      1.85396

Rotational constants in cm-1:     0.016715     0.008361     0.006309
Rotational constants in MHz :   501.115576   250.643063   189.141305

                             ****ORCA TERMINATED NORMALLY****
TOTAL RUN TIME: 0 days 0 hours 0 minutes 32 seconds 943 msec
