                         Program Version 4.2.1 -  RELEASE  -
|  1> ! wB97X-D3 SP def2-SVP
|  2> %pal
|  3> nprocs 16
|  4> end
|  5>
|  6> * xyz 0 1
|  7> S 	 1.13295 	 -24.713 	 58.3804
|  8> C 	 0.729488 	 -26.3653 	 58.0158
|  9> C 	 1.66762 	 -26.9986 	 57.2049
| 10> C 	 2.82454 	 -26.1802 	 57.0165
| 11> C 	 2.77232 	 -25.0013 	 57.7068
| 12> H 	 3.64238 	 -26.4079 	 56.3918
| 13> C 	 1.42716 	 -28.2732 	 56.4752
| 14> H 	 1.69765 	 -28.0033 	 55.4558
| 15> H 	 0.379079 	 -28.3976 	 56.4918
| 16> C 	 2.29351 	 -29.4679 	 57.0673
| 17> H 	 1.75868 	 -30.3408 	 56.7009
| 18> H 	 3.3386 	 -29.6005 	 56.6716
| 19> C 	 2.39021 	 -29.572 	 58.5794
| 20> H 	 1.39216 	 -29.3346 	 58.9364
| 21> H 	 2.55544 	 -30.5897 	 58.936
| 22> H 	 3.1083 	 -28.8434 	 59.0563
| 23> S 	 3.20399 	 -22.3834 	 56.9062
| 24> C 	 4.79755 	 -21.678 	 56.9385
| 25> C 	 5.65523 	 -22.5788 	 57.5013
| 26> C 	 5.11962 	 -23.8163 	 57.9042
| 27> C 	 3.73564 	 -23.885 	 57.6336
| 28> H 	 6.69842 	 -22.4066 	 57.5003
| 29> C 	 5.92061 	 -24.9369 	 58.4909
| 30> H 	 5.30564 	 -25.7192 	 58.7527
| 31> H 	 6.32836 	 -24.6094 	 59.4466
| 32> C 	 7.23353 	 -25.3553 	 57.7808
| 33> H 	 7.72759 	 -26.1772 	 58.3892
| 34> H 	 7.84177 	 -24.4976 	 57.7772
| 35> C 	 6.79253 	 -25.8193 	 56.3307
| 36> H 	 7.54695 	 -26.5415 	 55.9256
| 37> H 	 6.72177 	 -25.003 	 55.5505
| 38> H 	 5.90965 	 -26.3858 	 56.3762
| 39> H 	 -0.145799 	 -26.8928 	 58.3421
| 40> H 	 5.00364 	 -20.7286 	 56.4563
| 41> *
| 42>
| 43>                          ****END OF INPUT****

CARTESIAN COORDINATES (ANGSTROEM)
---------------------------------
  S      1.132950  -24.713000   58.380400
  C      0.729488  -26.365300   58.015800
  C      1.667620  -26.998600   57.204900
  C      2.824540  -26.180200   57.016500
  C      2.772320  -25.001300   57.706800
  H      3.642380  -26.407900   56.391800
  C      1.427160  -28.273200   56.475200
  H      1.697650  -28.003300   55.455800
  H      0.379079  -28.397600   56.491800
  C      2.293510  -29.467900   57.067300
  H      1.758680  -30.340800   56.700900
  H      3.338600  -29.600500   56.671600
  C      2.390210  -29.572000   58.579400
  H      1.392160  -29.334600   58.936400
  H      2.555440  -30.589700   58.936000
  H      3.108300  -28.843400   59.056300
  S      3.203990  -22.383400   56.906200
  C      4.797550  -21.678000   56.938500
  C      5.655230  -22.578800   57.501300
  C      5.119620  -23.816300   57.904200
  C      3.735640  -23.885000   57.633600
  H      6.698420  -22.406600   57.500300
  C      5.920610  -24.936900   58.490900
  H      5.305640  -25.719200   58.752700
  H      6.328360  -24.609400   59.446600
  C      7.233530  -25.355300   57.780800
  H      7.727590  -26.177200   58.389200
  H      7.841770  -24.497600   57.777200
  C      6.792530  -25.819300   56.330700
  H      7.546950  -26.541500   55.925600
  H      6.721770  -25.003000   55.550500
  H      5.909650  -26.385800   56.376200
  H     -0.145799  -26.892800   58.342100
  H      5.003640  -20.728600   56.456300

 Total Charge           Charge          ....    0
 Multiplicity           Mult            ....    1
 Number of Electrons    NEL             ....  134
 Basis Dimension        Dim             ....  322

ORBITAL ENERGIES
----------------

  NO   OCC          E(Eh)            E(eV)
   0   2.0000     -88.965705     -2420.8799
   1   2.0000     -88.961416     -2420.7632
   2   2.0000     -10.331592      -281.1369
   3   2.0000     -10.327270      -281.0193
   4   2.0000     -10.316310      -280.7211
   5   2.0000     -10.310927      -280.5746
   6   2.0000     -10.301136      -280.3082
   7   2.0000     -10.296976      -280.1950
   8   2.0000     -10.294701      -280.1330
   9   2.0000     -10.293746      -280.1071
  10   2.0000     -10.293658      -280.1047
  11   2.0000     -10.291332      -280.0414
  12   2.0000     -10.287520      -279.9377
  13   2.0000     -10.282074      -279.7894
  14   2.0000     -10.280575      -279.7487
  15   2.0000     -10.279341      -279.7151
  16   2.0000      -8.079979      -219.8674
  17   2.0000      -8.076506      -219.7729
  18   2.0000      -6.038539      -164.3170
  19   2.0000      -6.034966      -164.2198
  20   2.0000      -6.034780      -164.2147
  21   2.0000      -6.030843      -164.1076
  22   2.0000      -6.030494      -164.0981
  23   2.0000      -6.027409      -164.0141
  24   2.0000      -1.004696       -27.3392
  25   2.0000      -0.984280       -26.7836
  26   2.0000      -0.910787       -24.7838
  27   2.0000      -0.909214       -24.7410
  28   2.0000      -0.866584       -23.5810
  29   2.0000      -0.849871       -23.1262
  30   2.0000      -0.841514       -22.8988
  31   2.0000      -0.817994       -22.2588
  32   2.0000      -0.782857       -21.3026
  33   2.0000      -0.771787       -21.0014
  34   2.0000      -0.710688       -19.3388
  35   2.0000      -0.701781       -19.0964
  36   2.0000      -0.694999       -18.9119
  37   2.0000      -0.655492       -17.8368
  38   2.0000      -0.641364       -17.4524
  39   2.0000      -0.622648       -16.9431
  40   2.0000      -0.604383       -16.4461
  41   2.0000      -0.562667       -15.3109
  42   2.0000      -0.554003       -15.0752
  43   2.0000      -0.547966       -14.9109
  44   2.0000      -0.541663       -14.7394
  45   2.0000      -0.537622       -14.6294
  46   2.0000      -0.521035       -14.1781
  47   2.0000      -0.517344       -14.0776
  48   2.0000      -0.497264       -13.5312
  49   2.0000      -0.496265       -13.5041
  50   2.0000      -0.488604       -13.2956
  51   2.0000      -0.479964       -13.0605
  52   2.0000      -0.469277       -12.7697
  53   2.0000      -0.468222       -12.7410
  54   2.0000      -0.460932       -12.5426
  55   2.0000      -0.452393       -12.3103
  56   2.0000      -0.443305       -12.0629
  57   2.0000      -0.440918       -11.9980
  58   2.0000      -0.434661       -11.8277
  59   2.0000      -0.420894       -11.4531
  60   2.0000      -0.417364       -11.3570
  61   2.0000      -0.415142       -11.2966
  62   2.0000      -0.413061       -11.2399
  63   2.0000      -0.348206        -9.4752
  64   2.0000      -0.328630        -8.9425
  65   2.0000      -0.324831        -8.8391
  66   2.0000      -0.289590        -7.8801
  67   0.0000       0.033106         0.9009
  68   0.0000       0.063440         1.7263
  69   0.0000       0.105308         2.8656
  70   0.0000       0.128368         3.4931
  71   0.0000       0.131198         3.5701

MULLIKEN ATOMIC CHARGES
-----------------------
   0 S :    0.105584
   1 C :   -0.102832
   2 C :   -0.144047
   3 C :    0.061248
   4 C :   -0.151788
   5 H :   -0.007946
   6 C :    0.119859
   7 H :    0.036561
   8 H :    0.009424
   9 C :   -0.095950
  10 H :    0.027495
  11 H :    0.039372
  12 C :   -0.038948
  13 H :    0.007848
  14 H :    0.037331
  15 H :    0.052860
  16 S :    0.096147
  17 C :   -0.098133
  18 C :   -0.016693
  19 C :   -0.024416
  20 C :   -0.165392
  21 H :   -0.000854
  22 C :    0.088249
  23 H :    0.004066
  24 H :    0.021125
  25 C :   -0.076034
  26 H :    0.048749
  27 H :    0.024409
  28 C :   -0.057118
  29 H :    0.028411
  30 H :    0.055621
  31 H :    0.013748
  32 H :    0.037313
  33 H :    0.064733
Sum of atomic charges:    0.0000000

LOEWDIN ATOMIC CHARGES
----------------------
   0 S :    0.387424
   1 C :   -0.199707
   2 C :   -0.063058
   3 C :   -0.051164
   4 C :   -0.175004
   5 H :    0.024206
   6 C :   -0.025207
   7 H :    0.040183
   8 H :    0.025791
   9 C :   -0.046836
  10 H :    0.024898
  11 H :    0.028358
  12 C :   -0.071574
  13 H :    0.021140
  14 H :    0.028519
  15 H :    0.034011
  16 S :    0.406257
  17 C :   -0.184862
  18 C :   -0.071266
  19 C :   -0.055530
  20 C :   -0.199718
  21 H :    0.022949
  22 C :   -0.030605
  23 H :    0.016634
  24 H :    0.034201
  25 C :   -0.029631
  26 H :    0.036145
  27 H :    0.013549
  28 C :   -0.072117
  29 H :    0.027360
  30 H :    0.037097
  31 H :    0.012278
  32 H :    0.022484
  33 H :    0.032796

  Mayer bond orders larger than 0.100000
B(  0-S ,  1-C ) :   1.1335 B(  0-S ,  4-C ) :   1.1358 B(  1-C ,  2-C ) :   1.6192
B(  1-C , 32-H ) :   0.9614 B(  2-C ,  3-C ) :   1.2208 B(  2-C ,  6-C ) :   1.0299
B(  3-C ,  4-C ) :   1.5908 B(  3-C ,  5-H ) :   1.0001 B(  4-C , 20-C ) :   1.0184
B(  6-C ,  7-H ) :   0.9394 B(  6-C ,  8-H ) :   0.9370 B(  6-C ,  9-C ) :   1.0428
B(  9-C , 10-H ) :   0.9577 B(  9-C , 11-H ) :   0.9582 B(  9-C , 12-C ) :   1.0903
B( 12-C , 13-H ) :   0.9717 B( 12-C , 14-H ) :   0.9718 B( 12-C , 15-H ) :   0.9682
B( 16-S , 17-C ) :   1.1585 B( 16-S , 20-C ) :   1.1634 B( 17-C , 18-C ) :   1.5739
B( 17-C , 20-C ) :   0.1014 B( 17-C , 33-H ) :   0.9729 B( 18-C , 19-C ) :   1.2682
B( 18-C , 21-H ) :   0.9950 B( 19-C , 20-C ) :   1.5607 B( 19-C , 22-C ) :   1.0548
B( 22-C , 23-H ) :   0.9338 B( 22-C , 24-H ) :   0.9249 B( 22-C , 25-C ) :   1.0704
B( 25-C , 26-H ) :   0.9568 B( 25-C , 27-H ) :   0.9575 B( 25-C , 28-C ) :   1.0624
B( 28-C , 29-H ) :   0.9722 B( 28-C , 30-H ) :   0.9733 B( 28-C , 31-H ) :   0.9788

Dispersion correction           -0.015465557
FINAL SINGLE POINT ENERGY     -1339.869013074347

DIPOLE MOMENT
-------------
                                X             Y             Z
Electronic contribution:    -13.92441      24.29234       1.68874
Nuclear contribution   :     14.31680     -24.85658      -1.94392
                        -----------------------------------------
Total Dipole Moment    :      0.39238      -0.56424      -0.25518
                        -----------------------------------------
Magnitude (a.u.)       :      0.73311
Magnitude (Debye)      :      1.86341

Rotational constants in cm-1:     0.019211     0.009679     0.007166
Rotational constants in MHz :   575.935997   290.163070   214.825370

                             ****ORCA TERMINATED NORMALLY****
TOTAL RUN TIME: 0 days 0 hours 0 minutes 36 seconds 376 msec
