                         Program Version 4.2.1 -  RELEASE  -
|  1> ! wB97X-D3 SP def2-SVP
|  2> %pal
|  3> nprocs 16
|  4> end
|  5>
|  6> * xyz 0 1
|  7> S 	 -2.72599 	 44.6752 	 35.7318
|  8> C 	 -2.48059 	 43.6407 	 37.1322
|  9> C 	 -3.56219 	 43.5553 	 37.9228
| 10> C 	 -4.61233 	 44.4362 	 37.5019
| 11> C 	 -4.34052 	 45.0227 	 36.2921
| 12> H 	 -5.48964 	 44.6536 	 38.0707
| 13> C 	 -3.51949 	 42.8821 	 39.2383
| 14> H 	 -4.49458 	 42.846 	 39.7255
| 15> H 	 -2.87635 	 43.4587 	 39.9455
| 16> C 	 -3.11872 	 41.4832 	 39.0939
| 17> H 	 -3.70121 	 41.1273 	 38.2495
| 18> H 	 -2.02449 	 41.362 	 38.8517
| 19> C 	 -3.37377 	 40.5973 	 40.318
| 20> H 	 -2.53902 	 40.6498 	 41.004
| 21> H 	 -4.30632 	 40.7915 	 40.9464
| 22> H 	 -3.49024 	 39.5656 	 39.906
| 23> S 	 -4.48282 	 47.5951 	 35.5263
| 24> C 	 -5.93137 	 48.2239 	 34.9461
| 25> C 	 -6.89841 	 47.256 	 34.7883
| 26> C 	 -6.40537 	 45.9754 	 35.0649
| 27> C 	 -5.13026 	 45.9791 	 35.5614
| 28> H 	 -7.93025 	 47.3522 	 34.3377
| 29> C 	 -7.33362 	 44.7954 	 35.1519
| 30> H 	 -8.34063 	 45.1677 	 34.9919
| 31> H 	 -7.3142 	 44.2455 	 36.1334
| 32> C 	 -7.07377 	 43.6826 	 34.0986
| 33> H 	 -7.5187 	 42.7632 	 34.4862
| 34> H 	 -6.05082 	 43.4202 	 34.0689
| 35> C 	 -7.6168 	 43.9818 	 32.6804
| 36> H 	 -7.28084 	 43.2194 	 32.0359
| 37> H 	 -7.14127 	 44.9542 	 32.3277
| 38> H 	 -8.67556 	 44.0307 	 32.7212
| 39> H 	 -1.57199 	 43.0425 	 37.2721
| 40> H 	 -6.24131 	 49.2922 	 34.9085
| 41> *
| 42>
| 43>                          ****END OF INPUT****

CARTESIAN COORDINATES (ANGSTROEM)
---------------------------------
  S     -2.725990   44.675200   35.731800
  C     -2.480590   43.640700   37.132200
  C     -3.562190   43.555300   37.922800
  C     -4.612330   44.436200   37.501900
  C     -4.340520   45.022700   36.292100
  H     -5.489640   44.653600   38.070700
  C     -3.519490   42.882100   39.238300
  H     -4.494580   42.846000   39.725500
  H     -2.876350   43.458700   39.945500
  C     -3.118720   41.483200   39.093900
  H     -3.701210   41.127300   38.249500
  H     -2.024490   41.362000   38.851700
  C     -3.373770   40.597300   40.318000
  H     -2.539020   40.649800   41.004000
  H     -4.306320   40.791500   40.946400
  H     -3.490240   39.565600   39.906000
  S     -4.482820   47.595100   35.526300
  C     -5.931370   48.223900   34.946100
  C     -6.898410   47.256000   34.788300
  C     -6.405370   45.975400   35.064900
  C     -5.130260   45.979100   35.561400
  H     -7.930250   47.352200   34.337700
  C     -7.333620   44.795400   35.151900
  H     -8.340630   45.167700   34.991900
  H     -7.314200   44.245500   36.133400
  C     -7.073770   43.682600   34.098600
  H     -7.518700   42.763200   34.486200
  H     -6.050820   43.420200   34.068900
  C     -7.616800   43.981800   32.680400
  H     -7.280840   43.219400   32.035900
  H     -7.141270   44.954200   32.327700
  H     -8.675560   44.030700   32.721200
  H     -1.571990   43.042500   37.272100
  H     -6.241310   49.292200   34.908500

 Total Charge           Charge          ....    0
 Multiplicity           Mult            ....    1
 Number of Electrons    NEL             ....  134
 Basis Dimension        Dim             ....  322

ORBITAL ENERGIES
----------------

  NO   OCC          E(Eh)            E(eV)
   0   2.0000     -88.965362     -2420.8706
   1   2.0000     -88.964226     -2420.8397
   2   2.0000     -10.326044      -280.9859
   3   2.0000     -10.316977      -280.7392
   4   2.0000     -10.314844      -280.6812
   5   2.0000     -10.308395      -280.5057
   6   2.0000     -10.293362      -280.0966
   7   2.0000     -10.292066      -280.0613
   8   2.0000     -10.291946      -280.0581
   9   2.0000     -10.291841      -280.0552
  10   2.0000     -10.289574      -279.9935
  11   2.0000     -10.285113      -279.8721
  12   2.0000     -10.284373      -279.8520
  13   2.0000     -10.284181      -279.8468
  14   2.0000     -10.276043      -279.6254
  15   2.0000     -10.272340      -279.5246
  16   2.0000      -8.081669      -219.9134
  17   2.0000      -8.079286      -219.8485
  18   2.0000      -6.039992      -164.3565
  19   2.0000      -6.037709      -164.2944
  20   2.0000      -6.035815      -164.2429
  21   2.0000      -6.033842      -164.1892
  22   2.0000      -6.032652      -164.1568
  23   2.0000      -6.030025      -164.0853
  24   2.0000      -1.017061       -27.6756
  25   2.0000      -0.993123       -27.0242
  26   2.0000      -0.925930       -25.1958
  27   2.0000      -0.906387       -24.6640
  28   2.0000      -0.871791       -23.7227
  29   2.0000      -0.852841       -23.2070
  30   2.0000      -0.847415       -23.0593
  31   2.0000      -0.813858       -22.1462
  32   2.0000      -0.783292       -21.3144
  33   2.0000      -0.771584       -20.9959
  34   2.0000      -0.708811       -19.2877
  35   2.0000      -0.697743       -18.9865
  36   2.0000      -0.685648       -18.6574
  37   2.0000      -0.664783       -18.0897
  38   2.0000      -0.641578       -17.4582
  39   2.0000      -0.618426       -16.8282
  40   2.0000      -0.596742       -16.2382
  41   2.0000      -0.576670       -15.6920
  42   2.0000      -0.566979       -15.4283
  43   2.0000      -0.544620       -14.8199
  44   2.0000      -0.539254       -14.6738
  45   2.0000      -0.525410       -14.2971
  46   2.0000      -0.517730       -14.0882
  47   2.0000      -0.516205       -14.0466
  48   2.0000      -0.505393       -13.7524
  49   2.0000      -0.499141       -13.5823
  50   2.0000      -0.489587       -13.3223
  51   2.0000      -0.476012       -12.9530
  52   2.0000      -0.468541       -12.7496
  53   2.0000      -0.468186       -12.7400
  54   2.0000      -0.460572       -12.5328
  55   2.0000      -0.450375       -12.2553
  56   2.0000      -0.442221       -12.0334
  57   2.0000      -0.433194       -11.7878
  58   2.0000      -0.431513       -11.7421
  59   2.0000      -0.422824       -11.5056
  60   2.0000      -0.420758       -11.4494
  61   2.0000      -0.416239       -11.3264
  62   2.0000      -0.412285       -11.2189
  63   2.0000      -0.342721        -9.3259
  64   2.0000      -0.332706        -9.0534
  65   2.0000      -0.331199        -9.0124
  66   2.0000      -0.295984        -8.0541
  67   0.0000       0.037548         1.0217
  68   0.0000       0.062538         1.7017
  69   0.0000       0.114637         3.1194
  70   0.0000       0.122715         3.3392
  71   0.0000       0.128692         3.5019

MULLIKEN ATOMIC CHARGES
-----------------------
   0 S :    0.108734
   1 C :   -0.141009
   2 C :   -0.075899
   3 C :    0.050770
   4 C :   -0.158366
   5 H :    0.008510
   6 C :    0.095125
   7 H :    0.003521
   8 H :    0.045532
   9 C :   -0.127330
  10 H :    0.034287
  11 H :    0.037803
  12 C :   -0.059420
  13 H :    0.033779
  14 H :    0.037522
  15 H :    0.041385
  16 S :    0.130995
  17 C :   -0.083925
  18 C :   -0.075894
  19 C :   -0.013708
  20 C :   -0.178861
  21 H :    0.039637
  22 C :    0.050509
  23 H :    0.004387
  24 H :    0.039270
  25 C :   -0.070833
  26 H :    0.013224
  27 H :    0.020376
  28 C :   -0.035172
  29 H :    0.029359
  30 H :    0.041810
  31 H :    0.027139
  32 H :    0.054721
  33 H :    0.072024
Sum of atomic charges:   -0.0000000

LOEWDIN ATOMIC CHARGES
----------------------
   0 S :    0.399852
   1 C :   -0.189940
   2 C :   -0.068775
   3 C :   -0.054151
   4 C :   -0.193090
   5 H :    0.029798
   6 C :   -0.038282
   7 H :    0.027177
   8 H :    0.036848
   9 C :   -0.048935
  10 H :    0.026402
  11 H :    0.028788
  12 C :   -0.073104
  13 H :    0.022343
  14 H :    0.029348
  15 H :    0.033580
  16 S :    0.448013
  17 C :   -0.214153
  18 C :   -0.083986
  19 C :   -0.064438
  20 C :   -0.210378
  21 H :    0.041534
  22 C :   -0.029868
  23 H :    0.023446
  24 H :    0.038053
  25 C :   -0.037415
  26 H :    0.020193
  27 H :    0.017180
  28 C :   -0.060310
  29 H :    0.021102
  30 H :    0.034058
  31 H :    0.017940
  32 H :    0.029453
  33 H :    0.041719

  Mayer bond orders larger than 0.100000
B(  0-S ,  1-C ) :   1.1223 B(  0-S ,  4-C ) :   1.1534 B(  1-C ,  2-C ) :   1.6347
B(  1-C , 32-H ) :   0.9666 B(  2-C ,  3-C ) :   1.2168 B(  2-C ,  6-C ) :   1.0313
B(  3-C ,  4-C ) :   1.5958 B(  3-C ,  5-H ) :   0.9989 B(  4-C , 20-C ) :   1.0027
B(  6-C ,  7-H ) :   0.9329 B(  6-C ,  8-H ) :   0.9309 B(  6-C ,  9-C ) :   1.0671
B(  9-C , 10-H ) :   0.9643 B(  9-C , 11-H ) :   0.9439 B(  9-C , 12-C ) :   1.0823
B( 12-C , 13-H ) :   0.9745 B( 12-C , 14-H ) :   0.9734 B( 12-C , 15-H ) :   0.9765
B( 16-S , 17-C ) :   1.1871 B( 16-S , 20-C ) :   1.1586 B( 17-C , 18-C ) :   1.5725
B( 17-C , 33-H ) :   0.9582 B( 18-C , 19-C ) :   1.2920 B( 18-C , 21-H ) :   0.9740
B( 19-C , 20-C ) :   1.5883 B( 19-C , 22-C ) :   1.0447 B( 22-C , 23-H ) :   0.9374
B( 22-C , 24-H ) :   0.9412 B( 22-C , 25-C ) :   1.0629 B( 25-C , 26-H ) :   0.9550
B( 25-C , 27-H ) :   0.9599 B( 25-C , 28-C ) :   1.0779 B( 28-C , 29-H ) :   0.9740
B( 28-C , 30-H ) :   0.9764 B( 28-C , 31-H ) :   0.9769

Dispersion correction           -0.014132818
FINAL SINGLE POINT ENERGY     -1339.878890463900

DIPOLE MOMENT
-------------
                                X             Y             Z
Electronic contribution:     10.68847      22.22633      -6.95820
Nuclear contribution   :    -11.04892     -22.52793       7.37589
                        -----------------------------------------
Total Dipole Moment    :     -0.36046      -0.30160       0.41769
                        -----------------------------------------
Magnitude (a.u.)       :      0.62877
Magnitude (Debye)      :      1.59821

Rotational constants in cm-1:     0.021310     0.007763     0.006604
Rotational constants in MHz :   638.861071   232.731076   197.988325

                             ****ORCA TERMINATED NORMALLY****
TOTAL RUN TIME: 0 days 0 hours 0 minutes 34 seconds 237 msec
