                         Program Version 4.2.1 -  RELEASE  -
|  1> ! wB97X-D3 SP def2-SVP
|  2> %pal
|  3> nprocs 16
|  4> end
|  5>
|  6> * xyz 0 1
|  7> S 	 53.1688 	 -0.350105 	 88.0127
|  8> C 	 51.8059 	 -1.41027 	 87.715
|  9> C 	 50.7421 	 -0.691762 	 87.2213
| 10> C 	 51.1296 	 0.667606 	 87.0927
| 11> C 	 52.4419 	 1.02479 	 87.3634
| 12> H 	 50.505 	 1.5285 	 86.7527
| 13> C 	 49.3028 	 -1.24557 	 87.1095
| 14> H 	 48.7498 	 -1.36587 	 88.0794
| 15> H 	 49.4694 	 -2.30315 	 86.7858
| 16> C 	 48.3341 	 -0.530033 	 86.1147
| 17> H 	 48.4354 	 0.516475 	 86.3045
| 18> H 	 48.8151 	 -0.633034 	 85.1183
| 19> C 	 46.8738 	 -1.01612 	 86.2392
| 20> H 	 46.0677 	 -0.645187 	 85.5705
| 21> H 	 46.854 	 -2.11898 	 86.1238
| 22> H 	 46.6397 	 -0.889841 	 87.281
| 23> S 	 52.725 	 3.3487 	 85.7258
| 24> C 	 53.7651 	 4.60921 	 86.2986
| 25> C 	 54.3255 	 4.27282 	 87.5425
| 26> C 	 53.8348 	 3.0482 	 88.0385
| 27> C 	 52.9548 	 2.34585 	 87.1768
| 28> H 	 55.0367 	 4.95772 	 87.9918
| 29> C 	 54.4096 	 2.59219 	 89.3711
| 30> H 	 53.6676 	 1.87185 	 89.7283
| 31> H 	 54.322 	 3.46444 	 90.0866
| 32> C 	 55.8002 	 1.91594 	 89.1695
| 33> H 	 56.5774 	 2.62672 	 89.0203
| 34> H 	 55.6667 	 1.28201 	 88.3328
| 35> C 	 56.2909 	 1.06251 	 90.3833
| 36> H 	 56.5534 	 1.59262 	 91.31
| 37> H 	 57.2181 	 0.646852 	 90.1567
| 38> H 	 55.6077 	 0.184273 	 90.6212
| 39> H 	 51.7559 	 -2.48817 	 87.8723
| 40> H 	 53.9078 	 5.49105 	 85.7685
| 41> *
| 42>
| 43>                          ****END OF INPUT****

CARTESIAN COORDINATES (ANGSTROEM)
---------------------------------
  S     53.168800   -0.350105   88.012700
  C     51.805900   -1.410270   87.715000
  C     50.742100   -0.691762   87.221300
  C     51.129600    0.667606   87.092700
  C     52.441900    1.024790   87.363400
  H     50.505000    1.528500   86.752700
  C     49.302800   -1.245570   87.109500
  H     48.749800   -1.365870   88.079400
  H     49.469400   -2.303150   86.785800
  C     48.334100   -0.530033   86.114700
  H     48.435400    0.516475   86.304500
  H     48.815100   -0.633034   85.118300
  C     46.873800   -1.016120   86.239200
  H     46.067700   -0.645187   85.570500
  H     46.854000   -2.118980   86.123800
  H     46.639700   -0.889841   87.281000
  S     52.725000    3.348700   85.725800
  C     53.765100    4.609210   86.298600
  C     54.325500    4.272820   87.542500
  C     53.834800    3.048200   88.038500
  C     52.954800    2.345850   87.176800
  H     55.036700    4.957720   87.991800
  C     54.409600    2.592190   89.371100
  H     53.667600    1.871850   89.728300
  H     54.322000    3.464440   90.086600
  C     55.800200    1.915940   89.169500
  H     56.577400    2.626720   89.020300
  H     55.666700    1.282010   88.332800
  C     56.290900    1.062510   90.383300
  H     56.553400    1.592620   91.310000
  H     57.218100    0.646852   90.156700
  H     55.607700    0.184273   90.621200
  H     51.755900   -2.488170   87.872300
  H     53.907800    5.491050   85.768500

 Total Charge           Charge          ....    0
 Multiplicity           Mult            ....    1
 Number of Electrons    NEL             ....  134
 Basis Dimension        Dim             ....  322

ORBITAL ENERGIES
----------------

  NO   OCC          E(Eh)            E(eV)
   0   2.0000     -88.971284     -2421.0317
   1   2.0000     -88.970819     -2421.0191
   2   2.0000     -10.331249      -281.1276
   3   2.0000     -10.325445      -280.9696
   4   2.0000     -10.316881      -280.7366
   5   2.0000     -10.316573      -280.7282
   6   2.0000     -10.305432      -280.4251
   7   2.0000     -10.304262      -280.3932
   8   2.0000     -10.302054      -280.3332
   9   2.0000     -10.294027      -280.1147
  10   2.0000     -10.293023      -280.0874
  11   2.0000     -10.291963      -280.0585
  12   2.0000     -10.289641      -279.9954
  13   2.0000     -10.285695      -279.8880
  14   2.0000     -10.285008      -279.8693
  15   2.0000     -10.275171      -279.6016
  16   2.0000      -8.086187      -220.0363
  17   2.0000      -8.084810      -219.9989
  18   2.0000      -6.044639      -164.4830
  19   2.0000      -6.043311      -164.4469
  20   2.0000      -6.040543      -164.3715
  21   2.0000      -6.039276      -164.3371
  22   2.0000      -6.037097      -164.2778
  23   2.0000      -6.035772      -164.2417
  24   2.0000      -1.014167       -27.5969
  25   2.0000      -0.987380       -26.8680
  26   2.0000      -0.909151       -24.7393
  27   2.0000      -0.903460       -24.5844
  28   2.0000      -0.875082       -23.8122
  29   2.0000      -0.849522       -23.1167
  30   2.0000      -0.844990       -22.9934
  31   2.0000      -0.811463       -22.0810
  32   2.0000      -0.781609       -21.2687
  33   2.0000      -0.772203       -21.0127
  34   2.0000      -0.715536       -19.4707
  35   2.0000      -0.702096       -19.1050
  36   2.0000      -0.693477       -18.8705
  37   2.0000      -0.669260       -18.2115
  38   2.0000      -0.632412       -17.2088
  39   2.0000      -0.615992       -16.7620
  40   2.0000      -0.593261       -16.1435
  41   2.0000      -0.576931       -15.6991
  42   2.0000      -0.565279       -15.3820
  43   2.0000      -0.559844       -15.2341
  44   2.0000      -0.527496       -14.3539
  45   2.0000      -0.523739       -14.2517
  46   2.0000      -0.515940       -14.0394
  47   2.0000      -0.509666       -13.8687
  48   2.0000      -0.505422       -13.7532
  49   2.0000      -0.498358       -13.5610
  50   2.0000      -0.491251       -13.3676
  51   2.0000      -0.484074       -13.1723
  52   2.0000      -0.466815       -12.7027
  53   2.0000      -0.465411       -12.6645
  54   2.0000      -0.459985       -12.5168
  55   2.0000      -0.449267       -12.2252
  56   2.0000      -0.444383       -12.0923
  57   2.0000      -0.433047       -11.7838
  58   2.0000      -0.430112       -11.7040
  59   2.0000      -0.426272       -11.5995
  60   2.0000      -0.417330       -11.3561
  61   2.0000      -0.415804       -11.3146
  62   2.0000      -0.414332       -11.2745
  63   2.0000      -0.352883        -9.6024
  64   2.0000      -0.332954        -9.0601
  65   2.0000      -0.331928        -9.0322
  66   2.0000      -0.287456        -7.8221
  67   0.0000       0.023099         0.6286
  68   0.0000       0.071787         1.9534
  69   0.0000       0.106701         2.9035
  70   0.0000       0.121937         3.3181
  71   0.0000       0.132902         3.6164

MULLIKEN ATOMIC CHARGES
-----------------------
   0 S :    0.113419
   1 C :   -0.132599
   2 C :   -0.029529
   3 C :   -0.046869
   4 C :   -0.134982
   5 H :    0.023261
   6 C :    0.005180
   7 H :    0.049155
   8 H :    0.027733
   9 C :   -0.078988
  10 H :    0.031343
  11 H :    0.034412
  12 C :   -0.040468
  13 H :    0.054849
  14 H :    0.025184
  15 H :    0.023541
  16 S :    0.119685
  17 C :   -0.084497
  18 C :   -0.023375
  19 C :   -0.085609
  20 C :   -0.133439
  21 H :    0.024252
  22 C :    0.042758
  23 H :    0.020248
  24 H :    0.041526
  25 C :   -0.022990
  26 H :    0.026879
  27 H :    0.026350
  28 C :   -0.050881
  29 H :    0.029373
  30 H :    0.011590
  31 H :    0.040649
  32 H :    0.052386
  33 H :    0.040450
Sum of atomic charges:   -0.0000000

LOEWDIN ATOMIC CHARGES
----------------------
   0 S :    0.448523
   1 C :   -0.196418
   2 C :   -0.068206
   3 C :   -0.076767
   4 C :   -0.219418
   5 H :    0.029936
   6 C :   -0.034250
   7 H :    0.035150
   8 H :    0.032370
   9 C :   -0.045245
  10 H :    0.017947
  11 H :    0.027646
  12 C :   -0.069632
  13 H :    0.034630
  14 H :    0.028015
  15 H :    0.023803
  16 S :    0.416502
  17 C :   -0.177951
  18 C :   -0.070202
  19 C :   -0.055630
  20 C :   -0.201255
  21 H :    0.033725
  22 C :   -0.039542
  23 H :    0.021459
  24 H :    0.037010
  25 C :   -0.025566
  26 H :    0.022310
  27 H :    0.018075
  28 C :   -0.070290
  29 H :    0.026196
  30 H :    0.015948
  31 H :    0.030932
  32 H :    0.033838
  33 H :    0.016353

  Mayer bond orders larger than 0.100000
B(  0-S ,  1-C ) :   1.1585 B(  0-S ,  4-C ) :   1.1503 B(  1-C ,  2-C ) :   1.5767
B(  1-C , 32-H ) :   0.9688 B(  2-C ,  3-C ) :   1.2700 B(  2-C ,  6-C ) :   1.0060
B(  3-C ,  4-C ) :   1.5335 B(  3-C ,  5-H ) :   0.9871 B(  4-C , 20-C ) :   1.0913
B(  6-C ,  7-H ) :   0.9496 B(  6-C ,  8-H ) :   0.9382 B(  6-C ,  9-C ) :   1.0504
B(  9-C , 10-H ) :   0.9568 B(  9-C , 11-H ) :   0.9593 B(  9-C , 12-C ) :   1.0665
B( 12-C , 13-H ) :   0.9755 B( 12-C , 14-H ) :   0.9753 B( 12-C , 15-H ) :   0.9729
B( 16-S , 17-C ) :   1.1825 B( 16-S , 20-C ) :   1.1335 B( 17-C , 18-C ) :   1.5500
B( 17-C , 20-C ) :   0.1071 B( 17-C , 33-H ) :   0.9769 B( 18-C , 19-C ) :   1.2791
B( 18-C , 21-H ) :   0.9958 B( 19-C , 20-C ) :   1.5213 B( 19-C , 22-C ) :   1.0529
B( 22-C , 23-H ) :   0.9300 B( 22-C , 24-H ) :   0.9366 B( 22-C , 25-C ) :   1.0489
B( 25-C , 26-H ) :   0.9566 B( 25-C , 27-H ) :   0.9522 B( 25-C , 28-C ) :   1.0901
B( 28-C , 29-H ) :   0.9740 B( 28-C , 30-H ) :   0.9718 B( 28-C , 31-H ) :   0.9746

Dispersion correction           -0.014019691
FINAL SINGLE POINT ENERGY     -1339.870506602120

DIPOLE MOMENT
-------------
                                X             Y             Z
Electronic contribution:      7.42848       8.05443      -7.96858
Nuclear contribution   :     -7.50401      -8.04275       8.15278
                        -----------------------------------------
Total Dipole Moment    :     -0.07553       0.01169       0.18420
                        -----------------------------------------
Magnitude (a.u.)       :      0.19943
Magnitude (Debye)      :      0.50691

Rotational constants in cm-1:     0.020910     0.007946     0.006068
Rotational constants in MHz :   626.871768   238.218121   181.900396

                             ****ORCA TERMINATED NORMALLY****
TOTAL RUN TIME: 0 days 0 hours 0 minutes 27 seconds 797 msec
