                         Program Version 4.2.1 -  RELEASE  -
|  1> ! wB97X-D3 SP def2-SVP
|  2> %pal
|  3> nprocs 16
|  4> end
|  5>
|  6> * xyz 0 1
|  7> S 	 -43.7891 	 36.5342 	 81.7214
|  8> C 	 -42.6478 	 37.7924 	 81.9017
|  9> C 	 -42.8279 	 38.7805 	 80.9546
| 10> C 	 -44.118 	 38.6497 	 80.2653
| 11> C 	 -44.7874 	 37.5064 	 80.6585
| 12> H 	 -44.4975 	 39.4456 	 79.607
| 13> C 	 -42.0022 	 40.0271 	 80.8164
| 14> H 	 -41.2507 	 40.1817 	 81.6088
| 15> H 	 -42.584 	 40.9316 	 80.9412
| 16> C 	 -41.2866 	 40.1329 	 79.4869
| 17> H 	 -40.5729 	 40.9644 	 79.6693
| 18> H 	 -40.6043 	 39.2902 	 79.424
| 19> C 	 -42.0964 	 40.4407 	 78.2293
| 20> H 	 -42.6388 	 41.3859 	 78.3187
| 21> H 	 -41.4686 	 40.4446 	 77.3988
| 22> H 	 -42.8964 	 39.813 	 77.9856
| 23> S 	 -46.3474 	 36.3082 	 78.6923
| 24> C 	 -48.0857 	 36.0399 	 78.965
| 25> C 	 -48.4632 	 36.5059 	 80.249
| 26> C 	 -47.3652 	 36.9862 	 81.0302
| 27> C 	 -46.2009 	 37.075 	 80.3059
| 28> H 	 -49.5401 	 36.469 	 80.572
| 29> C 	 -47.5659 	 37.2191 	 82.5394
| 30> H 	 -46.7365 	 36.6852 	 83.1017
| 31> H 	 -48.5758 	 36.8004 	 82.7285
| 32> C 	 -47.4417 	 38.68 	 82.8606
| 33> H 	 -46.4543 	 39.0559 	 82.4795
| 34> H 	 -47.4176 	 38.8214 	 83.9284
| 35> C 	 -48.7161 	 39.5685 	 82.4395
| 36> H 	 -48.7996 	 39.5161 	 81.3799
| 37> H 	 -48.6458 	 40.5846 	 82.7292
| 38> H 	 -49.6464 	 39.1721 	 82.9024
| 39> H 	 -41.7141 	 37.73 	 82.4468
| 40> H 	 -48.6459 	 35.6071 	 78.1945
| 41> *
| 42>
| 43>                          ****END OF INPUT****

CARTESIAN COORDINATES (ANGSTROEM)
---------------------------------
  S    -43.789100   36.534200   81.721400
  C    -42.647800   37.792400   81.901700
  C    -42.827900   38.780500   80.954600
  C    -44.118000   38.649700   80.265300
  C    -44.787400   37.506400   80.658500
  H    -44.497500   39.445600   79.607000
  C    -42.002200   40.027100   80.816400
  H    -41.250700   40.181700   81.608800
  H    -42.584000   40.931600   80.941200
  C    -41.286600   40.132900   79.486900
  H    -40.572900   40.964400   79.669300
  H    -40.604300   39.290200   79.424000
  C    -42.096400   40.440700   78.229300
  H    -42.638800   41.385900   78.318700
  H    -41.468600   40.444600   77.398800
  H    -42.896400   39.813000   77.985600
  S    -46.347400   36.308200   78.692300
  C    -48.085700   36.039900   78.965000
  C    -48.463200   36.505900   80.249000
  C    -47.365200   36.986200   81.030200
  C    -46.200900   37.075000   80.305900
  H    -49.540100   36.469000   80.572000
  C    -47.565900   37.219100   82.539400
  H    -46.736500   36.685200   83.101700
  H    -48.575800   36.800400   82.728500
  C    -47.441700   38.680000   82.860600
  H    -46.454300   39.055900   82.479500
  H    -47.417600   38.821400   83.928400
  C    -48.716100   39.568500   82.439500
  H    -48.799600   39.516100   81.379900
  H    -48.645800   40.584600   82.729200
  H    -49.646400   39.172100   82.902400
  H    -41.714100   37.730000   82.446800
  H    -48.645900   35.607100   78.194500

 Total Charge           Charge          ....    0
 Multiplicity           Mult            ....    1
 Number of Electrons    NEL             ....  134
 Basis Dimension        Dim             ....  322

ORBITAL ENERGIES
----------------

  NO   OCC          E(Eh)            E(eV)
   0   2.0000     -88.965510     -2420.8746
   1   2.0000     -88.963919     -2420.8313
   2   2.0000     -10.334794      -281.2241
   3   2.0000     -10.330966      -281.1199
   4   2.0000     -10.321907      -280.8734
   5   2.0000     -10.310976      -280.5759
   6   2.0000     -10.304983      -280.4128
   7   2.0000     -10.303889      -280.3831
   8   2.0000     -10.301210      -280.3102
   9   2.0000     -10.300854      -280.3005
  10   2.0000     -10.297453      -280.2079
  11   2.0000     -10.289174      -279.9826
  12   2.0000     -10.285409      -279.8802
  13   2.0000     -10.285391      -279.8797
  14   2.0000     -10.274300      -279.5779
  15   2.0000     -10.269760      -279.4544
  16   2.0000      -8.080860      -219.8914
  17   2.0000      -8.077716      -219.8058
  18   2.0000      -6.039340      -164.3388
  19   2.0000      -6.036206      -164.2535
  20   2.0000      -6.035257      -164.2277
  21   2.0000      -6.032352      -164.1486
  22   2.0000      -6.031635      -164.1291
  23   2.0000      -6.028553      -164.0453
  24   2.0000      -1.002190       -27.2710
  25   2.0000      -0.979923       -26.6651
  26   2.0000      -0.914323       -24.8800
  27   2.0000      -0.903539       -24.5865
  28   2.0000      -0.861665       -23.4471
  29   2.0000      -0.845629       -23.0107
  30   2.0000      -0.839215       -22.8362
  31   2.0000      -0.813076       -22.1249
  32   2.0000      -0.786638       -21.4055
  33   2.0000      -0.776593       -21.1322
  34   2.0000      -0.704370       -19.1669
  35   2.0000      -0.700351       -19.0575
  36   2.0000      -0.683210       -18.5911
  37   2.0000      -0.665573       -18.1112
  38   2.0000      -0.641150       -17.4466
  39   2.0000      -0.616632       -16.7794
  40   2.0000      -0.587123       -15.9764
  41   2.0000      -0.570716       -15.5300
  42   2.0000      -0.552081       -15.0229
  43   2.0000      -0.545385       -14.8407
  44   2.0000      -0.544359       -14.8128
  45   2.0000      -0.537652       -14.6302
  46   2.0000      -0.517947       -14.0941
  47   2.0000      -0.509096       -13.8532
  48   2.0000      -0.500795       -13.6273
  49   2.0000      -0.493527       -13.4296
  50   2.0000      -0.482757       -13.1365
  51   2.0000      -0.481626       -13.1057
  52   2.0000      -0.472950       -12.8696
  53   2.0000      -0.468212       -12.7407
  54   2.0000      -0.462568       -12.5871
  55   2.0000      -0.444219       -12.0878
  56   2.0000      -0.440158       -11.9773
  57   2.0000      -0.437468       -11.9041
  58   2.0000      -0.431335       -11.7372
  59   2.0000      -0.428252       -11.6533
  60   2.0000      -0.421946       -11.4817
  61   2.0000      -0.409869       -11.1531
  62   2.0000      -0.403315       -10.9748
  63   2.0000      -0.334862        -9.1121
  64   2.0000      -0.331150        -9.0110
  65   2.0000      -0.320289        -8.7155
  66   2.0000      -0.308259        -8.3882
  67   0.0000       0.037433         1.0186
  68   0.0000       0.058395         1.5890
  69   0.0000       0.105100         2.8599
  70   0.0000       0.116395         3.1673
  71   0.0000       0.126735         3.4486

MULLIKEN ATOMIC CHARGES
-----------------------
   0 S :    0.123214
   1 C :   -0.112728
   2 C :   -0.087804
   3 C :    0.044506
   4 C :   -0.164505
   5 H :    0.030073
   6 C :    0.034081
   7 H :    0.016332
   8 H :    0.022498
   9 C :   -0.077065
  10 H :    0.023011
  11 H :    0.021970
  12 C :    0.003087
  13 H :    0.018735
  14 H :    0.024771
  15 H :    0.018511
  16 S :    0.093508
  17 C :   -0.091264
  18 C :   -0.052021
  19 C :   -0.029523
  20 C :   -0.183905
  21 H :    0.044540
  22 C :    0.083129
  23 H :    0.051369
  24 H :    0.022269
  25 C :   -0.086038
  26 H :    0.049519
  27 H :    0.023354
  28 C :   -0.050380
  29 H :    0.030919
  30 H :    0.031087
  31 H :    0.028042
  32 H :    0.049496
  33 H :    0.047215
Sum of atomic charges:    0.0000000

LOEWDIN ATOMIC CHARGES
----------------------
   0 S :    0.418329
   1 C :   -0.210806
   2 C :   -0.063021
   3 C :   -0.057419
   4 C :   -0.199753
   5 H :    0.037280
   6 C :   -0.039278
   7 H :    0.032345
   8 H :    0.028156
   9 C :   -0.040533
  10 H :    0.028235
  11 H :    0.022292
  12 C :   -0.059928
  13 H :    0.028634
  14 H :    0.023315
  15 H :    0.017572
  16 S :    0.380614
  17 C :   -0.164416
  18 C :   -0.077496
  19 C :   -0.056258
  20 C :   -0.191896
  21 H :    0.040940
  22 C :   -0.028802
  23 H :    0.042134
  24 H :    0.030949
  25 C :   -0.041149
  26 H :    0.032416
  27 H :    0.017847
  28 C :   -0.061915
  29 H :    0.018618
  30 H :    0.020342
  31 H :    0.027004
  32 H :    0.030052
  33 H :    0.015597

  Mayer bond orders larger than 0.100000
B(  0-S ,  1-C ) :   1.1397 B(  0-S ,  4-C ) :   1.1556 B(  1-C ,  2-C ) :   1.6342
B(  1-C , 32-H ) :   0.9621 B(  2-C ,  3-C ) :   1.2166 B(  2-C ,  6-C ) :   1.0323
B(  3-C ,  4-C ) :   1.5959 B(  3-C ,  5-H ) :   0.9865 B(  4-C , 20-C ) :   0.9776
B(  6-C ,  7-H ) :   0.9441 B(  6-C ,  8-H ) :   0.9428 B(  6-C ,  9-C ) :   1.0785
B(  9-C , 10-H ) :   0.9527 B(  9-C , 11-H ) :   0.9530 B(  9-C , 12-C ) :   1.0788
B( 12-C , 13-H ) :   0.9695 B( 12-C , 14-H ) :   0.9695 B( 12-C , 15-H ) :   0.9702
B( 16-S , 17-C ) :   1.1616 B( 16-S , 20-C ) :   1.1439 B( 17-C , 18-C ) :   1.5928
B( 17-C , 20-C ) :   0.1071 B( 17-C , 33-H ) :   0.9790 B( 18-C , 19-C ) :   1.2363
B( 18-C , 21-H ) :   0.9771 B( 19-C , 20-C ) :   1.6271 B( 19-C , 22-C ) :   1.0196
B( 22-C , 23-H ) :   0.9327 B( 22-C , 24-H ) :   0.9370 B( 22-C , 25-C ) :   1.0742
B( 25-C , 26-H ) :   0.9574 B( 25-C , 27-H ) :   0.9577 B( 25-C , 28-C ) :   1.0586
B( 28-C , 29-H ) :   0.9809 B( 28-C , 30-H ) :   0.9782 B( 28-C , 31-H ) :   0.9754

Dispersion correction           -0.015136208
FINAL SINGLE POINT ENERGY     -1339.872132327152

DIPOLE MOMENT
-------------
                                X             Y             Z
Electronic contribution:     -0.86765     -20.16398      -3.74376
Nuclear contribution   :      0.86714      20.59695       3.87669
                        -----------------------------------------
Total Dipole Moment    :     -0.00052       0.43297       0.13293
                        -----------------------------------------
Magnitude (a.u.)       :      0.45292
Magnitude (Debye)      :      1.15122

Rotational constants in cm-1:     0.019238     0.008451     0.007656
Rotational constants in MHz :   576.751518   253.363357   229.506918

                             ****ORCA TERMINATED NORMALLY****
TOTAL RUN TIME: 0 days 0 hours 0 minutes 30 seconds 130 msec
