                         Program Version 4.2.1 -  RELEASE  -
|  1> ! wB97X-D3 SP def2-SVP
|  2> %pal
|  3> nprocs 16
|  4> end
|  5>
|  6> * xyz 0 1
|  7> S 	 -40.4131 	 13.0023 	 75.2908
|  8> C 	 -40.275 	 13.084 	 73.5275
|  9> C 	 -41.5441 	 13.1228 	 72.9527
| 10> C 	 -42.5779 	 13.2049 	 73.9546
| 11> C 	 -42.1821 	 13.0947 	 75.2648
| 12> H 	 -43.6254 	 13.1559 	 73.7677
| 13> C 	 -41.8094 	 12.9936 	 71.4883
| 14> H 	 -42.6114 	 12.2729 	 71.2905
| 15> H 	 -40.9484 	 12.3853 	 71.1476
| 16> C 	 -41.9215 	 14.2858 	 70.7609
| 17> H 	 -40.9962 	 14.8558 	 70.7517
| 18> H 	 -42.002 	 13.9285 	 69.7456
| 19> C 	 -43.1339 	 15.1608 	 71.2296
| 20> H 	 -43.8869 	 14.4489 	 71.6244
| 21> H 	 -42.7053 	 15.8886 	 71.9049
| 22> H 	 -43.5671 	 15.8364 	 70.5121
| 23> S 	 -44.5508 	 13.9047 	 76.4183
| 24> C 	 -44.7326 	 13.5042 	 78.1298
| 25> C 	 -43.8661 	 12.5852 	 78.6673
| 26> C 	 -42.8798 	 12.3858 	 77.646
| 27> C 	 -43.031 	 13.0413 	 76.4236
| 28> H 	 -43.9855 	 12.1674 	 79.6671
| 29> C 	 -41.7374 	 11.4973 	 78.0051
| 30> H 	 -40.925 	 12.1186 	 78.4105
| 31> H 	 -41.2514 	 11.1863 	 77.1116
| 32> C 	 -42.0134 	 10.1539 	 78.8748
| 33> H 	 -42.0897 	 10.4896 	 79.9202
| 34> H 	 -41.1446 	 9.4935 	 78.7325
| 35> C 	 -43.2795 	 9.41787 	 78.3943
| 36> H 	 -43.2312 	 8.88108 	 77.3906
| 37> H 	 -44.204 	 9.92319 	 78.2413
| 38> H 	 -43.5158 	 8.62988 	 79.0277
| 39> H 	 -39.2678 	 12.9374 	 72.9774
| 40> H 	 -45.5207 	 13.8844 	 78.7872
| 41> *
| 42>
| 43>                          ****END OF INPUT****

CARTESIAN COORDINATES (ANGSTROEM)
---------------------------------
  S    -40.413100   13.002300   75.290800
  C    -40.275000   13.084000   73.527500
  C    -41.544100   13.122800   72.952700
  C    -42.577900   13.204900   73.954600
  C    -42.182100   13.094700   75.264800
  H    -43.625400   13.155900   73.767700
  C    -41.809400   12.993600   71.488300
  H    -42.611400   12.272900   71.290500
  H    -40.948400   12.385300   71.147600
  C    -41.921500   14.285800   70.760900
  H    -40.996200   14.855800   70.751700
  H    -42.002000   13.928500   69.745600
  C    -43.133900   15.160800   71.229600
  H    -43.886900   14.448900   71.624400
  H    -42.705300   15.888600   71.904900
  H    -43.567100   15.836400   70.512100
  S    -44.550800   13.904700   76.418300
  C    -44.732600   13.504200   78.129800
  C    -43.866100   12.585200   78.667300
  C    -42.879800   12.385800   77.646000
  C    -43.031000   13.041300   76.423600
  H    -43.985500   12.167400   79.667100
  C    -41.737400   11.497300   78.005100
  H    -40.925000   12.118600   78.410500
  H    -41.251400   11.186300   77.111600
  C    -42.013400   10.153900   78.874800
  H    -42.089700   10.489600   79.920200
  H    -41.144600    9.493500   78.732500
  C    -43.279500    9.417870   78.394300
  H    -43.231200    8.881080   77.390600
  H    -44.204000    9.923190   78.241300
  H    -43.515800    8.629880   79.027700
  H    -39.267800   12.937400   72.977400
  H    -45.520700   13.884400   78.787200

 Total Charge           Charge          ....    0
 Multiplicity           Mult            ....    1
 Number of Electrons    NEL             ....  134
 Basis Dimension        Dim             ....  322

ORBITAL ENERGIES
----------------

  NO   OCC          E(Eh)            E(eV)
   0   2.0000     -88.969432     -2420.9813
   1   2.0000     -88.963986     -2420.8331
   2   2.0000     -10.329573      -281.0820
   3   2.0000     -10.325090      -280.9600
   4   2.0000     -10.320583      -280.8373
   5   2.0000     -10.319617      -280.8111
   6   2.0000     -10.303331      -280.3679
   7   2.0000     -10.300542      -280.2920
   8   2.0000     -10.299875      -280.2738
   9   2.0000     -10.296563      -280.1837
  10   2.0000     -10.289156      -279.9822
  11   2.0000     -10.287660      -279.9415
  12   2.0000     -10.282844      -279.8104
  13   2.0000     -10.281976      -279.7868
  14   2.0000     -10.277424      -279.6629
  15   2.0000     -10.271884      -279.5122
  16   2.0000      -8.083748      -219.9700
  17   2.0000      -8.077540      -219.8010
  18   2.0000      -6.042352      -164.4208
  19   2.0000      -6.038613      -164.3190
  20   2.0000      -6.036255      -164.2549
  21   2.0000      -6.034141      -164.1973
  22   2.0000      -6.032154      -164.1433
  23   2.0000      -6.028214      -164.0360
  24   2.0000      -1.005731       -27.3673
  25   2.0000      -0.981096       -26.6970
  26   2.0000      -0.916236       -24.9321
  27   2.0000      -0.899372       -24.4731
  28   2.0000      -0.872133       -23.7319
  29   2.0000      -0.847848       -23.0711
  30   2.0000      -0.836561       -22.7640
  31   2.0000      -0.818131       -22.2625
  32   2.0000      -0.784798       -21.3554
  33   2.0000      -0.769447       -20.9377
  34   2.0000      -0.710471       -19.3329
  35   2.0000      -0.703520       -19.1438
  36   2.0000      -0.691197       -18.8084
  37   2.0000      -0.664617       -18.0852
  38   2.0000      -0.633814       -17.2470
  39   2.0000      -0.613851       -16.7037
  40   2.0000      -0.590769       -16.0756
  41   2.0000      -0.577358       -15.7107
  42   2.0000      -0.557387       -15.1673
  43   2.0000      -0.547550       -14.8996
  44   2.0000      -0.535360       -14.5679
  45   2.0000      -0.532553       -14.4915
  46   2.0000      -0.520610       -14.1665
  47   2.0000      -0.512142       -13.9361
  48   2.0000      -0.500528       -13.6201
  49   2.0000      -0.491047       -13.3621
  50   2.0000      -0.486243       -13.2313
  51   2.0000      -0.477289       -12.9877
  52   2.0000      -0.467484       -12.7209
  53   2.0000      -0.463305       -12.6072
  54   2.0000      -0.455386       -12.3917
  55   2.0000      -0.452288       -12.3074
  56   2.0000      -0.448106       -12.1936
  57   2.0000      -0.435558       -11.8521
  58   2.0000      -0.432602       -11.7717
  59   2.0000      -0.419262       -11.4087
  60   2.0000      -0.416735       -11.3399
  61   2.0000      -0.408275       -11.1097
  62   2.0000      -0.401300       -10.9199
  63   2.0000      -0.359107        -9.7718
  64   2.0000      -0.331615        -9.0237
  65   2.0000      -0.325366        -8.8537
  66   2.0000      -0.279994        -7.6190
  67   0.0000       0.024485         0.6663
  68   0.0000       0.077996         2.1224
  69   0.0000       0.098712         2.6861
  70   0.0000       0.121660         3.3105
  71   0.0000       0.129445         3.5224

MULLIKEN ATOMIC CHARGES
-----------------------
   0 S :    0.090538
   1 C :   -0.161373
   2 C :   -0.079834
   3 C :   -0.000444
   4 C :   -0.118022
   5 H :   -0.000444
   6 C :    0.018476
   7 H :    0.034857
   8 H :    0.018081
   9 C :   -0.029506
  10 H :    0.024606
  11 H :    0.020389
  12 C :   -0.048163
  13 H :    0.042375
  14 H :    0.041634
  15 H :    0.029758
  16 S :    0.110345
  17 C :   -0.082844
  18 C :   -0.030270
  19 C :   -0.082598
  20 C :   -0.109032
  21 H :    0.037685
  22 C :    0.041530
  23 H :    0.041545
  24 H :    0.004912
  25 C :   -0.060462
  26 H :    0.041490
  27 H :    0.047112
  28 C :   -0.054536
  29 H :    0.031121
  30 H :    0.030760
  31 H :    0.014986
  32 H :    0.085110
  33 H :    0.050219
Sum of atomic charges:    0.0000000

LOEWDIN ATOMIC CHARGES
----------------------
   0 S :    0.393748
   1 C :   -0.212440
   2 C :   -0.061432
   3 C :   -0.075908
   4 C :   -0.176537
   5 H :    0.019184
   6 C :   -0.042245
   7 H :    0.033661
   8 H :    0.036228
   9 C :   -0.038734
  10 H :    0.024154
  11 H :    0.021819
  12 C :   -0.066091
  13 H :    0.029574
  14 H :    0.032655
  15 H :    0.025009
  16 S :    0.401076
  17 C :   -0.167792
  18 C :   -0.067025
  19 C :   -0.049360
  20 C :   -0.206029
  21 H :    0.043081
  22 C :   -0.048796
  23 H :    0.035216
  24 H :    0.011277
  25 C :   -0.028920
  26 H :    0.023604
  27 H :    0.034811
  28 C :   -0.077466
  29 H :    0.037456
  30 H :    0.022962
  31 H :    0.016794
  32 H :    0.048793
  33 H :    0.027675

  Mayer bond orders larger than 0.100000
B(  0-S ,  1-C ) :   1.1295 B(  0-S ,  4-C ) :   1.1283 B(  1-C ,  2-C ) :   1.6126
B(  1-C , 32-H ) :   0.9536 B(  2-C ,  3-C ) :   1.2417 B(  2-C ,  6-C ) :   1.0164
B(  3-C ,  4-C ) :   1.5707 B(  3-C ,  5-H ) :   0.9919 B(  4-C , 20-C ) :   1.0923
B(  6-C ,  7-H ) :   0.9428 B(  6-C ,  8-H ) :   0.9343 B(  6-C ,  9-C ) :   1.0853
B(  9-C , 10-H ) :   0.9575 B(  9-C , 11-H ) :   0.9523 B(  9-C , 12-C ) :   1.0572
B( 12-C , 13-H ) :   0.9772 B( 12-C , 14-H ) :   0.9733 B( 12-C , 15-H ) :   0.9743
B( 16-S , 17-C ) :   1.1571 B( 16-S , 20-C ) :   1.1013 B( 17-C , 18-C ) :   1.6333
B( 17-C , 33-H ) :   0.9567 B( 18-C , 19-C ) :   1.2078 B( 18-C , 21-H ) :   0.9918
B( 19-C , 20-C ) :   1.5892 B( 19-C , 22-C ) :   1.0567 B( 22-C , 23-H ) :   0.9338
B( 22-C , 24-H ) :   0.9208 B( 22-C , 25-C ) :   1.0528 B( 25-C , 26-H ) :   0.9569
B( 25-C , 27-H ) :   0.9591 B( 25-C , 28-C ) :   1.0722 B( 28-C , 29-H ) :   0.9715
B( 28-C , 30-H ) :   0.9731 B( 28-C , 31-H ) :   0.9731

Dispersion correction           -0.014640069
FINAL SINGLE POINT ENERGY     -1339.853942767028

DIPOLE MOMENT
-------------
                                X             Y             Z
Electronic contribution:      0.42505       8.04167       7.08703
Nuclear contribution   :     -0.50840      -8.39827      -7.14593
                        -----------------------------------------
Total Dipole Moment    :     -0.08335      -0.35660      -0.05891
                        -----------------------------------------
Magnitude (a.u.)       :      0.37092
Magnitude (Debye)      :      0.94280

Rotational constants in cm-1:     0.023876     0.007936     0.006648
Rotational constants in MHz :   715.783248   237.902463   199.314054

                             ****ORCA TERMINATED NORMALLY****
TOTAL RUN TIME: 0 days 0 hours 0 minutes 28 seconds 946 msec
