                         Program Version 4.2.1 -  RELEASE  -
|  1> ! wB97X-D3 SP def2-SVP
|  2> %pal
|  3> nprocs 16
|  4> end
|  5>
|  6> * xyz 0 1
|  7> S 	 -78.0625 	 38.4589 	 135.435
|  8> C 	 -77.1411 	 37.2212 	 136.185
|  9> C 	 -77.7331 	 35.9774 	 135.936
| 10> C 	 -78.9495 	 36.0049 	 135.188
| 11> C 	 -79.2246 	 37.299 	 134.758
| 12> H 	 -79.4772 	 35.0987 	 134.855
| 13> C 	 -77.0887 	 34.7637 	 136.599
| 14> H 	 -77.5045 	 33.8589 	 136.027
| 15> H 	 -77.6151 	 34.6456 	 137.591
| 16> C 	 -75.573 	 34.6898 	 136.781
| 17> H 	 -75.3315 	 35.6404 	 137.34
| 18> H 	 -75.2517 	 33.823 	 137.421
| 19> C 	 -74.7235 	 34.5684 	 135.494
| 20> H 	 -74.9222 	 35.4182 	 134.847
| 21> H 	 -73.7253 	 34.7612 	 135.799
| 22> H 	 -74.7092 	 33.6745 	 134.854
| 23> S 	 -81.5962 	 38.6762 	 134.647
| 24> C 	 -82.6055 	 38.5856 	 133.222
| 25> C 	 -81.9772 	 37.8946 	 132.264
| 26> C 	 -80.6386 	 37.4387 	 132.614
| 27> C 	 -80.3513 	 37.686 	 133.954
| 28> H 	 -82.3777 	 37.925 	 131.263
| 29> C 	 -79.8009 	 36.7122 	 131.612
| 30> H 	 -80.5879 	 36.3647 	 130.892
| 31> H 	 -79.5799 	 35.7827 	 132.125
| 32> C 	 -78.608 	 37.3947 	 130.829
| 33> H 	 -77.8643 	 37.763 	 131.546
| 34> H 	 -78.8314 	 38.2992 	 130.226
| 35> C 	 -78.0362 	 36.4504 	 129.785
| 36> H 	 -77.5495 	 35.5117 	 130.141
| 37> H 	 -77.3261 	 37.0154 	 129.242
| 38> H 	 -78.7687 	 36.207 	 129.024
| 39> H 	 -76.2756 	 37.3864 	 136.738
| 40> H 	 -83.4401 	 39.1679 	 132.941
| 41> *
| 42>
| 43>                          ****END OF INPUT****

CARTESIAN COORDINATES (ANGSTROEM)
---------------------------------
  S    -78.062500   38.458900  135.435000
  C    -77.141100   37.221200  136.185000
  C    -77.733100   35.977400  135.936000
  C    -78.949500   36.004900  135.188000
  C    -79.224600   37.299000  134.758000
  H    -79.477200   35.098700  134.855000
  C    -77.088700   34.763700  136.599000
  H    -77.504500   33.858900  136.027000
  H    -77.615100   34.645600  137.591000
  C    -75.573000   34.689800  136.781000
  H    -75.331500   35.640400  137.340000
  H    -75.251700   33.823000  137.421000
  C    -74.723500   34.568400  135.494000
  H    -74.922200   35.418200  134.847000
  H    -73.725300   34.761200  135.799000
  H    -74.709200   33.674500  134.854000
  S    -81.596200   38.676200  134.647000
  C    -82.605500   38.585600  133.222000
  C    -81.977200   37.894600  132.264000
  C    -80.638600   37.438700  132.614000
  C    -80.351300   37.686000  133.954000
  H    -82.377700   37.925000  131.263000
  C    -79.800900   36.712200  131.612000
  H    -80.587900   36.364700  130.892000
  H    -79.579900   35.782700  132.125000
  C    -78.608000   37.394700  130.829000
  H    -77.864300   37.763000  131.546000
  H    -78.831400   38.299200  130.226000
  C    -78.036200   36.450400  129.785000
  H    -77.549500   35.511700  130.141000
  H    -77.326100   37.015400  129.242000
  H    -78.768700   36.207000  129.024000
  H    -76.275600   37.386400  136.738000
  H    -83.440100   39.167900  132.941000

 Total Charge           Charge          ....    0
 Multiplicity           Mult            ....    1
 Number of Electrons    NEL             ....  134
 Basis Dimension        Dim             ....  322

ORBITAL ENERGIES
----------------

  NO   OCC          E(Eh)            E(eV)
   0   2.0000     -88.967711     -2420.9345
   1   2.0000     -88.960791     -2420.7462
   2   2.0000     -10.331948      -281.1466
   3   2.0000     -10.321659      -280.8666
   4   2.0000     -10.308572      -280.5105
   5   2.0000     -10.307917      -280.4927
   6   2.0000     -10.302737      -280.3517
   7   2.0000     -10.301670      -280.3227
   8   2.0000     -10.301633      -280.3217
   9   2.0000     -10.300800      -280.2990
  10   2.0000     -10.298531      -280.2373
  11   2.0000     -10.292866      -280.0831
  12   2.0000     -10.292346      -280.0690
  13   2.0000     -10.286124      -279.8997
  14   2.0000     -10.275220      -279.6030
  15   2.0000     -10.274397      -279.5806
  16   2.0000      -8.082365      -219.9323
  17   2.0000      -8.075952      -219.7578
  18   2.0000      -6.040749      -164.3771
  19   2.0000      -6.036747      -164.2682
  20   2.0000      -6.034592      -164.2096
  21   2.0000      -6.033398      -164.1771
  22   2.0000      -6.030330      -164.0936
  23   2.0000      -6.026599      -163.9921
  24   2.0000      -1.007404       -27.4129
  25   2.0000      -0.985514       -26.8172
  26   2.0000      -0.907052       -24.6821
  27   2.0000      -0.902374       -24.5548
  28   2.0000      -0.873374       -23.7657
  29   2.0000      -0.853402       -23.2223
  30   2.0000      -0.849333       -23.1115
  31   2.0000      -0.819831       -22.3087
  32   2.0000      -0.780623       -21.2418
  33   2.0000      -0.766492       -20.8573
  34   2.0000      -0.711492       -19.3607
  35   2.0000      -0.702839       -19.1252
  36   2.0000      -0.694758       -18.9053
  37   2.0000      -0.658725       -17.9248
  38   2.0000      -0.643047       -17.4982
  39   2.0000      -0.609353       -16.5813
  40   2.0000      -0.589175       -16.0323
  41   2.0000      -0.574714       -15.6388
  42   2.0000      -0.553974       -15.0744
  43   2.0000      -0.545590       -14.8463
  44   2.0000      -0.538506       -14.6535
  45   2.0000      -0.532540       -14.4911
  46   2.0000      -0.517582       -14.0841
  47   2.0000      -0.512097       -13.9349
  48   2.0000      -0.509077       -13.8527
  49   2.0000      -0.502585       -13.6760
  50   2.0000      -0.488216       -13.2850
  51   2.0000      -0.484252       -13.1772
  52   2.0000      -0.470395       -12.8001
  53   2.0000      -0.465631       -12.6705
  54   2.0000      -0.452752       -12.3200
  55   2.0000      -0.448492       -12.2041
  56   2.0000      -0.440353       -11.9826
  57   2.0000      -0.439709       -11.9651
  58   2.0000      -0.433580       -11.7983
  59   2.0000      -0.425282       -11.5725
  60   2.0000      -0.416573       -11.3355
  61   2.0000      -0.409206       -11.1351
  62   2.0000      -0.406933       -11.0732
  63   2.0000      -0.343816        -9.3557
  64   2.0000      -0.329504        -8.9663
  65   2.0000      -0.321495        -8.7483
  66   2.0000      -0.299680        -8.1547
  67   0.0000       0.035120         0.9557
  68   0.0000       0.063704         1.7335
  69   0.0000       0.122997         3.3469
  70   0.0000       0.123248         3.3537
  71   0.0000       0.127478         3.4688

MULLIKEN ATOMIC CHARGES
-----------------------
   0 S :    0.126119
   1 C :   -0.112637
   2 C :   -0.099101
   3 C :    0.050702
   4 C :   -0.171907
   5 H :    0.033351
   6 C :    0.032083
   7 H :    0.019392
   8 H :    0.053351
   9 C :   -0.100321
  10 H :    0.035187
  11 H :    0.044861
  12 C :   -0.032889
  13 H :    0.024746
  14 H :    0.018496
  15 H :    0.044555
  16 S :    0.105185
  17 C :   -0.057263
  18 C :   -0.043099
  19 C :   -0.060084
  20 C :   -0.167815
  21 H :    0.018403
  22 C :    0.071384
  23 H :    0.011394
  24 H :    0.021246
  25 C :   -0.047095
  26 H :    0.038564
  27 H :    0.031189
  28 C :   -0.042314
  29 H :    0.041256
  30 H :    0.017401
  31 H :    0.025381
  32 H :    0.028442
  33 H :    0.041837
Sum of atomic charges:   -0.0000000

LOEWDIN ATOMIC CHARGES
----------------------
   0 S :    0.417718
   1 C :   -0.205454
   2 C :   -0.065317
   3 C :   -0.055266
   4 C :   -0.189764
   5 H :    0.040975
   6 C :   -0.048827
   7 H :    0.029296
   8 H :    0.041418
   9 C :   -0.046400
  10 H :    0.028939
  11 H :    0.034651
  12 C :   -0.070899
  13 H :    0.025070
  14 H :    0.023235
  15 H :    0.029849
  16 S :    0.408735
  17 C :   -0.182385
  18 C :   -0.075742
  19 C :   -0.055728
  20 C :   -0.212647
  21 H :    0.030032
  22 C :   -0.042737
  23 H :    0.034556
  24 H :    0.034043
  25 C :   -0.036321
  26 H :    0.027225
  27 H :    0.031736
  28 C :   -0.065920
  29 H :    0.027936
  30 H :    0.021333
  31 H :    0.024544
  32 H :    0.013506
  33 H :    0.028610

  Mayer bond orders larger than 0.100000
B(  0-S ,  1-C ) :   1.1470 B(  0-S ,  4-C ) :   1.1618 B(  1-C ,  2-C ) :   1.5720
B(  1-C ,  4-C ) :   0.1021 B(  1-C , 32-H ) :   0.9804 B(  2-C ,  3-C ) :   1.2709
B(  2-C ,  6-C ) :   1.0094 B(  3-C ,  4-C ) :   1.5554 B(  3-C ,  5-H ) :   0.9851
B(  4-C , 20-C ) :   1.0449 B(  6-C ,  7-H ) :   0.9426 B(  6-C ,  8-H ) :   0.9361
B(  6-C ,  9-C ) :   1.0721 B(  9-C , 10-H ) :   0.9486 B(  9-C , 11-H ) :   0.9537
B(  9-C , 12-C ) :   1.0759 B( 12-C , 13-H ) :   0.9718 B( 12-C , 14-H ) :   0.9710
B( 12-C , 15-H ) :   0.9772 B( 16-S , 17-C ) :   1.1398 B( 16-S , 20-C ) :   1.1383
B( 17-C , 18-C ) :   1.6519 B( 17-C , 33-H ) :   0.9636 B( 18-C , 19-C ) :   1.2434
B( 18-C , 21-H ) :   0.9791 B( 19-C , 20-C ) :   1.5923 B( 19-C , 22-C ) :   1.0404
B( 22-C , 23-H ) :   0.9330 B( 22-C , 24-H ) :   0.9265 B( 22-C , 25-C ) :   1.0441
B( 25-C , 26-H ) :   0.9560 B( 25-C , 27-H ) :   0.9566 B( 25-C , 28-C ) :   1.0840
B( 28-C , 29-H ) :   0.9758 B( 28-C , 30-H ) :   0.9729 B( 28-C , 31-H ) :   0.9728

Dispersion correction           -0.013989672
FINAL SINGLE POINT ENERGY     -1339.869532629421

DIPOLE MOMENT
-------------
                                X             Y             Z
Electronic contribution:    -18.60437      17.55222      11.48418
Nuclear contribution   :     18.91633     -17.92546     -11.86263
                        -----------------------------------------
Total Dipole Moment    :      0.31196      -0.37324      -0.37846
                        -----------------------------------------
Magnitude (a.u.)       :      0.61633
Magnitude (Debye)      :      1.56658

Rotational constants in cm-1:     0.018759     0.008511     0.006630
Rotational constants in MHz :   562.381963   255.157112   198.768886

                             ****ORCA TERMINATED NORMALLY****
TOTAL RUN TIME: 0 days 0 hours 0 minutes 34 seconds 274 msec
