                         Program Version 4.2.1 -  RELEASE  -
|  1> ! wB97X-D3 SP def2-SVP
|  2> %pal
|  3> nprocs 16
|  4> end
|  5>
|  6> * xyz 0 1
|  7> S 	 -79.5042 	 43.5746 	 140.322
|  8> C 	 -79.8042 	 41.8739 	 140.333
|  9> C 	 -80.661 	 41.5164 	 139.27
| 10> C 	 -80.9978 	 42.5944 	 138.436
| 11> C 	 -80.2642 	 43.7089 	 138.754
| 12> H 	 -81.6619 	 42.5593 	 137.544
| 13> C 	 -81.0486 	 40.0956 	 138.837
| 14> H 	 -80.8766 	 40.0783 	 137.716
| 15> H 	 -82.0932 	 40.0647 	 139.016
| 16> C 	 -80.5471 	 38.9469 	 139.726
| 17> H 	 -80.9131 	 39.0543 	 140.778
| 18> H 	 -80.9808 	 37.9804 	 139.403
| 19> C 	 -78.9737 	 38.6715 	 139.78
| 20> H 	 -78.7993 	 37.9607 	 140.582
| 21> H 	 -78.4001 	 38.2862 	 138.916
| 22> H 	 -78.4363 	 39.5632 	 140.066
| 23> S 	 -81.8432 	 45.4253 	 137.408
| 24> C 	 -81.2051 	 46.9114 	 136.684
| 25> C 	 -79.8524 	 47.0045 	 136.941
| 26> C 	 -79.3021 	 45.9186 	 137.711
| 27> C 	 -80.2329 	 44.9282 	 137.992
| 28> H 	 -79.3022 	 47.8595 	 136.554
| 29> C 	 -77.8184 	 45.8677 	 138.091
| 30> H 	 -77.5603 	 45.1711 	 138.885
| 31> H 	 -77.6168 	 46.907 	 138.46
| 32> C 	 -76.8219 	 45.5574 	 136.991
| 33> H 	 -77.2329 	 44.7518 	 136.357
| 34> H 	 -75.7963 	 45.2111 	 137.374
| 35> C 	 -76.6533 	 46.793 	 135.944
| 36> H 	 -76.3063 	 47.6974 	 136.472
| 37> H 	 -77.6386 	 46.8728 	 135.378
| 38> H 	 -75.9846 	 46.6409 	 135.13
| 39> H 	 -79.4791 	 41.1946 	 141.07
| 40> H 	 -81.7776 	 47.6724 	 136.139
| 41> *
| 42>
| 43>                          ****END OF INPUT****

CARTESIAN COORDINATES (ANGSTROEM)
---------------------------------
  S    -79.504200   43.574600  140.322000
  C    -79.804200   41.873900  140.333000
  C    -80.661000   41.516400  139.270000
  C    -80.997800   42.594400  138.436000
  C    -80.264200   43.708900  138.754000
  H    -81.661900   42.559300  137.544000
  C    -81.048600   40.095600  138.837000
  H    -80.876600   40.078300  137.716000
  H    -82.093200   40.064700  139.016000
  C    -80.547100   38.946900  139.726000
  H    -80.913100   39.054300  140.778000
  H    -80.980800   37.980400  139.403000
  C    -78.973700   38.671500  139.780000
  H    -78.799300   37.960700  140.582000
  H    -78.400100   38.286200  138.916000
  H    -78.436300   39.563200  140.066000
  S    -81.843200   45.425300  137.408000
  C    -81.205100   46.911400  136.684000
  C    -79.852400   47.004500  136.941000
  C    -79.302100   45.918600  137.711000
  C    -80.232900   44.928200  137.992000
  H    -79.302200   47.859500  136.554000
  C    -77.818400   45.867700  138.091000
  H    -77.560300   45.171100  138.885000
  H    -77.616800   46.907000  138.460000
  C    -76.821900   45.557400  136.991000
  H    -77.232900   44.751800  136.357000
  H    -75.796300   45.211100  137.374000
  C    -76.653300   46.793000  135.944000
  H    -76.306300   47.697400  136.472000
  H    -77.638600   46.872800  135.378000
  H    -75.984600   46.640900  135.130000
  H    -79.479100   41.194600  141.070000
  H    -81.777600   47.672400  136.139000

 Total Charge           Charge          ....    0
 Multiplicity           Mult            ....    1
 Number of Electrons    NEL             ....  134
 Basis Dimension        Dim             ....  322

ORBITAL ENERGIES
----------------

  NO   OCC          E(Eh)            E(eV)
   0   2.0000     -88.968790     -2420.9639
   1   2.0000     -88.962982     -2420.8058
   2   2.0000     -10.329085      -281.0687
   3   2.0000     -10.328383      -281.0496
   4   2.0000     -10.321657      -280.8666
   5   2.0000     -10.309367      -280.5321
   6   2.0000     -10.308652      -280.5127
   7   2.0000     -10.301683      -280.3231
   8   2.0000     -10.301363      -280.3143
   9   2.0000     -10.297144      -280.1995
  10   2.0000     -10.296393      -280.1791
  11   2.0000     -10.296207      -280.1740
  12   2.0000     -10.293613      -280.1034
  13   2.0000     -10.293568      -280.1022
  14   2.0000     -10.282794      -279.8090
  15   2.0000     -10.278838      -279.7014
  16   2.0000      -8.083493      -219.9630
  17   2.0000      -8.076940      -219.7847
  18   2.0000      -6.041960      -164.4101
  19   2.0000      -6.038113      -164.3054
  20   2.0000      -6.035602      -164.2371
  21   2.0000      -6.034189      -164.1986
  22   2.0000      -6.031515      -164.1259
  23   2.0000      -6.027613      -164.0197
  24   2.0000      -1.009252       -27.4632
  25   2.0000      -0.981978       -26.7210
  26   2.0000      -0.906011       -24.6538
  27   2.0000      -0.900941       -24.5159
  28   2.0000      -0.869705       -23.6659
  29   2.0000      -0.851610       -23.1735
  30   2.0000      -0.834478       -22.7073
  31   2.0000      -0.808632       -22.0040
  32   2.0000      -0.785412       -21.3722
  33   2.0000      -0.773534       -21.0489
  34   2.0000      -0.708686       -19.2843
  35   2.0000      -0.703890       -19.1538
  36   2.0000      -0.685668       -18.6580
  37   2.0000      -0.665921       -18.1206
  38   2.0000      -0.637675       -17.3520
  39   2.0000      -0.606651       -16.5078
  40   2.0000      -0.592376       -16.1194
  41   2.0000      -0.569650       -15.5010
  42   2.0000      -0.550679       -14.9847
  43   2.0000      -0.547408       -14.8957
  44   2.0000      -0.534425       -14.5424
  45   2.0000      -0.533924       -14.5288
  46   2.0000      -0.519137       -14.1264
  47   2.0000      -0.510002       -13.8779
  48   2.0000      -0.507617       -13.8129
  49   2.0000      -0.493738       -13.4353
  50   2.0000      -0.485154       -13.2017
  51   2.0000      -0.482435       -13.1277
  52   2.0000      -0.474806       -12.9201
  53   2.0000      -0.464390       -12.6367
  54   2.0000      -0.461055       -12.5460
  55   2.0000      -0.445988       -12.1360
  56   2.0000      -0.440160       -11.9774
  57   2.0000      -0.435437       -11.8488
  58   2.0000      -0.430521       -11.7151
  59   2.0000      -0.429239       -11.6802
  60   2.0000      -0.415053       -11.2942
  61   2.0000      -0.409217       -11.1354
  62   2.0000      -0.406413       -11.0591
  63   2.0000      -0.352093        -9.5809
  64   2.0000      -0.330639        -8.9971
  65   2.0000      -0.329338        -8.9617
  66   2.0000      -0.285660        -7.7732
  67   0.0000       0.022272         0.6061
  68   0.0000       0.078159         2.1268
  69   0.0000       0.102911         2.8003
  70   0.0000       0.118075         3.2130
  71   0.0000       0.129973         3.5367

MULLIKEN ATOMIC CHARGES
-----------------------
   0 S :    0.133444
   1 C :   -0.117833
   2 C :   -0.095353
   3 C :   -0.024850
   4 C :   -0.120441
   5 H :    0.036126
   6 C :    0.088326
   7 H :    0.056977
   8 H :    0.030842
   9 C :   -0.107815
  10 H :    0.041459
  11 H :    0.036780
  12 C :   -0.069085
  13 H :    0.027168
  14 H :    0.041732
  15 H :    0.020727
  16 S :    0.077600
  17 C :   -0.091503
  18 C :   -0.045664
  19 C :   -0.044635
  20 C :   -0.142859
  21 H :    0.028126
  22 C :    0.075189
  23 H :    0.025951
  24 H :    0.030819
  25 C :   -0.098150
  26 H :    0.039381
  27 H :    0.049400
  28 C :   -0.098136
  29 H :    0.040151
  30 H :    0.047764
  31 H :    0.025747
  32 H :    0.036328
  33 H :    0.066286
Sum of atomic charges:    0.0000000

LOEWDIN ATOMIC CHARGES
----------------------
   0 S :    0.427020
   1 C :   -0.212654
   2 C :   -0.057625
   3 C :   -0.072646
   4 C :   -0.190640
   5 H :    0.038097
   6 C :   -0.036319
   7 H :    0.043509
   8 H :    0.034621
   9 C :   -0.044141
  10 H :    0.033283
  11 H :    0.030055
  12 C :   -0.078055
  13 H :    0.024987
  14 H :    0.029493
  15 H :    0.017897
  16 S :    0.383470
  17 C :   -0.180742
  18 C :   -0.073171
  19 C :   -0.058494
  20 C :   -0.179499
  21 H :    0.033101
  22 C :   -0.039247
  23 H :    0.024880
  24 H :    0.035555
  25 C :   -0.042446
  26 H :    0.027787
  27 H :    0.031660
  28 C :   -0.080626
  29 H :    0.023708
  30 H :    0.035097
  31 H :    0.018259
  32 H :    0.017077
  33 H :    0.036747

  Mayer bond orders larger than 0.100000
B(  0-S ,  1-C ) :   1.1321 B(  0-S ,  4-C ) :   1.1553 B(  1-C ,  2-C ) :   1.6003
B(  1-C , 32-H ) :   0.9636 B(  2-C ,  3-C ) :   1.2636 B(  2-C ,  6-C ) :   0.9963
B(  3-C ,  4-C ) :   1.5369 B(  3-C ,  5-H ) :   0.9889 B(  4-C , 20-C ) :   1.0759
B(  6-C ,  7-H ) :   0.9516 B(  6-C ,  8-H ) :   0.9258 B(  6-C ,  9-C ) :   1.0756
B(  9-C , 10-H ) :   0.9526 B(  9-C , 11-H ) :   0.9564 B(  9-C , 12-C ) :   1.0628
B( 12-C , 13-H ) :   0.9757 B( 12-C , 14-H ) :   0.9775 B( 12-C , 15-H ) :   0.9768
B( 16-S , 17-C ) :   1.1370 B( 16-S , 20-C ) :   1.1242 B( 17-C , 18-C ) :   1.6277
B( 17-C , 33-H ) :   0.9649 B( 18-C , 19-C ) :   1.2207 B( 18-C , 21-H ) :   0.9826
B( 19-C , 20-C ) :   1.6013 B( 19-C , 22-C ) :   1.0363 B( 22-C , 23-H ) :   0.9357
B( 22-C , 24-H ) :   0.9348 B( 22-C , 25-C ) :   1.0574 B( 25-C , 26-H ) :   0.9554
B( 25-C , 27-H ) :   0.9611 B( 25-C , 28-C ) :   1.0646 B( 28-C , 29-H ) :   0.9780
B( 28-C , 30-H ) :   0.9697 B( 28-C , 31-H ) :   0.9757

Dispersion correction           -0.014241277
FINAL SINGLE POINT ENERGY     -1339.868609338146

DIPOLE MOMENT
-------------
                                X             Y             Z
Electronic contribution:    -14.74831      11.77726       4.79468
Nuclear contribution   :     14.90998     -11.99344      -4.99303
                        -----------------------------------------
Total Dipole Moment    :      0.16167      -0.21619      -0.19835
                        -----------------------------------------
Magnitude (a.u.)       :      0.33499
Magnitude (Debye)      :      0.85147

Rotational constants in cm-1:     0.022903     0.007498     0.006441
Rotational constants in MHz :   686.604513   224.782853   193.095118

                             ****ORCA TERMINATED NORMALLY****
TOTAL RUN TIME: 0 days 0 hours 0 minutes 33 seconds 614 msec
