                         Program Version 4.2.1 -  RELEASE  -
|  1> ! wB97X-D3 SP def2-SVP
|  2> %pal
|  3> nprocs 16
|  4> end
|  5>
|  6> * xyz 0 1
|  7> S 	 -57.9407 	 37.0109 	 120.061
|  8> C 	 -59.0463 	 37.6852 	 121.161
|  9> C 	 -59.8491 	 38.6239 	 120.518
| 10> C 	 -59.7153 	 38.5563 	 119.098
| 11> C 	 -58.8173 	 37.6563 	 118.672
| 12> H 	 -60.185 	 39.1602 	 118.319
| 13> C 	 -60.975 	 39.3643 	 121.188
| 14> H 	 -60.5687 	 40.1695 	 121.785
| 15> H 	 -61.547 	 38.7821 	 121.896
| 16> C 	 -62.0952 	 39.9208 	 120.222
| 17> H 	 -62.6242 	 40.688 	 120.762
| 18> H 	 -61.438 	 40.4717 	 119.522
| 19> C 	 -63.0065 	 38.802 	 119.546
| 20> H 	 -63.2925 	 38.0156 	 120.273
| 21> H 	 -63.8862 	 39.357 	 119.23
| 22> H 	 -62.5559 	 38.2376 	 118.716
| 23> S 	 -56.8043 	 38.4606 	 117.04
| 24> C 	 -57.0213 	 38.4449 	 115.346
| 25> C 	 -58.1287 	 37.7257 	 115.007
| 26> C 	 -59.0466 	 37.3799 	 116.065
| 27> C 	 -58.3783 	 37.5938 	 117.276
| 28> H 	 -58.2782 	 37.6535 	 113.946
| 29> C 	 -60.4398 	 36.7968 	 116.013
| 30> H 	 -60.892 	 37.0064 	 117.031
| 31> H 	 -60.4834 	 35.7237 	 115.992
| 32> C 	 -61.1985 	 37.4098 	 114.909
| 33> H 	 -62.1641 	 36.8941 	 114.792
| 34> H 	 -60.6505 	 37.5681 	 113.971
| 35> C 	 -61.6631 	 38.8282 	 115.32
| 36> H 	 -62.1736 	 38.785 	 116.302
| 37> H 	 -62.4262 	 39.0245 	 114.627
| 38> H 	 -60.9166 	 39.6354 	 115.256
| 39> H 	 -59.0256 	 37.573 	 122.239
| 40> H 	 -56.4392 	 38.9311 	 114.582
| 41> *
| 42>
| 43>                          ****END OF INPUT****

CARTESIAN COORDINATES (ANGSTROEM)
---------------------------------
  S    -57.940700   37.010900  120.061000
  C    -59.046300   37.685200  121.161000
  C    -59.849100   38.623900  120.518000
  C    -59.715300   38.556300  119.098000
  C    -58.817300   37.656300  118.672000
  H    -60.185000   39.160200  118.319000
  C    -60.975000   39.364300  121.188000
  H    -60.568700   40.169500  121.785000
  H    -61.547000   38.782100  121.896000
  C    -62.095200   39.920800  120.222000
  H    -62.624200   40.688000  120.762000
  H    -61.438000   40.471700  119.522000
  C    -63.006500   38.802000  119.546000
  H    -63.292500   38.015600  120.273000
  H    -63.886200   39.357000  119.230000
  H    -62.555900   38.237600  118.716000
  S    -56.804300   38.460600  117.040000
  C    -57.021300   38.444900  115.346000
  C    -58.128700   37.725700  115.007000
  C    -59.046600   37.379900  116.065000
  C    -58.378300   37.593800  117.276000
  H    -58.278200   37.653500  113.946000
  C    -60.439800   36.796800  116.013000
  H    -60.892000   37.006400  117.031000
  H    -60.483400   35.723700  115.992000
  C    -61.198500   37.409800  114.909000
  H    -62.164100   36.894100  114.792000
  H    -60.650500   37.568100  113.971000
  C    -61.663100   38.828200  115.320000
  H    -62.173600   38.785000  116.302000
  H    -62.426200   39.024500  114.627000
  H    -60.916600   39.635400  115.256000
  H    -59.025600   37.573000  122.239000
  H    -56.439200   38.931100  114.582000

 Total Charge           Charge          ....    0
 Multiplicity           Mult            ....    1
 Number of Electrons    NEL             ....  134
 Basis Dimension        Dim             ....  322

ORBITAL ENERGIES
----------------

  NO   OCC          E(Eh)            E(eV)
   0   2.0000     -88.964215     -2420.8394
   1   2.0000     -88.961105     -2420.7547
   2   2.0000     -10.328414      -281.0504
   3   2.0000     -10.321656      -280.8665
   4   2.0000     -10.311187      -280.5817
   5   2.0000     -10.310869      -280.5730
   6   2.0000     -10.310357      -280.5591
   7   2.0000     -10.298818      -280.2451
   8   2.0000     -10.292918      -280.0845
   9   2.0000     -10.292207      -280.0652
  10   2.0000     -10.290588      -280.0211
  11   2.0000     -10.288065      -279.9525
  12   2.0000     -10.287870      -279.9472
  13   2.0000     -10.286901      -279.9208
  14   2.0000     -10.286158      -279.9006
  15   2.0000     -10.273594      -279.5587
  16   2.0000      -8.079580      -219.8566
  17   2.0000      -8.075983      -219.7587
  18   2.0000      -6.038074      -164.3044
  19   2.0000      -6.034471      -164.2063
  20   2.0000      -6.034015      -164.1939
  21   2.0000      -6.030504      -164.0984
  22   2.0000      -6.030303      -164.0929
  23   2.0000      -6.026696      -163.9947
  24   2.0000      -1.009942       -27.4819
  25   2.0000      -0.986513       -26.8444
  26   2.0000      -0.921564       -25.0770
  27   2.0000      -0.903804       -24.5937
  28   2.0000      -0.874329       -23.7917
  29   2.0000      -0.847284       -23.0558
  30   2.0000      -0.839562       -22.8456
  31   2.0000      -0.815883       -22.2013
  32   2.0000      -0.785637       -21.3783
  33   2.0000      -0.773599       -21.0507
  34   2.0000      -0.709509       -19.3067
  35   2.0000      -0.697220       -18.9723
  36   2.0000      -0.691672       -18.8213
  37   2.0000      -0.646015       -17.5790
  38   2.0000      -0.642976       -17.4963
  39   2.0000      -0.625168       -17.0117
  40   2.0000      -0.608610       -16.5611
  41   2.0000      -0.563916       -15.3449
  42   2.0000      -0.558606       -15.2004
  43   2.0000      -0.548281       -14.9195
  44   2.0000      -0.545672       -14.8485
  45   2.0000      -0.530350       -14.4315
  46   2.0000      -0.524572       -14.2743
  47   2.0000      -0.508235       -13.8298
  48   2.0000      -0.499877       -13.6023
  49   2.0000      -0.496530       -13.5113
  50   2.0000      -0.494089       -13.4448
  51   2.0000      -0.485947       -13.2233
  52   2.0000      -0.472192       -12.8490
  53   2.0000      -0.465577       -12.6690
  54   2.0000      -0.459888       -12.5142
  55   2.0000      -0.448248       -12.1975
  56   2.0000      -0.444715       -12.1013
  57   2.0000      -0.437998       -11.9185
  58   2.0000      -0.433858       -11.8059
  59   2.0000      -0.419643       -11.4191
  60   2.0000      -0.416614       -11.3366
  61   2.0000      -0.413736       -11.2583
  62   2.0000      -0.405268       -11.0279
  63   2.0000      -0.347459        -9.4549
  64   2.0000      -0.329701        -8.9716
  65   2.0000      -0.322004        -8.7622
  66   2.0000      -0.294234        -8.0065
  67   0.0000       0.040625         1.1054
  68   0.0000       0.054688         1.4881
  69   0.0000       0.118535         3.2255
  70   0.0000       0.121440         3.3045
  71   0.0000       0.126995         3.4557

MULLIKEN ATOMIC CHARGES
-----------------------
   0 S :    0.115018
   1 C :   -0.110771
   2 C :   -0.063754
   3 C :    0.016695
   4 C :   -0.164568
   5 H :    0.021529
   6 C :    0.039358
   7 H :    0.031065
   8 H :    0.022495
   9 C :   -0.096482
  10 H :    0.026454
  11 H :    0.031557
  12 C :   -0.056721
  13 H :    0.037346
  14 H :    0.044273
  15 H :    0.047657
  16 S :    0.100253
  17 C :   -0.087806
  18 C :   -0.043227
  19 C :   -0.040868
  20 C :   -0.159012
  21 H :    0.008613
  22 C :    0.098098
  23 H :    0.025022
  24 H :    0.038407
  25 C :   -0.093047
  26 H :    0.030597
  27 H :    0.043889
  28 C :   -0.055535
  29 H :    0.023179
  30 H :    0.015046
  31 H :    0.050128
  32 H :    0.051839
  33 H :    0.053272
Sum of atomic charges:    0.0000000

LOEWDIN ATOMIC CHARGES
----------------------
   0 S :    0.418262
   1 C :   -0.205410
   2 C :   -0.068506
   3 C :   -0.063182
   4 C :   -0.205689
   5 H :    0.036516
   6 C :   -0.037397
   7 H :    0.030372
   8 H :    0.024676
   9 C :   -0.039812
  10 H :    0.022711
  11 H :    0.023602
  12 C :   -0.068158
  13 H :    0.030561
  14 H :    0.029728
  15 H :    0.024839
  16 S :    0.394697
  17 C :   -0.195441
  18 C :   -0.080039
  19 C :   -0.045469
  20 C :   -0.171386
  21 H :    0.024639
  22 C :   -0.035478
  23 H :    0.038679
  24 H :    0.031487
  25 C :   -0.042788
  26 H :    0.029404
  27 H :    0.029311
  28 C :   -0.063907
  29 H :    0.024365
  30 H :    0.018090
  31 H :    0.026488
  32 H :    0.031815
  33 H :    0.032421

  Mayer bond orders larger than 0.100000
B(  0-S ,  1-C ) :   1.1580 B(  0-S ,  4-C ) :   1.1408 B(  1-C ,  2-C ) :   1.5944
B(  1-C , 32-H ) :   0.9728 B(  2-C ,  3-C ) :   1.2462 B(  2-C ,  6-C ) :   1.0124
B(  3-C ,  4-C ) :   1.5877 B(  3-C ,  5-H ) :   0.9835 B(  4-C , 20-C ) :   1.0132
B(  6-C ,  7-H ) :   0.9301 B(  6-C ,  8-H ) :   0.9502 B(  6-C ,  9-C ) :   1.0867
B(  9-C , 10-H ) :   0.9590 B(  9-C , 11-H ) :   0.9528 B(  9-C , 12-C ) :   1.0508
B( 12-C , 13-H ) :   0.9736 B( 12-C , 14-H ) :   0.9773 B( 12-C , 15-H ) :   0.9721
B( 16-S , 17-C ) :   1.1532 B( 16-S , 20-C ) :   1.1378 B( 17-C , 18-C ) :   1.6515
B( 17-C , 33-H ) :   0.9634 B( 18-C , 19-C ) :   1.1967 B( 18-C , 21-H ) :   0.9867
B( 19-C , 20-C ) :   1.6163 B( 19-C , 22-C ) :   1.0270 B( 22-C , 23-H ) :   0.9354
B( 22-C , 24-H ) :   0.9293 B( 22-C , 25-C ) :   1.0750 B( 25-C , 26-H ) :   0.9524
B( 25-C , 27-H ) :   0.9546 B( 25-C , 28-C ) :   1.0779 B( 28-C , 29-H ) :   0.9708
B( 28-C , 30-H ) :   0.9734 B( 28-C , 31-H ) :   0.9730

Dispersion correction           -0.015994362
FINAL SINGLE POINT ENERGY     -1339.855349208073

DIPOLE MOMENT
-------------
                                X             Y             Z
Electronic contribution:     28.29532      -7.01139       5.02650
Nuclear contribution   :    -28.98841       7.32637      -5.20733
                        -----------------------------------------
Total Dipole Moment    :     -0.69309       0.31498      -0.18083
                        -----------------------------------------
Magnitude (a.u.)       :      0.78248
Magnitude (Debye)      :      1.98892

Rotational constants in cm-1:     0.017053     0.011352     0.007803
Rotational constants in MHz :   511.240319   340.320712   233.939006

                             ****ORCA TERMINATED NORMALLY****
TOTAL RUN TIME: 0 days 0 hours 0 minutes 31 seconds 76 msec
