                         Program Version 4.2.1 -  RELEASE  -
|  1> ! wB97X-D3 SP def2-SVP
|  2> %pal
|  3> nprocs 16
|  4> end
|  5>
|  6> * xyz 0 1
|  7> S 	 -12.6458 	 48.9851 	 36.3027
|  8> C 	 -11.2969 	 47.9742 	 35.923
|  9> C 	 -10.0912 	 48.6926 	 35.8052
| 10> C 	 -10.3449 	 50.093 	 35.8812
| 11> C 	 -11.7274 	 50.4361 	 35.9902
| 12> H 	 -9.69766 	 50.8472 	 35.5089
| 13> C 	 -8.83174 	 48.0734 	 35.3767
| 14> H 	 -8.33908 	 48.7776 	 34.7782
| 15> H 	 -9.13358 	 47.3819 	 34.6002
| 16> C 	 -8.12801 	 47.4428 	 36.5304
| 17> H 	 -7.73613 	 48.2945 	 37.1881
| 18> H 	 -8.81741 	 46.8314 	 37.1678
| 19> C 	 -6.84651 	 46.7012 	 36.059
| 20> H 	 -6.5057 	 46.2741 	 37.04
| 21> H 	 -7.05072 	 45.9448 	 35.2675
| 22> H 	 -6.01005 	 47.2366 	 35.6626
| 23> S 	 -13.3002 	 51.887 	 34.2878
| 24> C 	 -13.544 	 53.6052 	 34.6459
| 25> C 	 -13.213 	 53.826 	 35.9708
| 26> C 	 -12.4275 	 52.8166 	 36.525
| 27> C 	 -12.3527 	 51.6983 	 35.734
| 28> H 	 -13.5593 	 54.7611 	 36.3135
| 29> C 	 -11.8713 	 52.9411 	 37.9125
| 30> H 	 -11.5746 	 53.9613 	 38.0804
| 31> H 	 -10.929 	 52.3613 	 37.8952
| 32> C 	 -12.7363 	 52.4725 	 39.0934
| 33> H 	 -12.1807 	 52.5383 	 40.0211
| 34> H 	 -13.0323 	 51.4529 	 38.953
| 35> C 	 -13.8952 	 53.471 	 39.3377
| 36> H 	 -14.593 	 53.2978 	 38.564
| 37> H 	 -13.6529 	 54.5586 	 39.3439
| 38> H 	 -14.3359 	 53.1575 	 40.336
| 39> H 	 -11.5023 	 46.9001 	 35.9868
| 40> H 	 -14.1984 	 54.3086 	 34.0631
| 41> *
| 42>
| 43>                          ****END OF INPUT****

CARTESIAN COORDINATES (ANGSTROEM)
---------------------------------
  S    -12.645800   48.985100   36.302700
  C    -11.296900   47.974200   35.923000
  C    -10.091200   48.692600   35.805200
  C    -10.344900   50.093000   35.881200
  C    -11.727400   50.436100   35.990200
  H     -9.697660   50.847200   35.508900
  C     -8.831740   48.073400   35.376700
  H     -8.339080   48.777600   34.778200
  H     -9.133580   47.381900   34.600200
  C     -8.128010   47.442800   36.530400
  H     -7.736130   48.294500   37.188100
  H     -8.817410   46.831400   37.167800
  C     -6.846510   46.701200   36.059000
  H     -6.505700   46.274100   37.040000
  H     -7.050720   45.944800   35.267500
  H     -6.010050   47.236600   35.662600
  S    -13.300200   51.887000   34.287800
  C    -13.544000   53.605200   34.645900
  C    -13.213000   53.826000   35.970800
  C    -12.427500   52.816600   36.525000
  C    -12.352700   51.698300   35.734000
  H    -13.559300   54.761100   36.313500
  C    -11.871300   52.941100   37.912500
  H    -11.574600   53.961300   38.080400
  H    -10.929000   52.361300   37.895200
  C    -12.736300   52.472500   39.093400
  H    -12.180700   52.538300   40.021100
  H    -13.032300   51.452900   38.953000
  C    -13.895200   53.471000   39.337700
  H    -14.593000   53.297800   38.564000
  H    -13.652900   54.558600   39.343900
  H    -14.335900   53.157500   40.336000
  H    -11.502300   46.900100   35.986800
  H    -14.198400   54.308600   34.063100

 Total Charge           Charge          ....    0
 Multiplicity           Mult            ....    1
 Number of Electrons    NEL             ....  134
 Basis Dimension        Dim             ....  322

ORBITAL ENERGIES
----------------

  NO   OCC          E(Eh)            E(eV)
   0   2.0000     -88.965361     -2420.8705
   1   2.0000     -88.963822     -2420.8287
   2   2.0000     -10.327696      -281.0309
   3   2.0000     -10.320337      -280.8306
   4   2.0000     -10.319852      -280.8174
   5   2.0000     -10.313557      -280.6461
   6   2.0000     -10.300563      -280.2926
   7   2.0000     -10.296763      -280.1892
   8   2.0000     -10.296724      -280.1881
   9   2.0000     -10.294521      -280.1282
  10   2.0000     -10.287432      -279.9353
  11   2.0000     -10.282879      -279.8114
  12   2.0000     -10.282039      -279.7885
  13   2.0000     -10.280915      -279.7579
  14   2.0000     -10.279353      -279.7154
  15   2.0000     -10.277380      -279.6617
  16   2.0000      -8.080538      -219.8826
  17   2.0000      -8.078531      -219.8280
  18   2.0000      -6.038764      -164.3231
  19   2.0000      -6.036982      -164.2746
  20   2.0000      -6.034852      -164.2167
  21   2.0000      -6.033148      -164.1703
  22   2.0000      -6.031724      -164.1316
  23   2.0000      -6.029213      -164.0632
  24   2.0000      -1.009110       -27.4593
  25   2.0000      -0.985648       -26.8208
  26   2.0000      -0.920883       -25.0585
  27   2.0000      -0.906406       -24.6646
  28   2.0000      -0.869775       -23.6678
  29   2.0000      -0.850144       -23.1336
  30   2.0000      -0.846727       -23.0406
  31   2.0000      -0.813292       -22.1308
  32   2.0000      -0.781902       -21.2766
  33   2.0000      -0.767301       -20.8793
  34   2.0000      -0.706411       -19.2224
  35   2.0000      -0.703569       -19.1451
  36   2.0000      -0.689710       -18.7680
  37   2.0000      -0.661039       -17.9878
  38   2.0000      -0.648294       -17.6410
  39   2.0000      -0.616570       -16.7777
  40   2.0000      -0.590537       -16.0693
  41   2.0000      -0.572532       -15.5794
  42   2.0000      -0.557620       -15.1736
  43   2.0000      -0.548073       -14.9138
  44   2.0000      -0.543465       -14.7884
  45   2.0000      -0.539556       -14.6821
  46   2.0000      -0.520754       -14.1704
  47   2.0000      -0.511452       -13.9173
  48   2.0000      -0.502615       -13.6769
  49   2.0000      -0.495624       -13.4866
  50   2.0000      -0.485551       -13.2125
  51   2.0000      -0.476470       -12.9654
  52   2.0000      -0.468308       -12.7433
  53   2.0000      -0.464862       -12.6495
  54   2.0000      -0.458091       -12.4653
  55   2.0000      -0.455798       -12.4029
  56   2.0000      -0.441852       -12.0234
  57   2.0000      -0.440698       -11.9920
  58   2.0000      -0.434681       -11.8283
  59   2.0000      -0.422235       -11.4896
  60   2.0000      -0.415259       -11.2998
  61   2.0000      -0.406864       -11.0713
  62   2.0000      -0.403863       -10.9897
  63   2.0000      -0.339111        -9.2277
  64   2.0000      -0.328046        -8.9266
  65   2.0000      -0.324678        -8.8349
  66   2.0000      -0.295099        -8.0301
  67   0.0000       0.031633         0.8608
  68   0.0000       0.053137         1.4459
  69   0.0000       0.114441         3.1141
  70   0.0000       0.120326         3.2742
  71   0.0000       0.127719         3.4754

MULLIKEN ATOMIC CHARGES
-----------------------
   0 S :    0.119032
   1 C :   -0.145172
   2 C :   -0.111834
   3 C :    0.083834
   4 C :   -0.224833
   5 H :    0.008246
   6 C :    0.121300
   7 H :   -0.000584
   8 H :    0.018749
   9 C :   -0.105208
  10 H :    0.040612
  11 H :    0.047867
  12 C :   -0.044631
  13 H :    0.039072
  14 H :    0.033411
  15 H :    0.031469
  16 S :    0.114843
  17 C :   -0.124392
  18 C :   -0.036473
  19 C :   -0.007581
  20 C :   -0.162920
  21 H :    0.001767
  22 C :    0.086695
  23 H :    0.008971
  24 H :    0.023028
  25 C :   -0.032415
  26 H :    0.026774
  27 H :    0.026720
  28 C :   -0.081701
  29 H :    0.031837
  30 H :    0.038608
  31 H :    0.041220
  32 H :    0.060042
  33 H :    0.073645
Sum of atomic charges:   -0.0000000

LOEWDIN ATOMIC CHARGES
----------------------
   0 S :    0.421294
   1 C :   -0.208096
   2 C :   -0.058672
   3 C :   -0.057082
   4 C :   -0.202530
   5 H :    0.026323
   6 C :   -0.039877
   7 H :    0.025088
   8 H :    0.034405
   9 C :   -0.040929
  10 H :    0.036124
  11 H :    0.032606
  12 C :   -0.073704
  13 H :    0.033852
  14 H :    0.025649
  15 H :    0.021636
  16 S :    0.405755
  17 C :   -0.186197
  18 C :   -0.067411
  19 C :   -0.057642
  20 C :   -0.210685
  21 H :    0.025847
  22 C :   -0.032405
  23 H :    0.024468
  24 H :    0.033963
  25 C :   -0.030015
  26 H :    0.023987
  27 H :    0.022015
  28 C :   -0.069893
  29 H :    0.016531
  30 H :    0.027570
  31 H :    0.032744
  32 H :    0.025934
  33 H :    0.039349

  Mayer bond orders larger than 0.100000
B(  0-S ,  1-C ) :   1.1654 B(  0-S ,  4-C ) :   1.1771 B(  1-C ,  2-C ) :   1.5505
B(  1-C ,  4-C ) :   0.1119 B(  1-C , 32-H ) :   0.9693 B(  2-C ,  3-C ) :   1.2881
B(  2-C ,  6-C ) :   1.0192 B(  3-C ,  4-C ) :   1.5397 B(  3-C ,  5-H ) :   0.9842
B(  4-C , 20-C ) :   1.0474 B(  6-C ,  7-H ) :   0.9337 B(  6-C ,  8-H ) :   0.9360
B(  6-C ,  9-C ) :   1.0513 B(  9-C , 10-H ) :   0.9513 B(  9-C , 11-H ) :   0.9617
B(  9-C , 12-C ) :   1.0659 B( 12-C , 13-H ) :   0.9759 B( 12-C , 14-H ) :   0.9754
B( 12-C , 15-H ) :   0.9760 B( 16-S , 17-C ) :   1.1547 B( 16-S , 20-C ) :   1.1463
B( 17-C , 18-C ) :   1.6107 B( 17-C , 20-C ) :   0.1074 B( 17-C , 33-H ) :   0.9588
B( 18-C , 19-C ) :   1.2316 B( 18-C , 21-H ) :   0.9988 B( 19-C , 20-C ) :   1.5807
B( 19-C , 22-C ) :   1.0536 B( 22-C , 23-H ) :   0.9315 B( 22-C , 24-H ) :   0.9175
B( 22-C , 25-C ) :   1.0832 B( 25-C , 26-H ) :   0.9574 B( 25-C , 27-H ) :   0.9544
B( 25-C , 28-C ) :   1.0672 B( 28-C , 29-H ) :   0.9776 B( 28-C , 30-H ) :   0.9746
B( 28-C , 31-H ) :   0.9753

Dispersion correction           -0.014384988
FINAL SINGLE POINT ENERGY     -1339.854992218923

DIPOLE MOMENT
-------------
                                X             Y             Z
Electronic contribution:    -15.46367       2.50830     -13.79907
Nuclear contribution   :     15.76919      -2.43885      13.93917
                        -----------------------------------------
Total Dipole Moment    :      0.30551       0.06945       0.14010
                        -----------------------------------------
Magnitude (a.u.)       :      0.34320
Magnitude (Debye)      :      0.87236

Rotational constants in cm-1:     0.023456     0.007174     0.006437
Rotational constants in MHz :   703.185797   215.059914   192.974328

                             ****ORCA TERMINATED NORMALLY****
TOTAL RUN TIME: 0 days 0 hours 0 minutes 33 seconds 834 msec
