                         Program Version 4.2.1 -  RELEASE  -
|  1> ! wB97X-D3 SP def2-SVP
|  2> %pal
|  3> nprocs 16
|  4> end
|  5>
|  6> * xyz 0 1
|  7> S 	 -11.3897 	 -11.193 	 88.0522
|  8> C 	 -12.5526 	 -12.4711 	 88.3333
|  9> C 	 -12.3704 	 -13.5101 	 87.4574
| 10> C 	 -11.3692 	 -13.2148 	 86.5195
| 11> C 	 -10.8418 	 -11.9717 	 86.5907
| 12> H 	 -11.0642 	 -13.9896 	 85.838
| 13> C 	 -13.127 	 -14.8579 	 87.4512
| 14> H 	 -13.7915 	 -14.9471 	 88.3012
| 15> H 	 -12.4262 	 -15.6753 	 87.7637
| 16> C 	 -13.7508 	 -15.3044 	 86.0907
| 17> H 	 -14.5809 	 -14.6345 	 85.7402
| 18> H 	 -13.0382 	 -15.2576 	 85.346
| 19> C 	 -14.332 	 -16.7159 	 86.0181
| 20> H 	 -13.6171 	 -17.5296 	 86.4225
| 21> H 	 -15.2324 	 -16.9 	 86.6433
| 22> H 	 -14.5144 	 -16.9966 	 84.9553
| 23> S 	 -8.26839 	 -12.0225 	 85.4538
| 24> C 	 -7.82781 	 -10.6843 	 84.4295
| 25> C 	 -8.90687 	 -9.79755 	 84.1977
| 26> C 	 -9.99331 	 -10.0664 	 85.0344
| 27> C 	 -9.90091 	 -11.2975 	 85.6918
| 28> H 	 -8.83984 	 -9.07132 	 83.493
| 29> C 	 -11.2571 	 -9.33314 	 84.8514
| 30> H 	 -10.9141 	 -8.30753 	 85.0396
| 31> H 	 -11.9443 	 -9.53789 	 85.6701
| 32> C 	 -11.9392 	 -9.29416 	 83.4622
| 33> H 	 -12.2939 	 -10.2143 	 83.182
| 34> H 	 -11.2161 	 -9.14164 	 82.7331
| 35> C 	 -13.0093 	 -8.27872 	 83.2918
| 36> H 	 -13.285 	 -8.07155 	 82.2305
| 37> H 	 -12.6674 	 -7.23741 	 83.5447
| 38> H 	 -13.8755 	 -8.60564 	 83.9187
| 39> H 	 -13.2924 	 -12.4524 	 89.1585
| 40> H 	 -6.89785 	 -10.6956 	 83.8423
| 41> *
| 42>
| 43>                          ****END OF INPUT****

CARTESIAN COORDINATES (ANGSTROEM)
---------------------------------
  S    -11.389700  -11.193000   88.052200
  C    -12.552600  -12.471100   88.333300
  C    -12.370400  -13.510100   87.457400
  C    -11.369200  -13.214800   86.519500
  C    -10.841800  -11.971700   86.590700
  H    -11.064200  -13.989600   85.838000
  C    -13.127000  -14.857900   87.451200
  H    -13.791500  -14.947100   88.301200
  H    -12.426200  -15.675300   87.763700
  C    -13.750800  -15.304400   86.090700
  H    -14.580900  -14.634500   85.740200
  H    -13.038200  -15.257600   85.346000
  C    -14.332000  -16.715900   86.018100
  H    -13.617100  -17.529600   86.422500
  H    -15.232400  -16.900000   86.643300
  H    -14.514400  -16.996600   84.955300
  S     -8.268390  -12.022500   85.453800
  C     -7.827810  -10.684300   84.429500
  C     -8.906870   -9.797550   84.197700
  C     -9.993310  -10.066400   85.034400
  C     -9.900910  -11.297500   85.691800
  H     -8.839840   -9.071320   83.493000
  C    -11.257100   -9.333140   84.851400
  H    -10.914100   -8.307530   85.039600
  H    -11.944300   -9.537890   85.670100
  C    -11.939200   -9.294160   83.462200
  H    -12.293900  -10.214300   83.182000
  H    -11.216100   -9.141640   82.733100
  C    -13.009300   -8.278720   83.291800
  H    -13.285000   -8.071550   82.230500
  H    -12.667400   -7.237410   83.544700
  H    -13.875500   -8.605640   83.918700
  H    -13.292400  -12.452400   89.158500
  H     -6.897850  -10.695600   83.842300

 Total Charge           Charge          ....    0
 Multiplicity           Mult            ....    1
 Number of Electrons    NEL             ....  134
 Basis Dimension        Dim             ....  322

ORBITAL ENERGIES
----------------

  NO   OCC          E(Eh)            E(eV)
   0   2.0000     -88.967868     -2420.9388
   1   2.0000     -88.965035     -2420.8617
   2   2.0000     -10.329180      -281.0713
   3   2.0000     -10.326654      -281.0025
   4   2.0000     -10.321983      -280.8754
   5   2.0000     -10.314913      -280.6830
   6   2.0000     -10.300550      -280.2922
   7   2.0000     -10.299938      -280.2756
   8   2.0000     -10.299241      -280.2566
   9   2.0000     -10.289818      -280.0002
  10   2.0000     -10.288933      -279.9761
  11   2.0000     -10.288760      -279.9714
  12   2.0000     -10.286988      -279.9232
  13   2.0000     -10.284395      -279.8526
  14   2.0000     -10.282417      -279.7988
  15   2.0000     -10.271198      -279.4935
  16   2.0000      -8.081813      -219.9173
  17   2.0000      -8.079769      -219.8617
  18   2.0000      -6.040208      -164.3624
  19   2.0000      -6.038216      -164.3082
  20   2.0000      -6.036419      -164.2593
  21   2.0000      -6.034360      -164.2033
  22   2.0000      -6.032774      -164.1601
  23   2.0000      -6.030492      -164.0980
  24   2.0000      -1.007900       -27.4263
  25   2.0000      -0.985090       -26.8057
  26   2.0000      -0.913801       -24.8658
  27   2.0000      -0.905753       -24.6468
  28   2.0000      -0.867485       -23.6055
  29   2.0000      -0.860171       -23.4064
  30   2.0000      -0.847803       -23.0699
  31   2.0000      -0.813008       -22.1231
  32   2.0000      -0.782525       -21.2936
  33   2.0000      -0.767528       -20.8855
  34   2.0000      -0.710249       -19.3269
  35   2.0000      -0.703589       -19.1456
  36   2.0000      -0.690646       -18.7934
  37   2.0000      -0.669979       -18.2311
  38   2.0000      -0.638065       -17.3626
  39   2.0000      -0.628152       -17.0929
  40   2.0000      -0.598821       -16.2947
  41   2.0000      -0.570362       -15.5203
  42   2.0000      -0.562471       -15.3056
  43   2.0000      -0.554482       -15.0882
  44   2.0000      -0.528340       -14.3769
  45   2.0000      -0.526947       -14.3390
  46   2.0000      -0.521291       -14.1850
  47   2.0000      -0.512367       -13.9422
  48   2.0000      -0.503895       -13.7117
  49   2.0000      -0.495629       -13.4867
  50   2.0000      -0.489392       -13.3170
  51   2.0000      -0.474579       -12.9140
  52   2.0000      -0.467574       -12.7233
  53   2.0000      -0.464219       -12.6321
  54   2.0000      -0.456261       -12.4155
  55   2.0000      -0.453608       -12.3433
  56   2.0000      -0.450623       -12.2621
  57   2.0000      -0.437411       -11.9026
  58   2.0000      -0.427318       -11.6279
  59   2.0000      -0.426128       -11.5955
  60   2.0000      -0.422649       -11.5009
  61   2.0000      -0.418298       -11.3825
  62   2.0000      -0.413488       -11.2516
  63   2.0000      -0.339289        -9.2325
  64   2.0000      -0.333576        -9.0771
  65   2.0000      -0.329079        -8.9547
  66   2.0000      -0.294006        -8.0003
  67   0.0000       0.029864         0.8126
  68   0.0000       0.066673         1.8143
  69   0.0000       0.107640         2.9290
  70   0.0000       0.112096         3.0503
  71   0.0000       0.129029         3.5110

MULLIKEN ATOMIC CHARGES
-----------------------
   0 S :    0.114779
   1 C :   -0.156158
   2 C :   -0.054803
   3 C :    0.016819
   4 C :   -0.132465
   5 H :    0.005799
   6 C :    0.067680
   7 H :    0.007578
   8 H :    0.032402
   9 C :   -0.042766
  10 H :    0.040905
  11 H :    0.010855
  12 C :   -0.105365
  13 H :    0.030442
  14 H :    0.040963
  15 H :    0.046165
  16 S :    0.110318
  17 C :   -0.104723
  18 C :   -0.016929
  19 C :   -0.002523
  20 C :   -0.158106
  21 H :   -0.016958
  22 C :    0.057305
  23 H :    0.014298
  24 H :    0.017403
  25 C :    0.031745
  26 H :    0.003905
  27 H :   -0.013181
  28 C :   -0.081130
  29 H :    0.036594
  30 H :    0.025456
  31 H :    0.048338
  32 H :    0.056230
  33 H :    0.069129
Sum of atomic charges:   -0.0000000

LOEWDIN ATOMIC CHARGES
----------------------
   0 S :    0.411484
   1 C :   -0.197971
   2 C :   -0.066844
   3 C :   -0.063235
   4 C :   -0.193452
   5 H :    0.029479
   6 C :   -0.033607
   7 H :    0.025760
   8 H :    0.038577
   9 C :   -0.041413
  10 H :    0.033800
  11 H :    0.012527
  12 C :   -0.077509
  13 H :    0.028166
  14 H :    0.025584
  15 H :    0.032403
  16 S :    0.395353
  17 C :   -0.184940
  18 C :   -0.054931
  19 C :   -0.055175
  20 C :   -0.187291
  21 H :    0.013859
  22 C :   -0.031461
  23 H :    0.034113
  24 H :    0.022719
  25 C :   -0.033102
  26 H :    0.016279
  27 H :    0.014690
  28 C :   -0.069595
  29 H :    0.032074
  30 H :    0.026546
  31 H :    0.032277
  32 H :    0.033473
  33 H :    0.031363

  Mayer bond orders larger than 0.100000
B(  0-S ,  1-C ) :   1.1412 B(  0-S ,  4-C ) :   1.1437 B(  1-C ,  2-C ) :   1.6132
B(  1-C , 32-H ) :   0.9633 B(  2-C ,  3-C ) :   1.2589 B(  2-C ,  6-C ) :   1.0227
B(  3-C ,  4-C ) :   1.5720 B(  3-C ,  5-H ) :   1.0001 B(  4-C , 20-C ) :   1.0278
B(  6-C ,  7-H ) :   0.9432 B(  6-C ,  8-H ) :   0.9356 B(  6-C ,  9-C ) :   1.0504
B(  9-C , 10-H ) :   0.9530 B(  9-C , 11-H ) :   0.9539 B(  9-C , 12-C ) :   1.0859
B( 12-C , 13-H ) :   0.9720 B( 12-C , 14-H ) :   0.9765 B( 12-C , 15-H ) :   0.9742
B( 16-S , 17-C ) :   1.1782 B( 16-S , 20-C ) :   1.1332 B( 17-C , 18-C ) :   1.5728
B( 17-C , 20-C ) :   0.1095 B( 17-C , 33-H ) :   0.9628 B( 18-C , 19-C ) :   1.2446
B( 18-C , 21-H ) :   1.0088 B( 19-C , 20-C ) :   1.5586 B( 19-C , 22-C ) :   1.0730
B( 22-C , 23-H ) :   0.9166 B( 22-C , 24-H ) :   0.9285 B( 22-C , 25-C ) :   1.0600
B( 25-C , 26-H ) :   0.9454 B( 25-C , 27-H ) :   0.9392 B( 25-C , 28-C ) :   1.0953
B( 28-C , 29-H ) :   0.9704 B( 28-C , 30-H ) :   0.9718 B( 28-C , 31-H ) :   0.9759

Dispersion correction           -0.013624340
FINAL SINGLE POINT ENERGY     -1339.865734837195

DIPOLE MOMENT
-------------
                                X             Y             Z
Electronic contribution:     21.19277       5.35709      11.50992
Nuclear contribution   :    -21.50783      -5.52597     -11.93161
                        -----------------------------------------
Total Dipole Moment    :     -0.31506      -0.16888      -0.42168
                        -----------------------------------------
Magnitude (a.u.)       :      0.55281
Magnitude (Debye)      :      1.40513

Rotational constants in cm-1:     0.017014     0.007786     0.006944
Rotational constants in MHz :   510.066153   233.410036   208.168088

                             ****ORCA TERMINATED NORMALLY****
TOTAL RUN TIME: 0 days 0 hours 0 minutes 31 seconds 309 msec
