                         Program Version 4.2.1 -  RELEASE  -
|  1> ! wB97X-D3 SP def2-SVP
|  2> %pal
|  3> nprocs 16
|  4> end
|  5>
|  6> * xyz 0 1
|  7> S 	 -54.8667 	 42.4226 	 112.18
|  8> C 	 -53.1637 	 42.0106 	 111.846
|  9> C 	 -52.9861 	 40.6111 	 111.89
| 10> C 	 -54.2131 	 39.9211 	 112.219
| 11> C 	 -55.2214 	 40.7887 	 112.618
| 12> H 	 -54.3764 	 38.8382 	 112.28
| 13> C 	 -51.5597 	 40.0341 	 111.73
| 14> H 	 -51.3109 	 39.7221 	 112.775
| 15> H 	 -50.8192 	 40.7434 	 111.397
| 16> C 	 -51.4906 	 38.8409 	 110.711
| 17> H 	 -52.2971 	 38.1643 	 110.953
| 18> H 	 -51.7742 	 39.1046 	 109.695
| 19> C 	 -50.0841 	 38.2328 	 110.676
| 20> H 	 -49.9595 	 37.9241 	 111.758
| 21> H 	 -50.0462 	 37.3356 	 110.076
| 22> H 	 -49.3254 	 38.9381 	 110.388
| 23> S 	 -56.6668 	 39.9264 	 114.668
| 24> C 	 -58.3942 	 39.7558 	 114.587
| 25> C 	 -58.8458 	 40.2651 	 113.394
| 26> C 	 -57.8188 	 40.7023 	 112.511
| 27> C 	 -56.5935 	 40.4531 	 113.063
| 28> H 	 -59.8507 	 40.3575 	 113.179
| 29> C 	 -58.2122 	 41.4262 	 111.215
| 30> H 	 -57.8109 	 42.3966 	 111.424
| 31> H 	 -59.2558 	 41.5409 	 111.157
| 32> C 	 -57.6571 	 40.8047 	 109.944
| 33> H 	 -58.016 	 39.8452 	 109.583
| 34> H 	 -56.6299 	 40.6668 	 109.99
| 35> C 	 -57.8581 	 41.8658 	 108.847
| 36> H 	 -58.8745 	 42.2933 	 108.77
| 37> H 	 -57.4851 	 41.428 	 107.904
| 38> H 	 -57.2683 	 42.7036 	 109.043
| 39> H 	 -52.3328 	 42.6558 	 111.739
| 40> H 	 -59.0135 	 39.5315 	 115.449
| 41> *
| 42>
| 43>                          ****END OF INPUT****

CARTESIAN COORDINATES (ANGSTROEM)
---------------------------------
  S    -54.866700   42.422600  112.180000
  C    -53.163700   42.010600  111.846000
  C    -52.986100   40.611100  111.890000
  C    -54.213100   39.921100  112.219000
  C    -55.221400   40.788700  112.618000
  H    -54.376400   38.838200  112.280000
  C    -51.559700   40.034100  111.730000
  H    -51.310900   39.722100  112.775000
  H    -50.819200   40.743400  111.397000
  C    -51.490600   38.840900  110.711000
  H    -52.297100   38.164300  110.953000
  H    -51.774200   39.104600  109.695000
  C    -50.084100   38.232800  110.676000
  H    -49.959500   37.924100  111.758000
  H    -50.046200   37.335600  110.076000
  H    -49.325400   38.938100  110.388000
  S    -56.666800   39.926400  114.668000
  C    -58.394200   39.755800  114.587000
  C    -58.845800   40.265100  113.394000
  C    -57.818800   40.702300  112.511000
  C    -56.593500   40.453100  113.063000
  H    -59.850700   40.357500  113.179000
  C    -58.212200   41.426200  111.215000
  H    -57.810900   42.396600  111.424000
  H    -59.255800   41.540900  111.157000
  C    -57.657100   40.804700  109.944000
  H    -58.016000   39.845200  109.583000
  H    -56.629900   40.666800  109.990000
  C    -57.858100   41.865800  108.847000
  H    -58.874500   42.293300  108.770000
  H    -57.485100   41.428000  107.904000
  H    -57.268300   42.703600  109.043000
  H    -52.332800   42.655800  111.739000
  H    -59.013500   39.531500  115.449000

 Total Charge           Charge          ....    0
 Multiplicity           Mult            ....    1
 Number of Electrons    NEL             ....  134
 Basis Dimension        Dim             ....  322

ORBITAL ENERGIES
----------------

  NO   OCC          E(Eh)            E(eV)
   0   2.0000     -88.966907     -2420.9126
   1   2.0000     -88.963246     -2420.8130
   2   2.0000     -10.330306      -281.1019
   3   2.0000     -10.318348      -280.7765
   4   2.0000     -10.313580      -280.6468
   5   2.0000     -10.311462      -280.5892
   6   2.0000     -10.308946      -280.5207
   7   2.0000     -10.301152      -280.3086
   8   2.0000     -10.300509      -280.2911
   9   2.0000     -10.296507      -280.1822
  10   2.0000     -10.287150      -279.9276
  11   2.0000     -10.286744      -279.9165
  12   2.0000     -10.283618      -279.8315
  13   2.0000     -10.281207      -279.7659
  14   2.0000     -10.275110      -279.6000
  15   2.0000     -10.268498      -279.4200
  16   2.0000      -8.081038      -219.8962
  17   2.0000      -8.079313      -219.8493
  18   2.0000      -6.039541      -164.3443
  19   2.0000      -6.037695      -164.2940
  20   2.0000      -6.035674      -164.2390
  21   2.0000      -6.033611      -164.1829
  22   2.0000      -6.031814      -164.1340
  23   2.0000      -6.030151      -164.0887
  24   2.0000      -1.012449       -27.5501
  25   2.0000      -0.983470       -26.7616
  26   2.0000      -0.912904       -24.8414
  27   2.0000      -0.907291       -24.6887
  28   2.0000      -0.868047       -23.6208
  29   2.0000      -0.853204       -23.2169
  30   2.0000      -0.842508       -22.9258
  31   2.0000      -0.815171       -22.1819
  32   2.0000      -0.780043       -21.2261
  33   2.0000      -0.768110       -20.9013
  34   2.0000      -0.710315       -19.3286
  35   2.0000      -0.703640       -19.1470
  36   2.0000      -0.688285       -18.7292
  37   2.0000      -0.670305       -18.2399
  38   2.0000      -0.640254       -17.4222
  39   2.0000      -0.616437       -16.7741
  40   2.0000      -0.597864       -16.2687
  41   2.0000      -0.568538       -15.4707
  42   2.0000      -0.565082       -15.3767
  43   2.0000      -0.561943       -15.2913
  44   2.0000      -0.533151       -14.5078
  45   2.0000      -0.525003       -14.2860
  46   2.0000      -0.514375       -13.9968
  47   2.0000      -0.510182       -13.8828
  48   2.0000      -0.503696       -13.7063
  49   2.0000      -0.498457       -13.5637
  50   2.0000      -0.487543       -13.2667
  51   2.0000      -0.484435       -13.1822
  52   2.0000      -0.476357       -12.9623
  53   2.0000      -0.468463       -12.7475
  54   2.0000      -0.461136       -12.5482
  55   2.0000      -0.452943       -12.3252
  56   2.0000      -0.449909       -12.2426
  57   2.0000      -0.438070       -11.9205
  58   2.0000      -0.437284       -11.8991
  59   2.0000      -0.425899       -11.5893
  60   2.0000      -0.420729       -11.4486
  61   2.0000      -0.405612       -11.0373
  62   2.0000      -0.403271       -10.9735
  63   2.0000      -0.337818        -9.1925
  64   2.0000      -0.332395        -9.0449
  65   2.0000      -0.325012        -8.8440
  66   2.0000      -0.300133        -8.1670
  67   0.0000       0.038856         1.0573
  68   0.0000       0.063168         1.7189
  69   0.0000       0.110281         3.0009
  70   0.0000       0.121261         3.2997
  71   0.0000       0.127181         3.4608

MULLIKEN ATOMIC CHARGES
-----------------------
   0 S :    0.106131
   1 C :   -0.102167
   2 C :   -0.084908
   3 C :    0.032147
   4 C :   -0.161436
   5 H :    0.026363
   6 C :    0.046085
   7 H :    0.051471
   8 H :    0.020705
   9 C :   -0.096436
  10 H :    0.022712
  11 H :    0.024789
  12 C :   -0.036151
  13 H :    0.030457
  14 H :    0.037698
  15 H :    0.038731
  16 S :    0.121470
  17 C :   -0.089281
  18 C :   -0.021702
  19 C :   -0.027785
  20 C :   -0.198800
  21 H :   -0.015942
  22 C :    0.114401
  23 H :    0.025453
  24 H :    0.002053
  25 C :   -0.027779
  26 H :    0.028411
  27 H :    0.016626
  28 C :   -0.041636
  29 H :    0.025817
  30 H :    0.029042
  31 H :    0.010804
  32 H :    0.033381
  33 H :    0.059277
Sum of atomic charges:   -0.0000000

LOEWDIN ATOMIC CHARGES
----------------------
   0 S :    0.401504
   1 C :   -0.191554
   2 C :   -0.053752
   3 C :   -0.070323
   4 C :   -0.198508
   5 H :    0.035398
   6 C :   -0.026246
   7 H :    0.038619
   8 H :    0.025792
   9 C :   -0.044526
  10 H :    0.019565
  11 H :    0.021498
  12 C :   -0.063765
  13 H :    0.032338
  14 H :    0.025525
  15 H :    0.023668
  16 S :    0.444858
  17 C :   -0.194650
  18 C :   -0.061474
  19 C :   -0.057251
  20 C :   -0.227114
  21 H :    0.016474
  22 C :   -0.017632
  23 H :    0.030562
  24 H :    0.023578
  25 C :   -0.030489
  26 H :    0.025571
  27 H :    0.017752
  28 C :   -0.060358
  29 H :    0.023700
  30 H :    0.026366
  31 H :    0.014196
  32 H :    0.020464
  33 H :    0.030215

  Mayer bond orders larger than 0.100000
B(  0-S ,  1-C ) :   1.1220 B(  0-S ,  4-C ) :   1.1616 B(  1-C ,  2-C ) :   1.6218
B(  1-C ,  4-C ) :   0.1001 B(  1-C , 32-H ) :   0.9738 B(  2-C ,  3-C ) :   1.2203
B(  2-C ,  6-C ) :   1.0169 B(  3-C ,  4-C ) :   1.5949 B(  3-C ,  5-H ) :   0.9878
B(  4-C , 20-C ) :   0.9778 B(  6-C ,  7-H ) :   0.9429 B(  6-C ,  8-H ) :   0.9493
B(  6-C ,  9-C ) :   1.0464 B(  9-C , 10-H ) :   0.9593 B(  9-C , 11-H ) :   0.9565
B(  9-C , 12-C ) :   1.0789 B( 12-C , 13-H ) :   0.9766 B( 12-C , 14-H ) :   0.9735
B( 12-C , 15-H ) :   0.9752 B( 16-S , 17-C ) :   1.1591 B( 16-S , 20-C ) :   1.1865
B( 17-C , 18-C ) :   1.5811 B( 17-C , 33-H ) :   0.9700 B( 18-C , 19-C ) :   1.2686
B( 18-C , 21-H ) :   1.0020 B( 19-C , 20-C ) :   1.5859 B( 19-C , 22-C ) :   1.0145
B( 22-C , 23-H ) :   0.9330 B( 22-C , 24-H ) :   0.9303 B( 22-C , 25-C ) :   1.0691
B( 25-C , 26-H ) :   0.9580 B( 25-C , 27-H ) :   0.9521 B( 25-C , 28-C ) :   1.0820
B( 28-C , 29-H ) :   0.9731 B( 28-C , 30-H ) :   0.9731 B( 28-C , 31-H ) :   0.9763

Dispersion correction           -0.014284189
FINAL SINGLE POINT ENERGY     -1339.866009558568

DIPOLE MOMENT
-------------
                                X             Y             Z
Electronic contribution:     -9.64298       5.99508      19.79846
Nuclear contribution   :      9.74984      -6.09330     -20.05052
                        -----------------------------------------
Total Dipole Moment    :      0.10686      -0.09822      -0.25206
                        -----------------------------------------
Magnitude (a.u.)       :      0.29086
Magnitude (Debye)      :      0.73931

Rotational constants in cm-1:     0.019100     0.008100     0.006831
Rotational constants in MHz :   572.602936   242.819151   204.776606

                             ****ORCA TERMINATED NORMALLY****
TOTAL RUN TIME: 0 days 0 hours 0 minutes 28 seconds 166 msec
