                         Program Version 4.2.1 -  RELEASE  -
|  1> ! wB97X-D3 SP def2-SVP
|  2> %pal
|  3> nprocs 16
|  4> end
|  5>
|  6> * xyz 0 1
|  7> S 	 38.133 	 28.6715 	 96.4347
|  8> C 	 38.1885 	 29.7571 	 95.0727
|  9> C 	 38.7796 	 29.106 	 93.9939
| 10> C 	 39.1256 	 27.752 	 94.281
| 11> C 	 38.9467 	 27.3403 	 95.5615
| 12> H 	 39.5276 	 26.994 	 93.6331
| 13> C 	 39.1205 	 29.7974 	 92.6916
| 14> H 	 40.1534 	 30.0705 	 92.7633
| 15> H 	 38.6359 	 30.7474 	 92.6771
| 16> C 	 38.6205 	 29.1719 	 91.4049
| 17> H 	 37.5281 	 29.1433 	 91.4264
| 18> H 	 38.9382 	 29.8393 	 90.6017
| 19> C 	 39.2742 	 27.8352 	 90.9768
| 20> H 	 38.7626 	 26.9732 	 91.3047
| 21> H 	 39.1888 	 27.7121 	 89.9119
| 22> H 	 40.3687 	 27.7662 	 91.3162
| 23> S 	 38.0163 	 25.5447 	 97.3828
| 24> C 	 38.7158 	 23.9453 	 97.3737
| 25> C 	 39.8108 	 23.8405 	 96.4814
| 26> C 	 40.0147 	 24.9617 	 95.7036
| 27> C 	 39.1698 	 25.9965 	 96.1117
| 28> H 	 40.2624 	 22.8165 	 96.4158
| 29> C 	 41.1002 	 25.0201 	 94.6926
| 30> H 	 42.0128 	 24.4139 	 95.048
| 31> H 	 41.4742 	 26.024 	 94.6326
| 32> C 	 40.7889 	 24.528 	 93.2516
| 33> H 	 39.9131 	 24.9428 	 92.8471
| 34> H 	 40.5633 	 23.4219 	 93.4567
| 35> C 	 41.8761 	 24.859 	 92.2184
| 36> H 	 41.7058 	 24.3878 	 91.2584
| 37> H 	 42.7385 	 24.6581 	 92.7019
| 38> H 	 41.8483 	 25.94 	 92.0829
| 39> H 	 37.873 	 30.7365 	 95.1266
| 40> H 	 38.3985 	 23.0957 	 97.9859
| 41> *
| 42>
| 43>                          ****END OF INPUT****

CARTESIAN COORDINATES (ANGSTROEM)
---------------------------------
  S     38.133000   28.671500   96.434700
  C     38.188500   29.757100   95.072700
  C     38.779600   29.106000   93.993900
  C     39.125600   27.752000   94.281000
  C     38.946700   27.340300   95.561500
  H     39.527600   26.994000   93.633100
  C     39.120500   29.797400   92.691600
  H     40.153400   30.070500   92.763300
  H     38.635900   30.747400   92.677100
  C     38.620500   29.171900   91.404900
  H     37.528100   29.143300   91.426400
  H     38.938200   29.839300   90.601700
  C     39.274200   27.835200   90.976800
  H     38.762600   26.973200   91.304700
  H     39.188800   27.712100   89.911900
  H     40.368700   27.766200   91.316200
  S     38.016300   25.544700   97.382800
  C     38.715800   23.945300   97.373700
  C     39.810800   23.840500   96.481400
  C     40.014700   24.961700   95.703600
  C     39.169800   25.996500   96.111700
  H     40.262400   22.816500   96.415800
  C     41.100200   25.020100   94.692600
  H     42.012800   24.413900   95.048000
  H     41.474200   26.024000   94.632600
  C     40.788900   24.528000   93.251600
  H     39.913100   24.942800   92.847100
  H     40.563300   23.421900   93.456700
  C     41.876100   24.859000   92.218400
  H     41.705800   24.387800   91.258400
  H     42.738500   24.658100   92.701900
  H     41.848300   25.940000   92.082900
  H     37.873000   30.736500   95.126600
  H     38.398500   23.095700   97.985900

 Total Charge           Charge          ....    0
 Multiplicity           Mult            ....    1
 Number of Electrons    NEL             ....  134
 Basis Dimension        Dim             ....  322

ORBITAL ENERGIES
----------------

  NO   OCC          E(Eh)            E(eV)
   0   2.0000     -88.972792     -2421.0728
   1   2.0000     -88.960681     -2420.7432
   2   2.0000     -10.333086      -281.1776
   3   2.0000     -10.328908      -281.0639
   4   2.0000     -10.320162      -280.8259
   5   2.0000     -10.309784      -280.5435
   6   2.0000     -10.304516      -280.4001
   7   2.0000     -10.300771      -280.2982
   8   2.0000     -10.297685      -280.2143
   9   2.0000     -10.296898      -280.1928
  10   2.0000     -10.289822      -280.0003
  11   2.0000     -10.289233      -279.9843
  12   2.0000     -10.286426      -279.9079
  13   2.0000     -10.284768      -279.8628
  14   2.0000     -10.279816      -279.7280
  15   2.0000     -10.274217      -279.5756
  16   2.0000      -8.086939      -220.0568
  17   2.0000      -8.075122      -219.7352
  18   2.0000      -6.045334      -164.5019
  19   2.0000      -6.041577      -164.3997
  20   2.0000      -6.037799      -164.2969
  21   2.0000      -6.033751      -164.1867
  22   2.0000      -6.029648      -164.0751
  23   2.0000      -6.025805      -163.9705
  24   2.0000      -1.006697       -27.3936
  25   2.0000      -0.983947       -26.7746
  26   2.0000      -0.914921       -24.8963
  27   2.0000      -0.911266       -24.7968
  28   2.0000      -0.869215       -23.6525
  29   2.0000      -0.863698       -23.5024
  30   2.0000      -0.841150       -22.8889
  31   2.0000      -0.817233       -22.2380
  32   2.0000      -0.788275       -21.4500
  33   2.0000      -0.775235       -21.0952
  34   2.0000      -0.707985       -19.2653
  35   2.0000      -0.700687       -19.0667
  36   2.0000      -0.696625       -18.9561
  37   2.0000      -0.663178       -18.0460
  38   2.0000      -0.646710       -17.5979
  39   2.0000      -0.619418       -16.8552
  40   2.0000      -0.600251       -16.3337
  41   2.0000      -0.572621       -15.5818
  42   2.0000      -0.570488       -15.5238
  43   2.0000      -0.548080       -14.9140
  44   2.0000      -0.535535       -14.5726
  45   2.0000      -0.532004       -14.4766
  46   2.0000      -0.520302       -14.1581
  47   2.0000      -0.512767       -13.9531
  48   2.0000      -0.509067       -13.8524
  49   2.0000      -0.504838       -13.7373
  50   2.0000      -0.491430       -13.3725
  51   2.0000      -0.486911       -13.2495
  52   2.0000      -0.479558       -13.0494
  53   2.0000      -0.466815       -12.7027
  54   2.0000      -0.457450       -12.4478
  55   2.0000      -0.447578       -12.1792
  56   2.0000      -0.446675       -12.1547
  57   2.0000      -0.439063       -11.9475
  58   2.0000      -0.433502       -11.7962
  59   2.0000      -0.425169       -11.5694
  60   2.0000      -0.421415       -11.4673
  61   2.0000      -0.412889       -11.2353
  62   2.0000      -0.406876       -11.0717
  63   2.0000      -0.357754        -9.7350
  64   2.0000      -0.340709        -9.2712
  65   2.0000      -0.325653        -8.8615
  66   2.0000      -0.280629        -7.6363
  67   0.0000       0.020375         0.5544
  68   0.0000       0.077270         2.1026
  69   0.0000       0.100961         2.7473
  70   0.0000       0.121367         3.3026
  71   0.0000       0.124816         3.3964

MULLIKEN ATOMIC CHARGES
-----------------------
   0 S :    0.080157
   1 C :   -0.094752
   2 C :   -0.073935
   3 C :    0.018615
   4 C :   -0.108076
   5 H :   -0.042600
   6 C :    0.093797
   7 H :    0.036379
   8 H :   -0.000763
   9 C :   -0.070612
  10 H :    0.038913
  11 H :    0.030327
  12 C :   -0.063639
  13 H :    0.027883
  14 H :    0.025475
  15 H :    0.047375
  16 S :    0.120763
  17 C :   -0.107104
  18 C :   -0.064849
  19 C :    0.008329
  20 C :   -0.135971
  21 H :    0.036732
  22 C :   -0.007053
  23 H :    0.042258
  24 H :    0.018489
  25 C :   -0.094190
  26 H :    0.022281
  27 H :    0.032690
  28 C :    0.034925
  29 H :    0.047252
  30 H :    0.002146
  31 H :    0.016290
  32 H :    0.022430
  33 H :    0.060034
Sum of atomic charges:   -0.0000000

LOEWDIN ATOMIC CHARGES
----------------------
   0 S :    0.376147
   1 C :   -0.183721
   2 C :   -0.058944
   3 C :   -0.073974
   4 C :   -0.175702
   5 H :    0.027288
   6 C :   -0.033489
   7 H :    0.031777
   8 H :    0.029057
   9 C :   -0.037309
  10 H :    0.030006
  11 H :    0.028979
  12 C :   -0.073697
  13 H :    0.015935
  14 H :    0.025036
  15 H :    0.033264
  16 S :    0.412050
  17 C :   -0.192985
  18 C :   -0.074363
  19 C :   -0.061476
  20 C :   -0.176911
  21 H :    0.041567
  22 C :   -0.038905
  23 H :    0.041775
  24 H :    0.022887
  25 C :   -0.039296
  26 H :    0.009602
  27 H :    0.029415
  28 C :   -0.046771
  29 H :    0.032419
  30 H :    0.008775
  31 H :    0.026317
  32 H :    0.014089
  33 H :    0.031158

  Mayer bond orders larger than 0.100000
B(  0-S ,  1-C ) :   1.1336 B(  0-S ,  4-C ) :   1.1273 B(  1-C ,  2-C ) :   1.5986
B(  1-C , 32-H ) :   0.9830 B(  2-C ,  3-C ) :   1.2208 B(  2-C ,  6-C ) :   1.0229
B(  3-C ,  4-C ) :   1.6000 B(  3-C ,  5-H ) :   0.9916 B(  4-C , 20-C ) :   1.0619
B(  6-C ,  7-H ) :   0.9350 B(  6-C ,  8-H ) :   0.9276 B(  6-C ,  9-C ) :   1.0868
B(  9-C , 10-H ) :   0.9538 B(  9-C , 11-H ) :   0.9552 B(  9-C , 12-C ) :   1.0762
B( 12-C , 13-H ) :   0.9690 B( 12-C , 14-H ) :   0.9691 B( 12-C , 15-H ) :   0.9691
B( 16-S , 17-C ) :   1.1635 B( 16-S , 20-C ) :   1.1479 B( 17-C , 18-C ) :   1.5913
B( 17-C , 20-C ) :   0.1133 B( 17-C , 33-H ) :   0.9646 B( 18-C , 19-C ) :   1.2687
B( 18-C , 21-H ) :   0.9817 B( 19-C , 20-C ) :   1.5589 B( 19-C , 22-C ) :   1.0438
B( 22-C , 23-H ) :   0.9350 B( 22-C , 24-H ) :   0.9343 B( 22-C , 25-C ) :   1.0504
B( 25-C , 26-H ) :   0.9537 B( 25-C , 27-H ) :   0.9511 B( 25-C , 28-C ) :   1.0741
B( 28-C , 29-H ) :   0.9722 B( 28-C , 30-H ) :   0.9699 B( 28-C , 31-H ) :   0.9686

Dispersion correction           -0.015453466
FINAL SINGLE POINT ENERGY     -1339.864349941021

DIPOLE MOMENT
-------------
                                X             Y             Z
Electronic contribution:    -13.25385       2.52694      29.72942
Nuclear contribution   :     13.53619      -2.66981     -30.41422
                        -----------------------------------------
Total Dipole Moment    :      0.28235      -0.14288      -0.68479
                        -----------------------------------------
Magnitude (a.u.)       :      0.75437
Magnitude (Debye)      :      1.91746

Rotational constants in cm-1:     0.016319     0.011298     0.007108
Rotational constants in MHz :   489.233133   338.709193   213.107376

                             ****ORCA TERMINATED NORMALLY****
TOTAL RUN TIME: 0 days 0 hours 0 minutes 30 seconds 294 msec
