                         Program Version 4.2.1 -  RELEASE  -
|  1> ! wB97X-D3 SP def2-SVP
|  2> %pal
|  3> nprocs 16
|  4> end
|  5>
|  6> * xyz 0 1
|  7> S 	 43.7562 	 14.1634 	 88.5598
|  8> C 	 44.7273 	 12.9216 	 87.7701
|  9> C 	 44.2353 	 12.5604 	 86.5198
| 10> C 	 43.0657 	 13.3131 	 86.226
| 11> C 	 42.6073 	 14.079 	 87.2541
| 12> H 	 42.3932 	 13.228 	 85.3221
| 13> C 	 44.7904 	 11.4948 	 85.6112
| 14> H 	 45.4402 	 10.9581 	 86.2099
| 15> H 	 45.4377 	 12.1196 	 85.0851
| 16> C 	 43.9265 	 10.6584 	 84.6122
| 17> H 	 43.1891 	 11.3122 	 84.1119
| 18> H 	 44.6078 	 10.2962 	 83.869
| 19> C 	 43.1676 	 9.36786 	 85.1581
| 20> H 	 42.3487 	 9.70968 	 85.8079
| 21> H 	 42.7034 	 8.90732 	 84.2918
| 22> H 	 43.8933 	 8.74563 	 85.6781
| 23> S 	 41.6298 	 16.577 	 87.6077
| 24> C 	 39.967 	 16.9493 	 87.1125
| 25> C 	 39.2794 	 15.7879 	 86.9116
| 26> C 	 40.1025 	 14.6055 	 86.9433
| 27> C 	 41.3649 	 14.8662 	 87.3157
| 28> H 	 38.1741 	 15.885 	 86.585
| 29> C 	 39.6166 	 13.2274 	 86.559
| 30> H 	 40.4079 	 12.5976 	 86.5037
| 31> H 	 39.1102 	 13.32 	 85.6592
| 32> C 	 38.736 	 12.6124 	 87.6566
| 33> H 	 37.7782 	 13.0915 	 87.7161
| 34> H 	 39.0612 	 12.8427 	 88.6596
| 35> C 	 38.6336 	 11.0959 	 87.5053
| 36> H 	 38.1376 	 10.7453 	 88.3684
| 37> H 	 39.5728 	 10.5881 	 87.4713
| 38> H 	 37.9673 	 10.795 	 86.6793
| 39> H 	 45.6811 	 12.511 	 88.0703
| 40> H 	 39.5995 	 17.9895 	 87.2553
| 41> *
| 42>
| 43>                          ****END OF INPUT****

CARTESIAN COORDINATES (ANGSTROEM)
---------------------------------
  S     43.756200   14.163400   88.559800
  C     44.727300   12.921600   87.770100
  C     44.235300   12.560400   86.519800
  C     43.065700   13.313100   86.226000
  C     42.607300   14.079000   87.254100
  H     42.393200   13.228000   85.322100
  C     44.790400   11.494800   85.611200
  H     45.440200   10.958100   86.209900
  H     45.437700   12.119600   85.085100
  C     43.926500   10.658400   84.612200
  H     43.189100   11.312200   84.111900
  H     44.607800   10.296200   83.869000
  C     43.167600    9.367860   85.158100
  H     42.348700    9.709680   85.807900
  H     42.703400    8.907320   84.291800
  H     43.893300    8.745630   85.678100
  S     41.629800   16.577000   87.607700
  C     39.967000   16.949300   87.112500
  C     39.279400   15.787900   86.911600
  C     40.102500   14.605500   86.943300
  C     41.364900   14.866200   87.315700
  H     38.174100   15.885000   86.585000
  C     39.616600   13.227400   86.559000
  H     40.407900   12.597600   86.503700
  H     39.110200   13.320000   85.659200
  C     38.736000   12.612400   87.656600
  H     37.778200   13.091500   87.716100
  H     39.061200   12.842700   88.659600
  C     38.633600   11.095900   87.505300
  H     38.137600   10.745300   88.368400
  H     39.572800   10.588100   87.471300
  H     37.967300   10.795000   86.679300
  H     45.681100   12.511000   88.070300
  H     39.599500   17.989500   87.255300

 Total Charge           Charge          ....    0
 Multiplicity           Mult            ....    1
 Number of Electrons    NEL             ....  134
 Basis Dimension        Dim             ....  322

ORBITAL ENERGIES
----------------

  NO   OCC          E(Eh)            E(eV)
   0   2.0000     -88.965882     -2420.8847
   1   2.0000     -88.956228     -2420.6220
   2   2.0000     -10.325179      -280.9624
   3   2.0000     -10.320981      -280.8482
   4   2.0000     -10.320219      -280.8274
   5   2.0000     -10.310089      -280.5518
   6   2.0000     -10.302248      -280.3384
   7   2.0000     -10.300709      -280.2965
   8   2.0000     -10.299467      -280.2627
   9   2.0000     -10.297354      -280.2052
  10   2.0000     -10.291982      -280.0591
  11   2.0000     -10.285582      -279.8849
  12   2.0000     -10.284944      -279.8675
  13   2.0000     -10.278789      -279.7001
  14   2.0000     -10.276376      -279.6344
  15   2.0000     -10.271219      -279.4941
  16   2.0000      -8.080373      -219.8781
  17   2.0000      -8.071414      -219.6343
  18   2.0000      -6.038916      -164.3273
  19   2.0000      -6.034976      -164.2200
  20   2.0000      -6.031065      -164.1136
  21   2.0000      -6.029996      -164.0845
  22   2.0000      -6.025938      -163.9741
  23   2.0000      -6.021970      -163.8661
  24   2.0000      -1.008534       -27.4436
  25   2.0000      -0.984416       -26.7873
  26   2.0000      -0.913424       -24.8555
  27   2.0000      -0.909840       -24.7580
  28   2.0000      -0.867001       -23.5923
  29   2.0000      -0.852158       -23.1884
  30   2.0000      -0.842986       -22.9388
  31   2.0000      -0.817934       -22.2571
  32   2.0000      -0.786691       -21.4069
  33   2.0000      -0.776970       -21.1424
  34   2.0000      -0.711736       -19.3673
  35   2.0000      -0.705792       -19.2056
  36   2.0000      -0.692109       -18.8332
  37   2.0000      -0.658829       -17.9276
  38   2.0000      -0.637340       -17.3429
  39   2.0000      -0.617822       -16.8118
  40   2.0000      -0.599238       -16.3061
  41   2.0000      -0.570009       -15.5107
  42   2.0000      -0.559790       -15.2327
  43   2.0000      -0.551331       -15.0025
  44   2.0000      -0.537635       -14.6298
  45   2.0000      -0.527873       -14.3642
  46   2.0000      -0.523456       -14.2440
  47   2.0000      -0.512219       -13.9382
  48   2.0000      -0.501044       -13.6341
  49   2.0000      -0.496908       -13.5216
  50   2.0000      -0.490947       -13.3594
  51   2.0000      -0.482363       -13.1258
  52   2.0000      -0.476458       -12.9651
  53   2.0000      -0.467738       -12.7278
  54   2.0000      -0.457236       -12.4420
  55   2.0000      -0.446530       -12.1507
  56   2.0000      -0.445152       -12.1132
  57   2.0000      -0.441167       -12.0048
  58   2.0000      -0.436461       -11.8767
  59   2.0000      -0.429074       -11.6757
  60   2.0000      -0.422446       -11.4953
  61   2.0000      -0.418729       -11.3942
  62   2.0000      -0.410207       -11.1623
  63   2.0000      -0.346441        -9.4271
  64   2.0000      -0.328769        -8.9463
  65   2.0000      -0.325695        -8.8626
  66   2.0000      -0.293983        -7.9997
  67   0.0000       0.037462         1.0194
  68   0.0000       0.071850         1.9551
  69   0.0000       0.107512         2.9255
  70   0.0000       0.122020         3.3203
  71   0.0000       0.131690         3.5835

MULLIKEN ATOMIC CHARGES
-----------------------
   0 S :    0.114983
   1 C :   -0.109009
   2 C :   -0.139935
   3 C :    0.010996
   4 C :   -0.164065
   5 H :    0.032323
   6 C :    0.147773
   7 H :   -0.013832
   8 H :    0.023288
   9 C :   -0.080825
  10 H :    0.032786
  11 H :    0.029148
  12 C :   -0.050479
  13 H :    0.043278
  14 H :    0.040220
  15 H :    0.042153
  16 S :    0.071029
  17 C :   -0.114803
  18 C :   -0.054708
  19 C :   -0.098860
  20 C :   -0.119554
  21 H :    0.052921
  22 C :    0.202065
  23 H :   -0.024860
  24 H :    0.012460
  25 C :   -0.086248
  26 H :    0.011327
  27 H :    0.022822
  28 C :   -0.024892
  29 H :    0.016190
  30 H :    0.035447
  31 H :    0.031648
  32 H :    0.031282
  33 H :    0.077932
Sum of atomic charges:   -0.0000000

LOEWDIN ATOMIC CHARGES
----------------------
   0 S :    0.401620
   1 C :   -0.207019
   2 C :   -0.054720
   3 C :   -0.076884
   4 C :   -0.192442
   5 H :    0.039171
   6 C :   -0.028845
   7 H :    0.020450
   8 H :    0.037177
   9 C :   -0.033623
  10 H :    0.025182
  11 H :    0.024370
  12 C :   -0.060965
  13 H :    0.027063
  14 H :    0.027626
  15 H :    0.025671
  16 S :    0.375369
  17 C :   -0.176832
  18 C :   -0.083844
  19 C :   -0.055396
  20 C :   -0.192695
  21 H :    0.047674
  22 C :   -0.009349
  23 H :    0.013068
  24 H :    0.024141
  25 C :   -0.034430
  26 H :    0.019121
  27 H :    0.024985
  28 C :   -0.061122
  29 H :    0.022775
  30 H :    0.022990
  31 H :    0.027916
  32 H :    0.024683
  33 H :    0.037116

  Mayer bond orders larger than 0.100000
B(  0-S ,  1-C ) :   1.1205 B(  0-S ,  4-C ) :   1.1509 B(  1-C ,  2-C ) :   1.6378
B(  1-C , 32-H ) :   0.9623 B(  2-C ,  3-C ) :   1.2268 B(  2-C ,  6-C ) :   0.9907
B(  3-C ,  4-C ) :   1.6123 B(  3-C ,  5-H ) :   0.9755 B(  4-C , 20-C ) :   0.9858
B(  6-C ,  7-H ) :   0.9310 B(  6-C ,  8-H ) :   0.9182 B(  6-C ,  9-C ) :   1.0692
B(  9-C , 10-H ) :   0.9545 B(  9-C , 11-H ) :   0.9534 B(  9-C , 12-C ) :   1.0724
B( 12-C , 13-H ) :   0.9802 B( 12-C , 14-H ) :   0.9745 B( 12-C , 15-H ) :   0.9767
B( 16-S , 17-C ) :   1.1428 B( 16-S , 20-C ) :   1.1236 B( 17-C , 18-C ) :   1.6430
B( 17-C , 33-H ) :   0.9629 B( 18-C , 19-C ) :   1.1878 B( 18-C , 21-H ) :   0.9760
B( 19-C , 20-C ) :   1.6806 B( 19-C , 22-C ) :   1.0487 B( 22-C , 23-H ) :   0.9229
B( 22-C , 24-H ) :   0.9205 B( 22-C , 25-C ) :   1.0611 B( 25-C , 26-H ) :   0.9486
B( 25-C , 27-H ) :   0.9562 B( 25-C , 28-C ) :   1.0969 B( 28-C , 29-H ) :   0.9701
B( 28-C , 30-H ) :   0.9744 B( 28-C , 31-H ) :   0.9729

Dispersion correction           -0.014246123
FINAL SINGLE POINT ENERGY     -1339.860599259427

DIPOLE MOMENT
-------------
                                X             Y             Z
Electronic contribution:      8.84285      27.03358      11.32812
Nuclear contribution   :     -9.11194     -27.57276     -11.83856
                        -----------------------------------------
Total Dipole Moment    :     -0.26909      -0.53918      -0.51044
                        -----------------------------------------
Magnitude (a.u.)       :      0.78973
Magnitude (Debye)      :      2.00734

Rotational constants in cm-1:     0.016620     0.009931     0.007193
Rotational constants in MHz :   498.256720   297.723274   215.653003

                             ****ORCA TERMINATED NORMALLY****
TOTAL RUN TIME: 0 days 0 hours 0 minutes 30 seconds 675 msec
