                         Program Version 4.2.1 -  RELEASE  -
|  1> ! wB97X-D3 SP def2-SVP
|  2> %pal
|  3> nprocs 16
|  4> end
|  5>
|  6> * xyz 0 1
|  7> S 	 -29.7905 	 31.0917 	 45.5637
|  8> C 	 -28.9347 	 30.1555 	 46.7714
|  9> C 	 -29.3152 	 30.5166 	 48.0008
| 10> C 	 -30.406 	 31.4447 	 48.0524
| 11> C 	 -30.873 	 31.8122 	 46.7645
| 12> H 	 -30.8416 	 31.8161 	 48.976
| 13> C 	 -28.8695 	 29.9733 	 49.3047
| 14> H 	 -27.9162 	 29.5637 	 49.1077
| 15> H 	 -29.5648 	 29.1772 	 49.6123
| 16> C 	 -28.5848 	 30.9832 	 50.5393
| 17> H 	 -29.4794 	 31.4606 	 50.9801
| 18> H 	 -28.1588 	 30.3567 	 51.3813
| 19> C 	 -27.5798 	 32.1214 	 50.2348
| 20> H 	 -26.6545 	 31.7791 	 49.8436
| 21> H 	 -27.9377 	 32.9453 	 49.6617
| 22> H 	 -27.2704 	 32.5722 	 51.171
| 23> S 	 -31.8191 	 33.7951 	 45.329
| 24> C 	 -33.4471 	 34.4006 	 45.6703
| 25> C 	 -34.1391 	 33.6896 	 46.6428
| 26> C 	 -33.3407 	 32.6052 	 47.1143
| 27> C 	 -32.057 	 32.6369 	 46.5871
| 28> H 	 -35.1898 	 33.9156 	 46.8272
| 29> C 	 -33.8467 	 31.6858 	 48.1131
| 30> H 	 -34.6146 	 32.134 	 48.7539
| 31> H 	 -32.9859 	 31.5599 	 48.7429
| 32> C 	 -34.3358 	 30.3565 	 47.5899
| 33> H 	 -33.5629 	 29.9831 	 46.9251
| 34> H 	 -35.1829 	 30.5168 	 46.9113
| 35> C 	 -34.6203 	 29.3037 	 48.6285
| 36> H 	 -35.4458 	 29.515 	 49.3218
| 37> H 	 -33.7123 	 29.1966 	 49.1914
| 38> H 	 -34.7533 	 28.3303 	 48.1423
| 39> H 	 -28.215 	 29.4636 	 46.6378
| 40> H 	 -33.9467 	 35.2702 	 45.1544
| 41> *
| 42>
| 43>                          ****END OF INPUT****

CARTESIAN COORDINATES (ANGSTROEM)
---------------------------------
  S    -29.790500   31.091700   45.563700
  C    -28.934700   30.155500   46.771400
  C    -29.315200   30.516600   48.000800
  C    -30.406000   31.444700   48.052400
  C    -30.873000   31.812200   46.764500
  H    -30.841600   31.816100   48.976000
  C    -28.869500   29.973300   49.304700
  H    -27.916200   29.563700   49.107700
  H    -29.564800   29.177200   49.612300
  C    -28.584800   30.983200   50.539300
  H    -29.479400   31.460600   50.980100
  H    -28.158800   30.356700   51.381300
  C    -27.579800   32.121400   50.234800
  H    -26.654500   31.779100   49.843600
  H    -27.937700   32.945300   49.661700
  H    -27.270400   32.572200   51.171000
  S    -31.819100   33.795100   45.329000
  C    -33.447100   34.400600   45.670300
  C    -34.139100   33.689600   46.642800
  C    -33.340700   32.605200   47.114300
  C    -32.057000   32.636900   46.587100
  H    -35.189800   33.915600   46.827200
  C    -33.846700   31.685800   48.113100
  H    -34.614600   32.134000   48.753900
  H    -32.985900   31.559900   48.742900
  C    -34.335800   30.356500   47.589900
  H    -33.562900   29.983100   46.925100
  H    -35.182900   30.516800   46.911300
  C    -34.620300   29.303700   48.628500
  H    -35.445800   29.515000   49.321800
  H    -33.712300   29.196600   49.191400
  H    -34.753300   28.330300   48.142300
  H    -28.215000   29.463600   46.637800
  H    -33.946700   35.270200   45.154400

 Total Charge           Charge          ....    0
 Multiplicity           Mult            ....    1
 Number of Electrons    NEL             ....  134
 Basis Dimension        Dim             ....  322

ORBITAL ENERGIES
----------------

  NO   OCC          E(Eh)            E(eV)
   0   2.0000     -88.968677     -2420.9608
   1   2.0000     -88.967858     -2420.9385
   2   2.0000     -10.333646      -281.1928
   3   2.0000     -10.324639      -280.9477
   4   2.0000     -10.321085      -280.8510
   5   2.0000     -10.302981      -280.3584
   6   2.0000     -10.301956      -280.3305
   7   2.0000     -10.301208      -280.3101
   8   2.0000     -10.295108      -280.1441
   9   2.0000     -10.291851      -280.0555
  10   2.0000     -10.291314      -280.0409
  11   2.0000     -10.291038      -280.0334
  12   2.0000     -10.280381      -279.7434
  13   2.0000     -10.278730      -279.6985
  14   2.0000     -10.274500      -279.5833
  15   2.0000     -10.271268      -279.4954
  16   2.0000      -8.082832      -219.9450
  17   2.0000      -8.082689      -219.9411
  18   2.0000      -6.041423      -164.3955
  19   2.0000      -6.041228      -164.3902
  20   2.0000      -6.037438      -164.2870
  21   2.0000      -6.037329      -164.2841
  22   2.0000      -6.033565      -164.1817
  23   2.0000      -6.033215      -164.1721
  24   2.0000      -1.008863       -27.4525
  25   2.0000      -0.986056       -26.8320
  26   2.0000      -0.918662       -24.9981
  27   2.0000      -0.904220       -24.6051
  28   2.0000      -0.871919       -23.7261
  29   2.0000      -0.856907       -23.3176
  30   2.0000      -0.845531       -23.0081
  31   2.0000      -0.815659       -22.1952
  32   2.0000      -0.782240       -21.2858
  33   2.0000      -0.773684       -21.0530
  34   2.0000      -0.711625       -19.3643
  35   2.0000      -0.701966       -19.1015
  36   2.0000      -0.694008       -18.8849
  37   2.0000      -0.666572       -18.1383
  38   2.0000      -0.637178       -17.3385
  39   2.0000      -0.620948       -16.8969
  40   2.0000      -0.594372       -16.1737
  41   2.0000      -0.571269       -15.5450
  42   2.0000      -0.560377       -15.2486
  43   2.0000      -0.553801       -15.0697
  44   2.0000      -0.533305       -14.5120
  45   2.0000      -0.528154       -14.3718
  46   2.0000      -0.520631       -14.1671
  47   2.0000      -0.510318       -13.8865
  48   2.0000      -0.508990       -13.8503
  49   2.0000      -0.498066       -13.5531
  50   2.0000      -0.492287       -13.3958
  51   2.0000      -0.489057       -13.3079
  52   2.0000      -0.467486       -12.7209
  53   2.0000      -0.465746       -12.6736
  54   2.0000      -0.455775       -12.4023
  55   2.0000      -0.451921       -12.2974
  56   2.0000      -0.440111       -11.9760
  57   2.0000      -0.438576       -11.9343
  58   2.0000      -0.433249       -11.7893
  59   2.0000      -0.432196       -11.7606
  60   2.0000      -0.417052       -11.3486
  61   2.0000      -0.414685       -11.2842
  62   2.0000      -0.409609       -11.1460
  63   2.0000      -0.351110        -9.5542
  64   2.0000      -0.333729        -9.0812
  65   2.0000      -0.327549        -8.9131
  66   2.0000      -0.285674        -7.7736
  67   0.0000       0.026327         0.7164
  68   0.0000       0.071464         1.9446
  69   0.0000       0.099010         2.6942
  70   0.0000       0.117626         3.2008
  71   0.0000       0.133732         3.6390

MULLIKEN ATOMIC CHARGES
-----------------------
   0 S :    0.115462
   1 C :   -0.076947
   2 C :   -0.067811
   3 C :   -0.007334
   4 C :   -0.112398
   5 H :    0.024450
   6 C :    0.080103
   7 H :    0.001465
   8 H :    0.054617
   9 C :   -0.121085
  10 H :    0.036084
  11 H :    0.041546
  12 C :   -0.022488
  13 H :    0.017524
  14 H :    0.038248
  15 H :    0.019097
  16 S :    0.108244
  17 C :   -0.102903
  18 C :   -0.044701
  19 C :   -0.038265
  20 C :   -0.176493
  21 H :    0.027839
  22 C :    0.100101
  23 H :    0.015607
  24 H :   -0.013035
  25 C :   -0.073707
  26 H :    0.026807
  27 H :    0.019244
  28 C :   -0.012434
  29 H :    0.035221
  30 H :    0.016765
  31 H :    0.034549
  32 H :   -0.010174
  33 H :    0.066802
Sum of atomic charges:   -0.0000000

LOEWDIN ATOMIC CHARGES
----------------------
   0 S :    0.393400
   1 C :   -0.180967
   2 C :   -0.068712
   3 C :   -0.063895
   4 C :   -0.192357
   5 H :    0.028168
   6 C :   -0.030685
   7 H :    0.021077
   8 H :    0.039112
   9 C :   -0.040937
  10 H :    0.021459
  11 H :    0.033038
  12 C :   -0.064797
  13 H :    0.019325
  14 H :    0.024513
  15 H :    0.028040
  16 S :    0.410742
  17 C :   -0.185153
  18 C :   -0.069110
  19 C :   -0.051150
  20 C :   -0.199817
  21 H :    0.038017
  22 C :   -0.037971
  23 H :    0.030203
  24 H :    0.026889
  25 C :   -0.040375
  26 H :    0.028020
  27 H :    0.021910
  28 C :   -0.062831
  29 H :    0.025289
  30 H :    0.022791
  31 H :    0.031161
  32 H :    0.009043
  33 H :    0.036563

  Mayer bond orders larger than 0.100000
B(  0-S ,  1-C ) :   1.1058 B(  0-S ,  4-C ) :   1.1374 B(  1-C ,  2-C ) :   1.6387
B(  1-C , 32-H ) :   0.9787 B(  2-C ,  3-C ) :   1.2276 B(  2-C ,  6-C ) :   1.0243
B(  3-C ,  4-C ) :   1.5527 B(  3-C ,  5-H ) :   0.9884 B(  4-C , 20-C ) :   1.0657
B(  6-C ,  7-H ) :   0.9333 B(  6-C ,  8-H ) :   0.9419 B(  6-C ,  9-C ) :   1.0594
B(  9-C , 10-H ) :   0.9563 B(  9-C , 11-H ) :   0.9595 B(  9-C , 12-C ) :   1.0769
B( 12-C , 13-H ) :   0.9757 B( 12-C , 14-H ) :   0.9748 B( 12-C , 15-H ) :   0.9707
B( 16-S , 17-C ) :   1.1510 B( 16-S , 20-C ) :   1.1343 B( 17-C , 18-C ) :   1.6307
B( 17-C , 33-H ) :   0.9576 B( 18-C , 19-C ) :   1.2229 B( 18-C , 21-H ) :   0.9887
B( 19-C , 20-C ) :   1.5922 B( 19-C , 22-C ) :   1.0533 B( 22-C , 23-H ) :   0.9247
B( 22-C , 24-H ) :   0.9154 B( 22-C , 25-C ) :   1.0673 B( 25-C , 26-H ) :   0.9515
B( 25-C , 27-H ) :   0.9495 B( 25-C , 28-C ) :   1.0897 B( 28-C , 29-H ) :   0.9737
B( 28-C , 30-H ) :   0.9706 B( 28-C , 31-H ) :   0.9711

Dispersion correction           -0.014594819
FINAL SINGLE POINT ENERGY     -1339.865328398636

DIPOLE MOMENT
-------------
                                X             Y             Z
Electronic contribution:      2.02012      10.95088     -23.75421
Nuclear contribution   :     -2.19659     -11.15249      24.36829
                        -----------------------------------------
Total Dipole Moment    :     -0.17647      -0.20162       0.61408
                        -----------------------------------------
Magnitude (a.u.)       :      0.66999
Magnitude (Debye)      :      1.70298

Rotational constants in cm-1:     0.016901     0.009450     0.007763
Rotational constants in MHz :   506.669805   283.299035   232.718984

                             ****ORCA TERMINATED NORMALLY****
TOTAL RUN TIME: 0 days 0 hours 0 minutes 35 seconds 51 msec
