                         Program Version 4.2.1 -  RELEASE  -
|  1> ! wB97X-D3 SP def2-SVP
|  2> %pal
|  3> nprocs 16
|  4> end
|  5>
|  6> * xyz 0 1
|  7> S 	 -19.7833 	 -4.66886 	 80.2491
|  8> C 	 -20.8278 	 -5.281 	 78.9317
|  9> C 	 -21.8354 	 -6.17905 	 79.4
| 10> C 	 -21.8166 	 -6.18271 	 80.8107
| 11> C 	 -20.7866 	 -5.47355 	 81.4528
| 12> H 	 -22.5263 	 -6.76937 	 81.346
| 13> C 	 -22.8997 	 -6.94413 	 78.5033
| 14> H 	 -23.2384 	 -7.67783 	 79.19
| 15> H 	 -22.3103 	 -7.43921 	 77.6857
| 16> C 	 -24.0526 	 -6.12255 	 77.9303
| 17> H 	 -23.5436 	 -5.42292 	 77.282
| 18> H 	 -24.7186 	 -6.74388 	 77.3089
| 19> C 	 -24.9366 	 -5.29812 	 78.8739
| 20> H 	 -24.3461 	 -4.60552 	 79.4245
| 21> H 	 -25.7251 	 -4.85962 	 78.1792
| 22> H 	 -25.4827 	 -5.99501 	 79.5393
| 23> S 	 -22.0299 	 -5.46331 	 83.8295
| 24> C 	 -21.1112 	 -5.36317 	 85.3092
| 25> C 	 -19.7519 	 -5.33328 	 85.0885
| 26> C 	 -19.4492 	 -5.27695 	 83.672
| 27> C 	 -20.5933 	 -5.44114 	 82.8771
| 28> H 	 -19.0402 	 -5.38441 	 85.9381
| 29> C 	 -18.0418 	 -5.2872 	 83.2489
| 30> H 	 -17.936 	 -5.93151 	 82.3601
| 31> H 	 -17.4467 	 -5.70968 	 84.0631
| 32> C 	 -17.4356 	 -3.96704 	 82.7046
| 33> H 	 -17.4162 	 -3.31653 	 83.5811
| 34> H 	 -18.0804 	 -3.51791 	 81.9503
| 35> C 	 -16.0653 	 -4.09408 	 82.1659
| 36> H 	 -15.2391 	 -4.32556 	 82.9056
| 37> H 	 -15.7336 	 -3.13099 	 81.7556
| 38> H 	 -15.9861 	 -4.90369 	 81.4431
| 39> H 	 -20.778 	 -5.19655 	 77.8564
| 40> H 	 -21.5158 	 -5.55527 	 86.2727
| 41> *
| 42>
| 43>                          ****END OF INPUT****

CARTESIAN COORDINATES (ANGSTROEM)
---------------------------------
  S    -19.783300   -4.668860   80.249100
  C    -20.827800   -5.281000   78.931700
  C    -21.835400   -6.179050   79.400000
  C    -21.816600   -6.182710   80.810700
  C    -20.786600   -5.473550   81.452800
  H    -22.526300   -6.769370   81.346000
  C    -22.899700   -6.944130   78.503300
  H    -23.238400   -7.677830   79.190000
  H    -22.310300   -7.439210   77.685700
  C    -24.052600   -6.122550   77.930300
  H    -23.543600   -5.422920   77.282000
  H    -24.718600   -6.743880   77.308900
  C    -24.936600   -5.298120   78.873900
  H    -24.346100   -4.605520   79.424500
  H    -25.725100   -4.859620   78.179200
  H    -25.482700   -5.995010   79.539300
  S    -22.029900   -5.463310   83.829500
  C    -21.111200   -5.363170   85.309200
  C    -19.751900   -5.333280   85.088500
  C    -19.449200   -5.276950   83.672000
  C    -20.593300   -5.441140   82.877100
  H    -19.040200   -5.384410   85.938100
  C    -18.041800   -5.287200   83.248900
  H    -17.936000   -5.931510   82.360100
  H    -17.446700   -5.709680   84.063100
  C    -17.435600   -3.967040   82.704600
  H    -17.416200   -3.316530   83.581100
  H    -18.080400   -3.517910   81.950300
  C    -16.065300   -4.094080   82.165900
  H    -15.239100   -4.325560   82.905600
  H    -15.733600   -3.130990   81.755600
  H    -15.986100   -4.903690   81.443100
  H    -20.778000   -5.196550   77.856400
  H    -21.515800   -5.555270   86.272700

 Total Charge           Charge          ....    0
 Multiplicity           Mult            ....    1
 Number of Electrons    NEL             ....  134
 Basis Dimension        Dim             ....  322

ORBITAL ENERGIES
----------------

  NO   OCC          E(Eh)            E(eV)
   0   2.0000     -88.979325     -2421.2505
   1   2.0000     -88.966597     -2420.9042
   2   2.0000     -10.334676      -281.2208
   3   2.0000     -10.326997      -281.0119
   4   2.0000     -10.320099      -280.8242
   5   2.0000     -10.312527      -280.6181
   6   2.0000     -10.307721      -280.4873
   7   2.0000     -10.302694      -280.3506
   8   2.0000     -10.301257      -280.3115
   9   2.0000     -10.298039      -280.2239
  10   2.0000     -10.293167      -280.0913
  11   2.0000     -10.287958      -279.9496
  12   2.0000     -10.286987      -279.9231
  13   2.0000     -10.281479      -279.7733
  14   2.0000     -10.280587      -279.7490
  15   2.0000     -10.276891      -279.6484
  16   2.0000      -8.091609      -220.1839
  17   2.0000      -8.081757      -219.9158
  18   2.0000      -6.050354      -164.6385
  19   2.0000      -6.046354      -164.5297
  20   2.0000      -6.042389      -164.4218
  21   2.0000      -6.040349      -164.3662
  22   2.0000      -6.036218      -164.2538
  23   2.0000      -6.032395      -164.1498
  24   2.0000      -1.007598       -27.4181
  25   2.0000      -0.979374       -26.6501
  26   2.0000      -0.913889       -24.8682
  27   2.0000      -0.908972       -24.7344
  28   2.0000      -0.870609       -23.6905
  29   2.0000      -0.856993       -23.3200
  30   2.0000      -0.847550       -23.0630
  31   2.0000      -0.809542       -22.0287
  32   2.0000      -0.786227       -21.3943
  33   2.0000      -0.769829       -20.9481
  34   2.0000      -0.707325       -19.2473
  35   2.0000      -0.699294       -19.0288
  36   2.0000      -0.689693       -18.7675
  37   2.0000      -0.667774       -18.1711
  38   2.0000      -0.629247       -17.1227
  39   2.0000      -0.612310       -16.6618
  40   2.0000      -0.596917       -16.2430
  41   2.0000      -0.574801       -15.6411
  42   2.0000      -0.567677       -15.4473
  43   2.0000      -0.553239       -15.0544
  44   2.0000      -0.543923       -14.8009
  45   2.0000      -0.522755       -14.2249
  46   2.0000      -0.518149       -14.0995
  47   2.0000      -0.513092       -13.9619
  48   2.0000      -0.507404       -13.8072
  49   2.0000      -0.497021       -13.5246
  50   2.0000      -0.493103       -13.4180
  51   2.0000      -0.477338       -12.9890
  52   2.0000      -0.467759       -12.7284
  53   2.0000      -0.464405       -12.6371
  54   2.0000      -0.459159       -12.4944
  55   2.0000      -0.452297       -12.3076
  56   2.0000      -0.442630       -12.0446
  57   2.0000      -0.436380       -11.8745
  58   2.0000      -0.428944       -11.6722
  59   2.0000      -0.426196       -11.5974
  60   2.0000      -0.422192       -11.4884
  61   2.0000      -0.414698       -11.2845
  62   2.0000      -0.408516       -11.1163
  63   2.0000      -0.356567        -9.7027
  64   2.0000      -0.338570        -9.2130
  65   2.0000      -0.328091        -8.9278
  66   2.0000      -0.279922        -7.6171
  67   0.0000       0.017105         0.4655
  68   0.0000       0.077982         2.1220
  69   0.0000       0.097245         2.6462
  70   0.0000       0.115826         3.1518
  71   0.0000       0.126799         3.4504

MULLIKEN ATOMIC CHARGES
-----------------------
   0 S :    0.116041
   1 C :   -0.102457
   2 C :   -0.139034
   3 C :   -0.007357
   4 C :   -0.101545
   5 H :    0.000165
   6 C :    0.088600
   7 H :    0.011638
   8 H :    0.045877
   9 C :   -0.074437
  10 H :    0.018320
  11 H :    0.034490
  12 C :   -0.055483
  13 H :    0.050759
  14 H :    0.046268
  15 H :    0.029734
  16 S :    0.104945
  17 C :   -0.075099
  18 C :   -0.050062
  19 C :   -0.038186
  20 C :   -0.124455
  21 H :    0.035656
  22 C :    0.015563
  23 H :    0.020124
  24 H :    0.024675
  25 C :   -0.064023
  26 H :    0.020464
  27 H :    0.036648
  28 C :   -0.043538
  29 H :    0.027984
  30 H :    0.036571
  31 H :    0.026100
  32 H :    0.039291
  33 H :    0.045762
Sum of atomic charges:    0.0000000

LOEWDIN ATOMIC CHARGES
----------------------
   0 S :    0.417772
   1 C :   -0.199194
   2 C :   -0.058018
   3 C :   -0.072311
   4 C :   -0.191539
   5 H :    0.019086
   6 C :   -0.025398
   7 H :    0.021162
   8 H :    0.041110
   9 C :   -0.045981
  10 H :    0.020357
  11 H :    0.027030
  12 C :   -0.062135
  13 H :    0.023174
  14 H :    0.038945
  15 H :    0.024475
  16 S :    0.427752
  17 C :   -0.187824
  18 C :   -0.067655
  19 C :   -0.061493
  20 C :   -0.199352
  21 H :    0.039596
  22 C :   -0.040999
  23 H :    0.027195
  24 H :    0.032394
  25 C :   -0.045603
  26 H :    0.023121
  27 H :    0.013591
  28 C :   -0.070533
  29 H :    0.029351
  30 H :    0.030548
  31 H :    0.021997
  32 H :    0.026881
  33 H :    0.022497

  Mayer bond orders larger than 0.100000
B(  0-S ,  1-C ) :   1.1409 B(  0-S ,  4-C ) :   1.1290 B(  1-C ,  2-C ) :   1.5844
B(  1-C ,  4-C ) :   0.1025 B(  1-C , 32-H ) :   0.9613 B(  2-C ,  3-C ) :   1.3036
B(  2-C ,  6-C ) :   0.9982 B(  3-C ,  4-C ) :   1.5072 B(  3-C ,  5-H ) :   0.9863
B(  4-C , 20-C ) :   1.1009 B(  6-C ,  7-H ) :   0.9398 B(  6-C ,  8-H ) :   0.9413
B(  6-C ,  9-C ) :   1.0676 B(  9-C , 10-H ) :   0.9549 B(  9-C , 11-H ) :   0.9558
B(  9-C , 12-C ) :   1.0788 B( 12-C , 13-H ) :   0.9749 B( 12-C , 14-H ) :   0.9726
B( 12-C , 15-H ) :   0.9765 B( 16-S , 17-C ) :   1.1498 B( 16-S , 20-C ) :   1.1437
B( 17-C , 18-C ) :   1.6213 B( 17-C , 33-H ) :   0.9662 B( 18-C , 19-C ) :   1.2341
B( 18-C , 21-H ) :   0.9834 B( 19-C , 20-C ) :   1.5516 B( 19-C , 22-C ) :   1.0676
B( 22-C , 23-H ) :   0.9307 B( 22-C , 24-H ) :   0.9373 B( 22-C , 25-C ) :   1.0557
B( 25-C , 26-H ) :   0.9470 B( 25-C , 27-H ) :   0.9474 B( 25-C , 28-C ) :   1.0972
B( 28-C , 29-H ) :   0.9703 B( 28-C , 30-H ) :   0.9699 B( 28-C , 31-H ) :   0.9701

Dispersion correction           -0.014323270
FINAL SINGLE POINT ENERGY     -1339.877701992607

DIPOLE MOMENT
-------------
                                X             Y             Z
Electronic contribution:     -2.09063       0.04789       9.98820
Nuclear contribution   :      2.08139      -0.31646     -10.09285
                        -----------------------------------------
Total Dipole Moment    :     -0.00925      -0.26857      -0.10465
                        -----------------------------------------
Magnitude (a.u.)       :      0.28838
Magnitude (Debye)      :      0.73301

Rotational constants in cm-1:     0.021004     0.008573     0.006413
Rotational constants in MHz :   629.679009   257.020317   192.247777

                             ****ORCA TERMINATED NORMALLY****
TOTAL RUN TIME: 0 days 0 hours 0 minutes 31 seconds 229 msec
