                         Program Version 4.2.1 -  RELEASE  -
|  1> ! wB97X-D3 SP def2-SVP
|  2> %pal
|  3> nprocs 16
|  4> end
|  5>
|  6> * xyz 0 1
|  7> S 	 -3.67269 	 -15.3667 	 83.3731
|  8> C 	 -3.20995 	 -16.2085 	 84.8753
|  9> C 	 -4.04047 	 -15.8187 	 85.8865
| 10> C 	 -5.12692 	 -15.0318 	 85.3962
| 11> C 	 -5.13793 	 -14.8032 	 84.0558
| 12> H 	 -5.94189 	 -14.5365 	 85.9382
| 13> C 	 -3.85471 	 -16.2806 	 87.3359
| 14> H 	 -2.84108 	 -16.7451 	 87.4117
| 15> H 	 -4.49647 	 -17.1458 	 87.5161
| 16> C 	 -4.12109 	 -15.2021 	 88.3562
| 17> H 	 -3.32912 	 -14.4417 	 88.1478
| 18> H 	 -5.11403 	 -14.712 	 88.2821
| 19> C 	 -3.92171 	 -15.7967 	 89.7293
| 20> H 	 -4.02021 	 -14.9982 	 90.4359
| 21> H 	 -4.79061 	 -16.4922 	 89.889
| 22> H 	 -2.98728 	 -16.3808 	 89.9648
| 23> S 	 -5.52434 	 -12.4371 	 82.8022
| 24> C 	 -7.03659 	 -12.0815 	 81.9009
| 25> C 	 -7.93816 	 -13.1003 	 82.0711
| 26> C 	 -7.40368 	 -14.146 	 82.8961
| 27> C 	 -6.04612 	 -14.0337 	 83.2561
| 28> H 	 -8.93756 	 -12.9511 	 81.6434
| 29> C 	 -8.31361 	 -15.3888 	 83.1483
| 30> H 	 -9.12349 	 -15.0752 	 83.808
| 31> H 	 -7.70562 	 -16.0849 	 83.7379
| 32> C 	 -8.99408 	 -16.0511 	 81.927
| 33> H 	 -8.20292 	 -16.5998 	 81.3629
| 34> H 	 -9.34898 	 -15.2869 	 81.3472
| 35> C 	 -9.96521 	 -17.1613 	 82.3618
| 36> H 	 -10.7997 	 -16.8564 	 82.99
| 37> H 	 -9.36237 	 -17.8459 	 82.9936
| 38> H 	 -10.2661 	 -17.68 	 81.4988
| 39> H 	 -2.33003 	 -16.826 	 84.9399
| 40> H 	 -7.25306 	 -11.1041 	 81.4991
| 41> *
| 42>
| 43>                          ****END OF INPUT****

CARTESIAN COORDINATES (ANGSTROEM)
---------------------------------
  S     -3.672690  -15.366700   83.373100
  C     -3.209950  -16.208500   84.875300
  C     -4.040470  -15.818700   85.886500
  C     -5.126920  -15.031800   85.396200
  C     -5.137930  -14.803200   84.055800
  H     -5.941890  -14.536500   85.938200
  C     -3.854710  -16.280600   87.335900
  H     -2.841080  -16.745100   87.411700
  H     -4.496470  -17.145800   87.516100
  C     -4.121090  -15.202100   88.356200
  H     -3.329120  -14.441700   88.147800
  H     -5.114030  -14.712000   88.282100
  C     -3.921710  -15.796700   89.729300
  H     -4.020210  -14.998200   90.435900
  H     -4.790610  -16.492200   89.889000
  H     -2.987280  -16.380800   89.964800
  S     -5.524340  -12.437100   82.802200
  C     -7.036590  -12.081500   81.900900
  C     -7.938160  -13.100300   82.071100
  C     -7.403680  -14.146000   82.896100
  C     -6.046120  -14.033700   83.256100
  H     -8.937560  -12.951100   81.643400
  C     -8.313610  -15.388800   83.148300
  H     -9.123490  -15.075200   83.808000
  H     -7.705620  -16.084900   83.737900
  C     -8.994080  -16.051100   81.927000
  H     -8.202920  -16.599800   81.362900
  H     -9.348980  -15.286900   81.347200
  C     -9.965210  -17.161300   82.361800
  H    -10.799700  -16.856400   82.990000
  H     -9.362370  -17.845900   82.993600
  H    -10.266100  -17.680000   81.498800
  H     -2.330030  -16.826000   84.939900
  H     -7.253060  -11.104100   81.499100

 Total Charge           Charge          ....    0
 Multiplicity           Mult            ....    1
 Number of Electrons    NEL             ....  134
 Basis Dimension        Dim             ....  322

ORBITAL ENERGIES
----------------

  NO   OCC          E(Eh)            E(eV)
   0   2.0000     -88.961401     -2420.7628
   1   2.0000     -88.959517     -2420.7115
   2   2.0000     -10.328517      -281.0532
   3   2.0000     -10.323884      -280.9272
   4   2.0000     -10.320247      -280.8282
   5   2.0000     -10.314040      -280.6593
   6   2.0000     -10.309871      -280.5459
   7   2.0000     -10.301743      -280.3247
   8   2.0000     -10.297531      -280.2101
   9   2.0000     -10.294376      -280.1242
  10   2.0000     -10.293301      -280.0950
  11   2.0000     -10.290894      -280.0295
  12   2.0000     -10.288303      -279.9589
  13   2.0000     -10.282633      -279.8047
  14   2.0000     -10.280858      -279.7564
  15   2.0000     -10.275982      -279.6237
  16   2.0000      -8.075938      -219.7574
  17   2.0000      -8.075020      -219.7325
  18   2.0000      -6.034476      -164.2064
  19   2.0000      -6.033433      -164.1781
  20   2.0000      -6.030402      -164.0956
  21   2.0000      -6.029474      -164.0703
  22   2.0000      -6.026719      -163.9954
  23   2.0000      -6.025748      -163.9689
  24   2.0000      -1.010350       -27.4930
  25   2.0000      -0.982938       -26.7471
  26   2.0000      -0.918372       -24.9902
  27   2.0000      -0.903280       -24.5795
  28   2.0000      -0.877632       -23.8816
  29   2.0000      -0.844200       -22.9719
  30   2.0000      -0.842826       -22.9345
  31   2.0000      -0.819388       -22.2967
  32   2.0000      -0.779933       -21.2231
  33   2.0000      -0.767430       -20.8828
  34   2.0000      -0.711654       -19.3651
  35   2.0000      -0.699363       -19.0306
  36   2.0000      -0.689793       -18.7702
  37   2.0000      -0.655859       -17.8468
  38   2.0000      -0.650427       -17.6990
  39   2.0000      -0.616742       -16.7824
  40   2.0000      -0.593036       -16.1373
  41   2.0000      -0.573741       -15.6123
  42   2.0000      -0.568018       -15.4566
  43   2.0000      -0.563593       -15.3361
  44   2.0000      -0.532891       -14.5007
  45   2.0000      -0.524747       -14.2791
  46   2.0000      -0.520757       -14.1705
  47   2.0000      -0.511210       -13.9107
  48   2.0000      -0.504765       -13.7354
  49   2.0000      -0.503119       -13.6906
  50   2.0000      -0.494587       -13.4584
  51   2.0000      -0.474349       -12.9077
  52   2.0000      -0.468986       -12.7617
  53   2.0000      -0.462661       -12.5896
  54   2.0000      -0.456042       -12.4095
  55   2.0000      -0.450367       -12.2551
  56   2.0000      -0.442809       -12.0495
  57   2.0000      -0.439451       -11.9581
  58   2.0000      -0.431611       -11.7447
  59   2.0000      -0.422072       -11.4852
  60   2.0000      -0.417812       -11.3692
  61   2.0000      -0.412369       -11.2211
  62   2.0000      -0.408832       -11.1249
  63   2.0000      -0.343294        -9.3415
  64   2.0000      -0.329740        -8.9727
  65   2.0000      -0.323150        -8.7934
  66   2.0000      -0.302625        -8.2348
  67   0.0000       0.038552         1.0490
  68   0.0000       0.058638         1.5956
  69   0.0000       0.116624         3.1735
  70   0.0000       0.119821         3.2605
  71   0.0000       0.133886         3.6432

MULLIKEN ATOMIC CHARGES
-----------------------
   0 S :    0.098069
   1 C :   -0.130181
   2 C :   -0.050795
   3 C :    0.036977
   4 C :   -0.180340
   5 H :    0.014307
   6 C :    0.061303
   7 H :    0.019793
   8 H :    0.031542
   9 C :   -0.107744
  10 H :    0.040676
  11 H :    0.050040
  12 C :   -0.048778
  13 H :    0.028489
  14 H :    0.030787
  15 H :    0.045261
  16 S :    0.090639
  17 C :   -0.094232
  18 C :   -0.046726
  19 C :   -0.022210
  20 C :   -0.146726
  21 H :    0.039922
  22 C :    0.038479
  23 H :    0.023371
  24 H :    0.021711
  25 C :   -0.053819
  26 H :    0.036705
  27 H :    0.008017
  28 C :   -0.028928
  29 H :    0.032009
  30 H :    0.027597
  31 H :    0.029881
  32 H :    0.045740
  33 H :    0.059165
Sum of atomic charges:    0.0000000

LOEWDIN ATOMIC CHARGES
----------------------
   0 S :    0.404720
   1 C :   -0.179662
   2 C :   -0.064516
   3 C :   -0.066629
   4 C :   -0.210736
   5 H :    0.034808
   6 C :   -0.033345
   7 H :    0.033724
   8 H :    0.028883
   9 C :   -0.047489
  10 H :    0.030490
  11 H :    0.031983
  12 C :   -0.069378
  13 H :    0.021355
  14 H :    0.029372
  15 H :    0.032216
  16 S :    0.391958
  17 C :   -0.165254
  18 C :   -0.077964
  19 C :   -0.052025
  20 C :   -0.209593
  21 H :    0.040141
  22 C :   -0.033750
  23 H :    0.027868
  24 H :    0.025557
  25 C :   -0.032046
  26 H :    0.033534
  27 H :    0.005189
  28 C :   -0.057903
  29 H :    0.022339
  30 H :    0.030988
  31 H :    0.020955
  32 H :    0.026214
  33 H :    0.027999

  Mayer bond orders larger than 0.100000
B(  0-S ,  1-C ) :   1.1331 B(  0-S ,  4-C ) :   1.1553 B(  1-C ,  2-C ) :   1.6179
B(  1-C , 32-H ) :   0.9764 B(  2-C ,  3-C ) :   1.2059 B(  2-C ,  6-C ) :   1.0116
B(  3-C ,  4-C ) :   1.6096 B(  3-C ,  5-H ) :   0.9954 B(  4-C , 20-C ) :   1.0108
B(  6-C ,  7-H ) :   0.9422 B(  6-C ,  8-H ) :   0.9383 B(  6-C ,  9-C ) :   1.0604
B(  9-C , 10-H ) :   0.9558 B(  9-C , 11-H ) :   0.9491 B(  9-C , 12-C ) :   1.0877
B( 12-C , 13-H ) :   0.9722 B( 12-C , 14-H ) :   0.9718 B( 12-C , 15-H ) :   0.9735
B( 16-S , 17-C ) :   1.1503 B( 16-S , 20-C ) :   1.1456 B( 17-C , 18-C ) :   1.6193
B( 17-C , 20-C ) :   0.1041 B( 17-C , 33-H ) :   0.9670 B( 18-C , 19-C ) :   1.2246
B( 18-C , 21-H ) :   0.9857 B( 19-C , 20-C ) :   1.5988 B( 19-C , 22-C ) :   1.0401
B( 22-C , 23-H ) :   0.9361 B( 22-C , 24-H ) :   0.9404 B( 22-C , 25-C ) :   1.0621
B( 25-C , 26-H ) :   0.9542 B( 25-C , 27-H ) :   0.9573 B( 25-C , 28-C ) :   1.0776
B( 28-C , 29-H ) :   0.9769 B( 28-C , 30-H ) :   0.9741 B( 28-C , 31-H ) :   0.9743

Dispersion correction           -0.013139058
FINAL SINGLE POINT ENERGY     -1339.873994998463

DIPOLE MOMENT
-------------
                                X             Y             Z
Electronic contribution:     12.50942      13.97653     -16.33950
Nuclear contribution   :    -12.92800     -14.14266      16.80817
                        -----------------------------------------
Total Dipole Moment    :     -0.41858      -0.16613       0.46866
                        -----------------------------------------
Magnitude (a.u.)       :      0.64996
Magnitude (Debye)      :      1.65207

Rotational constants in cm-1:     0.017954     0.007435     0.006440
Rotational constants in MHz :   538.260199   222.896777   193.074598

                             ****ORCA TERMINATED NORMALLY****
TOTAL RUN TIME: 0 days 0 hours 0 minutes 33 seconds 132 msec
