                         Program Version 4.2.1 -  RELEASE  -
|  1> ! wB97X-D3 SP def2-SVP
|  2> %pal
|  3> nprocs 16
|  4> end
|  5>
|  6> * xyz 0 1
|  7> S 	 -33.4575 	 53.5089 	 112.682
|  8> C 	 -33.5942 	 54.983 	 111.728
|  9> C 	 -34.7601 	 55.6548 	 112.084
| 10> C 	 -35.5325 	 54.9899 	 113.14
| 11> C 	 -35.0188 	 53.7446 	 113.481
| 12> H 	 -36.4902 	 55.3398 	 113.552
| 13> C 	 -35.3649 	 56.7951 	 111.282
| 14> H 	 -34.5795 	 57.4616 	 110.979
| 15> H 	 -35.8421 	 57.4205 	 112.099
| 16> C 	 -36.4568 	 56.4897 	 110.229
| 17> H 	 -37.2882 	 56.0457 	 110.817
| 18> H 	 -36.8761 	 57.4875 	 109.786
| 19> C 	 -36.0673 	 55.5055 	 109.107
| 20> H 	 -35.8092 	 54.529 	 109.45
| 21> H 	 -36.9083 	 55.2069 	 108.513
| 22> H 	 -35.1549 	 55.7794 	 108.52
| 23> S 	 -34.1563 	 52.1576 	 115.52
| 24> C 	 -35.2953 	 51.1564 	 116.453
| 25> C 	 -36.5492 	 51.4663 	 116.061
| 26> C 	 -36.6476 	 52.4204 	 115.007
| 27> C 	 -35.4008 	 52.887 	 114.597
| 28> H 	 -37.2488 	 50.8956 	 116.608
| 29> C 	 -37.9117 	 52.9488 	 114.505
| 30> H 	 -38.5469 	 52.0693 	 114.425
| 31> H 	 -37.794 	 53.3536 	 113.543
| 32> C 	 -38.6276 	 54.0868 	 115.342
| 33> H 	 -37.8756 	 54.8909 	 115.583
| 34> H 	 -38.8164 	 53.7175 	 116.299
| 35> C 	 -39.8617 	 54.6246 	 114.604
| 36> H 	 -40.5074 	 53.8125 	 114.391
| 37> H 	 -39.6184 	 55.2206 	 113.751
| 38> H 	 -40.3649 	 55.3581 	 115.25
| 39> H 	 -33.0969 	 55.2261 	 110.791
| 40> H 	 -35.0143 	 50.3349 	 117.081
| 41> *
| 42>
| 43>                          ****END OF INPUT****

CARTESIAN COORDINATES (ANGSTROEM)
---------------------------------
  S    -33.457500   53.508900  112.682000
  C    -33.594200   54.983000  111.728000
  C    -34.760100   55.654800  112.084000
  C    -35.532500   54.989900  113.140000
  C    -35.018800   53.744600  113.481000
  H    -36.490200   55.339800  113.552000
  C    -35.364900   56.795100  111.282000
  H    -34.579500   57.461600  110.979000
  H    -35.842100   57.420500  112.099000
  C    -36.456800   56.489700  110.229000
  H    -37.288200   56.045700  110.817000
  H    -36.876100   57.487500  109.786000
  C    -36.067300   55.505500  109.107000
  H    -35.809200   54.529000  109.450000
  H    -36.908300   55.206900  108.513000
  H    -35.154900   55.779400  108.520000
  S    -34.156300   52.157600  115.520000
  C    -35.295300   51.156400  116.453000
  C    -36.549200   51.466300  116.061000
  C    -36.647600   52.420400  115.007000
  C    -35.400800   52.887000  114.597000
  H    -37.248800   50.895600  116.608000
  C    -37.911700   52.948800  114.505000
  H    -38.546900   52.069300  114.425000
  H    -37.794000   53.353600  113.543000
  C    -38.627600   54.086800  115.342000
  H    -37.875600   54.890900  115.583000
  H    -38.816400   53.717500  116.299000
  C    -39.861700   54.624600  114.604000
  H    -40.507400   53.812500  114.391000
  H    -39.618400   55.220600  113.751000
  H    -40.364900   55.358100  115.250000
  H    -33.096900   55.226100  110.791000
  H    -35.014300   50.334900  117.081000

 Total Charge           Charge          ....    0
 Multiplicity           Mult            ....    1
 Number of Electrons    NEL             ....  134
 Basis Dimension        Dim             ....  322

ORBITAL ENERGIES
----------------

  NO   OCC          E(Eh)            E(eV)
   0   2.0000     -88.967856     -2420.9384
   1   2.0000     -88.961039     -2420.7529
   2   2.0000     -10.336721      -281.2765
   3   2.0000     -10.325770      -280.9785
   4   2.0000     -10.318793      -280.7886
   5   2.0000     -10.314012      -280.6585
   6   2.0000     -10.307466      -280.4804
   7   2.0000     -10.304174      -280.3908
   8   2.0000     -10.303100      -280.3616
   9   2.0000     -10.299997      -280.2772
  10   2.0000     -10.295828      -280.1637
  11   2.0000     -10.289263      -279.9851
  12   2.0000     -10.288999      -279.9779
  13   2.0000     -10.283261      -279.8218
  14   2.0000     -10.278874      -279.7024
  15   2.0000     -10.277158      -279.6557
  16   2.0000      -8.081913      -219.9200
  17   2.0000      -8.076281      -219.7668
  18   2.0000      -6.040595      -164.3730
  19   2.0000      -6.036436      -164.2598
  20   2.0000      -6.034751      -164.2139
  21   2.0000      -6.032567      -164.1545
  22   2.0000      -6.030640      -164.1021
  23   2.0000      -6.027096      -164.0056
  24   2.0000      -1.009770       -27.4772
  25   2.0000      -0.982894       -26.7459
  26   2.0000      -0.910558       -24.7775
  27   2.0000      -0.906902       -24.6781
  28   2.0000      -0.873317       -23.7642
  29   2.0000      -0.854760       -23.2592
  30   2.0000      -0.842066       -22.9138
  31   2.0000      -0.822667       -22.3859
  32   2.0000      -0.783684       -21.3251
  33   2.0000      -0.773083       -21.0366
  34   2.0000      -0.713916       -19.4267
  35   2.0000      -0.704993       -19.1838
  36   2.0000      -0.697928       -18.9916
  37   2.0000      -0.663108       -18.0441
  38   2.0000      -0.635830       -17.3018
  39   2.0000      -0.622322       -16.9343
  40   2.0000      -0.597928       -16.2704
  41   2.0000      -0.570900       -15.5350
  42   2.0000      -0.563923       -15.3451
  43   2.0000      -0.544528       -14.8173
  44   2.0000      -0.541332       -14.7304
  45   2.0000      -0.525389       -14.2966
  46   2.0000      -0.522489       -14.2176
  47   2.0000      -0.518067       -14.0973
  48   2.0000      -0.508770       -13.8443
  49   2.0000      -0.505320       -13.7504
  50   2.0000      -0.490270       -13.3409
  51   2.0000      -0.482776       -13.1370
  52   2.0000      -0.470633       -12.8066
  53   2.0000      -0.464530       -12.6405
  54   2.0000      -0.458350       -12.4723
  55   2.0000      -0.450427       -12.2567
  56   2.0000      -0.443777       -12.0758
  57   2.0000      -0.438424       -11.9301
  58   2.0000      -0.434859       -11.8331
  59   2.0000      -0.429267       -11.6809
  60   2.0000      -0.417450       -11.3594
  61   2.0000      -0.414081       -11.2677
  62   2.0000      -0.406572       -11.0634
  63   2.0000      -0.359336        -9.7780
  64   2.0000      -0.329312        -8.9610
  65   2.0000      -0.326940        -8.8965
  66   2.0000      -0.290708        -7.9106
  67   0.0000       0.021725         0.5912
  68   0.0000       0.075059         2.0425
  69   0.0000       0.108029         2.9396
  70   0.0000       0.117582         3.1996
  71   0.0000       0.121225         3.2987

MULLIKEN ATOMIC CHARGES
-----------------------
   0 S :    0.095597
   1 C :   -0.097893
   2 C :   -0.117326
   3 C :    0.011950
   4 C :   -0.122098
   5 H :    0.018613
   6 C :    0.030872
   7 H :    0.022743
   8 H :    0.030266
   9 C :   -0.064841
  10 H :    0.028385
  11 H :    0.051244
  12 C :   -0.043297
  13 H :    0.020456
  14 H :    0.029857
  15 H :    0.036961
  16 S :    0.085397
  17 C :   -0.107149
  18 C :   -0.009526
  19 C :   -0.036635
  20 C :   -0.122796
  21 H :    0.001574
  22 C :    0.069598
  23 H :    0.020685
  24 H :    0.000552
  25 C :   -0.065277
  26 H :    0.028754
  27 H :    0.006723
  28 C :   -0.012154
  29 H :    0.033681
  30 H :    0.026638
  31 H :    0.032468
  32 H :    0.058964
  33 H :    0.057018
Sum of atomic charges:    0.0000000

LOEWDIN ATOMIC CHARGES
----------------------
   0 S :    0.394069
   1 C :   -0.197514
   2 C :   -0.062881
   3 C :   -0.064148
   4 C :   -0.178698
   5 H :    0.032583
   6 C :   -0.045589
   7 H :    0.024694
   8 H :    0.039424
   9 C :   -0.042962
  10 H :    0.026925
  11 H :    0.037570
  12 C :   -0.077797
  13 H :    0.024156
  14 H :    0.028063
  15 H :    0.029753
  16 S :    0.400589
  17 C :   -0.172787
  18 C :   -0.066992
  19 C :   -0.063260
  20 C :   -0.203221
  21 H :    0.029042
  22 C :   -0.033280
  23 H :    0.031498
  24 H :    0.019322
  25 C :   -0.032630
  26 H :    0.026590
  27 H :    0.012592
  28 C :   -0.058343
  29 H :    0.023363
  30 H :    0.022527
  31 H :    0.031788
  32 H :    0.035554
  33 H :    0.030004

  Mayer bond orders larger than 0.100000
B(  0-S ,  1-C ) :   1.1264 B(  0-S ,  4-C ) :   1.1395 B(  1-C ,  2-C ) :   1.6217
B(  1-C , 32-H ) :   0.9636 B(  2-C ,  3-C ) :   1.2230 B(  2-C ,  6-C ) :   1.0300
B(  3-C ,  4-C ) :   1.5650 B(  3-C ,  5-H ) :   0.9855 B(  4-C , 20-C ) :   1.0517
B(  6-C ,  7-H ) :   0.9439 B(  6-C ,  8-H ) :   0.9376 B(  6-C ,  9-C ) :   1.0588
B(  9-C , 10-H ) :   0.9516 B(  9-C , 11-H ) :   0.9544 B(  9-C , 12-C ) :   1.0762
B( 12-C , 13-H ) :   0.9672 B( 12-C , 14-H ) :   0.9710 B( 12-C , 15-H ) :   0.9756
B( 16-S , 17-C ) :   1.1359 B( 16-S , 20-C ) :   1.1473 B( 17-C , 18-C ) :   1.6280
B( 17-C , 33-H ) :   0.9699 B( 18-C , 19-C ) :   1.2155 B( 18-C , 21-H ) :   1.0030
B( 19-C , 20-C ) :   1.5674 B( 19-C , 22-C ) :   1.0845 B( 22-C , 23-H ) :   0.9213
B( 22-C , 24-H ) :   0.9230 B( 22-C , 25-C ) :   1.0512 B( 25-C , 26-H ) :   0.9527
B( 25-C , 27-H ) :   0.9529 B( 25-C , 28-C ) :   1.0792 B( 28-C , 29-H ) :   0.9747
B( 28-C , 30-H ) :   0.9742 B( 28-C , 31-H ) :   0.9709

Dispersion correction           -0.014843418
FINAL SINGLE POINT ENERGY     -1339.869948174908

DIPOLE MOMENT
-------------
                                X             Y             Z
Electronic contribution:     23.61784     -14.11781      11.44933
Nuclear contribution   :    -24.34692      14.25568     -11.57463
                        -----------------------------------------
Total Dipole Moment    :     -0.72909       0.13787      -0.12530
                        -----------------------------------------
Magnitude (a.u.)       :      0.75251
Magnitude (Debye)      :      1.91274

Rotational constants in cm-1:     0.017859     0.009816     0.006830
Rotational constants in MHz :   535.412740   294.288056   204.747398

                             ****ORCA TERMINATED NORMALLY****
TOTAL RUN TIME: 0 days 0 hours 0 minutes 31 seconds 146 msec
