                         Program Version 4.2.1 -  RELEASE  -
|  1> ! wB97X-D3 SP def2-SVP
|  2> %pal
|  3> nprocs 16
|  4> end
|  5>
|  6> * xyz 0 1
|  7> S 	 -41.4485 	 -2.76996 	 98.1264
|  8> C 	 -40.5345 	 -3.72559 	 97.0218
|  9> C 	 -41.0265 	 -3.60119 	 95.6837
| 10> C 	 -42.0705 	 -2.61321 	 95.5913
| 11> C 	 -42.4303 	 -2.0756 	 96.8169
| 12> H 	 -42.5956 	 -2.27993 	 94.8048
| 13> C 	 -40.5659 	 -4.31297 	 94.4601
| 14> H 	 -39.5769 	 -4.70775 	 94.6226
| 15> H 	 -40.4766 	 -3.57455 	 93.6868
| 16> C 	 -41.3577 	 -5.43817 	 93.8839
| 17> H 	 -40.8646 	 -5.94831 	 93.1023
| 18> H 	 -41.4019 	 -6.18991 	 94.6582
| 19> C 	 -42.8007 	 -5.16206 	 93.4356
| 20> H 	 -43.2864 	 -6.10493 	 93.1095
| 21> H 	 -43.497 	 -5.10011 	 94.2711
| 22> H 	 -42.8129 	 -4.25316 	 92.7977
| 23> S 	 -42.6759 	 0.426249 	 97.8226
| 24> C 	 -43.874 	 1.52482 	 97.1588
| 25> C 	 -44.8053 	 0.860164 	 96.4413
| 26> C 	 -44.4997 	 -0.569692 	 96.2745
| 27> C 	 -43.3634 	 -0.938162 	 96.9595
| 28> H 	 -45.6964 	 1.33563 	 96.0724
| 29> C 	 -45.3381 	 -1.48127 	 95.4415
| 30> H 	 -44.9339 	 -1.57525 	 94.4623
| 31> H 	 -46.3429 	 -1.04791 	 95.2388
| 32> C 	 -45.8004 	 -2.8677 	 96.0124
| 33> H 	 -46.4413 	 -2.8433 	 96.983
| 34> H 	 -44.9762 	 -3.44937 	 96.4308
| 35> C 	 -46.5005 	 -3.63384 	 94.94
| 36> H 	 -47.554 	 -3.26149 	 94.884
| 37> H 	 -46.699 	 -4.66931 	 95.3669
| 38> H 	 -46.0903 	 -3.52542 	 93.914
| 39> H 	 -39.8695 	 -4.4889 	 97.3159
| 40> H 	 -43.8524 	 2.5787 	 97.3521
| 41> *
| 42>
| 43>                          ****END OF INPUT****

CARTESIAN COORDINATES (ANGSTROEM)
---------------------------------
  S    -41.448500   -2.769960   98.126400
  C    -40.534500   -3.725590   97.021800
  C    -41.026500   -3.601190   95.683700
  C    -42.070500   -2.613210   95.591300
  C    -42.430300   -2.075600   96.816900
  H    -42.595600   -2.279930   94.804800
  C    -40.565900   -4.312970   94.460100
  H    -39.576900   -4.707750   94.622600
  H    -40.476600   -3.574550   93.686800
  C    -41.357700   -5.438170   93.883900
  H    -40.864600   -5.948310   93.102300
  H    -41.401900   -6.189910   94.658200
  C    -42.800700   -5.162060   93.435600
  H    -43.286400   -6.104930   93.109500
  H    -43.497000   -5.100110   94.271100
  H    -42.812900   -4.253160   92.797700
  S    -42.675900    0.426249   97.822600
  C    -43.874000    1.524820   97.158800
  C    -44.805300    0.860164   96.441300
  C    -44.499700   -0.569692   96.274500
  C    -43.363400   -0.938162   96.959500
  H    -45.696400    1.335630   96.072400
  C    -45.338100   -1.481270   95.441500
  H    -44.933900   -1.575250   94.462300
  H    -46.342900   -1.047910   95.238800
  C    -45.800400   -2.867700   96.012400
  H    -46.441300   -2.843300   96.983000
  H    -44.976200   -3.449370   96.430800
  C    -46.500500   -3.633840   94.940000
  H    -47.554000   -3.261490   94.884000
  H    -46.699000   -4.669310   95.366900
  H    -46.090300   -3.525420   93.914000
  H    -39.869500   -4.488900   97.315900
  H    -43.852400    2.578700   97.352100

 Total Charge           Charge          ....    0
 Multiplicity           Mult            ....    1
 Number of Electrons    NEL             ....  134
 Basis Dimension        Dim             ....  322

ORBITAL ENERGIES
----------------

  NO   OCC          E(Eh)            E(eV)
   0   2.0000     -88.969105     -2420.9724
   1   2.0000     -88.959742     -2420.7177
   2   2.0000     -10.331891      -281.1450
   3   2.0000     -10.327197      -281.0173
   4   2.0000     -10.315537      -280.7000
   5   2.0000     -10.315488      -280.6987
   6   2.0000     -10.306391      -280.4512
   7   2.0000     -10.306233      -280.4469
   8   2.0000     -10.295268      -280.1485
   9   2.0000     -10.293902      -280.1113
  10   2.0000     -10.290115      -280.0083
  11   2.0000     -10.286200      -279.9017
  12   2.0000     -10.285417      -279.8804
  13   2.0000     -10.284364      -279.8518
  14   2.0000     -10.280883      -279.7571
  15   2.0000     -10.278424      -279.6901
  16   2.0000      -8.083481      -219.9627
  17   2.0000      -8.074994      -219.7318
  18   2.0000      -6.041936      -164.4094
  19   2.0000      -6.037995      -164.3022
  20   2.0000      -6.034382      -164.2039
  21   2.0000      -6.033654      -164.1841
  22   2.0000      -6.029429      -164.0691
  23   2.0000      -6.025546      -163.9634
  24   2.0000      -1.004278       -27.3278
  25   2.0000      -0.981253       -26.7012
  26   2.0000      -0.917593       -24.9690
  27   2.0000      -0.909270       -24.7425
  28   2.0000      -0.870824       -23.6963
  29   2.0000      -0.853832       -23.2340
  30   2.0000      -0.847241       -23.0546
  31   2.0000      -0.819070       -22.2880
  32   2.0000      -0.783052       -21.3079
  33   2.0000      -0.770096       -20.9554
  34   2.0000      -0.705234       -19.1904
  35   2.0000      -0.702467       -19.1151
  36   2.0000      -0.688453       -18.7338
  37   2.0000      -0.667738       -18.1701
  38   2.0000      -0.649402       -17.6711
  39   2.0000      -0.614962       -16.7340
  40   2.0000      -0.601035       -16.3550
  41   2.0000      -0.579250       -15.7622
  42   2.0000      -0.559002       -15.2112
  43   2.0000      -0.553450       -15.0601
  44   2.0000      -0.543955       -14.8018
  45   2.0000      -0.531474       -14.4621
  46   2.0000      -0.521278       -14.1847
  47   2.0000      -0.516529       -14.0555
  48   2.0000      -0.505414       -13.7530
  49   2.0000      -0.501330       -13.6419
  50   2.0000      -0.488024       -13.2798
  51   2.0000      -0.479444       -13.0463
  52   2.0000      -0.476287       -12.9604
  53   2.0000      -0.465026       -12.6540
  54   2.0000      -0.455268       -12.3885
  55   2.0000      -0.452927       -12.3248
  56   2.0000      -0.439207       -11.9514
  57   2.0000      -0.435759       -11.8576
  58   2.0000      -0.430132       -11.7045
  59   2.0000      -0.425538       -11.5795
  60   2.0000      -0.419733       -11.4215
  61   2.0000      -0.410005       -11.1568
  62   2.0000      -0.394274       -10.7288
  63   2.0000      -0.354345        -9.6422
  64   2.0000      -0.329925        -8.9777
  65   2.0000      -0.324480        -8.8295
  66   2.0000      -0.289570        -7.8796
  67   0.0000       0.030151         0.8204
  68   0.0000       0.070532         1.9193
  69   0.0000       0.111826         3.0429
  70   0.0000       0.118291         3.2189
  71   0.0000       0.124473         3.3871

MULLIKEN ATOMIC CHARGES
-----------------------
   0 S :    0.113317
   1 C :   -0.094021
   2 C :   -0.093845
   3 C :    0.087151
   4 C :   -0.150963
   5 H :   -0.055475
   6 C :    0.089729
   7 H :    0.011885
   8 H :    0.018672
   9 C :   -0.036283
  10 H :    0.020986
  11 H :    0.003095
  12 C :   -0.061658
  13 H :    0.027637
  14 H :    0.025220
  15 H :    0.044292
  16 S :    0.084742
  17 C :   -0.085542
  18 C :   -0.003712
  19 C :   -0.050373
  20 C :   -0.112002
  21 H :    0.014516
  22 C :    0.028996
  23 H :    0.030989
  24 H :    0.017846
  25 C :   -0.090223
  26 H :    0.039507
  27 H :    0.034843
  28 C :   -0.073142
  29 H :    0.028564
  30 H :    0.042446
  31 H :    0.048119
  32 H :    0.039354
  33 H :    0.055332
Sum of atomic charges:   -0.0000000

LOEWDIN ATOMIC CHARGES
----------------------
   0 S :    0.406456
   1 C :   -0.203483
   2 C :   -0.050338
   3 C :   -0.041742
   4 C :   -0.184392
   5 H :    0.009287
   6 C :   -0.035229
   7 H :    0.032348
   8 H :    0.028538
   9 C :   -0.039079
  10 H :    0.020667
  11 H :    0.021440
  12 C :   -0.079272
  13 H :    0.036020
  14 H :    0.027529
  15 H :    0.026673
  16 S :    0.393275
  17 C :   -0.172601
  18 C :   -0.066903
  19 C :   -0.058976
  20 C :   -0.189947
  21 H :    0.030534
  22 C :   -0.039870
  23 H :    0.026130
  24 H :    0.036562
  25 C :   -0.052008
  26 H :    0.036820
  27 H :    0.017936
  28 C :   -0.079331
  29 H :    0.027159
  30 H :    0.038087
  31 H :    0.029453
  32 H :    0.020420
  33 H :    0.027840

  Mayer bond orders larger than 0.100000
B(  0-S ,  1-C ) :   1.1472 B(  0-S ,  4-C ) :   1.1474 B(  1-C ,  2-C ) :   1.5859
B(  1-C , 32-H ) :   0.9706 B(  2-C ,  3-C ) :   1.2313 B(  2-C ,  6-C ) :   1.0365
B(  3-C ,  4-C ) :   1.5722 B(  3-C ,  5-H ) :   1.0084 B(  4-C , 20-C ) :   1.0197
B(  6-C ,  7-H ) :   0.9288 B(  6-C ,  8-H ) :   0.9353 B(  6-C ,  9-C ) :   1.0877
B(  9-C , 10-H ) :   0.9535 B(  9-C , 11-H ) :   0.9424 B(  9-C , 12-C ) :   1.0914
B( 12-C , 13-H ) :   0.9623 B( 12-C , 14-H ) :   0.9649 B( 12-C , 15-H ) :   0.9740
B( 16-S , 17-C ) :   1.1470 B( 16-S , 20-C ) :   1.1230 B( 17-C , 18-C ) :   1.6280
B( 17-C , 33-H ) :   0.9700 B( 18-C , 19-C ) :   1.2169 B( 18-C , 21-H ) :   0.9952
B( 19-C , 20-C ) :   1.6290 B( 19-C , 22-C ) :   1.0409 B( 22-C , 23-H ) :   0.9303
B( 22-C , 24-H ) :   0.9390 B( 22-C , 25-C ) :   1.0454 B( 25-C , 26-H ) :   0.9515
B( 25-C , 27-H ) :   0.9568 B( 25-C , 28-C ) :   1.0823 B( 28-C , 29-H ) :   0.9719
B( 28-C , 30-H ) :   0.9668 B( 28-C , 31-H ) :   0.9710

Dispersion correction           -0.015581928
FINAL SINGLE POINT ENERGY     -1339.858177488785

DIPOLE MOMENT
-------------
                                X             Y             Z
Electronic contribution:     12.66364      18.60120      21.38648
Nuclear contribution   :    -12.98769     -18.85717     -21.96643
                        -----------------------------------------
Total Dipole Moment    :     -0.32406      -0.25598      -0.57995
                        -----------------------------------------
Magnitude (a.u.)       :      0.71196
Magnitude (Debye)      :      1.80965

Rotational constants in cm-1:     0.017340     0.010588     0.007528
Rotational constants in MHz :   519.829769   317.423041   225.698038

                             ****ORCA TERMINATED NORMALLY****
TOTAL RUN TIME: 0 days 0 hours 0 minutes 32 seconds 174 msec
