                         Program Version 4.2.1 -  RELEASE  -
|  1> ! wB97X-D3 SP def2-SVP
|  2> %pal
|  3> nprocs 16
|  4> end
|  5>
|  6> * xyz 0 1
|  7> S 	 -37.2679 	 30.2071 	 81.5317
|  8> C 	 -36.6785 	 30.6073 	 79.9217
|  9> C 	 -36.8714 	 31.993 	 79.762
| 10> C 	 -37.65 	 32.5342 	 80.7677
| 11> C 	 -37.8934 	 31.7245 	 81.8537
| 12> H 	 -37.9479 	 33.561 	 80.7823
| 13> C 	 -36.4973 	 32.7625 	 78.509
| 14> H 	 -37.3756 	 33.2199 	 78.0851
| 15> H 	 -36.0764 	 32.0636 	 77.7892
| 16> C 	 -35.4463 	 33.8945 	 78.7758
| 17> H 	 -35.9493 	 34.637 	 79.4024
| 18> H 	 -34.6597 	 33.3746 	 79.3583
| 19> C 	 -34.8921 	 34.5902 	 77.5243
| 20> H 	 -35.5121 	 35.0856 	 76.7941
| 21> H 	 -34.258 	 35.4429 	 77.8332
| 22> H 	 -34.303 	 33.8129 	 77.0437
| 23> S 	 -38.1879 	 31.7287 	 84.7098
| 24> C 	 -39.6377 	 32.524 	 85.2372
| 25> C 	 -40.5692 	 32.7532 	 84.2252
| 26> C 	 -40.0186 	 32.4966 	 82.9466
| 27> C 	 -38.732 	 32.0186 	 82.9956
| 28> H 	 -41.5592 	 33.0727 	 84.4802
| 29> C 	 -40.7402 	 32.9164 	 81.6677
| 30> H 	 -41.7523 	 32.6514 	 81.704
| 31> H 	 -40.3411 	 32.487 	 80.778
| 32> C 	 -40.8044 	 34.4311 	 81.4178
| 33> H 	 -39.8784 	 34.9304 	 81.7335
| 34> H 	 -41.5005 	 34.8074 	 82.1633
| 35> C 	 -41.2163 	 34.9691 	 79.9995
| 36> H 	 -41.2205 	 36.0736 	 79.9287
| 37> H 	 -42.1478 	 34.5585 	 79.5857
| 38> H 	 -40.4956 	 34.6736 	 79.2444
| 39> H 	 -36.0202 	 29.9648 	 79.2723
| 40> H 	 -39.91 	 32.6978 	 86.259
| 41> *
| 42>
| 43>                          ****END OF INPUT****

CARTESIAN COORDINATES (ANGSTROEM)
---------------------------------
  S    -37.267900   30.207100   81.531700
  C    -36.678500   30.607300   79.921700
  C    -36.871400   31.993000   79.762000
  C    -37.650000   32.534200   80.767700
  C    -37.893400   31.724500   81.853700
  H    -37.947900   33.561000   80.782300
  C    -36.497300   32.762500   78.509000
  H    -37.375600   33.219900   78.085100
  H    -36.076400   32.063600   77.789200
  C    -35.446300   33.894500   78.775800
  H    -35.949300   34.637000   79.402400
  H    -34.659700   33.374600   79.358300
  C    -34.892100   34.590200   77.524300
  H    -35.512100   35.085600   76.794100
  H    -34.258000   35.442900   77.833200
  H    -34.303000   33.812900   77.043700
  S    -38.187900   31.728700   84.709800
  C    -39.637700   32.524000   85.237200
  C    -40.569200   32.753200   84.225200
  C    -40.018600   32.496600   82.946600
  C    -38.732000   32.018600   82.995600
  H    -41.559200   33.072700   84.480200
  C    -40.740200   32.916400   81.667700
  H    -41.752300   32.651400   81.704000
  H    -40.341100   32.487000   80.778000
  C    -40.804400   34.431100   81.417800
  H    -39.878400   34.930400   81.733500
  H    -41.500500   34.807400   82.163300
  C    -41.216300   34.969100   79.999500
  H    -41.220500   36.073600   79.928700
  H    -42.147800   34.558500   79.585700
  H    -40.495600   34.673600   79.244400
  H    -36.020200   29.964800   79.272300
  H    -39.910000   32.697800   86.259000

 Total Charge           Charge          ....    0
 Multiplicity           Mult            ....    1
 Number of Electrons    NEL             ....  134
 Basis Dimension        Dim             ....  322

ORBITAL ENERGIES
----------------

  NO   OCC          E(Eh)            E(eV)
   0   2.0000     -88.971597     -2421.0402
   1   2.0000     -88.964163     -2420.8379
   2   2.0000     -10.329777      -281.0875
   3   2.0000     -10.321546      -280.8635
   4   2.0000     -10.319575      -280.8099
   5   2.0000     -10.318863      -280.7905
   6   2.0000     -10.305901      -280.4378
   7   2.0000     -10.297693      -280.2145
   8   2.0000     -10.294885      -280.1381
   9   2.0000     -10.290211      -280.0109
  10   2.0000     -10.289586      -279.9939
  11   2.0000     -10.289213      -279.9837
  12   2.0000     -10.286034      -279.8972
  13   2.0000     -10.284968      -279.8682
  14   2.0000     -10.283200      -279.8201
  15   2.0000     -10.279694      -279.7247
  16   2.0000      -8.085412      -220.0153
  17   2.0000      -8.080052      -219.8694
  18   2.0000      -6.043917      -164.4633
  19   2.0000      -6.040279      -164.3644
  20   2.0000      -6.038360      -164.3121
  21   2.0000      -6.036013      -164.2483
  22   2.0000      -6.034139      -164.1973
  23   2.0000      -6.031194      -164.1171
  24   2.0000      -1.013854       -27.5884
  25   2.0000      -0.987270       -26.8650
  26   2.0000      -0.909993       -24.7622
  27   2.0000      -0.907635       -24.6980
  28   2.0000      -0.868965       -23.6457
  29   2.0000      -0.851991       -23.1839
  30   2.0000      -0.846043       -23.0220
  31   2.0000      -0.812145       -22.0996
  32   2.0000      -0.789404       -21.4808
  33   2.0000      -0.775082       -21.0911
  34   2.0000      -0.707805       -19.2603
  35   2.0000      -0.699799       -19.0425
  36   2.0000      -0.693339       -18.8667
  37   2.0000      -0.661045       -17.9880
  38   2.0000      -0.640380       -17.4256
  39   2.0000      -0.624575       -16.9955
  40   2.0000      -0.600801       -16.3486
  41   2.0000      -0.571964       -15.5639
  42   2.0000      -0.567147       -15.4328
  43   2.0000      -0.558518       -15.1980
  44   2.0000      -0.525912       -14.3108
  45   2.0000      -0.522483       -14.2175
  46   2.0000      -0.515181       -14.0188
  47   2.0000      -0.512289       -13.9401
  48   2.0000      -0.503807       -13.7093
  49   2.0000      -0.498801       -13.5731
  50   2.0000      -0.494296       -13.4505
  51   2.0000      -0.479830       -13.0568
  52   2.0000      -0.471221       -12.8226
  53   2.0000      -0.469385       -12.7726
  54   2.0000      -0.466172       -12.6852
  55   2.0000      -0.454521       -12.3681
  56   2.0000      -0.444551       -12.0969
  57   2.0000      -0.439822       -11.9682
  58   2.0000      -0.429270       -11.6810
  59   2.0000      -0.425816       -11.5870
  60   2.0000      -0.421167       -11.4605
  61   2.0000      -0.413497       -11.2518
  62   2.0000      -0.412287       -11.2189
  63   2.0000      -0.343348        -9.3430
  64   2.0000      -0.336839        -9.1659
  65   2.0000      -0.331434        -9.0188
  66   2.0000      -0.292523        -7.9599
  67   0.0000       0.030910         0.8411
  68   0.0000       0.062638         1.7045
  69   0.0000       0.110985         3.0201
  70   0.0000       0.118180         3.2158
  71   0.0000       0.127562         3.4711

MULLIKEN ATOMIC CHARGES
-----------------------
   0 S :    0.112639
   1 C :   -0.149901
   2 C :   -0.087291
   3 C :    0.001821
   4 C :   -0.124389
   5 H :   -0.005144
   6 C :    0.080391
   7 H :    0.027261
   8 H :    0.007984
   9 C :   -0.104961
  10 H :    0.029867
  11 H :    0.040939
  12 C :   -0.040300
  13 H :    0.030783
  14 H :    0.036274
  15 H :    0.031659
  16 S :    0.119254
  17 C :   -0.078135
  18 C :   -0.038497
  19 C :   -0.011644
  20 C :   -0.164299
  21 H :    0.014884
  22 C :    0.126060
  23 H :    0.007498
  24 H :    0.021228
  25 C :   -0.100318
  26 H :    0.029687
  27 H :    0.018098
  28 C :   -0.050119
  29 H :    0.043668
  30 H :    0.032282
  31 H :    0.021043
  32 H :    0.071773
  33 H :    0.049907
Sum of atomic charges:    0.0000000

LOEWDIN ATOMIC CHARGES
----------------------
   0 S :    0.444182
   1 C :   -0.215047
   2 C :   -0.065638
   3 C :   -0.071393
   4 C :   -0.216058
   5 H :    0.025914
   6 C :   -0.027244
   7 H :    0.027187
   8 H :    0.024087
   9 C :   -0.039503
  10 H :    0.019642
  11 H :    0.030647
  12 C :   -0.072213
  13 H :    0.023983
  14 H :    0.032728
  15 H :    0.026096
  16 S :    0.384510
  17 C :   -0.175713
  18 C :   -0.067749
  19 C :   -0.041319
  20 C :   -0.180362
  21 H :    0.030288
  22 C :   -0.023067
  23 H :    0.025006
  24 H :    0.025207
  25 C :   -0.042603
  26 H :    0.021776
  27 H :    0.019852
  28 C :   -0.070770
  29 H :    0.033386
  30 H :    0.025750
  31 H :    0.021900
  32 H :    0.041298
  33 H :    0.025240

  Mayer bond orders larger than 0.100000
B(  0-S ,  1-C ) :   1.1588 B(  0-S ,  4-C ) :   1.1952 B(  1-C ,  2-C ) :   1.5389
B(  1-C ,  4-C ) :   0.1112 B(  1-C , 32-H ) :   0.9623 B(  2-C ,  3-C ) :   1.2971
B(  2-C ,  6-C ) :   1.0376 B(  3-C ,  4-C ) :   1.5110 B(  3-C ,  5-H ) :   1.0057
B(  4-C , 20-C ) :   1.0388 B(  6-C ,  7-H ) :   0.9420 B(  6-C ,  8-H ) :   0.9417
B(  6-C ,  9-C ) :   1.0514 B(  9-C , 10-H ) :   0.9590 B(  9-C , 11-H ) :   0.9579
B(  9-C , 12-C ) :   1.0795 B( 12-C , 13-H ) :   0.9757 B( 12-C , 14-H ) :   0.9731
B( 12-C , 15-H ) :   0.9757 B( 16-S , 17-C ) :   1.1582 B( 16-S , 20-C ) :   1.1091
B( 17-C , 18-C ) :   1.6231 B( 17-C , 20-C ) :   0.1002 B( 17-C , 33-H ) :   0.9656
B( 18-C , 19-C ) :   1.2141 B( 18-C , 21-H ) :   0.9960 B( 19-C , 20-C ) :   1.6182
B( 19-C , 22-C ) :   1.0666 B( 22-C , 23-H ) :   0.9236 B( 22-C , 24-H ) :   0.9317
B( 22-C , 25-C ) :   1.0476 B( 25-C , 26-H ) :   0.9560 B( 25-C , 27-H ) :   0.9537
B( 25-C , 28-C ) :   1.0769 B( 28-C , 29-H ) :   0.9747 B( 28-C , 30-H ) :   0.9759
B( 28-C , 31-H ) :   0.9736

Dispersion correction           -0.014525518
FINAL SINGLE POINT ENERGY     -1339.877259075814

DIPOLE MOMENT
-------------
                                X             Y             Z
Electronic contribution:      2.36430     -21.21185      23.91345
Nuclear contribution   :     -2.64233      21.73048     -24.27634
                        -----------------------------------------
Total Dipole Moment    :     -0.27803       0.51863      -0.36289
                        -----------------------------------------
Magnitude (a.u.)       :      0.69135
Magnitude (Debye)      :      1.75728

Rotational constants in cm-1:     0.017559     0.008942     0.006834
Rotational constants in MHz :   526.418572   268.065371   204.871325

                             ****ORCA TERMINATED NORMALLY****
TOTAL RUN TIME: 0 days 0 hours 0 minutes 28 seconds 874 msec
