                         Program Version 4.2.1 -  RELEASE  -
|  1> ! wB97X-D3 SP def2-SVP
|  2> %pal
|  3> nprocs 16
|  4> end
|  5>
|  6> * xyz 0 1
|  7> S 	 5.73117 	 78.4217 	 45.3365
|  8> C 	 5.83116 	 76.9289 	 44.4927
|  9> C 	 5.5936 	 75.8754 	 45.3273
| 10> C 	 5.10701 	 76.3211 	 46.628
| 11> C 	 5.15717 	 77.6922 	 46.8198
| 12> H 	 4.81204 	 75.7034 	 47.4649
| 13> C 	 5.7467 	 74.3573 	 44.9568
| 14> H 	 6.84538 	 74.2169 	 44.7182
| 15> H 	 5.18686 	 74.2619 	 44.0543
| 16> C 	 5.43203 	 73.354 	 45.9958
| 17> H 	 6.12887 	 73.4576 	 46.8418
| 18> H 	 4.41363 	 73.4523 	 46.377
| 19> C 	 5.444 	 71.9331 	 45.5475
| 20> H 	 4.96059 	 71.8208 	 44.5675
| 21> H 	 6.48875 	 71.6742 	 45.3615
| 22> H 	 4.97141 	 71.183 	 46.2526
| 23> S 	 6.35503 	 79.46 	 48.5683
| 24> C 	 5.61885 	 79.9265 	 50.0813
| 25> C 	 4.36602 	 79.3063 	 50.1329
| 26> C 	 4.04709 	 78.4485 	 49.0737
| 27> C 	 5.00896 	 78.4829 	 48.0851
| 28> H 	 3.74274 	 79.3828 	 50.9725
| 29> C 	 2.85016 	 77.593 	 49.0768
| 30> H 	 2.65198 	 77.259 	 48.0575
| 31> H 	 2.06124 	 78.2997 	 49.3394
| 32> C 	 2.89794 	 76.2916 	 49.9502
| 33> H 	 3.13388 	 76.4674 	 51.0386
| 34> H 	 3.58912 	 75.6316 	 49.5028
| 35> C 	 1.52068 	 75.6592 	 49.9201
| 36> H 	 1.05988 	 75.6092 	 48.9578
| 37> H 	 0.791174 	 76.2332 	 50.5184
| 38> H 	 1.3383 	 74.6442 	 50.3958
| 39> H 	 6.28754 	 76.8901 	 43.4805
| 40> H 	 5.99797 	 80.5787 	 50.768
| 41> *
| 42>
| 43>                          ****END OF INPUT****

CARTESIAN COORDINATES (ANGSTROEM)
---------------------------------
  S      5.731170   78.421700   45.336500
  C      5.831160   76.928900   44.492700
  C      5.593600   75.875400   45.327300
  C      5.107010   76.321100   46.628000
  C      5.157170   77.692200   46.819800
  H      4.812040   75.703400   47.464900
  C      5.746700   74.357300   44.956800
  H      6.845380   74.216900   44.718200
  H      5.186860   74.261900   44.054300
  C      5.432030   73.354000   45.995800
  H      6.128870   73.457600   46.841800
  H      4.413630   73.452300   46.377000
  C      5.444000   71.933100   45.547500
  H      4.960590   71.820800   44.567500
  H      6.488750   71.674200   45.361500
  H      4.971410   71.183000   46.252600
  S      6.355030   79.460000   48.568300
  C      5.618850   79.926500   50.081300
  C      4.366020   79.306300   50.132900
  C      4.047090   78.448500   49.073700
  C      5.008960   78.482900   48.085100
  H      3.742740   79.382800   50.972500
  C      2.850160   77.593000   49.076800
  H      2.651980   77.259000   48.057500
  H      2.061240   78.299700   49.339400
  C      2.897940   76.291600   49.950200
  H      3.133880   76.467400   51.038600
  H      3.589120   75.631600   49.502800
  C      1.520680   75.659200   49.920100
  H      1.059880   75.609200   48.957800
  H      0.791174   76.233200   50.518400
  H      1.338300   74.644200   50.395800
  H      6.287540   76.890100   43.480500
  H      5.997970   80.578700   50.768000

 Total Charge           Charge          ....    0
 Multiplicity           Mult            ....    1
 Number of Electrons    NEL             ....  134
 Basis Dimension        Dim             ....  322

ORBITAL ENERGIES
----------------

  NO   OCC          E(Eh)            E(eV)
   0   2.0000     -88.965174     -2420.8654
   1   2.0000     -88.962640     -2420.7965
   2   2.0000     -10.332614      -281.1647
   3   2.0000     -10.326878      -281.0086
   4   2.0000     -10.314037      -280.6592
   5   2.0000     -10.313744      -280.6512
   6   2.0000     -10.307093      -280.4703
   7   2.0000     -10.297402      -280.2065
   8   2.0000     -10.296933      -280.1938
   9   2.0000     -10.294276      -280.1215
  10   2.0000     -10.294047      -280.1153
  11   2.0000     -10.290513      -280.0191
  12   2.0000     -10.287745      -279.9438
  13   2.0000     -10.283918      -279.8396
  14   2.0000     -10.281937      -279.7857
  15   2.0000     -10.279535      -279.7204
  16   2.0000      -8.080110      -219.8710
  17   2.0000      -8.078132      -219.8171
  18   2.0000      -6.038552      -164.3173
  19   2.0000      -6.036631      -164.2651
  20   2.0000      -6.034408      -164.2046
  21   2.0000      -6.032426      -164.1507
  22   2.0000      -6.031101      -164.1146
  23   2.0000      -6.028951      -164.0561
  24   2.0000      -1.008996       -27.4562
  25   2.0000      -0.988922       -26.9099
  26   2.0000      -0.920125       -25.0379
  27   2.0000      -0.913106       -24.8469
  28   2.0000      -0.870588       -23.6899
  29   2.0000      -0.857141       -23.3240
  30   2.0000      -0.845074       -22.9956
  31   2.0000      -0.817232       -22.2380
  32   2.0000      -0.780793       -21.2465
  33   2.0000      -0.772415       -21.0185
  34   2.0000      -0.709430       -19.3046
  35   2.0000      -0.704875       -19.1806
  36   2.0000      -0.689798       -18.7703
  37   2.0000      -0.665540       -18.1103
  38   2.0000      -0.644278       -17.5317
  39   2.0000      -0.616964       -16.7884
  40   2.0000      -0.600560       -16.3421
  41   2.0000      -0.582887       -15.8612
  42   2.0000      -0.568289       -15.4639
  43   2.0000      -0.566175       -15.4064
  44   2.0000      -0.527597       -14.3567
  45   2.0000      -0.526587       -14.3292
  46   2.0000      -0.521619       -14.1940
  47   2.0000      -0.512283       -13.9399
  48   2.0000      -0.511705       -13.9242
  49   2.0000      -0.499650       -13.5962
  50   2.0000      -0.494009       -13.4427
  51   2.0000      -0.477952       -13.0057
  52   2.0000      -0.476351       -12.9622
  53   2.0000      -0.462132       -12.5752
  54   2.0000      -0.461116       -12.5476
  55   2.0000      -0.451281       -12.2800
  56   2.0000      -0.445909       -12.1338
  57   2.0000      -0.434211       -11.8155
  58   2.0000      -0.431896       -11.7525
  59   2.0000      -0.427213       -11.6251
  60   2.0000      -0.424724       -11.5573
  61   2.0000      -0.417976       -11.3737
  62   2.0000      -0.407559       -11.0902
  63   2.0000      -0.349164        -9.5012
  64   2.0000      -0.329555        -8.9676
  65   2.0000      -0.327165        -8.9026
  66   2.0000      -0.295818        -8.0496
  67   0.0000       0.033433         0.9098
  68   0.0000       0.071308         1.9404
  69   0.0000       0.121735         3.3126
  70   0.0000       0.129053         3.5117
  71   0.0000       0.133266         3.6264

MULLIKEN ATOMIC CHARGES
-----------------------
   0 S :    0.103798
   1 C :   -0.142986
   2 C :   -0.091461
   3 C :    0.022241
   4 C :   -0.143170
   5 H :   -0.000752
   6 C :    0.066181
   7 H :    0.041405
   8 H :    0.031077
   9 C :   -0.088563
  10 H :    0.038204
  11 H :    0.027388
  12 C :   -0.046851
  13 H :    0.024642
  14 H :    0.020546
  15 H :    0.050863
  16 S :    0.109745
  17 C :   -0.056839
  18 C :   -0.012975
  19 C :   -0.025859
  20 C :   -0.149098
  21 H :   -0.008398
  22 C :    0.026846
  23 H :    0.025052
  24 H :    0.029891
  25 C :   -0.022845
  26 H :    0.042911
  27 H :    0.025885
  28 C :   -0.068958
  29 H :    0.021023
  30 H :    0.020634
  31 H :    0.037900
  32 H :    0.066928
  33 H :    0.025595
Sum of atomic charges:    0.0000000

LOEWDIN ATOMIC CHARGES
----------------------
   0 S :    0.416368
   1 C :   -0.214342
   2 C :   -0.061929
   3 C :   -0.069152
   4 C :   -0.194153
   5 H :    0.026472
   6 C :   -0.029768
   7 H :    0.041350
   8 H :    0.028473
   9 C :   -0.056580
  10 H :    0.029311
  11 H :    0.023566
  12 C :   -0.065821
  13 H :    0.024540
  14 H :    0.021514
  15 H :    0.035747
  16 S :    0.423472
  17 C :   -0.172539
  18 C :   -0.060486
  19 C :   -0.067575
  20 C :   -0.203333
  21 H :    0.019843
  22 C :   -0.031218
  23 H :    0.032454
  24 H :    0.035042
  25 C :   -0.029647
  26 H :    0.033173
  27 H :    0.017005
  28 C :   -0.078292
  29 H :    0.018733
  30 H :    0.025424
  31 H :    0.031862
  32 H :    0.038171
  33 H :    0.012315

  Mayer bond orders larger than 0.100000
B(  0-S ,  1-C ) :   1.1473 B(  0-S ,  4-C ) :   1.1636 B(  1-C ,  2-C ) :   1.6218
B(  1-C , 32-H ) :   0.9678 B(  2-C ,  3-C ) :   1.2516 B(  2-C ,  6-C ) :   0.9876
B(  3-C ,  4-C ) :   1.5616 B(  3-C ,  5-H ) :   0.9925 B(  4-C , 20-C ) :   1.0015
B(  6-C ,  7-H ) :   0.9370 B(  6-C ,  8-H ) :   0.9412 B(  6-C ,  9-C ) :   1.1041
B(  9-C , 10-H ) :   0.9456 B(  9-C , 11-H ) :   0.9431 B(  9-C , 12-C ) :   1.0870
B( 12-C , 13-H ) :   0.9713 B( 12-C , 14-H ) :   0.9718 B( 12-C , 15-H ) :   0.9734
B( 16-S , 17-C ) :   1.1644 B( 16-S , 20-C ) :   1.1667 B( 17-C , 18-C ) :   1.5517
B( 17-C , 20-C ) :   0.1062 B( 17-C , 33-H ) :   0.9865 B( 18-C , 19-C ) :   1.2850
B( 18-C , 21-H ) :   0.9946 B( 19-C , 20-C ) :   1.5651 B( 19-C , 22-C ) :   1.0569
B( 22-C , 23-H ) :   0.9260 B( 22-C , 24-H ) :   0.9351 B( 22-C , 25-C ) :   1.0571
B( 25-C , 26-H ) :   0.9564 B( 25-C , 27-H ) :   0.9517 B( 25-C , 28-C ) :   1.0766
B( 28-C , 29-H ) :   0.9718 B( 28-C , 30-H ) :   0.9744 B( 28-C , 31-H ) :   0.9730

Dispersion correction           -0.013823438
FINAL SINGLE POINT ENERGY     -1339.879785211042

DIPOLE MOMENT
-------------
                                X             Y             Z
Electronic contribution:     13.52545      28.59760      -4.49013
Nuclear contribution   :    -13.73904     -29.21614       4.70689
                        -----------------------------------------
Total Dipole Moment    :     -0.21359      -0.61854       0.21675
                        -----------------------------------------
Magnitude (a.u.)       :      0.68934
Magnitude (Debye)      :      1.75217

Rotational constants in cm-1:     0.016237     0.009315     0.006599
Rotational constants in MHz :   486.771066   279.268293   197.820067

                             ****ORCA TERMINATED NORMALLY****
TOTAL RUN TIME: 0 days 0 hours 0 minutes 33 seconds 311 msec
