                         Program Version 4.2.1 -  RELEASE  -
|  1> ! wB97X-D3 SP def2-SVP
|  2> %pal
|  3> nprocs 16
|  4> end
|  5>
|  6> * xyz 0 1
|  7> S 	 -16.338 	 38.1408 	 38.2507
|  8> C 	 -15.6667 	 39.6055 	 38.8415
|  9> C 	 -14.3251 	 39.5924 	 38.8487
| 10> C 	 -13.7982 	 38.3304 	 38.4593
| 11> C 	 -14.7635 	 37.3857 	 38.2079
| 12> H 	 -12.8144 	 38.0194 	 38.3923
| 13> C 	 -13.4685 	 40.7164 	 39.3339
| 14> H 	 -14.1046 	 41.3941 	 39.8745
| 15> H 	 -12.9973 	 41.3291 	 38.4997
| 16> C 	 -12.459 	 40.3411 	 40.3371
| 17> H 	 -12.9181 	 39.7366 	 41.1849
| 18> H 	 -11.7178 	 39.637 	 40.0166
| 19> C 	 -11.7173 	 41.546 	 40.932
| 20> H 	 -11.3406 	 42.1766 	 40.1346
| 21> H 	 -12.3885 	 42.1655 	 41.5129
| 22> H 	 -10.9105 	 41.0631 	 41.493
| 23> S 	 -15.6253 	 34.7782 	 38.6421
| 24> C 	 -14.9616 	 33.5179 	 37.7115
| 25> C 	 -14.1044 	 34.0162 	 36.7912
| 26> C 	 -13.8514 	 35.4328 	 36.8722
| 27> C 	 -14.5962 	 36.006 	 37.9426
| 28> H 	 -13.618 	 33.4199 	 36.1045
| 29> C 	 -12.8837 	 36.169 	 36.0029
| 30> H 	 -11.892 	 36.3802 	 36.5512
| 31> H 	 -13.2541 	 37.1149 	 35.774
| 32> C 	 -12.7252 	 35.5966 	 34.5676
| 33> H 	 -13.7023 	 35.2476 	 34.2255
| 34> H 	 -12.0796 	 34.7486 	 34.6909
| 35> C 	 -12.0221 	 36.567 	 33.5623
| 36> H 	 -10.9722 	 36.6849 	 33.8811
| 37> H 	 -12.4693 	 37.5617 	 33.5269
| 38> H 	 -11.9903 	 35.9758 	 32.7056
| 39> H 	 -16.2538 	 40.3801 	 39.3033
| 40> H 	 -15.3624 	 32.521 	 37.6936
| 41> *
| 42>
| 43>                          ****END OF INPUT****

CARTESIAN COORDINATES (ANGSTROEM)
---------------------------------
  S    -16.338000   38.140800   38.250700
  C    -15.666700   39.605500   38.841500
  C    -14.325100   39.592400   38.848700
  C    -13.798200   38.330400   38.459300
  C    -14.763500   37.385700   38.207900
  H    -12.814400   38.019400   38.392300
  C    -13.468500   40.716400   39.333900
  H    -14.104600   41.394100   39.874500
  H    -12.997300   41.329100   38.499700
  C    -12.459000   40.341100   40.337100
  H    -12.918100   39.736600   41.184900
  H    -11.717800   39.637000   40.016600
  C    -11.717300   41.546000   40.932000
  H    -11.340600   42.176600   40.134600
  H    -12.388500   42.165500   41.512900
  H    -10.910500   41.063100   41.493000
  S    -15.625300   34.778200   38.642100
  C    -14.961600   33.517900   37.711500
  C    -14.104400   34.016200   36.791200
  C    -13.851400   35.432800   36.872200
  C    -14.596200   36.006000   37.942600
  H    -13.618000   33.419900   36.104500
  C    -12.883700   36.169000   36.002900
  H    -11.892000   36.380200   36.551200
  H    -13.254100   37.114900   35.774000
  C    -12.725200   35.596600   34.567600
  H    -13.702300   35.247600   34.225500
  H    -12.079600   34.748600   34.690900
  C    -12.022100   36.567000   33.562300
  H    -10.972200   36.684900   33.881100
  H    -12.469300   37.561700   33.526900
  H    -11.990300   35.975800   32.705600
  H    -16.253800   40.380100   39.303300
  H    -15.362400   32.521000   37.693600

 Total Charge           Charge          ....    0
 Multiplicity           Mult            ....    1
 Number of Electrons    NEL             ....  134
 Basis Dimension        Dim             ....  322

ORBITAL ENERGIES
----------------

  NO   OCC          E(Eh)            E(eV)
   0   2.0000     -88.964904     -2420.8581
   1   2.0000     -88.959502     -2420.7111
   2   2.0000     -10.322618      -280.8927
   3   2.0000     -10.321278      -280.8563
   4   2.0000     -10.311861      -280.6000
   5   2.0000     -10.304921      -280.4112
   6   2.0000     -10.303256      -280.3658
   7   2.0000     -10.291910      -280.0571
   8   2.0000     -10.289734      -279.9979
   9   2.0000     -10.288022      -279.9513
  10   2.0000     -10.287618      -279.9403
  11   2.0000     -10.285425      -279.8806
  12   2.0000     -10.283889      -279.8389
  13   2.0000     -10.280762      -279.7537
  14   2.0000     -10.279464      -279.7184
  15   2.0000     -10.276690      -279.6430
  16   2.0000      -8.080494      -219.8814
  17   2.0000      -8.075414      -219.7432
  18   2.0000      -6.038955      -164.3283
  19   2.0000      -6.034711      -164.2128
  20   2.0000      -6.033839      -164.1891
  21   2.0000      -6.031427      -164.1235
  22   2.0000      -6.029848      -164.0805
  23   2.0000      -6.026092      -163.9783
  24   2.0000      -1.013163       -27.5696
  25   2.0000      -0.991397       -26.9773
  26   2.0000      -0.920921       -25.0595
  27   2.0000      -0.910831       -24.7850
  28   2.0000      -0.879034       -23.9197
  29   2.0000      -0.853072       -23.2133
  30   2.0000      -0.846056       -23.0223
  31   2.0000      -0.819553       -22.3012
  32   2.0000      -0.785571       -21.3765
  33   2.0000      -0.771925       -21.0052
  34   2.0000      -0.711992       -19.3743
  35   2.0000      -0.704523       -19.1710
  36   2.0000      -0.689217       -18.7545
  37   2.0000      -0.654941       -17.8219
  38   2.0000      -0.645085       -17.5537
  39   2.0000      -0.625258       -17.0141
  40   2.0000      -0.606722       -16.5097
  41   2.0000      -0.573946       -15.6179
  42   2.0000      -0.570523       -15.5247
  43   2.0000      -0.565371       -15.3845
  44   2.0000      -0.535580       -14.5739
  45   2.0000      -0.530835       -14.4448
  46   2.0000      -0.516191       -14.0463
  47   2.0000      -0.510230       -13.8841
  48   2.0000      -0.509760       -13.8713
  49   2.0000      -0.502617       -13.6769
  50   2.0000      -0.492450       -13.4002
  51   2.0000      -0.484476       -13.1833
  52   2.0000      -0.477498       -12.9934
  53   2.0000      -0.468698       -12.7539
  54   2.0000      -0.460263       -12.5244
  55   2.0000      -0.451594       -12.2885
  56   2.0000      -0.445919       -12.1341
  57   2.0000      -0.440791       -11.9945
  58   2.0000      -0.433581       -11.7983
  59   2.0000      -0.421022       -11.4566
  60   2.0000      -0.419563       -11.4169
  61   2.0000      -0.411035       -11.1848
  62   2.0000      -0.409295       -11.1375
  63   2.0000      -0.347150        -9.4464
  64   2.0000      -0.330893        -9.0040
  65   2.0000      -0.327638        -8.9155
  66   2.0000      -0.291459        -7.9310
  67   0.0000       0.027264         0.7419
  68   0.0000       0.078820         2.1448
  69   0.0000       0.121206         3.2982
  70   0.0000       0.128045         3.4843
  71   0.0000       0.137735         3.7480

MULLIKEN ATOMIC CHARGES
-----------------------
   0 S :    0.109169
   1 C :   -0.128274
   2 C :   -0.043958
   3 C :    0.037337
   4 C :   -0.156318
   5 H :   -0.026450
   6 C :    0.103922
   7 H :   -0.002153
   8 H :    0.045135
   9 C :   -0.139452
  10 H :    0.033422
  11 H :    0.019598
  12 C :   -0.020593
  13 H :    0.023254
  14 H :    0.030950
  15 H :    0.040718
  16 S :    0.114581
  17 C :   -0.071259
  18 C :   -0.006805
  19 C :   -0.055961
  20 C :   -0.157968
  21 H :   -0.015136
  22 C :    0.076215
  23 H :    0.055034
  24 H :    0.005158
  25 C :   -0.132725
  26 H :    0.039257
  27 H :    0.027105
  28 C :   -0.006616
  29 H :    0.026384
  30 H :    0.047100
  31 H :    0.028111
  32 H :    0.041954
  33 H :    0.059263
Sum of atomic charges:   -0.0000000

LOEWDIN ATOMIC CHARGES
----------------------
   0 S :    0.409237
   1 C :   -0.201568
   2 C :   -0.065618
   3 C :   -0.052842
   4 C :   -0.186868
   5 H :    0.017422
   6 C :   -0.036729
   7 H :    0.026863
   8 H :    0.039181
   9 C :   -0.051590
  10 H :    0.031783
  11 H :    0.014538
  12 C :   -0.057589
  13 H :    0.022120
  14 H :    0.021878
  15 H :    0.032344
  16 S :    0.431749
  17 C :   -0.195954
  18 C :   -0.068306
  19 C :   -0.043935
  20 C :   -0.212955
  21 H :    0.016104
  22 C :   -0.041945
  23 H :    0.041764
  24 H :    0.020756
  25 C :   -0.035337
  26 H :    0.024775
  27 H :    0.018167
  28 C :   -0.056038
  29 H :    0.029054
  30 H :    0.027696
  31 H :    0.022387
  32 H :    0.027123
  33 H :    0.032331

  Mayer bond orders larger than 0.100000
B(  0-S ,  1-C ) :   1.1317 B(  0-S ,  4-C ) :   1.1453 B(  1-C ,  2-C ) :   1.6339
B(  1-C , 32-H ) :   0.9645 B(  2-C ,  3-C ) :   1.2084 B(  2-C ,  6-C ) :   1.0306
B(  3-C ,  4-C ) :   1.5707 B(  3-C ,  5-H ) :   1.0170 B(  4-C , 20-C ) :   1.0981
B(  6-C ,  7-H ) :   0.9380 B(  6-C ,  8-H ) :   0.9236 B(  6-C ,  9-C ) :   1.0710
B(  9-C , 10-H ) :   0.9506 B(  9-C , 11-H ) :   0.9512 B(  9-C , 12-C ) :   1.0842
B( 12-C , 13-H ) :   0.9723 B( 12-C , 14-H ) :   0.9761 B( 12-C , 15-H ) :   0.9750
B( 16-S , 17-C ) :   1.1718 B( 16-S , 20-C ) :   1.1496 B( 17-C , 18-C ) :   1.5684
B( 17-C , 33-H ) :   0.9664 B( 18-C , 19-C ) :   1.2828 B( 18-C , 21-H ) :   1.0028
B( 19-C , 20-C ) :   1.5242 B( 19-C , 22-C ) :   1.0585 B( 22-C , 23-H ) :   0.9270
B( 22-C , 24-H ) :   0.9173 B( 22-C , 25-C ) :   1.0592 B( 25-C , 26-H ) :   0.9613
B( 25-C , 27-H ) :   0.9477 B( 25-C , 28-C ) :   1.0849 B( 28-C , 29-H ) :   0.9719
B( 28-C , 30-H ) :   0.9759 B( 28-C , 31-H ) :   0.9729

Dispersion correction           -0.013503779
FINAL SINGLE POINT ENERGY     -1339.872533155862

DIPOLE MOMENT
-------------
                                X             Y             Z
Electronic contribution:    -22.81719     -13.79252       6.13179
Nuclear contribution   :     23.36037      13.87520      -6.39421
                        -----------------------------------------
Total Dipole Moment    :      0.54318       0.08268      -0.26242
                        -----------------------------------------
Magnitude (a.u.)       :      0.60888
Magnitude (Debye)      :      1.54766

Rotational constants in cm-1:     0.017348     0.008156     0.006575
Rotational constants in MHz :   520.081275   244.504116   197.127709

                             ****ORCA TERMINATED NORMALLY****
TOTAL RUN TIME: 0 days 0 hours 0 minutes 33 seconds 351 msec
