                         Program Version 4.2.1 -  RELEASE  -
|  1> ! wB97X-D3 SP def2-SVP
|  2> %pal
|  3> nprocs 16
|  4> end
|  5>
|  6> * xyz 0 1
|  7> S 	 -8.54825 	 13.0221 	 86.8264
|  8> C 	 -9.47183 	 11.5295 	 86.767
|  9> C 	 -8.69058 	 10.481 	 87.2934
| 10> C 	 -7.33656 	 10.7969 	 87.6245
| 11> C 	 -7.13051 	 12.1513 	 87.5029
| 12> H 	 -6.62462 	 10.1667 	 88.0309
| 13> C 	 -9.16188 	 9.05299 	 87.3272
| 14> H 	 -8.77446 	 8.37223 	 86.6196
| 15> H 	 -10.19 	 8.96093 	 87.0395
| 16> C 	 -9.10353 	 8.41203 	 88.7288
| 17> H 	 -8.53727 	 8.95423 	 89.4891
| 18> H 	 -10.1588 	 8.42439 	 89.0611
| 19> C 	 -8.3921 	 7.10147 	 88.7124
| 20> H 	 -8.84929 	 6.24755 	 88.1584
| 21> H 	 -7.3925 	 7.26626 	 88.2529
| 22> H 	 -8.12241 	 6.76261 	 89.6937
| 23> S 	 -6.85927 	 14.0104 	 89.4837
| 24> C 	 -5.33144 	 14.41 	 90.179
| 25> C 	 -4.27993 	 13.8293 	 89.4468
| 26> C 	 -4.76431 	 12.9854 	 88.3631
| 27> C 	 -6.14931 	 12.9868 	 88.259
| 28> H 	 -3.2525 	 13.8852 	 89.8656
| 29> C 	 -3.73188 	 12.2226 	 87.5683
| 30> H 	 -3.04536 	 13.0289 	 87.4127
| 31> H 	 -4.02639 	 12.0337 	 86.4808
| 32> C 	 -3.02564 	 11.0936 	 88.2537
| 33> H 	 -2.38301 	 11.5674 	 89.0218
| 34> H 	 -2.37777 	 10.613 	 87.544
| 35> C 	 -3.88938 	 10.0201 	 89.0054
| 36> H 	 -3.17399 	 9.53551 	 89.6804
| 37> H 	 -4.22695 	 9.39493 	 88.1505
| 38> H 	 -4.70786 	 10.4403 	 89.5063
| 39> H 	 -10.3971 	 11.3336 	 86.2644
| 40> H 	 -5.14487 	 14.7357 	 91.207
| 41> *
| 42>
| 43>                          ****END OF INPUT****

CARTESIAN COORDINATES (ANGSTROEM)
---------------------------------
  S     -8.548250   13.022100   86.826400
  C     -9.471830   11.529500   86.767000
  C     -8.690580   10.481000   87.293400
  C     -7.336560   10.796900   87.624500
  C     -7.130510   12.151300   87.502900
  H     -6.624620   10.166700   88.030900
  C     -9.161880    9.052990   87.327200
  H     -8.774460    8.372230   86.619600
  H    -10.190000    8.960930   87.039500
  C     -9.103530    8.412030   88.728800
  H     -8.537270    8.954230   89.489100
  H    -10.158800    8.424390   89.061100
  C     -8.392100    7.101470   88.712400
  H     -8.849290    6.247550   88.158400
  H     -7.392500    7.266260   88.252900
  H     -8.122410    6.762610   89.693700
  S     -6.859270   14.010400   89.483700
  C     -5.331440   14.410000   90.179000
  C     -4.279930   13.829300   89.446800
  C     -4.764310   12.985400   88.363100
  C     -6.149310   12.986800   88.259000
  H     -3.252500   13.885200   89.865600
  C     -3.731880   12.222600   87.568300
  H     -3.045360   13.028900   87.412700
  H     -4.026390   12.033700   86.480800
  C     -3.025640   11.093600   88.253700
  H     -2.383010   11.567400   89.021800
  H     -2.377770   10.613000   87.544000
  C     -3.889380   10.020100   89.005400
  H     -3.173990    9.535510   89.680400
  H     -4.226950    9.394930   88.150500
  H     -4.707860   10.440300   89.506300
  H    -10.397100   11.333600   86.264400
  H     -5.144870   14.735700   91.207000

 Total Charge           Charge          ....    0
 Multiplicity           Mult            ....    1
 Number of Electrons    NEL             ....  134
 Basis Dimension        Dim             ....  322

ORBITAL ENERGIES
----------------

  NO   OCC          E(Eh)            E(eV)
   0   2.0000     -88.967953     -2420.9411
   1   2.0000     -88.965285     -2420.8685
   2   2.0000     -10.337126      -281.2875
   3   2.0000     -10.329617      -281.0832
   4   2.0000     -10.317007      -280.7400
   5   2.0000     -10.316590      -280.7287
   6   2.0000     -10.306885      -280.4646
   7   2.0000     -10.304398      -280.3969
   8   2.0000     -10.299884      -280.2741
   9   2.0000     -10.293694      -280.1057
  10   2.0000     -10.290010      -280.0054
  11   2.0000     -10.287779      -279.9447
  12   2.0000     -10.282618      -279.8043
  13   2.0000     -10.280636      -279.7503
  14   2.0000     -10.280419      -279.7444
  15   2.0000     -10.277727      -279.6712
  16   2.0000      -8.081687      -219.9139
  17   2.0000      -8.080269      -219.8753
  18   2.0000      -6.040289      -164.3646
  19   2.0000      -6.038823      -164.3247
  20   2.0000      -6.036310      -164.2563
  21   2.0000      -6.034551      -164.2085
  22   2.0000      -6.032413      -164.1503
  23   2.0000      -6.031119      -164.1151
  24   2.0000      -1.004043       -27.3214
  25   2.0000      -0.980622       -26.6841
  26   2.0000      -0.915044       -24.8996
  27   2.0000      -0.912365       -24.8267
  28   2.0000      -0.865523       -23.5521
  29   2.0000      -0.851531       -23.1713
  30   2.0000      -0.846514       -23.0348
  31   2.0000      -0.817232       -22.2380
  32   2.0000      -0.786233       -21.3945
  33   2.0000      -0.771596       -20.9962
  34   2.0000      -0.707262       -19.2456
  35   2.0000      -0.694947       -18.9105
  36   2.0000      -0.687828       -18.7167
  37   2.0000      -0.659183       -17.9373
  38   2.0000      -0.648082       -17.6352
  39   2.0000      -0.628306       -17.0971
  40   2.0000      -0.592463       -16.1217
  41   2.0000      -0.568339       -15.4653
  42   2.0000      -0.557229       -15.1630
  43   2.0000      -0.553306       -15.0562
  44   2.0000      -0.549830       -14.9616
  45   2.0000      -0.527728       -14.3602
  46   2.0000      -0.518877       -14.1194
  47   2.0000      -0.514472       -13.9995
  48   2.0000      -0.510288       -13.8856
  49   2.0000      -0.497500       -13.5377
  50   2.0000      -0.491972       -13.3872
  51   2.0000      -0.483868       -13.1667
  52   2.0000      -0.469518       -12.7762
  53   2.0000      -0.463427       -12.6105
  54   2.0000      -0.455780       -12.4024
  55   2.0000      -0.446306       -12.1446
  56   2.0000      -0.445532       -12.1235
  57   2.0000      -0.441289       -12.0081
  58   2.0000      -0.434954       -11.8357
  59   2.0000      -0.422485       -11.4964
  60   2.0000      -0.415679       -11.3112
  61   2.0000      -0.407934       -11.1005
  62   2.0000      -0.399717       -10.8768
  63   2.0000      -0.351490        -9.5645
  64   2.0000      -0.328879        -8.9492
  65   2.0000      -0.325204        -8.8492
  66   2.0000      -0.292402        -7.9567
  67   0.0000       0.033520         0.9121
  68   0.0000       0.054489         1.4827
  69   0.0000       0.114643         3.1196
  70   0.0000       0.117272         3.1911
  71   0.0000       0.124503         3.3879

MULLIKEN ATOMIC CHARGES
-----------------------
   0 S :    0.095348
   1 C :   -0.090066
   2 C :   -0.106091
   3 C :    0.107485
   4 C :   -0.134605
   5 H :   -0.036625
   6 C :    0.083675
   7 H :    0.022797
   8 H :   -0.004000
   9 C :   -0.091905
  10 H :    0.037433
  11 H :    0.036142
  12 C :   -0.065304
  13 H :    0.039581
  14 H :    0.024781
  15 H :    0.022219
  16 S :    0.116747
  17 C :   -0.105575
  18 C :   -0.072515
  19 C :   -0.070198
  20 C :   -0.145678
  21 H :    0.041033
  22 C :    0.057936
  23 H :    0.024118
  24 H :    0.036902
  25 C :   -0.085518
  26 H :    0.020371
  27 H :    0.031159
  28 C :   -0.048301
  29 H :    0.045145
  30 H :    0.046092
  31 H :    0.049025
  32 H :    0.046510
  33 H :    0.071881
Sum of atomic charges:   -0.0000000

LOEWDIN ATOMIC CHARGES
----------------------
   0 S :    0.385712
   1 C :   -0.196865
   2 C :   -0.053264
   3 C :   -0.043775
   4 C :   -0.167053
   5 H :    0.020642
   6 C :   -0.035217
   7 H :    0.025528
   8 H :    0.027236
   9 C :   -0.045456
  10 H :    0.027391
  11 H :    0.028053
  12 C :   -0.070589
  13 H :    0.025123
  14 H :    0.027646
  15 H :    0.020793
  16 S :    0.423514
  17 C :   -0.206658
  18 C :   -0.077350
  19 C :   -0.062113
  20 C :   -0.205971
  21 H :    0.037088
  22 C :   -0.047229
  23 H :    0.035339
  24 H :    0.036769
  25 C :   -0.039868
  26 H :    0.021208
  27 H :    0.024371
  28 C :   -0.060444
  29 H :    0.032887
  30 H :    0.030241
  31 H :    0.016377
  32 H :    0.028536
  33 H :    0.037400

  Mayer bond orders larger than 0.100000
B(  0-S ,  1-C ) :   1.1200 B(  0-S ,  4-C ) :   1.1493 B(  1-C ,  2-C ) :   1.6144
B(  1-C , 32-H ) :   0.9684 B(  2-C ,  3-C ) :   1.2305 B(  2-C ,  6-C ) :   1.0406
B(  3-C ,  4-C ) :   1.5757 B(  3-C ,  5-H ) :   0.9984 B(  4-C , 20-C ) :   0.9905
B(  6-C ,  7-H ) :   0.9517 B(  6-C ,  8-H ) :   0.9360 B(  6-C ,  9-C ) :   1.0217
B(  9-C , 10-H ) :   0.9700 B(  9-C , 11-H ) :   0.9617 B(  9-C , 12-C ) :   1.0750
B( 12-C , 13-H ) :   0.9731 B( 12-C , 14-H ) :   0.9717 B( 12-C , 15-H ) :   0.9734
B( 16-S , 17-C ) :   1.1672 B( 16-S , 20-C ) :   1.1416 B( 17-C , 18-C ) :   1.6120
B( 17-C , 33-H ) :   0.9602 B( 18-C , 19-C ) :   1.2363 B( 18-C , 21-H ) :   0.9803
B( 19-C , 20-C ) :   1.6179 B( 19-C , 22-C ) :   1.0278 B( 22-C , 23-H ) :   0.9301
B( 22-C , 24-H ) :   0.9393 B( 22-C , 25-C ) :   1.0754 B( 25-C , 26-H ) :   0.9550
B( 25-C , 27-H ) :   0.9560 B( 25-C , 28-C ) :   1.0709 B( 28-C , 29-H ) :   0.9725
B( 28-C , 30-H ) :   0.9734 B( 28-C , 31-H ) :   0.9699

Dispersion correction           -0.015054554
FINAL SINGLE POINT ENERGY     -1339.849677379186

DIPOLE MOMENT
-------------
                                X             Y             Z
Electronic contribution:     -9.33625      26.96139      -3.18375
Nuclear contribution   :      9.70747     -27.63707       3.38559
                        -----------------------------------------
Total Dipole Moment    :      0.37121      -0.67568       0.20184
                        -----------------------------------------
Magnitude (a.u.)       :      0.79692
Magnitude (Debye)      :      2.02560

Rotational constants in cm-1:     0.017408     0.009876     0.007490
Rotational constants in MHz :   521.883087   296.072581   224.552962

                             ****ORCA TERMINATED NORMALLY****
TOTAL RUN TIME: 0 days 0 hours 0 minutes 34 seconds 211 msec
