                         Program Version 4.2.1 -  RELEASE  -
|  1> ! wB97X-D3 SP def2-SVP
|  2> %pal
|  3> nprocs 16
|  4> end
|  5>
|  6> * xyz 0 1
|  7> S 	 -6.49219 	 -8.02259 	 87.6678
|  8> C 	 -6.44888 	 -9.62093 	 86.9179
|  9> C 	 -5.42972 	 -10.3796 	 87.4539
| 10> C 	 -4.618 	 -9.64351 	 88.3238
| 11> C 	 -5.01715 	 -8.33862 	 88.5299
| 12> H 	 -3.74392 	 -10.1031 	 88.8251
| 13> C 	 -5.3588 	 -11.8752 	 87.1832
| 14> H 	 -6.37851 	 -12.1019 	 87.0252
| 15> H 	 -5.07663 	 -12.4584 	 88.0549
| 16> C 	 -4.38814 	 -12.3465 	 86.0132
| 17> H 	 -4.64009 	 -11.8998 	 85.111
| 18> H 	 -3.41786 	 -12.0007 	 86.348
| 19> C 	 -4.3394 	 -13.8977 	 85.7395
| 20> H 	 -3.59126 	 -14.2301 	 85.0469
| 21> H 	 -4.16587 	 -14.3804 	 86.6909
| 22> H 	 -5.22592 	 -14.2962 	 85.3116
| 23> S 	 -5.69542 	 -6.3009 	 90.2057
| 24> C 	 -4.52302 	 -5.53628 	 91.2099
| 25> C 	 -3.25894 	 -6.07671 	 91.0901
| 26> C 	 -3.27968 	 -7.11973 	 90.0984
| 27> C 	 -4.52744 	 -7.3231 	 89.4437
| 28> H 	 -2.4014 	 -5.62122 	 91.6035
| 29> C 	 -1.98021 	 -7.8831 	 89.8108
| 30> H 	 -1.12514 	 -7.22109 	 89.8794
| 31> H 	 -1.9476 	 -8.26401 	 88.83
| 32> C 	 -1.72689 	 -9.10007 	 90.8089
| 33> H 	 -2.60689 	 -9.62899 	 90.772
| 34> H 	 -1.61977 	 -8.73934 	 91.8222
| 35> C 	 -0.552006 	 -10.0981 	 90.433
| 36> H 	 0.391463 	 -9.5686 	 90.4125
| 37> H 	 -0.810976 	 -10.5624 	 89.4905
| 38> H 	 -0.462482 	 -10.8549 	 91.219
| 39> H 	 -7.30644 	 -9.97403 	 86.3449
| 40> H 	 -4.72497 	 -4.71977 	 91.9187
| 41> *
| 42>
| 43>                          ****END OF INPUT****

CARTESIAN COORDINATES (ANGSTROEM)
---------------------------------
  S     -6.492190   -8.022590   87.667800
  C     -6.448880   -9.620930   86.917900
  C     -5.429720  -10.379600   87.453900
  C     -4.618000   -9.643510   88.323800
  C     -5.017150   -8.338620   88.529900
  H     -3.743920  -10.103100   88.825100
  C     -5.358800  -11.875200   87.183200
  H     -6.378510  -12.101900   87.025200
  H     -5.076630  -12.458400   88.054900
  C     -4.388140  -12.346500   86.013200
  H     -4.640090  -11.899800   85.111000
  H     -3.417860  -12.000700   86.348000
  C     -4.339400  -13.897700   85.739500
  H     -3.591260  -14.230100   85.046900
  H     -4.165870  -14.380400   86.690900
  H     -5.225920  -14.296200   85.311600
  S     -5.695420   -6.300900   90.205700
  C     -4.523020   -5.536280   91.209900
  C     -3.258940   -6.076710   91.090100
  C     -3.279680   -7.119730   90.098400
  C     -4.527440   -7.323100   89.443700
  H     -2.401400   -5.621220   91.603500
  C     -1.980210   -7.883100   89.810800
  H     -1.125140   -7.221090   89.879400
  H     -1.947600   -8.264010   88.830000
  C     -1.726890   -9.100070   90.808900
  H     -2.606890   -9.628990   90.772000
  H     -1.619770   -8.739340   91.822200
  C     -0.552006  -10.098100   90.433000
  H      0.391463   -9.568600   90.412500
  H     -0.810976  -10.562400   89.490500
  H     -0.462482  -10.854900   91.219000
  H     -7.306440   -9.974030   86.344900
  H     -4.724970   -4.719770   91.918700

 Total Charge           Charge          ....    0
 Multiplicity           Mult            ....    1
 Number of Electrons    NEL             ....  134
 Basis Dimension        Dim             ....  322

ORBITAL ENERGIES
----------------

  NO   OCC          E(Eh)            E(eV)
   0   2.0000     -88.967992     -2420.9421
   1   2.0000     -88.966251     -2420.8948
   2   2.0000     -10.332934      -281.1734
   3   2.0000     -10.330246      -281.1003
   4   2.0000     -10.318272      -280.7744
   5   2.0000     -10.315179      -280.6903
   6   2.0000     -10.310298      -280.5575
   7   2.0000     -10.301045      -280.3057
   8   2.0000     -10.297852      -280.2188
   9   2.0000     -10.295427      -280.1528
  10   2.0000     -10.292700      -280.0786
  11   2.0000     -10.288428      -279.9623
  12   2.0000     -10.287905      -279.9481
  13   2.0000     -10.282801      -279.8092
  14   2.0000     -10.282766      -279.8083
  15   2.0000     -10.276012      -279.6245
  16   2.0000      -8.083488      -219.9629
  17   2.0000      -8.081256      -219.9021
  18   2.0000      -6.041890      -164.4082
  19   2.0000      -6.039686      -164.3482
  20   2.0000      -6.037826      -164.2976
  21   2.0000      -6.035801      -164.2425
  22   2.0000      -6.034369      -164.2035
  23   2.0000      -6.032010      -164.1393
  24   2.0000      -1.012399       -27.5488
  25   2.0000      -0.988213       -26.8906
  26   2.0000      -0.907164       -24.6852
  27   2.0000      -0.899615       -24.4798
  28   2.0000      -0.870940       -23.6995
  29   2.0000      -0.849603       -23.1189
  30   2.0000      -0.845342       -23.0029
  31   2.0000      -0.818587       -22.2749
  32   2.0000      -0.784781       -21.3550
  33   2.0000      -0.770565       -20.9681
  34   2.0000      -0.713241       -19.4083
  35   2.0000      -0.704571       -19.1723
  36   2.0000      -0.696069       -18.9410
  37   2.0000      -0.664049       -18.0697
  38   2.0000      -0.638427       -17.3725
  39   2.0000      -0.626229       -17.0406
  40   2.0000      -0.594056       -16.1651
  41   2.0000      -0.575561       -15.6618
  42   2.0000      -0.565850       -15.3976
  43   2.0000      -0.556607       -15.1460
  44   2.0000      -0.523385       -14.2420
  45   2.0000      -0.520783       -14.1712
  46   2.0000      -0.513090       -13.9619
  47   2.0000      -0.510774       -13.8989
  48   2.0000      -0.506400       -13.7798
  49   2.0000      -0.500878       -13.6296
  50   2.0000      -0.495569       -13.4851
  51   2.0000      -0.484730       -13.1902
  52   2.0000      -0.475094       -12.9280
  53   2.0000      -0.465229       -12.6595
  54   2.0000      -0.460778       -12.5384
  55   2.0000      -0.455679       -12.3997
  56   2.0000      -0.444139       -12.0857
  57   2.0000      -0.435341       -11.8462
  58   2.0000      -0.430351       -11.7104
  59   2.0000      -0.428943       -11.6721
  60   2.0000      -0.427311       -11.6277
  61   2.0000      -0.424490       -11.5510
  62   2.0000      -0.415805       -11.3146
  63   2.0000      -0.360179        -9.8010
  64   2.0000      -0.337019        -9.1707
  65   2.0000      -0.329089        -8.9550
  66   2.0000      -0.283716        -7.7203
  67   0.0000       0.019760         0.5377
  68   0.0000       0.077041         2.0964
  69   0.0000       0.104720         2.8496
  70   0.0000       0.121930         3.3179
  71   0.0000       0.128672         3.5013

MULLIKEN ATOMIC CHARGES
-----------------------
   0 S :    0.090475
   1 C :   -0.131509
   2 C :   -0.084541
   3 C :    0.003219
   4 C :   -0.113605
   5 H :    0.006460
   6 C :    0.071100
   7 H :    0.008391
   8 H :    0.020107
   9 C :   -0.038227
  10 H :    0.017367
  11 H :    0.024841
  12 C :   -0.035072
  13 H :    0.031914
  14 H :    0.022507
  15 H :    0.022218
  16 S :    0.104768
  17 C :   -0.093920
  18 C :   -0.030436
  19 C :   -0.083772
  20 C :   -0.094523
  21 H :    0.035129
  22 C :    0.073796
  23 H :    0.016702
  24 H :    0.005734
  25 C :   -0.067574
  26 H :    0.007634
  27 H :    0.021832
  28 C :   -0.040381
  29 H :    0.034978
  30 H :    0.032770
  31 H :    0.038638
  32 H :    0.058759
  33 H :    0.064221
Sum of atomic charges:   -0.0000000

LOEWDIN ATOMIC CHARGES
----------------------
   0 S :    0.402823
   1 C :   -0.191938
   2 C :   -0.062450
   3 C :   -0.072852
   4 C :   -0.187322
   5 H :    0.034820
   6 C :   -0.024768
   7 H :    0.022999
   8 H :    0.028973
   9 C :   -0.022948
  10 H :    0.012821
  11 H :    0.022590
  12 C :   -0.062840
  13 H :    0.026368
  14 H :    0.022215
  15 H :    0.020196
  16 S :    0.428177
  17 C :   -0.194413
  18 C :   -0.074957
  19 C :   -0.050929
  20 C :   -0.211006
  21 H :    0.040606
  22 C :   -0.027414
  23 H :    0.025818
  24 H :    0.018637
  25 C :   -0.029500
  26 H :    0.006366
  27 H :    0.020226
  28 C :   -0.059532
  29 H :    0.023595
  30 H :    0.022382
  31 H :    0.029286
  32 H :    0.029112
  33 H :    0.034860

  Mayer bond orders larger than 0.100000
B(  0-S ,  1-C ) :   1.1368 B(  0-S ,  4-C ) :   1.1625 B(  1-C ,  2-C ) :   1.5946
B(  1-C ,  4-C ) :   0.1029 B(  1-C , 32-H ) :   0.9671 B(  2-C ,  3-C ) :   1.2806
B(  2-C ,  6-C ) :   1.0169 B(  3-C ,  4-C ) :   1.5335 B(  3-C ,  5-H ) :   0.9902
B(  4-C , 20-C ) :   1.0605 B(  6-C ,  7-H ) :   0.9419 B(  6-C ,  8-H ) :   0.9437
B(  6-C ,  9-C ) :   1.0470 B(  9-C , 10-H ) :   0.9621 B(  9-C , 11-H ) :   0.9606
B(  9-C , 12-C ) :   1.0776 B( 12-C , 13-H ) :   0.9758 B( 12-C , 14-H ) :   0.9762
B( 12-C , 15-H ) :   0.9773 B( 16-S , 17-C ) :   1.1761 B( 16-S , 20-C ) :   1.1407
B( 17-C , 18-C ) :   1.5909 B( 17-C , 33-H ) :   0.9618 B( 18-C , 19-C ) :   1.2619
B( 18-C , 21-H ) :   0.9886 B( 19-C , 20-C ) :   1.5629 B( 19-C , 22-C ) :   1.0574
B( 22-C , 23-H ) :   0.9390 B( 22-C , 24-H ) :   0.9389 B( 22-C , 25-C ) :   1.0455
B( 25-C , 26-H ) :   0.9582 B( 25-C , 27-H ) :   0.9566 B( 25-C , 28-C ) :   1.0786
B( 28-C , 29-H ) :   0.9781 B( 28-C , 30-H ) :   0.9765 B( 28-C , 31-H ) :   0.9754

Dispersion correction           -0.013785905
FINAL SINGLE POINT ENERGY     -1339.879217420671

DIPOLE MOMENT
-------------
                                X             Y             Z
Electronic contribution:    -19.75680      26.39056       3.88409
Nuclear contribution   :     20.14093     -26.84755      -3.69624
                        -----------------------------------------
Total Dipole Moment    :      0.38413      -0.45699       0.18785
                        -----------------------------------------
Magnitude (a.u.)       :      0.62585
Magnitude (Debye)      :      1.59077

Rotational constants in cm-1:     0.018050     0.008680     0.006052
Rotational constants in MHz :   541.127833   260.218517   181.425685

                             ****ORCA TERMINATED NORMALLY****
TOTAL RUN TIME: 0 days 0 hours 0 minutes 33 seconds 345 msec
