                         Program Version 4.2.1 -  RELEASE  -
|  1> ! wB97X-D3 SP def2-SVP
|  2> %pal
|  3> nprocs 16
|  4> end
|  5>
|  6> * xyz 0 1
|  7> S 	 61.8199 	 25.4705 	 75.7122
|  8> C 	 62.3319 	 26.0224 	 74.1397
|  9> C 	 63.1594 	 25.1044 	 73.49
| 10> C 	 63.3467 	 23.9853 	 74.3142
| 11> C 	 62.704 	 23.9548 	 75.5169
| 12> H 	 63.9453 	 23.1501 	 73.9877
| 13> C 	 63.671 	 25.2084 	 72.0572
| 14> H 	 64.1079 	 26.2364 	 71.9423
| 15> H 	 62.7638 	 25.156 	 71.4311
| 16> C 	 64.6834 	 24.0963 	 71.5996
| 17> H 	 65.4317 	 23.8821 	 72.3114
| 18> H 	 64.2476 	 23.1136 	 71.4664
| 19> C 	 65.3915 	 24.4791 	 70.3014
| 20> H 	 65.9972 	 23.6902 	 69.892
| 21> H 	 64.6556 	 24.4954 	 69.4208
| 22> H 	 65.9021 	 25.4203 	 70.416
| 23> S 	 62.3942 	 23.4407 	 78.1934
| 24> C 	 62.3093 	 21.7705 	 78.6818
| 25> C 	 62.5181 	 20.8845 	 77.6685
| 26> C 	 62.726 	 21.5529 	 76.4136
| 27> C 	 62.6899 	 22.9102 	 76.5114
| 28> H 	 62.6431 	 19.8113 	 77.9298
| 29> C 	 63.12 	 20.6924 	 75.2026
| 30> H 	 64.0721 	 20.939 	 74.7743
| 31> H 	 62.5415 	 21.1827 	 74.3927
| 32> C 	 62.6319 	 19.1771 	 75.2171
| 33> H 	 63.0872 	 18.7415 	 76.1155
| 34> H 	 63.1324 	 18.7136 	 74.3041
| 35> C 	 61.1169 	 19.0193 	 75.2325
| 36> H 	 60.8763 	 17.9988 	 75.1797
| 37> H 	 60.5892 	 19.481 	 74.3786
| 38> H 	 60.5531 	 19.3676 	 76.1745
| 39> H 	 62.0494 	 26.916 	 73.6795
| 40> H 	 61.9715 	 21.4583 	 79.6898
| 41> *
| 42>
| 43>                          ****END OF INPUT****

CARTESIAN COORDINATES (ANGSTROEM)
---------------------------------
  S     61.819900   25.470500   75.712200
  C     62.331900   26.022400   74.139700
  C     63.159400   25.104400   73.490000
  C     63.346700   23.985300   74.314200
  C     62.704000   23.954800   75.516900
  H     63.945300   23.150100   73.987700
  C     63.671000   25.208400   72.057200
  H     64.107900   26.236400   71.942300
  H     62.763800   25.156000   71.431100
  C     64.683400   24.096300   71.599600
  H     65.431700   23.882100   72.311400
  H     64.247600   23.113600   71.466400
  C     65.391500   24.479100   70.301400
  H     65.997200   23.690200   69.892000
  H     64.655600   24.495400   69.420800
  H     65.902100   25.420300   70.416000
  S     62.394200   23.440700   78.193400
  C     62.309300   21.770500   78.681800
  C     62.518100   20.884500   77.668500
  C     62.726000   21.552900   76.413600
  C     62.689900   22.910200   76.511400
  H     62.643100   19.811300   77.929800
  C     63.120000   20.692400   75.202600
  H     64.072100   20.939000   74.774300
  H     62.541500   21.182700   74.392700
  C     62.631900   19.177100   75.217100
  H     63.087200   18.741500   76.115500
  H     63.132400   18.713600   74.304100
  C     61.116900   19.019300   75.232500
  H     60.876300   17.998800   75.179700
  H     60.589200   19.481000   74.378600
  H     60.553100   19.367600   76.174500
  H     62.049400   26.916000   73.679500
  H     61.971500   21.458300   79.689800

 Total Charge           Charge          ....    0
 Multiplicity           Mult            ....    1
 Number of Electrons    NEL             ....  134
 Basis Dimension        Dim             ....  322

ORBITAL ENERGIES
----------------

  NO   OCC          E(Eh)            E(eV)
   0   2.0000     -88.966766     -2420.9088
   1   2.0000     -88.963317     -2420.8149
   2   2.0000     -10.325979      -280.9842
   3   2.0000     -10.325226      -280.9637
   4   2.0000     -10.315447      -280.6976
   5   2.0000     -10.308064      -280.4967
   6   2.0000     -10.304114      -280.3892
   7   2.0000     -10.304069      -280.3880
   8   2.0000     -10.303115      -280.3620
   9   2.0000     -10.298329      -280.2318
  10   2.0000     -10.295148      -280.1452
  11   2.0000     -10.292894      -280.0839
  12   2.0000     -10.289200      -279.9834
  13   2.0000     -10.285394      -279.8798
  14   2.0000     -10.283140      -279.8185
  15   2.0000     -10.282322      -279.7962
  16   2.0000      -8.081031      -219.8960
  17   2.0000      -8.077962      -219.8125
  18   2.0000      -6.039584      -164.3454
  19   2.0000      -6.036537      -164.2625
  20   2.0000      -6.035580      -164.2365
  21   2.0000      -6.032670      -164.1573
  22   2.0000      -6.031809      -164.1339
  23   2.0000      -6.028485      -164.0434
  24   2.0000      -1.007139       -27.4057
  25   2.0000      -0.983870       -26.7725
  26   2.0000      -0.909519       -24.7493
  27   2.0000      -0.902959       -24.5708
  28   2.0000      -0.872543       -23.7431
  29   2.0000      -0.853101       -23.2141
  30   2.0000      -0.842337       -22.9212
  31   2.0000      -0.815913       -22.2021
  32   2.0000      -0.784760       -21.3544
  33   2.0000      -0.771625       -20.9970
  34   2.0000      -0.716777       -19.5045
  35   2.0000      -0.702323       -19.1112
  36   2.0000      -0.695362       -18.9218
  37   2.0000      -0.654695       -17.8151
  38   2.0000      -0.639585       -17.4040
  39   2.0000      -0.624045       -16.9811
  40   2.0000      -0.598638       -16.2898
  41   2.0000      -0.572823       -15.5873
  42   2.0000      -0.564869       -15.3709
  43   2.0000      -0.549615       -14.9558
  44   2.0000      -0.530461       -14.4346
  45   2.0000      -0.523377       -14.2418
  46   2.0000      -0.515766       -14.0347
  47   2.0000      -0.504505       -13.7283
  48   2.0000      -0.501463       -13.6455
  49   2.0000      -0.497303       -13.5323
  50   2.0000      -0.491899       -13.3852
  51   2.0000      -0.485681       -13.2160
  52   2.0000      -0.470627       -12.8064
  53   2.0000      -0.462216       -12.5775
  54   2.0000      -0.457712       -12.4550
  55   2.0000      -0.451882       -12.2963
  56   2.0000      -0.445157       -12.1133
  57   2.0000      -0.441668       -12.0184
  58   2.0000      -0.437231       -11.8976
  59   2.0000      -0.424942       -11.5633
  60   2.0000      -0.420172       -11.4335
  61   2.0000      -0.414414       -11.2768
  62   2.0000      -0.413453       -11.2506
  63   2.0000      -0.355166        -9.6645
  64   2.0000      -0.332417        -9.0455
  65   2.0000      -0.329834        -8.9752
  66   2.0000      -0.281839        -7.6692
  67   0.0000       0.024979         0.6797
  68   0.0000       0.078230         2.1288
  69   0.0000       0.100361         2.7310
  70   0.0000       0.126265         3.4358
  71   0.0000       0.140409         3.8207

MULLIKEN ATOMIC CHARGES
-----------------------
   0 S :    0.112866
   1 C :   -0.105160
   2 C :   -0.083564
   3 C :   -0.024797
   4 C :   -0.095988
   5 H :   -0.013253
   6 C :    0.054218
   7 H :    0.042222
   8 H :    0.052033
   9 C :   -0.078458
  10 H :    0.028937
  11 H :    0.026024
  12 C :   -0.048738
  13 H :    0.026683
  14 H :    0.026774
  15 H :    0.043031
  16 S :    0.090775
  17 C :   -0.098785
  18 C :   -0.057253
  19 C :   -0.036134
  20 C :   -0.137698
  21 H :    0.037498
  22 C :    0.027119
  23 H :    0.043083
  24 H :    0.018000
  25 C :   -0.068420
  26 H :    0.036697
  27 H :    0.046150
  28 C :   -0.058549
  29 H :    0.022816
  30 H :    0.038903
  31 H :    0.053533
  32 H :    0.015801
  33 H :    0.063633
Sum of atomic charges:   -0.0000000

LOEWDIN ATOMIC CHARGES
----------------------
   0 S :    0.404284
   1 C :   -0.192055
   2 C :   -0.064631
   3 C :   -0.072805
   4 C :   -0.186432
   5 H :    0.024434
   6 C :   -0.029559
   7 H :    0.038620
   8 H :    0.041075
   9 C :   -0.044213
  10 H :    0.018548
  11 H :    0.024793
  12 C :   -0.067001
  13 H :    0.024780
  14 H :    0.031772
  15 H :    0.023794
  16 S :    0.382013
  17 C :   -0.184970
  18 C :   -0.082282
  19 C :   -0.052415
  20 C :   -0.181747
  21 H :    0.040986
  22 C :   -0.045003
  23 H :    0.027378
  24 H :    0.035490
  25 C :   -0.039028
  26 H :    0.021924
  27 H :    0.037565
  28 C :   -0.074027
  29 H :    0.020043
  30 H :    0.030261
  31 H :    0.039875
  32 H :    0.014584
  33 H :    0.033952

  Mayer bond orders larger than 0.100000
B(  0-S ,  1-C ) :   1.1492 B(  0-S ,  4-C ) :   1.1327 B(  1-C ,  2-C ) :   1.5923
B(  1-C ,  4-C ) :   0.1015 B(  1-C , 32-H ) :   0.9770 B(  2-C ,  3-C ) :   1.2898
B(  2-C ,  6-C ) :   0.9947 B(  3-C ,  4-C ) :   1.5442 B(  3-C ,  5-H ) :   0.9915
B(  4-C , 20-C ) :   1.0834 B(  6-C ,  7-H ) :   0.9445 B(  6-C ,  8-H ) :   0.9361
B(  6-C ,  9-C ) :   1.0710 B(  9-C , 10-H ) :   0.9547 B(  9-C , 11-H ) :   0.9462
B(  9-C , 12-C ) :   1.0932 B( 12-C , 13-H ) :   0.9701 B( 12-C , 14-H ) :   0.9711
B( 12-C , 15-H ) :   0.9770 B( 16-S , 17-C ) :   1.1480 B( 16-S , 20-C ) :   1.1058
B( 17-C , 18-C ) :   1.6511 B( 17-C , 33-H ) :   0.9553 B( 18-C , 19-C ) :   1.2141
B( 18-C , 21-H ) :   0.9782 B( 19-C , 20-C ) :   1.6424 B( 19-C , 22-C ) :   1.0158
B( 22-C , 23-H ) :   0.9400 B( 22-C , 24-H ) :   0.9178 B( 22-C , 25-C ) :   1.0557
B( 25-C , 26-H ) :   0.9507 B( 25-C , 27-H ) :   0.9535 B( 25-C , 28-C ) :   1.0788
B( 28-C , 29-H ) :   0.9719 B( 28-C , 30-H ) :   0.9728 B( 28-C , 31-H ) :   0.9693

Dispersion correction           -0.013846777
FINAL SINGLE POINT ENERGY     -1339.872154253557

DIPOLE MOMENT
-------------
                                X             Y             Z
Electronic contribution:     -7.39276      15.65110      24.53322
Nuclear contribution   :      7.55197     -16.22046     -25.17569
                        -----------------------------------------
Total Dipole Moment    :      0.15921      -0.56936      -0.64247
                        -----------------------------------------
Magnitude (a.u.)       :      0.87309
Magnitude (Debye)      :      2.21921

Rotational constants in cm-1:     0.017565     0.008753     0.006368
Rotational constants in MHz :   526.582328   262.408385   190.919432

                             ****ORCA TERMINATED NORMALLY****
TOTAL RUN TIME: 0 days 0 hours 0 minutes 28 seconds 824 msec
