                         Program Version 4.2.1 -  RELEASE  -
|  1> ! wB97X-D3 SP def2-SVP
|  2> %pal
|  3> nprocs 16
|  4> end
|  5>
|  6> * xyz 0 1
|  7> S 	 -6.65186 	 72.9243 	 57.7302
|  8> C 	 -7.5675 	 71.4332 	 57.8619
|  9> C 	 -7.95809 	 71.0023 	 56.5983
| 10> C 	 -7.29079 	 71.6882 	 55.5959
| 11> C 	 -6.62041 	 72.8683 	 55.969
| 12> H 	 -7.31543 	 71.3973 	 54.5503
| 13> C 	 -8.77998 	 69.8087 	 56.3718
| 14> H 	 -9.56276 	 70.3342 	 55.8614
| 15> H 	 -9.3076 	 69.4346 	 57.2639
| 16> C 	 -8.12559 	 68.6316 	 55.6196
| 17> H 	 -7.81605 	 69.0634 	 54.6489
| 18> H 	 -7.26295 	 68.2793 	 56.107
| 19> C 	 -9.0555 	 67.4169 	 55.4085
| 20> H 	 -8.51468 	 66.7172 	 54.8137
| 21> H 	 -9.30701 	 66.8189 	 56.297
| 22> H 	 -10.0219 	 67.6359 	 54.7915
| 23> S 	 -6.02757 	 75.5265 	 55.2003
| 24> C 	 -5.04544 	 75.7514 	 53.7717
| 25> C 	 -4.51479 	 74.562 	 53.2984
| 26> C 	 -5.09334 	 73.3998 	 54.0169
| 27> C 	 -5.86388 	 73.7876 	 55.114
| 28> H 	 -3.84079 	 74.4816 	 52.4749
| 29> C 	 -4.68661 	 72.0223 	 53.5567
| 30> H 	 -4.83218 	 71.4396 	 54.4438
| 31> H 	 -3.60572 	 72.0291 	 53.2589
| 32> C 	 -5.48808 	 71.537 	 52.3154
| 33> H 	 -5.20625 	 72.0008 	 51.4132
| 34> H 	 -6.58928 	 71.7332 	 52.3585
| 35> C 	 -5.37186 	 70.0192 	 52.1163
| 36> H 	 -5.96713 	 69.769 	 51.2134
| 37> H 	 -5.48706 	 69.4742 	 53.027
| 38> H 	 -4.37252 	 69.7658 	 51.7643
| 39> H 	 -7.87013 	 71.0322 	 58.8717
| 40> H 	 -4.84332 	 76.7017 	 53.232
| 41> *
| 42>
| 43>                          ****END OF INPUT****

CARTESIAN COORDINATES (ANGSTROEM)
---------------------------------
  S     -6.651860   72.924300   57.730200
  C     -7.567500   71.433200   57.861900
  C     -7.958090   71.002300   56.598300
  C     -7.290790   71.688200   55.595900
  C     -6.620410   72.868300   55.969000
  H     -7.315430   71.397300   54.550300
  C     -8.779980   69.808700   56.371800
  H     -9.562760   70.334200   55.861400
  H     -9.307600   69.434600   57.263900
  C     -8.125590   68.631600   55.619600
  H     -7.816050   69.063400   54.648900
  H     -7.262950   68.279300   56.107000
  C     -9.055500   67.416900   55.408500
  H     -8.514680   66.717200   54.813700
  H     -9.307010   66.818900   56.297000
  H    -10.021900   67.635900   54.791500
  S     -6.027570   75.526500   55.200300
  C     -5.045440   75.751400   53.771700
  C     -4.514790   74.562000   53.298400
  C     -5.093340   73.399800   54.016900
  C     -5.863880   73.787600   55.114000
  H     -3.840790   74.481600   52.474900
  C     -4.686610   72.022300   53.556700
  H     -4.832180   71.439600   54.443800
  H     -3.605720   72.029100   53.258900
  C     -5.488080   71.537000   52.315400
  H     -5.206250   72.000800   51.413200
  H     -6.589280   71.733200   52.358500
  C     -5.371860   70.019200   52.116300
  H     -5.967130   69.769000   51.213400
  H     -5.487060   69.474200   53.027000
  H     -4.372520   69.765800   51.764300
  H     -7.870130   71.032200   58.871700
  H     -4.843320   76.701700   53.232000

 Total Charge           Charge          ....    0
 Multiplicity           Mult            ....    1
 Number of Electrons    NEL             ....  134
 Basis Dimension        Dim             ....  322

ORBITAL ENERGIES
----------------

  NO   OCC          E(Eh)            E(eV)
   0   2.0000     -88.968511     -2420.9563
   1   2.0000     -88.963077     -2420.8084
   2   2.0000     -10.333144      -281.1791
   3   2.0000     -10.329477      -281.0794
   4   2.0000     -10.322074      -280.8779
   5   2.0000     -10.317147      -280.7438
   6   2.0000     -10.305606      -280.4298
   7   2.0000     -10.296197      -280.1738
   8   2.0000     -10.295706      -280.1604
   9   2.0000     -10.295006      -280.1413
  10   2.0000     -10.292149      -280.0636
  11   2.0000     -10.291552      -280.0474
  12   2.0000     -10.289034      -279.9788
  13   2.0000     -10.286933      -279.9217
  14   2.0000     -10.286876      -279.9201
  15   2.0000     -10.278661      -279.6966
  16   2.0000      -8.083099      -219.9523
  17   2.0000      -8.077565      -219.8017
  18   2.0000      -6.041814      -164.4061
  19   2.0000      -6.037654      -164.2929
  20   2.0000      -6.036027      -164.2486
  21   2.0000      -6.033616      -164.1830
  22   2.0000      -6.031972      -164.1383
  23   2.0000      -6.028533      -164.0447
  24   2.0000      -1.003772       -27.3140
  25   2.0000      -0.983208       -26.7544
  26   2.0000      -0.914467       -24.8839
  27   2.0000      -0.909725       -24.7549
  28   2.0000      -0.867702       -23.6114
  29   2.0000      -0.853304       -23.2196
  30   2.0000      -0.847209       -23.0537
  31   2.0000      -0.813643       -22.1403
  32   2.0000      -0.783089       -21.3089
  33   2.0000      -0.767827       -20.8936
  34   2.0000      -0.712074       -19.3765
  35   2.0000      -0.703215       -19.1355
  36   2.0000      -0.692448       -18.8425
  37   2.0000      -0.661646       -18.0043
  38   2.0000      -0.636691       -17.3252
  39   2.0000      -0.624243       -16.9865
  40   2.0000      -0.590908       -16.0794
  41   2.0000      -0.567967       -15.4552
  42   2.0000      -0.565776       -15.3956
  43   2.0000      -0.559547       -15.2261
  44   2.0000      -0.536511       -14.5992
  45   2.0000      -0.528958       -14.3937
  46   2.0000      -0.519950       -14.1486
  47   2.0000      -0.507527       -13.8105
  48   2.0000      -0.504449       -13.7268
  49   2.0000      -0.497750       -13.5445
  50   2.0000      -0.491394       -13.3715
  51   2.0000      -0.481682       -13.1072
  52   2.0000      -0.471700       -12.8356
  53   2.0000      -0.464388       -12.6367
  54   2.0000      -0.459891       -12.5143
  55   2.0000      -0.451894       -12.2967
  56   2.0000      -0.450188       -12.2502
  57   2.0000      -0.440714       -11.9924
  58   2.0000      -0.438646       -11.9362
  59   2.0000      -0.423693       -11.5293
  60   2.0000      -0.418087       -11.3767
  61   2.0000      -0.413991       -11.2653
  62   2.0000      -0.404483       -11.0065
  63   2.0000      -0.349598        -9.5131
  64   2.0000      -0.330106        -8.9826
  65   2.0000      -0.326799        -8.8927
  66   2.0000      -0.286304        -7.7907
  67   0.0000       0.030293         0.8243
  68   0.0000       0.071623         1.9489
  69   0.0000       0.115663         3.1473
  70   0.0000       0.121953         3.3185
  71   0.0000       0.127285         3.4636

MULLIKEN ATOMIC CHARGES
-----------------------
   0 S :    0.098119
   1 C :   -0.157269
   2 C :   -0.055968
   3 C :   -0.010558
   4 C :   -0.143315
   5 H :   -0.006909
   6 C :    0.075356
   7 H :    0.028384
   8 H :    0.011340
   9 C :   -0.052713
  10 H :    0.033170
  11 H :    0.027417
  12 C :   -0.071495
  13 H :    0.022833
  14 H :    0.039546
  15 H :    0.045620
  16 S :    0.118277
  17 C :   -0.102951
  18 C :   -0.009239
  19 C :   -0.086818
  20 C :   -0.115982
  21 H :    0.011297
  22 C :    0.062564
  23 H :    0.031377
  24 H :    0.040111
  25 C :   -0.084763
  26 H :    0.013244
  27 H :    0.039925
  28 C :   -0.030889
  29 H :    0.038135
  30 H :    0.035236
  31 H :    0.011985
  32 H :    0.072757
  33 H :    0.072174
Sum of atomic charges:    0.0000000

LOEWDIN ATOMIC CHARGES
----------------------
   0 S :    0.397967
   1 C :   -0.203937
   2 C :   -0.070254
   3 C :   -0.068457
   4 C :   -0.188023
   5 H :    0.027267
   6 C :   -0.037809
   7 H :    0.037261
   8 H :    0.029775
   9 C :   -0.031158
  10 H :    0.026999
  11 H :    0.022223
  12 C :   -0.074206
  13 H :    0.022013
  14 H :    0.027085
  15 H :    0.036443
  16 S :    0.406868
  17 C :   -0.190922
  18 C :   -0.066156
  19 C :   -0.046315
  20 C :   -0.210860
  21 H :    0.025742
  22 C :   -0.032291
  23 H :    0.028111
  24 H :    0.039985
  25 C :   -0.038997
  26 H :    0.017411
  27 H :    0.025392
  28 C :   -0.066160
  29 H :    0.033209
  30 H :    0.020509
  31 H :    0.021477
  32 H :    0.039259
  33 H :    0.040548

  Mayer bond orders larger than 0.100000
B(  0-S ,  1-C ) :   1.1526 B(  0-S ,  4-C ) :   1.1612 B(  1-C ,  2-C ) :   1.5509
B(  1-C ,  4-C ) :   0.1112 B(  1-C , 32-H ) :   0.9633 B(  2-C ,  3-C ) :   1.2868
B(  2-C ,  6-C ) :   1.0195 B(  3-C ,  4-C ) :   1.5329 B(  3-C ,  5-H ) :   0.9912
B(  4-C , 20-C ) :   1.0434 B(  6-C ,  7-H ) :   0.9260 B(  6-C ,  8-H ) :   0.9423
B(  6-C ,  9-C ) :   1.0571 B(  9-C , 10-H ) :   0.9490 B(  9-C , 11-H ) :   0.9571
B(  9-C , 12-C ) :   1.0891 B( 12-C , 13-H ) :   0.9722 B( 12-C , 14-H ) :   0.9738
B( 12-C , 15-H ) :   0.9747 B( 16-S , 17-C ) :   1.1484 B( 16-S , 20-C ) :   1.1164
B( 17-C , 18-C ) :   1.6258 B( 17-C , 33-H ) :   0.9608 B( 18-C , 19-C ) :   1.2172
B( 18-C , 21-H ) :   0.9912 B( 19-C , 20-C ) :   1.6100 B( 19-C , 22-C ) :   1.0511
B( 22-C , 23-H ) :   0.9366 B( 22-C , 24-H ) :   0.9347 B( 22-C , 25-C ) :   1.0448
B( 25-C , 26-H ) :   0.9492 B( 25-C , 27-H ) :   0.9594 B( 25-C , 28-C ) :   1.0895
B( 28-C , 29-H ) :   0.9727 B( 28-C , 30-H ) :   0.9738 B( 28-C , 31-H ) :   0.9688

Dispersion correction           -0.014800707
FINAL SINGLE POINT ENERGY     -1339.870363500613

DIPOLE MOMENT
-------------
                                X             Y             Z
Electronic contribution:      4.47592      30.07421      15.71893
Nuclear contribution   :     -4.43801     -30.71012     -16.31859
                        -----------------------------------------
Total Dipole Moment    :      0.03790      -0.63591      -0.59965
                        -----------------------------------------
Magnitude (a.u.)       :      0.87487
Magnitude (Debye)      :      2.22375

Rotational constants in cm-1:     0.018126     0.009478     0.006602
Rotational constants in MHz :   543.409390   284.131251   197.927441

                             ****ORCA TERMINATED NORMALLY****
TOTAL RUN TIME: 0 days 0 hours 0 minutes 35 seconds 40 msec
