                         Program Version 4.2.1 -  RELEASE  -
|  1> ! wB97X-D3 SP def2-SVP
|  2> %pal
|  3> nprocs 16
|  4> end
|  5>
|  6> * xyz 0 1
|  7> S 	 -50.5454 	 22.9171 	 82.802
|  8> C 	 -50.6569 	 23.3168 	 84.4843
|  9> C 	 -50.1046 	 22.3032 	 85.3024
| 10> C 	 -49.5462 	 21.1833 	 84.5668
| 11> C 	 -49.5921 	 21.398 	 83.1969
| 12> H 	 -49.2296 	 20.2872 	 85.072
| 13> C 	 -50.1376 	 22.3431 	 86.7508
| 14> H 	 -50.5212 	 21.4426 	 87.2926
| 15> H 	 -50.8542 	 23.1179 	 87.058
| 16> C 	 -48.7082 	 22.6277 	 87.4187
| 17> H 	 -48.12 	 21.7241 	 87.1564
| 18> H 	 -48.1141 	 23.3442 	 86.8924
| 19> C 	 -48.6263 	 22.8472 	 88.9528
| 20> H 	 -49.1908 	 21.9808 	 89.3622
| 21> H 	 -47.5481 	 22.753 	 89.3597
| 22> H 	 -49.0965 	 23.7872 	 89.3004
| 23> S 	 -50.2628 	 19.8487 	 81.0915
| 24> C 	 -49.0455 	 19.1249 	 80.0553
| 25> C 	 -47.7845 	 19.3671 	 80.639
| 26> C 	 -47.8105 	 20.1523 	 81.8201
| 27> C 	 -49.1031 	 20.5541 	 82.1385
| 28> H 	 -46.9048 	 18.9635 	 80.18
| 29> C 	 -46.5472 	 20.429 	 82.6687
| 30> H 	 -46.6603 	 21.3642 	 83.2114
| 31> H 	 -45.7499 	 20.7435 	 82.005
| 32> C 	 -46.245 	 19.2869 	 83.6229
| 33> H 	 -45.9409 	 18.2966 	 83.2069
| 34> H 	 -47.1416 	 19.0552 	 84.1633
| 35> C 	 -45.1494 	 19.7604 	 84.5666
| 36> H 	 -45.051 	 19.0205 	 85.2734
| 37> H 	 -45.43 	 20.6318 	 85.2338
| 38> H 	 -44.2503 	 19.9963 	 84.0521
| 39> H 	 -51.078 	 24.1677 	 84.9443
| 40> H 	 -49.2436 	 18.5055 	 79.1129
| 41> *
| 42>
| 43>                          ****END OF INPUT****

CARTESIAN COORDINATES (ANGSTROEM)
---------------------------------
  S    -50.545400   22.917100   82.802000
  C    -50.656900   23.316800   84.484300
  C    -50.104600   22.303200   85.302400
  C    -49.546200   21.183300   84.566800
  C    -49.592100   21.398000   83.196900
  H    -49.229600   20.287200   85.072000
  C    -50.137600   22.343100   86.750800
  H    -50.521200   21.442600   87.292600
  H    -50.854200   23.117900   87.058000
  C    -48.708200   22.627700   87.418700
  H    -48.120000   21.724100   87.156400
  H    -48.114100   23.344200   86.892400
  C    -48.626300   22.847200   88.952800
  H    -49.190800   21.980800   89.362200
  H    -47.548100   22.753000   89.359700
  H    -49.096500   23.787200   89.300400
  S    -50.262800   19.848700   81.091500
  C    -49.045500   19.124900   80.055300
  C    -47.784500   19.367100   80.639000
  C    -47.810500   20.152300   81.820100
  C    -49.103100   20.554100   82.138500
  H    -46.904800   18.963500   80.180000
  C    -46.547200   20.429000   82.668700
  H    -46.660300   21.364200   83.211400
  H    -45.749900   20.743500   82.005000
  C    -46.245000   19.286900   83.622900
  H    -45.940900   18.296600   83.206900
  H    -47.141600   19.055200   84.163300
  C    -45.149400   19.760400   84.566600
  H    -45.051000   19.020500   85.273400
  H    -45.430000   20.631800   85.233800
  H    -44.250300   19.996300   84.052100
  H    -51.078000   24.167700   84.944300
  H    -49.243600   18.505500   79.112900

 Total Charge           Charge          ....    0
 Multiplicity           Mult            ....    1
 Number of Electrons    NEL             ....  134
 Basis Dimension        Dim             ....  322

ORBITAL ENERGIES
----------------

  NO   OCC          E(Eh)            E(eV)
   0   2.0000     -88.969103     -2420.9724
   1   2.0000     -88.964845     -2420.8565
   2   2.0000     -10.336370      -281.2669
   3   2.0000     -10.324823      -280.9527
   4   2.0000     -10.320548      -280.8364
   5   2.0000     -10.315047      -280.6867
   6   2.0000     -10.301957      -280.3305
   7   2.0000     -10.301111      -280.3075
   8   2.0000     -10.300728      -280.2971
   9   2.0000     -10.296339      -280.1776
  10   2.0000     -10.293421      -280.0982
  11   2.0000     -10.292596      -280.0758
  12   2.0000     -10.289876      -280.0018
  13   2.0000     -10.289866      -280.0015
  14   2.0000     -10.286670      -279.9145
  15   2.0000     -10.270914      -279.4858
  16   2.0000      -8.082625      -219.9394
  17   2.0000      -8.079976      -219.8673
  18   2.0000      -6.041210      -164.3897
  19   2.0000      -6.038370      -164.3124
  20   2.0000      -6.037357      -164.2848
  21   2.0000      -6.034263      -164.2006
  22   2.0000      -6.033307      -164.1746
  23   2.0000      -6.030989      -164.1116
  24   2.0000      -1.004398       -27.3310
  25   2.0000      -0.978494       -26.6262
  26   2.0000      -0.912199       -24.8222
  27   2.0000      -0.904635       -24.6164
  28   2.0000      -0.867729       -23.6121
  29   2.0000      -0.851720       -23.1765
  30   2.0000      -0.846463       -23.0334
  31   2.0000      -0.814649       -22.1677
  32   2.0000      -0.779756       -21.2182
  33   2.0000      -0.762651       -20.7528
  34   2.0000      -0.708393       -19.2763
  35   2.0000      -0.701785       -19.0966
  36   2.0000      -0.695354       -18.9215
  37   2.0000      -0.660958       -17.9856
  38   2.0000      -0.641759       -17.4632
  39   2.0000      -0.623064       -16.9544
  40   2.0000      -0.595350       -16.2003
  41   2.0000      -0.569055       -15.4848
  42   2.0000      -0.562416       -15.3041
  43   2.0000      -0.546799       -14.8792
  44   2.0000      -0.536250       -14.5921
  45   2.0000      -0.520435       -14.1618
  46   2.0000      -0.516817       -14.0633
  47   2.0000      -0.510549       -13.8927
  48   2.0000      -0.507181       -13.8011
  49   2.0000      -0.499813       -13.6006
  50   2.0000      -0.496159       -13.5012
  51   2.0000      -0.478109       -13.0100
  52   2.0000      -0.468430       -12.7466
  53   2.0000      -0.462463       -12.5842
  54   2.0000      -0.458148       -12.4668
  55   2.0000      -0.453733       -12.3467
  56   2.0000      -0.440748       -11.9934
  57   2.0000      -0.436087       -11.8665
  58   2.0000      -0.430147       -11.7049
  59   2.0000      -0.428931       -11.6718
  60   2.0000      -0.419485       -11.4148
  61   2.0000      -0.413286       -11.2461
  62   2.0000      -0.410285       -11.1644
  63   2.0000      -0.344663        -9.3788
  64   2.0000      -0.330136        -8.9834
  65   2.0000      -0.323990        -8.8162
  66   2.0000      -0.293246        -7.9796
  67   0.0000       0.029847         0.8122
  68   0.0000       0.059921         1.6305
  69   0.0000       0.109188         2.9712
  70   0.0000       0.120083         3.2676
  71   0.0000       0.125945         3.4271

MULLIKEN ATOMIC CHARGES
-----------------------
   0 S :    0.115549
   1 C :   -0.079454
   2 C :   -0.099624
   3 C :    0.053912
   4 C :   -0.148910
   5 H :    0.022974
   6 C :    0.037483
   7 H :    0.035236
   8 H :    0.014470
   9 C :   -0.093881
  10 H :    0.017326
  11 H :    0.021783
  12 C :   -0.070453
  13 H :    0.030284
  14 H :    0.053822
  15 H :    0.048106
  16 S :    0.119604
  17 C :   -0.133256
  18 C :   -0.035940
  19 C :   -0.016382
  20 C :   -0.188990
  21 H :    0.010012
  22 C :    0.081070
  23 H :    0.021054
  24 H :    0.017832
  25 C :   -0.060117
  26 H :    0.035059
  27 H :    0.014139
  28 C :   -0.012879
  29 H :    0.007896
  30 H :    0.030212
  31 H :    0.031089
  32 H :    0.030816
  33 H :    0.090154
Sum of atomic charges:   -0.0000000

LOEWDIN ATOMIC CHARGES
----------------------
   0 S :    0.385601
   1 C :   -0.194286
   2 C :   -0.065626
   3 C :   -0.047699
   4 C :   -0.167134
   5 H :    0.032977
   6 C :   -0.041170
   7 H :    0.035196
   8 H :    0.027473
   9 C :   -0.047917
  10 H :    0.022928
  11 H :    0.016459
  12 C :   -0.076204
  13 H :    0.026519
  14 H :    0.039713
  15 H :    0.026476
  16 S :    0.427178
  17 C :   -0.205799
  18 C :   -0.071153
  19 C :   -0.053170
  20 C :   -0.223585
  21 H :    0.026760
  22 C :   -0.030461
  23 H :    0.033016
  24 H :    0.029133
  25 C :   -0.035767
  26 H :    0.030054
  27 H :    0.020034
  28 C :   -0.058449
  29 H :    0.013787
  30 H :    0.031643
  31 H :    0.021660
  32 H :    0.022398
  33 H :    0.049415

  Mayer bond orders larger than 0.100000
B(  0-S ,  1-C ) :   1.1361 B(  0-S ,  4-C ) :   1.1251 B(  1-C ,  2-C ) :   1.6101
B(  1-C , 32-H ) :   0.9664 B(  2-C ,  3-C ) :   1.2201 B(  2-C ,  6-C ) :   1.0666
B(  3-C ,  4-C ) :   1.5832 B(  3-C ,  5-H ) :   0.9911 B(  4-C , 20-C ) :   1.0400
B(  6-C ,  7-H ) :   0.9366 B(  6-C ,  8-H ) :   0.9391 B(  6-C ,  9-C ) :   1.0275
B(  9-C , 10-H ) :   0.9550 B(  9-C , 11-H ) :   0.9609 B(  9-C , 12-C ) :   1.0730
B( 12-C , 13-H ) :   0.9729 B( 12-C , 14-H ) :   0.9732 B( 12-C , 15-H ) :   0.9773
B( 16-S , 17-C ) :   1.1623 B( 16-S , 20-C ) :   1.1742 B( 17-C , 18-C ) :   1.5645
B( 17-C , 20-C ) :   0.1089 B( 17-C , 33-H ) :   0.9610 B( 18-C , 19-C ) :   1.2750
B( 18-C , 21-H ) :   0.9935 B( 19-C , 20-C ) :   1.5542 B( 19-C , 22-C ) :   1.0434
B( 22-C , 23-H ) :   0.9324 B( 22-C , 24-H ) :   0.9313 B( 22-C , 25-C ) :   1.0579
B( 25-C , 26-H ) :   0.9526 B( 25-C , 27-H ) :   0.9501 B( 25-C , 28-C ) :   1.0930
B( 28-C , 29-H ) :   0.9692 B( 28-C , 30-H ) :   0.9713 B( 28-C , 31-H ) :   0.9738

Dispersion correction           -0.014425447
FINAL SINGLE POINT ENERGY     -1339.870808392454

DIPOLE MOMENT
-------------
                                X             Y             Z
Electronic contribution:    -19.11566       0.96975     -26.51699
Nuclear contribution   :     19.56835      -1.20366      26.99019
                        -----------------------------------------
Total Dipole Moment    :      0.45269      -0.23392       0.47321
                        -----------------------------------------
Magnitude (a.u.)       :      0.69539
Magnitude (Debye)      :      1.76755

Rotational constants in cm-1:     0.017993     0.009195     0.006562
Rotational constants in MHz :   539.406142   275.652694   196.726852

                             ****ORCA TERMINATED NORMALLY****
TOTAL RUN TIME: 0 days 0 hours 0 minutes 29 seconds 49 msec
