                         Program Version 4.2.1 -  RELEASE  -
|  1> ! wB97X-D3 SP def2-SVP
|  2> %pal
|  3> nprocs 16
|  4> end
|  5>
|  6> * xyz 0 1
|  7> S 	 -26.0198 	 -7.46908 	 90.8465
|  8> C 	 -26.8618 	 -8.81394 	 90.0983
|  9> C 	 -26.3134 	 -9.15067 	 88.8358
| 10> C 	 -25.1858 	 -8.31214 	 88.5167
| 11> C 	 -25.0566 	 -7.31614 	 89.4369
| 12> H 	 -24.6245 	 -8.54229 	 87.6211
| 13> C 	 -26.703 	 -10.4328 	 88.0475
| 14> H 	 -26.5409 	 -10.3298 	 86.9417
| 15> H 	 -27.7562 	 -10.4239 	 88.3088
| 16> C 	 -26.1715 	 -11.7256 	 88.6598
| 17> H 	 -26.4913 	 -11.7513 	 89.7216
| 18> H 	 -26.7386 	 -12.5755 	 88.2338
| 19> C 	 -24.6492 	 -12.0006 	 88.5617
| 20> H 	 -24.2926 	 -11.8498 	 87.5261
| 21> H 	 -23.9756 	 -11.347 	 89.1076
| 22> H 	 -24.3787 	 -13.0066 	 88.9189
| 23> S 	 -22.9132 	 -6.35158 	 90.8992
| 24> C 	 -21.7841 	 -5.35803 	 90.0756
| 25> C 	 -22.2279 	 -4.94711 	 88.8569
| 26> C 	 -23.4432 	 -5.5729 	 88.4585
| 27> C 	 -23.9436 	 -6.40935 	 89.4611
| 28> H 	 -21.6771 	 -4.34395 	 88.1763
| 29> C 	 -24.009 	 -5.28759 	 87.0737
| 30> H 	 -24.0078 	 -4.23641 	 87.019
| 31> H 	 -24.9878 	 -5.64973 	 87.0125
| 32> C 	 -23.3108 	 -5.96935 	 85.9321
| 33> H 	 -23.4964 	 -7.05066 	 86.0023
| 34> H 	 -22.2558 	 -5.8092 	 85.979
| 35> C 	 -23.76 	 -5.48505 	 84.5701
| 36> H 	 -23.1086 	 -5.88418 	 83.8177
| 37> H 	 -23.8135 	 -4.35392 	 84.581
| 38> H 	 -24.828 	 -5.73138 	 84.3457
| 39> H 	 -27.6471 	 -9.42152 	 90.5525
| 40> H 	 -20.8764 	 -4.96914 	 90.4979
| 41> *
| 42>
| 43>                          ****END OF INPUT****

CARTESIAN COORDINATES (ANGSTROEM)
---------------------------------
  S    -26.019800   -7.469080   90.846500
  C    -26.861800   -8.813940   90.098300
  C    -26.313400   -9.150670   88.835800
  C    -25.185800   -8.312140   88.516700
  C    -25.056600   -7.316140   89.436900
  H    -24.624500   -8.542290   87.621100
  C    -26.703000  -10.432800   88.047500
  H    -26.540900  -10.329800   86.941700
  H    -27.756200  -10.423900   88.308800
  C    -26.171500  -11.725600   88.659800
  H    -26.491300  -11.751300   89.721600
  H    -26.738600  -12.575500   88.233800
  C    -24.649200  -12.000600   88.561700
  H    -24.292600  -11.849800   87.526100
  H    -23.975600  -11.347000   89.107600
  H    -24.378700  -13.006600   88.918900
  S    -22.913200   -6.351580   90.899200
  C    -21.784100   -5.358030   90.075600
  C    -22.227900   -4.947110   88.856900
  C    -23.443200   -5.572900   88.458500
  C    -23.943600   -6.409350   89.461100
  H    -21.677100   -4.343950   88.176300
  C    -24.009000   -5.287590   87.073700
  H    -24.007800   -4.236410   87.019000
  H    -24.987800   -5.649730   87.012500
  C    -23.310800   -5.969350   85.932100
  H    -23.496400   -7.050660   86.002300
  H    -22.255800   -5.809200   85.979000
  C    -23.760000   -5.485050   84.570100
  H    -23.108600   -5.884180   83.817700
  H    -23.813500   -4.353920   84.581000
  H    -24.828000   -5.731380   84.345700
  H    -27.647100   -9.421520   90.552500
  H    -20.876400   -4.969140   90.497900

 Total Charge           Charge          ....    0
 Multiplicity           Mult            ....    1
 Number of Electrons    NEL             ....  134
 Basis Dimension        Dim             ....  322

ORBITAL ENERGIES
----------------

  NO   OCC          E(Eh)            E(eV)
   0   2.0000     -88.971273     -2421.0314
   1   2.0000     -88.963887     -2420.8304
   2   2.0000     -10.323359      -280.9129
   3   2.0000     -10.321465      -280.8613
   4   2.0000     -10.315705      -280.7046
   5   2.0000     -10.310007      -280.5495
   6   2.0000     -10.304124      -280.3895
   7   2.0000     -10.299030      -280.2508
   8   2.0000     -10.297672      -280.2139
   9   2.0000     -10.293248      -280.0935
  10   2.0000     -10.292873      -280.0833
  11   2.0000     -10.284753      -279.8624
  12   2.0000     -10.282096      -279.7901
  13   2.0000     -10.281375      -279.7704
  14   2.0000     -10.279632      -279.7230
  15   2.0000     -10.279605      -279.7223
  16   2.0000      -8.086371      -220.0414
  17   2.0000      -8.079073      -219.8428
  18   2.0000      -6.044817      -164.4878
  19   2.0000      -6.040941      -164.3824
  20   2.0000      -6.037598      -164.2914
  21   2.0000      -6.037064      -164.2769
  22   2.0000      -6.033530      -164.1807
  23   2.0000      -6.029788      -164.0789
  24   2.0000      -1.010921       -27.5085
  25   2.0000      -0.984874       -26.7998
  26   2.0000      -0.917898       -24.9773
  27   2.0000      -0.909316       -24.7437
  28   2.0000      -0.866486       -23.5783
  29   2.0000      -0.854994       -23.2656
  30   2.0000      -0.846440       -23.0328
  31   2.0000      -0.812637       -22.1130
  32   2.0000      -0.786385       -21.3986
  33   2.0000      -0.770605       -20.9692
  34   2.0000      -0.702922       -19.1275
  35   2.0000      -0.701454       -19.0875
  36   2.0000      -0.694379       -18.8950
  37   2.0000      -0.662968       -18.0403
  38   2.0000      -0.634168       -17.2566
  39   2.0000      -0.620870       -16.8947
  40   2.0000      -0.600962       -16.3530
  41   2.0000      -0.571469       -15.5505
  42   2.0000      -0.568716       -15.4756
  43   2.0000      -0.543501       -14.7894
  44   2.0000      -0.540206       -14.6998
  45   2.0000      -0.532184       -14.4815
  46   2.0000      -0.515288       -14.0217
  47   2.0000      -0.510944       -13.9035
  48   2.0000      -0.506319       -13.7776
  49   2.0000      -0.495382       -13.4800
  50   2.0000      -0.488938       -13.3047
  51   2.0000      -0.475441       -12.9374
  52   2.0000      -0.470659       -12.8073
  53   2.0000      -0.469786       -12.7835
  54   2.0000      -0.456698       -12.4274
  55   2.0000      -0.453537       -12.3414
  56   2.0000      -0.445754       -12.1296
  57   2.0000      -0.442660       -12.0454
  58   2.0000      -0.435844       -11.8599
  59   2.0000      -0.425508       -11.5787
  60   2.0000      -0.418971       -11.4008
  61   2.0000      -0.416857       -11.3433
  62   2.0000      -0.411596       -11.2001
  63   2.0000      -0.347930        -9.4677
  64   2.0000      -0.332322        -9.0429
  65   2.0000      -0.330291        -8.9877
  66   2.0000      -0.286770        -7.8034
  67   0.0000       0.031809         0.8656
  68   0.0000       0.070691         1.9236
  69   0.0000       0.105323         2.8660
  70   0.0000       0.124260         3.3813
  71   0.0000       0.132082         3.5941

MULLIKEN ATOMIC CHARGES
-----------------------
   0 S :    0.122596
   1 C :   -0.134116
   2 C :   -0.118440
   3 C :    0.027836
   4 C :   -0.131800
   5 H :    0.010016
   6 C :    0.049115
   7 H :    0.043815
   8 H :    0.028000
   9 C :   -0.060255
  10 H :    0.022750
  11 H :    0.034769
  12 C :   -0.057308
  13 H :    0.022864
  14 H :    0.035756
  15 H :    0.037298
  16 S :    0.109569
  17 C :   -0.073213
  18 C :   -0.018187
  19 C :   -0.061002
  20 C :   -0.154750
  21 H :    0.002295
  22 C :    0.124791
  23 H :    0.014994
  24 H :    0.002481
  25 C :   -0.071878
  26 H :    0.027152
  27 H :    0.016925
  28 C :   -0.047884
  29 H :    0.041378
  30 H :    0.028078
  31 H :    0.029210
  32 H :    0.048951
  33 H :    0.048193
Sum of atomic charges:   -0.0000000

LOEWDIN ATOMIC CHARGES
----------------------
   0 S :    0.425940
   1 C :   -0.210040
   2 C :   -0.055020
   3 C :   -0.060424
   4 C :   -0.202415
   5 H :    0.032114
   6 C :   -0.037329
   7 H :    0.033954
   8 H :    0.036816
   9 C :   -0.043806
  10 H :    0.026346
  11 H :    0.027897
  12 C :   -0.074136
  13 H :    0.024356
  14 H :    0.025743
  15 H :    0.029743
  16 S :    0.404478
  17 C :   -0.190467
  18 C :   -0.069901
  19 C :   -0.049999
  20 C :   -0.196981
  21 H :    0.024518
  22 C :   -0.021795
  23 H :    0.026232
  24 H :    0.023668
  25 C :   -0.039585
  26 H :    0.024712
  27 H :    0.017308
  28 C :   -0.066578
  29 H :    0.024970
  30 H :    0.029182
  31 H :    0.026704
  32 H :    0.026513
  33 H :    0.027281

  Mayer bond orders larger than 0.100000
B(  0-S ,  1-C ) :   1.1355 B(  0-S ,  4-C ) :   1.1598 B(  1-C ,  2-C ) :   1.6017
B(  1-C , 32-H ) :   0.9649 B(  2-C ,  3-C ) :   1.2573 B(  2-C ,  6-C ) :   1.0113
B(  3-C ,  4-C ) :   1.5444 B(  3-C ,  5-H ) :   0.9958 B(  4-C , 20-C ) :   1.0430
B(  6-C ,  7-H ) :   0.9471 B(  6-C ,  8-H ) :   0.9303 B(  6-C ,  9-C ) :   1.0828
B(  9-C , 10-H ) :   0.9502 B(  9-C , 11-H ) :   0.9543 B(  9-C , 12-C ) :   1.0681
B( 12-C , 13-H ) :   0.9756 B( 12-C , 14-H ) :   0.9756 B( 12-C , 15-H ) :   0.9745
B( 16-S , 17-C ) :   1.1554 B( 16-S , 20-C ) :   1.1290 B( 17-C , 18-C ) :   1.6065
B( 17-C , 33-H ) :   0.9666 B( 18-C , 19-C ) :   1.2477 B( 18-C , 21-H ) :   0.9917
B( 19-C , 20-C ) :   1.6050 B( 19-C , 22-C ) :   1.0464 B( 22-C , 23-H ) :   0.9308
B( 22-C , 24-H ) :   0.9210 B( 22-C , 25-C ) :   1.0763 B( 25-C , 26-H ) :   0.9464
B( 25-C , 27-H ) :   0.9545 B( 25-C , 28-C ) :   1.0897 B( 28-C , 29-H ) :   0.9734
B( 28-C , 30-H ) :   0.9726 B( 28-C , 31-H ) :   0.9720

Dispersion correction           -0.014441607
FINAL SINGLE POINT ENERGY     -1339.882007806664

DIPOLE MOMENT
-------------
                                X             Y             Z
Electronic contribution:      0.32197      11.55256      24.10661
Nuclear contribution   :     -0.23987     -11.82299     -24.63462
                        -----------------------------------------
Total Dipole Moment    :      0.08209      -0.27043      -0.52801
                        -----------------------------------------
Magnitude (a.u.)       :      0.59889
Magnitude (Debye)      :      1.52225

Rotational constants in cm-1:     0.016759     0.009309     0.007220
Rotational constants in MHz :   502.428596   279.067452   216.454970

                             ****ORCA TERMINATED NORMALLY****
TOTAL RUN TIME: 0 days 0 hours 0 minutes 31 seconds 278 msec
