                         Program Version 4.2.1 -  RELEASE  -
|  1> ! wB97X-D3 SP def2-SVP
|  2> %pal
|  3> nprocs 16
|  4> end
|  5>
|  6> * xyz 0 1
|  7> S 	 50.8928 	 8.90298 	 101.578
|  8> C 	 51.596 	 10.0626 	 102.647
|  9> C 	 52.4578 	 10.9091 	 102.006
| 10> C 	 52.6387 	 10.5465 	 100.658
| 11> C 	 51.9327 	 9.3859 	 100.316
| 12> H 	 53.2732 	 10.9489 	 99.8991
| 13> C 	 53.269 	 11.9643 	 102.805
| 14> H 	 54.2621 	 11.5138 	 102.98
| 15> H 	 52.7993 	 12.0203 	 103.838
| 16> C 	 53.3104 	 13.3967 	 102.288
| 17> H 	 53.4542 	 13.4313 	 101.283
| 18> H 	 52.359 	 13.8011 	 102.447
| 19> C 	 54.2926 	 14.2987 	 102.946
| 20> H 	 55.2095 	 13.8071 	 102.736
| 21> H 	 54.4128 	 15.2477 	 102.512
| 22> H 	 53.9592 	 14.3794 	 103.994
| 23> S 	 53.0346 	 7.50661 	 98.6208
| 24> C 	 52.23 	 7.20028 	 97.126
| 25> C 	 51.0955 	 7.96434 	 96.8553
| 26> C 	 51.0186 	 8.94793 	 97.899
| 27> C 	 51.9645 	 8.8321 	 98.9533
| 28> H 	 50.4892 	 7.83904 	 95.9304
| 29> C 	 50.0619 	 10.0926 	 97.7698
| 30> H 	 50.0539 	 10.4595 	 96.7202
| 31> H 	 50.5038 	 10.929 	 98.3204
| 32> C 	 48.5471 	 9.79374 	 98.086
| 33> H 	 48.1585 	 9.09421 	 97.4334
| 34> H 	 47.9589 	 10.6961 	 97.9149
| 35> C 	 48.2508 	 9.36796 	 99.498
| 36> H 	 48.7353 	 8.40413 	 99.6664
| 37> H 	 47.1922 	 9.2618 	 99.6381
| 38> H 	 48.6453 	 10.082 	 100.217
| 39> H 	 51.3201 	 10.1477 	 103.682
| 40> H 	 52.5533 	 6.48482 	 96.4295
| 41> *
| 42>
| 43>                          ****END OF INPUT****

CARTESIAN COORDINATES (ANGSTROEM)
---------------------------------
  S     50.892800    8.902980  101.578000
  C     51.596000   10.062600  102.647000
  C     52.457800   10.909100  102.006000
  C     52.638700   10.546500  100.658000
  C     51.932700    9.385900  100.316000
  H     53.273200   10.948900   99.899100
  C     53.269000   11.964300  102.805000
  H     54.262100   11.513800  102.980000
  H     52.799300   12.020300  103.838000
  C     53.310400   13.396700  102.288000
  H     53.454200   13.431300  101.283000
  H     52.359000   13.801100  102.447000
  C     54.292600   14.298700  102.946000
  H     55.209500   13.807100  102.736000
  H     54.412800   15.247700  102.512000
  H     53.959200   14.379400  103.994000
  S     53.034600    7.506610   98.620800
  C     52.230000    7.200280   97.126000
  C     51.095500    7.964340   96.855300
  C     51.018600    8.947930   97.899000
  C     51.964500    8.832100   98.953300
  H     50.489200    7.839040   95.930400
  C     50.061900   10.092600   97.769800
  H     50.053900   10.459500   96.720200
  H     50.503800   10.929000   98.320400
  C     48.547100    9.793740   98.086000
  H     48.158500    9.094210   97.433400
  H     47.958900   10.696100   97.914900
  C     48.250800    9.367960   99.498000
  H     48.735300    8.404130   99.666400
  H     47.192200    9.261800   99.638100
  H     48.645300   10.082000  100.217000
  H     51.320100   10.147700  103.682000
  H     52.553300    6.484820   96.429500

 Total Charge           Charge          ....    0
 Multiplicity           Mult            ....    1
 Number of Electrons    NEL             ....  134
 Basis Dimension        Dim             ....  322

ORBITAL ENERGIES
----------------

  NO   OCC          E(Eh)            E(eV)
   0   2.0000     -88.967416     -2420.9265
   1   2.0000     -88.966902     -2420.9125
   2   2.0000     -10.323542      -280.9179
   3   2.0000     -10.322337      -280.8851
   4   2.0000     -10.313720      -280.6506
   5   2.0000     -10.308207      -280.5006
   6   2.0000     -10.304948      -280.4119
   7   2.0000     -10.299133      -280.2537
   8   2.0000     -10.298782      -280.2441
   9   2.0000     -10.298335      -280.2319
  10   2.0000     -10.290292      -280.0131
  11   2.0000     -10.287117      -279.9267
  12   2.0000     -10.275219      -279.6029
  13   2.0000     -10.269028      -279.4344
  14   2.0000     -10.267620      -279.3961
  15   2.0000     -10.263104      -279.2733
  16   2.0000      -8.082613      -219.9391
  17   2.0000      -8.082170      -219.9270
  18   2.0000      -6.040895      -164.3811
  19   2.0000      -6.040476      -164.3697
  20   2.0000      -6.036943      -164.2736
  21   2.0000      -6.036534      -164.2624
  22   2.0000      -6.033663      -164.1843
  23   2.0000      -6.033199      -164.1717
  24   2.0000      -1.009817       -27.4785
  25   2.0000      -0.987841       -26.8805
  26   2.0000      -0.916887       -24.9498
  27   2.0000      -0.903626       -24.5889
  28   2.0000      -0.871955       -23.7271
  29   2.0000      -0.853695       -23.2302
  30   2.0000      -0.850041       -23.1308
  31   2.0000      -0.814648       -22.1677
  32   2.0000      -0.783554       -21.3216
  33   2.0000      -0.765712       -20.8361
  34   2.0000      -0.707739       -19.2586
  35   2.0000      -0.698133       -18.9972
  36   2.0000      -0.688472       -18.7343
  37   2.0000      -0.656435       -17.8625
  38   2.0000      -0.646151       -17.5827
  39   2.0000      -0.616213       -16.7680
  40   2.0000      -0.592939       -16.1347
  41   2.0000      -0.578190       -15.7333
  42   2.0000      -0.572153       -15.5691
  43   2.0000      -0.543970       -14.8022
  44   2.0000      -0.542835       -14.7713
  45   2.0000      -0.527388       -14.3510
  46   2.0000      -0.518854       -14.1187
  47   2.0000      -0.510887       -13.9019
  48   2.0000      -0.504972       -13.7410
  49   2.0000      -0.496907       -13.5215
  50   2.0000      -0.493850       -13.4383
  51   2.0000      -0.483856       -13.1664
  52   2.0000      -0.469446       -12.7743
  53   2.0000      -0.464446       -12.6382
  54   2.0000      -0.455412       -12.3924
  55   2.0000      -0.451255       -12.2793
  56   2.0000      -0.443687       -12.0733
  57   2.0000      -0.431659       -11.7460
  58   2.0000      -0.427621       -11.6362
  59   2.0000      -0.422238       -11.4897
  60   2.0000      -0.420245       -11.4354
  61   2.0000      -0.418183       -11.3793
  62   2.0000      -0.409999       -11.1566
  63   2.0000      -0.336055        -9.1445
  64   2.0000      -0.331267        -9.0142
  65   2.0000      -0.316012        -8.5991
  66   2.0000      -0.307753        -8.3744
  67   0.0000       0.047566         1.2943
  68   0.0000       0.052028         1.4157
  69   0.0000       0.111324         3.0293
  70   0.0000       0.125465         3.4141
  71   0.0000       0.130892         3.5617

MULLIKEN ATOMIC CHARGES
-----------------------
   0 S :    0.140367
   1 C :   -0.135611
   2 C :   -0.031879
   3 C :    0.027075
   4 C :   -0.160128
   5 H :    0.006006
   6 C :    0.026352
   7 H :    0.043459
   8 H :    0.017711
   9 C :   -0.026225
  10 H :   -0.000881
  11 H :    0.008503
  12 C :   -0.009136
  13 H :    0.016054
  14 H :    0.021698
  15 H :    0.035573
  16 S :    0.127628
  17 C :   -0.078388
  18 C :   -0.037398
  19 C :   -0.052608
  20 C :   -0.191082
  21 H :    0.044259
  22 C :    0.044235
  23 H :    0.027636
  24 H :    0.023277
  25 C :   -0.040098
  26 H :    0.006029
  27 H :    0.021007
  28 C :   -0.043369
  29 H :    0.030778
  30 H :    0.026660
  31 H :    0.034479
  32 H :    0.041995
  33 H :    0.036022
Sum of atomic charges:    0.0000000

LOEWDIN ATOMIC CHARGES
----------------------
   0 S :    0.463266
   1 C :   -0.202010
   2 C :   -0.067206
   3 C :   -0.057481
   4 C :   -0.218927
   5 H :    0.028676
   6 C :   -0.026781
   7 H :    0.031980
   8 H :    0.032650
   9 C :   -0.038372
  10 H :    0.008505
  11 H :    0.018177
  12 C :   -0.052276
  13 H :    0.022464
  14 H :    0.021251
  15 H :    0.030345
  16 S :    0.431796
  17 C :   -0.179028
  18 C :   -0.074926
  19 C :   -0.050058
  20 C :   -0.227258
  21 H :    0.044793
  22 C :   -0.037227
  23 H :    0.035328
  24 H :    0.029954
  25 C :   -0.033608
  26 H :    0.010995
  27 H :    0.023995
  28 C :   -0.066662
  29 H :    0.016960
  30 H :    0.022790
  31 H :    0.017880
  32 H :    0.024695
  33 H :    0.015321

  Mayer bond orders larger than 0.100000
B(  0-S ,  1-C ) :   1.1619 B(  0-S ,  4-C ) :   1.1791 B(  1-C ,  2-C ) :   1.5883
B(  1-C , 32-H ) :   0.9699 B(  2-C ,  3-C ) :   1.2496 B(  2-C ,  6-C ) :   1.0129
B(  3-C ,  4-C ) :   1.5472 B(  3-C ,  5-H ) :   1.0039 B(  4-C , 20-C ) :   1.0192
B(  6-C ,  7-H ) :   0.9475 B(  6-C ,  8-H ) :   0.9410 B(  6-C ,  9-C ) :   1.0548
B(  9-C , 10-H ) :   0.9555 B(  9-C , 11-H ) :   0.9495 B(  9-C , 12-C ) :   1.0919
B( 12-C , 13-H ) :   0.9753 B( 12-C , 14-H ) :   0.9701 B( 12-C , 15-H ) :   0.9758
B( 16-S , 17-C ) :   1.1932 B( 16-S , 20-C ) :   1.1432 B( 17-C , 18-C ) :   1.5803
B( 17-C , 33-H ) :   0.9684 B( 18-C , 19-C ) :   1.2564 B( 18-C , 21-H ) :   0.9863
B( 19-C , 20-C ) :   1.5693 B( 19-C , 22-C ) :   1.0434 B( 22-C , 23-H ) :   0.9383
B( 22-C , 24-H ) :   0.9417 B( 22-C , 25-C ) :   1.0632 B( 25-C , 26-H ) :   0.9551
B( 25-C , 27-H ) :   0.9534 B( 25-C , 28-C ) :   1.0885 B( 28-C , 29-H ) :   0.9723
B( 28-C , 30-H ) :   0.9694 B( 28-C , 31-H ) :   0.9718

Dispersion correction           -0.014988752
FINAL SINGLE POINT ENERGY     -1339.865985941971

DIPOLE MOMENT
-------------
                                X             Y             Z
Electronic contribution:      4.70118     -21.36080      -4.76002
Nuclear contribution   :     -4.81457      21.75442       4.59472
                        -----------------------------------------
Total Dipole Moment    :     -0.11339       0.39362      -0.16530
                        -----------------------------------------
Magnitude (a.u.)       :      0.44172
Magnitude (Debye)      :      1.12276

Rotational constants in cm-1:     0.021008     0.007832     0.007110
Rotational constants in MHz :   629.816500   234.799827   213.153780

                             ****ORCA TERMINATED NORMALLY****
TOTAL RUN TIME: 0 days 0 hours 0 minutes 30 seconds 116 msec
