                         Program Version 4.2.1 -  RELEASE  -
|  1> ! wB97X-D3 SP def2-SVP
|  2> %pal
|  3> nprocs 16
|  4> end
|  5>
|  6> * xyz 0 1
|  7> S 	 -3.7449 	 27.3915 	 56.2513
|  8> C 	 -3.21431 	 25.8009 	 55.6494
|  9> C 	 -3.62826 	 25.5865 	 54.37
| 10> C 	 -4.33474 	 26.7187 	 53.8237
| 11> C 	 -4.39991 	 27.783 	 54.6908
| 12> H 	 -4.80807 	 26.8161 	 52.8322
| 13> C 	 -3.4413 	 24.335 	 53.5976
| 14> H 	 -4.2415 	 24.2203 	 52.8633
| 15> H 	 -3.38875 	 23.3919 	 54.2075
| 16> C 	 -2.29432 	 24.4243 	 52.6873
| 17> H 	 -2.41609 	 23.7174 	 51.8596
| 18> H 	 -2.27347 	 25.3938 	 52.1129
| 19> C 	 -0.984464 	 24.133 	 53.3926
| 20> H 	 -0.807988 	 25.0358 	 54.0192
| 21> H 	 -1.04518 	 23.202 	 53.9365
| 22> H 	 -0.252279 	 24.0722 	 52.5962
| 23> S 	 -3.67007 	 30.0331 	 53.4224
| 24> C 	 -4.77468 	 31.3989 	 53.483
| 25> C 	 -5.95853 	 31.0662 	 54.1854
| 26> C 	 -5.99503 	 29.7292 	 54.7688
| 27> C 	 -4.83589 	 29.1018 	 54.3913
| 28> H 	 -6.83238 	 31.6682 	 54.3338
| 29> C 	 -7.19643 	 29.0853 	 55.4498
| 30> H 	 -7.45232 	 29.3952 	 56.4653
| 31> H 	 -6.97051 	 28.0421 	 55.5917
| 32> C 	 -8.47762 	 29.2183 	 54.6328
| 33> H 	 -8.85077 	 30.2561 	 54.5986
| 34> H 	 -9.31546 	 28.5993 	 54.9962
| 35> C 	 -8.20928 	 28.7416 	 53.2072
| 36> H 	 -9.21353 	 28.6116 	 52.7756
| 37> H 	 -7.72169 	 27.7502 	 53.3225
| 38> H 	 -7.66162 	 29.5209 	 52.6794
| 39> H 	 -2.71413 	 24.9581 	 56.1188
| 40> H 	 -4.57261 	 32.3191 	 53.1028
| 41> *
| 42>
| 43>                          ****END OF INPUT****

CARTESIAN COORDINATES (ANGSTROEM)
---------------------------------
  S     -3.744900   27.391500   56.251300
  C     -3.214310   25.800900   55.649400
  C     -3.628260   25.586500   54.370000
  C     -4.334740   26.718700   53.823700
  C     -4.399910   27.783000   54.690800
  H     -4.808070   26.816100   52.832200
  C     -3.441300   24.335000   53.597600
  H     -4.241500   24.220300   52.863300
  H     -3.388750   23.391900   54.207500
  C     -2.294320   24.424300   52.687300
  H     -2.416090   23.717400   51.859600
  H     -2.273470   25.393800   52.112900
  C     -0.984464   24.133000   53.392600
  H     -0.807988   25.035800   54.019200
  H     -1.045180   23.202000   53.936500
  H     -0.252279   24.072200   52.596200
  S     -3.670070   30.033100   53.422400
  C     -4.774680   31.398900   53.483000
  C     -5.958530   31.066200   54.185400
  C     -5.995030   29.729200   54.768800
  C     -4.835890   29.101800   54.391300
  H     -6.832380   31.668200   54.333800
  C     -7.196430   29.085300   55.449800
  H     -7.452320   29.395200   56.465300
  H     -6.970510   28.042100   55.591700
  C     -8.477620   29.218300   54.632800
  H     -8.850770   30.256100   54.598600
  H     -9.315460   28.599300   54.996200
  C     -8.209280   28.741600   53.207200
  H     -9.213530   28.611600   52.775600
  H     -7.721690   27.750200   53.322500
  H     -7.661620   29.520900   52.679400
  H     -2.714130   24.958100   56.118800
  H     -4.572610   32.319100   53.102800

 Total Charge           Charge          ....    0
 Multiplicity           Mult            ....    1
 Number of Electrons    NEL             ....  134
 Basis Dimension        Dim             ....  322

ORBITAL ENERGIES
----------------

  NO   OCC          E(Eh)            E(eV)
   0   2.0000     -88.969776     -2420.9907
   1   2.0000     -88.965894     -2420.8851
   2   2.0000     -10.323003      -280.9032
   3   2.0000     -10.320879      -280.8454
   4   2.0000     -10.319037      -280.7953
   5   2.0000     -10.311058      -280.5782
   6   2.0000     -10.306736      -280.4605
   7   2.0000     -10.300184      -280.2823
   8   2.0000     -10.296507      -280.1822
   9   2.0000     -10.293848      -280.1098
  10   2.0000     -10.292843      -280.0825
  11   2.0000     -10.286919      -279.9213
  12   2.0000     -10.285884      -279.8931
  13   2.0000     -10.279732      -279.7257
  14   2.0000     -10.273279      -279.5501
  15   2.0000     -10.272705      -279.5345
  16   2.0000      -8.083909      -219.9743
  17   2.0000      -8.080148      -219.8720
  18   2.0000      -6.042427      -164.4228
  19   2.0000      -6.038785      -164.3237
  20   2.0000      -6.038611      -164.3189
  21   2.0000      -6.034763      -164.2142
  22   2.0000      -6.034575      -164.2091
  23   2.0000      -6.030746      -164.1049
  24   2.0000      -1.007684       -27.4205
  25   2.0000      -0.980565       -26.6825
  26   2.0000      -0.925688       -25.1893
  27   2.0000      -0.915286       -24.9062
  28   2.0000      -0.871060       -23.7027
  29   2.0000      -0.847913       -23.0729
  30   2.0000      -0.844132       -22.9700
  31   2.0000      -0.808424       -21.9983
  32   2.0000      -0.786836       -21.4109
  33   2.0000      -0.778485       -21.1837
  34   2.0000      -0.708338       -19.2749
  35   2.0000      -0.694526       -18.8990
  36   2.0000      -0.686123       -18.6704
  37   2.0000      -0.664235       -18.0748
  38   2.0000      -0.636707       -17.3257
  39   2.0000      -0.615724       -16.7547
  40   2.0000      -0.606335       -16.4992
  41   2.0000      -0.572615       -15.5817
  42   2.0000      -0.554964       -15.1013
  43   2.0000      -0.554037       -15.0761
  44   2.0000      -0.551237       -14.9999
  45   2.0000      -0.537558       -14.6277
  46   2.0000      -0.521744       -14.1974
  47   2.0000      -0.517356       -14.0780
  48   2.0000      -0.500441       -13.6177
  49   2.0000      -0.493294       -13.4232
  50   2.0000      -0.490266       -13.3408
  51   2.0000      -0.476974       -12.9791
  52   2.0000      -0.467045       -12.7089
  53   2.0000      -0.463026       -12.5996
  54   2.0000      -0.459343       -12.4993
  55   2.0000      -0.447582       -12.1793
  56   2.0000      -0.443313       -12.0632
  57   2.0000      -0.437580       -11.9072
  58   2.0000      -0.431245       -11.7348
  59   2.0000      -0.421625       -11.4730
  60   2.0000      -0.419489       -11.4149
  61   2.0000      -0.417557       -11.3623
  62   2.0000      -0.403351       -10.9757
  63   2.0000      -0.336492        -9.1564
  64   2.0000      -0.328364        -8.9352
  65   2.0000      -0.326384        -8.8814
  66   2.0000      -0.305946        -8.3252
  67   0.0000       0.041737         1.1357
  68   0.0000       0.056387         1.5344
  69   0.0000       0.102269         2.7829
  70   0.0000       0.111512         3.0344
  71   0.0000       0.123220         3.3530

MULLIKEN ATOMIC CHARGES
-----------------------
   0 S :    0.124462
   1 C :   -0.108544
   2 C :   -0.086807
   3 C :    0.025405
   4 C :   -0.187460
   5 H :    0.024031
   6 C :    0.078666
   7 H :    0.017091
   8 H :    0.033921
   9 C :   -0.120525
  10 H :    0.017364
  11 H :    0.032808
  12 C :   -0.028961
  13 H :    0.046830
  14 H :    0.027128
  15 H :    0.030666
  16 S :    0.130461
  17 C :   -0.043415
  18 C :   -0.020003
  19 C :   -0.027877
  20 C :   -0.203092
  21 H :    0.005814
  22 C :    0.117184
  23 H :    0.034844
  24 H :    0.022520
  25 C :   -0.140592
  26 H :    0.031721
  27 H :    0.035461
  28 C :   -0.042416
  29 H :    0.031036
  30 H :    0.035767
  31 H :    0.049156
  32 H :    0.036335
  33 H :    0.021024
Sum of atomic charges:   -0.0000000

LOEWDIN ATOMIC CHARGES
----------------------
   0 S :    0.399190
   1 C :   -0.196896
   2 C :   -0.062126
   3 C :   -0.064852
   4 C :   -0.205371
   5 H :    0.036676
   6 C :   -0.039365
   7 H :    0.035372
   8 H :    0.034396
   9 C :   -0.049589
  10 H :    0.017159
  11 H :    0.030040
  12 C :   -0.063685
  13 H :    0.032824
  14 H :    0.020865
  15 H :    0.025141
  16 S :    0.403345
  17 C :   -0.167857
  18 C :   -0.058780
  19 C :   -0.046897
  20 C :   -0.190902
  21 H :    0.023573
  22 C :   -0.031479
  23 H :    0.034231
  24 H :    0.029408
  25 C :   -0.046382
  26 H :    0.020077
  27 H :    0.027513
  28 C :   -0.065961
  29 H :    0.025187
  30 H :    0.029009
  31 H :    0.026775
  32 H :    0.031981
  33 H :    0.007381

  Mayer bond orders larger than 0.100000
B(  0-S ,  1-C ) :   1.1093 B(  0-S ,  4-C ) :   1.1369 B(  1-C ,  2-C ) :   1.6604
B(  1-C , 32-H ) :   0.9593 B(  2-C ,  3-C ) :   1.1999 B(  2-C ,  6-C ) :   1.0373
B(  3-C ,  4-C ) :   1.6110 B(  3-C ,  5-H ) :   0.9894 B(  4-C , 20-C ) :   1.0249
B(  6-C ,  7-H ) :   0.9283 B(  6-C ,  8-H ) :   0.9436 B(  6-C ,  9-C ) :   1.0750
B(  9-C , 10-H ) :   0.9550 B(  9-C , 11-H ) :   0.9483 B(  9-C , 12-C ) :   1.0790
B( 12-C , 13-H ) :   0.9730 B( 12-C , 14-H ) :   0.9739 B( 12-C , 15-H ) :   0.9733
B( 16-S , 17-C ) :   1.1359 B( 16-S , 20-C ) :   1.1447 B( 17-C , 18-C ) :   1.6061
B( 17-C , 33-H ) :   0.9849 B( 18-C , 19-C ) :   1.2201 B( 18-C , 21-H ) :   0.9820
B( 19-C , 20-C ) :   1.6250 B( 19-C , 22-C ) :   1.0361 B( 22-C , 23-H ) :   0.9319
B( 22-C , 24-H ) :   0.9274 B( 22-C , 25-C ) :   1.0729 B( 25-C , 26-H ) :   0.9528
B( 25-C , 27-H ) :   0.9590 B( 25-C , 28-C ) :   1.0768 B( 28-C , 29-H ) :   0.9742
B( 28-C , 30-H ) :   0.9750 B( 28-C , 31-H ) :   0.9670

Dispersion correction           -0.015478142
FINAL SINGLE POINT ENERGY     -1339.869888113526

DIPOLE MOMENT
-------------
                                X             Y             Z
Electronic contribution:      7.53268      13.77339       8.37983
Nuclear contribution   :     -7.93351     -13.99695      -8.65813
                        -----------------------------------------
Total Dipole Moment    :     -0.40083      -0.22357      -0.27830
                        -----------------------------------------
Magnitude (a.u.)       :      0.53675
Magnitude (Debye)      :      1.36431

Rotational constants in cm-1:     0.022970     0.008076     0.007494
Rotational constants in MHz :   688.630779   242.126155   224.660989

                             ****ORCA TERMINATED NORMALLY****
TOTAL RUN TIME: 0 days 0 hours 0 minutes 36 seconds 519 msec
