                         Program Version 4.2.1 -  RELEASE  -
|  1> ! wB97X-D3 SP def2-SVP
|  2> %pal
|  3> nprocs 16
|  4> end
|  5>
|  6> * xyz 0 1
|  7> S 	 -2.12561 	 -6.86927 	 86.2503
|  8> C 	 -1.53263 	 -8.44031 	 86.8505
|  9> C 	 -2.36158 	 -8.86302 	 87.9173
| 10> C 	 -3.5701 	 -8.09175 	 87.9618
| 11> C 	 -3.67347 	 -7.02218 	 87.1094
| 12> H 	 -4.27987 	 -8.20093 	 88.6857
| 13> C 	 -2.04923 	 -10.0643 	 88.7849
| 14> H 	 -2.55141 	 -9.83409 	 89.7533
| 15> H 	 -0.967553 	 -10.0652 	 88.8571
| 16> C 	 -2.5274 	 -11.5305 	 88.3121
| 17> H 	 -3.61526 	 -11.62 	 88.2167
| 18> H 	 -2.03759 	 -11.9474 	 87.3705
| 19> C 	 -2.20837 	 -12.5778 	 89.3789
| 20> H 	 -2.64466 	 -13.5166 	 89.068
| 21> H 	 -1.16702 	 -12.7889 	 89.5311
| 22> H 	 -2.62502 	 -12.318 	 90.2792
| 23> S 	 -5.87676 	 -5.98194 	 85.8251
| 24> C 	 -6.95412 	 -4.95284 	 86.8261
| 25> C 	 -6.39566 	 -4.65069 	 88.0229
| 26> C 	 -5.17129 	 -5.37847 	 88.2629
| 27> C 	 -4.74082 	 -6.05174 	 87.1297
| 28> H 	 -6.8667 	 -4.05407 	 88.789
| 29> C 	 -4.40359 	 -5.35622 	 89.6282
| 30> H 	 -4.31951 	 -4.36576 	 90.0733
| 31> H 	 -3.3985 	 -5.65465 	 89.6776
| 32> C 	 -5.12101 	 -6.23152 	 90.7146
| 33> H 	 -5.43688 	 -7.16081 	 90.2629
| 34> H 	 -6.02474 	 -5.6538 	 90.9533
| 35> C 	 -4.33019 	 -6.48572 	 92.0406
| 36> H 	 -3.40055 	 -6.85503 	 91.7792
| 37> H 	 -4.86869 	 -7.19718 	 92.6347
| 38> H 	 -4.188 	 -5.64011 	 92.6814
| 39> H 	 -0.615321 	 -8.95614 	 86.5762
| 40> H 	 -7.99739 	 -4.69695 	 86.6001
| 41> *
| 42>
| 43>                          ****END OF INPUT****

CARTESIAN COORDINATES (ANGSTROEM)
---------------------------------
  S     -2.125610   -6.869270   86.250300
  C     -1.532630   -8.440310   86.850500
  C     -2.361580   -8.863020   87.917300
  C     -3.570100   -8.091750   87.961800
  C     -3.673470   -7.022180   87.109400
  H     -4.279870   -8.200930   88.685700
  C     -2.049230  -10.064300   88.784900
  H     -2.551410   -9.834090   89.753300
  H     -0.967553  -10.065200   88.857100
  C     -2.527400  -11.530500   88.312100
  H     -3.615260  -11.620000   88.216700
  H     -2.037590  -11.947400   87.370500
  C     -2.208370  -12.577800   89.378900
  H     -2.644660  -13.516600   89.068000
  H     -1.167020  -12.788900   89.531100
  H     -2.625020  -12.318000   90.279200
  S     -5.876760   -5.981940   85.825100
  C     -6.954120   -4.952840   86.826100
  C     -6.395660   -4.650690   88.022900
  C     -5.171290   -5.378470   88.262900
  C     -4.740820   -6.051740   87.129700
  H     -6.866700   -4.054070   88.789000
  C     -4.403590   -5.356220   89.628200
  H     -4.319510   -4.365760   90.073300
  H     -3.398500   -5.654650   89.677600
  C     -5.121010   -6.231520   90.714600
  H     -5.436880   -7.160810   90.262900
  H     -6.024740   -5.653800   90.953300
  C     -4.330190   -6.485720   92.040600
  H     -3.400550   -6.855030   91.779200
  H     -4.868690   -7.197180   92.634700
  H     -4.188000   -5.640110   92.681400
  H     -0.615321   -8.956140   86.576200
  H     -7.997390   -4.696950   86.600100

 Total Charge           Charge          ....    0
 Multiplicity           Mult            ....    1
 Number of Electrons    NEL             ....  134
 Basis Dimension        Dim             ....  322

ORBITAL ENERGIES
----------------

  NO   OCC          E(Eh)            E(eV)
   0   2.0000     -88.968401     -2420.9533
   1   2.0000     -88.963438     -2420.8182
   2   2.0000     -10.325810      -280.9796
   3   2.0000     -10.324705      -280.9495
   4   2.0000     -10.323574      -280.9187
   5   2.0000     -10.318447      -280.7792
   6   2.0000     -10.310929      -280.5746
   7   2.0000     -10.302526      -280.3460
   8   2.0000     -10.302270      -280.3390
   9   2.0000     -10.297424      -280.2071
  10   2.0000     -10.297367      -280.2056
  11   2.0000     -10.291907      -280.0570
  12   2.0000     -10.289137      -279.9817
  13   2.0000     -10.284717      -279.8614
  14   2.0000     -10.274020      -279.5703
  15   2.0000     -10.267183      -279.3843
  16   2.0000      -8.082898      -219.9468
  17   2.0000      -8.077010      -219.7866
  18   2.0000      -6.041500      -164.3976
  19   2.0000      -6.037472      -164.2880
  20   2.0000      -6.035647      -164.2383
  21   2.0000      -6.033513      -164.1802
  22   2.0000      -6.031709      -164.1312
  23   2.0000      -6.027660      -164.0210
  24   2.0000      -1.004719       -27.3398
  25   2.0000      -0.977661       -26.6035
  26   2.0000      -0.903217       -24.5778
  27   2.0000      -0.902358       -24.5544
  28   2.0000      -0.872717       -23.7478
  29   2.0000      -0.848638       -23.0926
  30   2.0000      -0.847670       -23.0663
  31   2.0000      -0.817327       -22.2406
  32   2.0000      -0.785588       -21.3769
  33   2.0000      -0.768493       -20.9118
  34   2.0000      -0.705014       -19.1844
  35   2.0000      -0.699251       -19.0276
  36   2.0000      -0.697416       -18.9776
  37   2.0000      -0.662484       -18.0271
  38   2.0000      -0.641502       -17.4561
  39   2.0000      -0.619475       -16.8568
  40   2.0000      -0.601456       -16.3664
  41   2.0000      -0.569601       -15.4996
  42   2.0000      -0.564385       -15.3577
  43   2.0000      -0.557964       -15.1830
  44   2.0000      -0.525306       -14.2943
  45   2.0000      -0.523453       -14.2439
  46   2.0000      -0.517675       -14.0866
  47   2.0000      -0.514267       -13.9939
  48   2.0000      -0.506657       -13.7868
  49   2.0000      -0.501813       -13.6550
  50   2.0000      -0.495343       -13.4790
  51   2.0000      -0.478775       -13.0281
  52   2.0000      -0.469723       -12.7818
  53   2.0000      -0.463862       -12.6223
  54   2.0000      -0.456471       -12.4212
  55   2.0000      -0.454079       -12.3561
  56   2.0000      -0.441655       -12.0180
  57   2.0000      -0.433507       -11.7963
  58   2.0000      -0.433164       -11.7870
  59   2.0000      -0.429410       -11.6848
  60   2.0000      -0.425469       -11.5776
  61   2.0000      -0.417420       -11.3586
  62   2.0000      -0.414367       -11.2755
  63   2.0000      -0.344286        -9.3685
  64   2.0000      -0.326292        -8.8789
  65   2.0000      -0.324377        -8.8268
  66   2.0000      -0.300704        -8.1826
  67   0.0000       0.034277         0.9327
  68   0.0000       0.057850         1.5742
  69   0.0000       0.105286         2.8650
  70   0.0000       0.113978         3.1015
  71   0.0000       0.126114         3.4317

MULLIKEN ATOMIC CHARGES
-----------------------
   0 S :    0.097884
   1 C :   -0.120891
   2 C :   -0.097010
   3 C :    0.085101
   4 C :   -0.133988
   5 H :   -0.057641
   6 C :    0.054698
   7 H :    0.031506
   8 H :    0.029120
   9 C :   -0.086990
  10 H :    0.035631
  11 H :    0.041908
  12 C :   -0.015630
  13 H :    0.024421
  14 H :    0.023041
  15 H :    0.005904
  16 S :    0.115759
  17 C :   -0.101282
  18 C :   -0.003097
  19 C :   -0.035810
  20 C :   -0.154494
  21 H :    0.020997
  22 C :    0.083761
  23 H :    0.020640
  24 H :    0.012046
  25 C :   -0.123063
  26 H :    0.032836
  27 H :    0.022973
  28 C :    0.000963
  29 H :    0.014479
  30 H :    0.030745
  31 H :    0.026889
  32 H :    0.051370
  33 H :    0.067224
Sum of atomic charges:   -0.0000000

LOEWDIN ATOMIC CHARGES
----------------------
   0 S :    0.380637
   1 C :   -0.188462
   2 C :   -0.064776
   3 C :   -0.050932
   4 C :   -0.186912
   5 H :    0.009552
   6 C :   -0.033281
   7 H :    0.036625
   8 H :    0.031475
   9 C :   -0.038126
  10 H :    0.026162
  11 H :    0.031895
  12 C :   -0.059230
  13 H :    0.027046
  14 H :    0.020171
  15 H :    0.009499
  16 S :    0.401817
  17 C :   -0.169988
  18 C :   -0.065902
  19 C :   -0.040975
  20 C :   -0.210901
  21 H :    0.032954
  22 C :   -0.029648
  23 H :    0.030722
  24 H :    0.020531
  25 C :   -0.035497
  26 H :    0.016070
  27 H :    0.020300
  28 C :   -0.054382
  29 H :    0.014045
  30 H :    0.028234
  31 H :    0.024147
  32 H :    0.030193
  33 H :    0.036939

  Mayer bond orders larger than 0.100000
B(  0-S ,  1-C ) :   1.1442 B(  0-S ,  4-C ) :   1.1307 B(  1-C ,  2-C ) :   1.5788
B(  1-C , 32-H ) :   0.9707 B(  2-C ,  3-C ) :   1.2490 B(  2-C ,  6-C ) :   1.0356
B(  3-C ,  4-C ) :   1.5781 B(  3-C ,  5-H ) :   1.0104 B(  4-C , 20-C ) :   1.0241
B(  6-C ,  7-H ) :   0.9387 B(  6-C ,  8-H ) :   0.9401 B(  6-C ,  9-C ) :   1.0551
B(  9-C , 10-H ) :   0.9596 B(  9-C , 11-H ) :   0.9596 B(  9-C , 12-C ) :   1.0787
B( 12-C , 13-H ) :   0.9729 B( 12-C , 14-H ) :   0.9761 B( 12-C , 15-H ) :   0.9744
B( 16-S , 17-C ) :   1.1403 B( 16-S , 20-C ) :   1.1344 B( 17-C , 18-C ) :   1.6324
B( 17-C , 33-H ) :   0.9636 B( 18-C , 19-C ) :   1.2286 B( 18-C , 21-H ) :   0.9862
B( 19-C , 20-C ) :   1.6211 B( 19-C , 22-C ) :   1.0377 B( 22-C , 23-H ) :   0.9417
B( 22-C , 24-H ) :   0.9425 B( 22-C , 25-C ) :   1.0424 B( 25-C , 26-H ) :   0.9600
B( 25-C , 27-H ) :   0.9570 B( 25-C , 28-C ) :   1.0782 B( 28-C , 29-H ) :   0.9748
B( 28-C , 30-H ) :   0.9740 B( 28-C , 31-H ) :   0.9752

Dispersion correction           -0.014542014
FINAL SINGLE POINT ENERGY     -1339.858083675613

DIPOLE MOMENT
-------------
                                X             Y             Z
Electronic contribution:     -3.73628      17.35730     -26.29737
Nuclear contribution   :      3.57794     -17.64332      27.15639
                        -----------------------------------------
Total Dipole Moment    :     -0.15834      -0.28602       0.85902
                        -----------------------------------------
Magnitude (a.u.)       :      0.91913
Magnitude (Debye)      :      2.33624

Rotational constants in cm-1:     0.017280     0.008574     0.006854
Rotational constants in MHz :   518.037321   257.039552   205.469234

                             ****ORCA TERMINATED NORMALLY****
TOTAL RUN TIME: 0 days 0 hours 0 minutes 33 seconds 870 msec
