                         Program Version 4.2.1 -  RELEASE  -
|  1> ! wB97X-D3 SP def2-SVP
|  2> %pal
|  3> nprocs 16
|  4> end
|  5>
|  6> * xyz 0 1
|  7> S 	 47.0781 	 5.02316 	 88.1786
|  8> C 	 47.9589 	 5.92767 	 87.0024
|  9> C 	 48.4218 	 5.06083 	 85.9953
| 10> C 	 48.0956 	 3.70193 	 86.1971
| 11> C 	 47.4125 	 3.48957 	 87.3298
| 12> H 	 48.5 	 2.86005 	 85.6074
| 13> C 	 49.2729 	 5.4846 	 84.7994
| 14> H 	 50.3406 	 5.25603 	 85.024
| 15> H 	 49.0693 	 6.59952 	 84.8318
| 16> C 	 48.981 	 4.91921 	 83.4056
| 17> H 	 49.691 	 5.33075 	 82.7076
| 18> H 	 49.0879 	 3.90781 	 83.4539
| 19> C 	 47.5755 	 5.30845 	 82.8947
| 20> H 	 46.8958 	 5.06895 	 83.6687
| 21> H 	 47.3911 	 6.36512 	 82.7968
| 22> H 	 47.3186 	 4.79237 	 81.9668
| 23> S 	 47.686 	 1.88464 	 89.5486
| 24> C 	 47.2137 	 0.245518 	 89.3771
| 25> C 	 46.5025 	 0.0171908 	 88.2409
| 26> C 	 46.49 	 1.14755 	 87.3497
| 27> C 	 47.0997 	 2.20791 	 87.9278
| 28> H 	 45.9942 	 -0.934545 	 88.044
| 29> C 	 45.7781 	 1.11481 	 85.9883
| 30> H 	 45.5788 	 2.09362 	 85.4997
| 31> H 	 44.7074 	 0.713585 	 86.1041
| 32> C 	 46.4482 	 0.0941057 	 85.001
| 33> H 	 46.3479 	 -0.975984 	 85.2122
| 34> H 	 47.5353 	 0.247386 	 85.1928
| 35> C 	 45.9206 	 0.237354 	 83.5613
| 36> H 	 46.4113 	 -0.389468 	 82.811
| 37> H 	 46.0215 	 1.26773 	 83.202
| 38> H 	 44.9337 	 0.00870628 	 83.5451
| 39> H 	 48.1223 	 6.97526 	 86.9764
| 40> H 	 47.4457 	 -0.471131 	 90.1443
| 41> *
| 42>
| 43>                          ****END OF INPUT****

CARTESIAN COORDINATES (ANGSTROEM)
---------------------------------
  S     47.078100    5.023160   88.178600
  C     47.958900    5.927670   87.002400
  C     48.421800    5.060830   85.995300
  C     48.095600    3.701930   86.197100
  C     47.412500    3.489570   87.329800
  H     48.500000    2.860050   85.607400
  C     49.272900    5.484600   84.799400
  H     50.340600    5.256030   85.024000
  H     49.069300    6.599520   84.831800
  C     48.981000    4.919210   83.405600
  H     49.691000    5.330750   82.707600
  H     49.087900    3.907810   83.453900
  C     47.575500    5.308450   82.894700
  H     46.895800    5.068950   83.668700
  H     47.391100    6.365120   82.796800
  H     47.318600    4.792370   81.966800
  S     47.686000    1.884640   89.548600
  C     47.213700    0.245518   89.377100
  C     46.502500    0.017191   88.240900
  C     46.490000    1.147550   87.349700
  C     47.099700    2.207910   87.927800
  H     45.994200   -0.934545   88.044000
  C     45.778100    1.114810   85.988300
  H     45.578800    2.093620   85.499700
  H     44.707400    0.713585   86.104100
  C     46.448200    0.094106   85.001000
  H     46.347900   -0.975984   85.212200
  H     47.535300    0.247386   85.192800
  C     45.920600    0.237354   83.561300
  H     46.411300   -0.389468   82.811000
  H     46.021500    1.267730   83.202000
  H     44.933700    0.008706   83.545100
  H     48.122300    6.975260   86.976400
  H     47.445700   -0.471131   90.144300

 Total Charge           Charge          ....    0
 Multiplicity           Mult            ....    1
 Number of Electrons    NEL             ....  134
 Basis Dimension        Dim             ....  322

ORBITAL ENERGIES
----------------

  NO   OCC          E(Eh)            E(eV)
   0   2.0000     -88.965212     -2420.8665
   1   2.0000     -88.964496     -2420.8470
   2   2.0000     -10.324735      -280.9503
   3   2.0000     -10.321243      -280.8553
   4   2.0000     -10.313900      -280.6555
   5   2.0000     -10.312479      -280.6168
   6   2.0000     -10.304912      -280.4109
   7   2.0000     -10.303737      -280.3789
   8   2.0000     -10.299274      -280.2575
   9   2.0000     -10.295287      -280.1490
  10   2.0000     -10.294771      -280.1350
  11   2.0000     -10.292271      -280.0669
  12   2.0000     -10.288648      -279.9683
  13   2.0000     -10.279694      -279.7247
  14   2.0000     -10.273698      -279.5615
  15   2.0000     -10.269486      -279.4469
  16   2.0000      -8.080332      -219.8770
  17   2.0000      -8.079809      -219.8628
  18   2.0000      -6.038752      -164.3228
  19   2.0000      -6.038337      -164.3115
  20   2.0000      -6.034860      -164.2169
  21   2.0000      -6.034328      -164.2024
  22   2.0000      -6.030936      -164.1101
  23   2.0000      -6.030574      -164.1003
  24   2.0000      -1.012755       -27.5585
  25   2.0000      -0.988592       -26.9010
  26   2.0000      -0.910026       -24.7631
  27   2.0000      -0.905127       -24.6298
  28   2.0000      -0.873541       -23.7702
  29   2.0000      -0.854055       -23.2400
  30   2.0000      -0.846403       -23.0318
  31   2.0000      -0.816205       -22.2101
  32   2.0000      -0.783423       -21.3180
  33   2.0000      -0.771028       -20.9807
  34   2.0000      -0.711134       -19.3509
  35   2.0000      -0.700989       -19.0749
  36   2.0000      -0.696643       -18.9566
  37   2.0000      -0.661228       -17.9929
  38   2.0000      -0.638752       -17.3813
  39   2.0000      -0.622747       -16.9458
  40   2.0000      -0.603883       -16.4325
  41   2.0000      -0.562184       -15.2978
  42   2.0000      -0.558338       -15.1931
  43   2.0000      -0.551593       -15.0096
  44   2.0000      -0.543009       -14.7760
  45   2.0000      -0.526562       -14.3285
  46   2.0000      -0.522903       -14.2289
  47   2.0000      -0.517975       -14.0948
  48   2.0000      -0.503511       -13.7012
  49   2.0000      -0.497689       -13.5428
  50   2.0000      -0.485836       -13.2203
  51   2.0000      -0.483832       -13.1657
  52   2.0000      -0.473195       -12.8763
  53   2.0000      -0.464338       -12.6353
  54   2.0000      -0.456870       -12.4321
  55   2.0000      -0.452616       -12.3163
  56   2.0000      -0.442790       -12.0489
  57   2.0000      -0.439647       -11.9634
  58   2.0000      -0.434981       -11.8364
  59   2.0000      -0.430862       -11.7243
  60   2.0000      -0.425449       -11.5771
  61   2.0000      -0.410539       -11.1713
  62   2.0000      -0.407221       -11.0810
  63   2.0000      -0.353949        -9.6314
  64   2.0000      -0.332349        -9.0437
  65   2.0000      -0.328700        -8.9444
  66   2.0000      -0.292787        -7.9672
  67   0.0000       0.036391         0.9902
  68   0.0000       0.069634         1.8948
  69   0.0000       0.114923         3.1272
  70   0.0000       0.119121         3.2414
  71   0.0000       0.129855         3.5335

MULLIKEN ATOMIC CHARGES
-----------------------
   0 S :    0.106277
   1 C :   -0.100415
   2 C :   -0.120964
   3 C :    0.023009
   4 C :   -0.153948
   5 H :    0.028793
   6 C :    0.015603
   7 H :    0.053340
   8 H :    0.021870
   9 C :   -0.016919
  10 H :    0.030953
  11 H :    0.008141
  12 C :   -0.045560
  13 H :    0.020690
  14 H :    0.020816
  15 H :    0.037864
  16 S :    0.117554
  17 C :   -0.092730
  18 C :   -0.020846
  19 C :   -0.009228
  20 C :   -0.160308
  21 H :    0.024364
  22 C :    0.023105
  23 H :    0.045181
  24 H :    0.038083
  25 C :   -0.118024
  26 H :    0.033387
  27 H :    0.033633
  28 C :   -0.004003
  29 H :    0.035338
  30 H :    0.024746
  31 H :    0.009315
  32 H :    0.035827
  33 H :    0.055056
Sum of atomic charges:    0.0000000

LOEWDIN ATOMIC CHARGES
----------------------
   0 S :    0.396755
   1 C :   -0.205450
   2 C :   -0.067697
   3 C :   -0.069918
   4 C :   -0.176042
   5 H :    0.040290
   6 C :   -0.037077
   7 H :    0.038009
   8 H :    0.032647
   9 C :   -0.030600
  10 H :    0.027480
  11 H :    0.008855
  12 C :   -0.062678
  13 H :    0.020214
  14 H :    0.023788
  15 H :    0.026814
  16 S :    0.413304
  17 C :   -0.186483
  18 C :   -0.069218
  19 C :   -0.056060
  20 C :   -0.197690
  21 H :    0.034889
  22 C :   -0.035768
  23 H :    0.035178
  24 H :    0.038743
  25 C :   -0.048174
  26 H :    0.024400
  27 H :    0.021956
  28 C :   -0.057859
  29 H :    0.029791
  30 H :    0.025352
  31 H :    0.011944
  32 H :    0.023439
  33 H :    0.026868

  Mayer bond orders larger than 0.100000
B(  0-S ,  1-C ) :   1.1317 B(  0-S ,  4-C ) :   1.1432 B(  1-C ,  2-C ) :   1.6116
B(  1-C , 32-H ) :   0.9702 B(  2-C ,  3-C ) :   1.2328 B(  2-C ,  6-C ) :   1.0123
B(  3-C ,  4-C ) :   1.6064 B(  3-C ,  5-H ) :   0.9875 B(  4-C , 20-C ) :   1.0193
B(  6-C ,  7-H ) :   0.9385 B(  6-C ,  8-H ) :   0.9447 B(  6-C ,  9-C ) :   1.0801
B(  9-C , 10-H ) :   0.9523 B(  9-C , 11-H ) :   0.9502 B(  9-C , 12-C ) :   1.0763
B( 12-C , 13-H ) :   0.9758 B( 12-C , 14-H ) :   0.9734 B( 12-C , 15-H ) :   0.9753
B( 16-S , 17-C ) :   1.1550 B( 16-S , 20-C ) :   1.1313 B( 17-C , 18-C ) :   1.6210
B( 17-C , 33-H ) :   0.9712 B( 18-C , 19-C ) :   1.2091 B( 18-C , 21-H ) :   0.9906
B( 19-C , 20-C ) :   1.6387 B( 19-C , 22-C ) :   1.0464 B( 22-C , 23-H ) :   0.9478
B( 22-C , 24-H ) :   0.9355 B( 22-C , 25-C ) :   1.0276 B( 25-C , 26-H ) :   0.9559
B( 25-C , 27-H ) :   0.9634 B( 25-C , 28-C ) :   1.0769 B( 28-C , 29-H ) :   0.9738
B( 28-C , 30-H ) :   0.9759 B( 28-C , 31-H ) :   0.9707

Dispersion correction           -0.014796096
FINAL SINGLE POINT ENERGY     -1339.878105234842

DIPOLE MOMENT
-------------
                                X             Y             Z
Electronic contribution:      1.18823       3.76599      31.27871
Nuclear contribution   :     -1.14872      -4.12525     -31.83268
                        -----------------------------------------
Total Dipole Moment    :      0.03951      -0.35927      -0.55397
                        -----------------------------------------
Magnitude (a.u.)       :      0.66145
Magnitude (Debye)      :      1.68126

Rotational constants in cm-1:     0.016387     0.010613     0.007062
Rotational constants in MHz :   491.260350   318.162496   211.706728

                             ****ORCA TERMINATED NORMALLY****
TOTAL RUN TIME: 0 days 0 hours 0 minutes 31 seconds 102 msec
