                         Program Version 4.2.1 -  RELEASE  -
|  1> ! wB97X-D3 SP def2-SVP
|  2> %pal
|  3> nprocs 16
|  4> end
|  5>
|  6> * xyz 0 1
|  7> S 	 -95.5998 	 60.8178 	 129.974
|  8> C 	 -95.6186 	 60.6856 	 131.672
|  9> C 	 -94.5562 	 61.3695 	 132.273
| 10> C 	 -93.8355 	 62.1385 	 131.301
| 11> C 	 -94.3467 	 62.0187 	 129.994
| 12> H 	 -93.0516 	 62.825 	 131.484
| 13> C 	 -94.2925 	 61.368 	 133.722
| 14> H 	 -95.0251 	 62.0411 	 134.048
| 15> H 	 -93.2627 	 61.6947 	 133.808
| 16> C 	 -94.3556 	 60.0815 	 134.547
| 17> H 	 -95.4088 	 59.9487 	 134.748
| 18> H 	 -94.0717 	 59.2375 	 133.869
| 19> C 	 -93.4344 	 60.0954 	 135.811
| 20> H 	 -93.8041 	 60.8973 	 136.46
| 21> H 	 -93.4379 	 59.1406 	 136.335
| 22> H 	 -92.3656 	 60.414 	 135.581
| 23> S 	 -95.1883 	 63.0016 	 127.528
| 24> C 	 -94.0136 	 63.8159 	 126.468
| 25> C 	 -92.7934 	 63.9333 	 127.091
| 26> C 	 -92.7849 	 63.4101 	 128.426
| 27> C 	 -93.9189 	 62.6923 	 128.774
| 28> H 	 -92.0547 	 64.4436 	 126.591
| 29> C 	 -91.4781 	 63.5291 	 129.241
| 30> H 	 -91.7737 	 64.1345 	 130.143
| 31> H 	 -90.7871 	 64.0795 	 128.624
| 32> C 	 -90.7887 	 62.2722 	 129.816
| 33> H 	 -90.0185 	 61.888 	 129.142
| 34> H 	 -91.4238 	 61.4019 	 129.81
| 35> C 	 -90.0872 	 62.6509 	 131.14
| 36> H 	 -90.8874 	 62.7966 	 131.814
| 37> H 	 -89.3606 	 63.4274 	 131.103
| 38> H 	 -89.5483 	 61.755 	 131.551
| 39> H 	 -96.3797 	 59.964 	 132.081
| 40> H 	 -94.257 	 64.1419 	 125.481
| 41> *
| 42>
| 43>                          ****END OF INPUT****

CARTESIAN COORDINATES (ANGSTROEM)
---------------------------------
  S    -95.599800   60.817800  129.974000
  C    -95.618600   60.685600  131.672000
  C    -94.556200   61.369500  132.273000
  C    -93.835500   62.138500  131.301000
  C    -94.346700   62.018700  129.994000
  H    -93.051600   62.825000  131.484000
  C    -94.292500   61.368000  133.722000
  H    -95.025100   62.041100  134.048000
  H    -93.262700   61.694700  133.808000
  C    -94.355600   60.081500  134.547000
  H    -95.408800   59.948700  134.748000
  H    -94.071700   59.237500  133.869000
  C    -93.434400   60.095400  135.811000
  H    -93.804100   60.897300  136.460000
  H    -93.437900   59.140600  136.335000
  H    -92.365600   60.414000  135.581000
  S    -95.188300   63.001600  127.528000
  C    -94.013600   63.815900  126.468000
  C    -92.793400   63.933300  127.091000
  C    -92.784900   63.410100  128.426000
  C    -93.918900   62.692300  128.774000
  H    -92.054700   64.443600  126.591000
  C    -91.478100   63.529100  129.241000
  H    -91.773700   64.134500  130.143000
  H    -90.787100   64.079500  128.624000
  C    -90.788700   62.272200  129.816000
  H    -90.018500   61.888000  129.142000
  H    -91.423800   61.401900  129.810000
  C    -90.087200   62.650900  131.140000
  H    -90.887400   62.796600  131.814000
  H    -89.360600   63.427400  131.103000
  H    -89.548300   61.755000  131.551000
  H    -96.379700   59.964000  132.081000
  H    -94.257000   64.141900  125.481000

 Total Charge           Charge          ....    0
 Multiplicity           Mult            ....    1
 Number of Electrons    NEL             ....  134
 Basis Dimension        Dim             ....  322

ORBITAL ENERGIES
----------------

  NO   OCC          E(Eh)            E(eV)
   0   2.0000     -88.964894     -2420.8578
   1   2.0000     -88.962054     -2420.7806
   2   2.0000     -10.331771      -281.1418
   3   2.0000     -10.331483      -281.1339
   4   2.0000     -10.318292      -280.7750
   5   2.0000     -10.314181      -280.6631
   6   2.0000     -10.306332      -280.4495
   7   2.0000     -10.303823      -280.3813
   8   2.0000     -10.296414      -280.1797
   9   2.0000     -10.295617      -280.1580
  10   2.0000     -10.290904      -280.0297
  11   2.0000     -10.290342      -280.0144
  12   2.0000     -10.289966      -280.0042
  13   2.0000     -10.284699      -279.8609
  14   2.0000     -10.282972      -279.8139
  15   2.0000     -10.279085      -279.7081
  16   2.0000      -8.080715      -219.8874
  17   2.0000      -8.075746      -219.7522
  18   2.0000      -6.039021      -164.3301
  19   2.0000      -6.034942      -164.2191
  20   2.0000      -6.034410      -164.2047
  21   2.0000      -6.031784      -164.1332
  22   2.0000      -6.030453      -164.0970
  23   2.0000      -6.026339      -163.9850
  24   2.0000      -1.006157       -27.3789
  25   2.0000      -0.981149       -26.6984
  26   2.0000      -0.917117       -24.9560
  27   2.0000      -0.905617       -24.6431
  28   2.0000      -0.868247       -23.6262
  29   2.0000      -0.853524       -23.2256
  30   2.0000      -0.846396       -23.0316
  31   2.0000      -0.815233       -22.1836
  32   2.0000      -0.781073       -21.2541
  33   2.0000      -0.769470       -20.9384
  34   2.0000      -0.710982       -19.3468
  35   2.0000      -0.707879       -19.2624
  36   2.0000      -0.690442       -18.7879
  37   2.0000      -0.670588       -18.2476
  38   2.0000      -0.643687       -17.5156
  39   2.0000      -0.614201       -16.7133
  40   2.0000      -0.592598       -16.1254
  41   2.0000      -0.580310       -15.7910
  42   2.0000      -0.569339       -15.4925
  43   2.0000      -0.566687       -15.4203
  44   2.0000      -0.532651       -14.4942
  45   2.0000      -0.520043       -14.1511
  46   2.0000      -0.513687       -13.9781
  47   2.0000      -0.511894       -13.9293
  48   2.0000      -0.505033       -13.7427
  49   2.0000      -0.498911       -13.5761
  50   2.0000      -0.494292       -13.4504
  51   2.0000      -0.480258       -13.0685
  52   2.0000      -0.477054       -12.9813
  53   2.0000      -0.472571       -12.8593
  54   2.0000      -0.458926       -12.4880
  55   2.0000      -0.451537       -12.2869
  56   2.0000      -0.448795       -12.2123
  57   2.0000      -0.435308       -11.8453
  58   2.0000      -0.432853       -11.7785
  59   2.0000      -0.424418       -11.5490
  60   2.0000      -0.415545       -11.3076
  61   2.0000      -0.411744       -11.2041
  62   2.0000      -0.410417       -11.1680
  63   2.0000      -0.357396        -9.7252
  64   2.0000      -0.329866        -8.9761
  65   2.0000      -0.328304        -8.9336
  66   2.0000      -0.281772        -7.6674
  67   0.0000       0.018609         0.5064
  68   0.0000       0.079904         2.1743
  69   0.0000       0.104709         2.8493
  70   0.0000       0.117681         3.2023
  71   0.0000       0.132653         3.6097

MULLIKEN ATOMIC CHARGES
-----------------------
   0 S :    0.115524
   1 C :   -0.158238
   2 C :   -0.098579
   3 C :    0.037238
   4 C :   -0.142365
   5 H :   -0.032609
   6 C :    0.097926
   7 H :    0.041160
   8 H :    0.012994
   9 C :   -0.085124
  10 H :    0.027042
  11 H :    0.035006
  12 C :   -0.071947
  13 H :    0.035582
  14 H :    0.049378
  15 H :    0.043930
  16 S :    0.074045
  17 C :   -0.080917
  18 C :    0.004227
  19 C :   -0.063293
  20 C :   -0.103238
  21 H :   -0.011210
  22 C :    0.044079
  23 H :    0.045571
  24 H :    0.019591
  25 C :   -0.069263
  26 H :    0.022348
  27 H :    0.040492
  28 C :   -0.037659
  29 H :    0.010199
  30 H :    0.041692
  31 H :    0.031518
  32 H :    0.074006
  33 H :    0.050895
Sum of atomic charges:   -0.0000000

LOEWDIN ATOMIC CHARGES
----------------------
   0 S :    0.434568
   1 C :   -0.225461
   2 C :   -0.058977
   3 C :   -0.061734
   4 C :   -0.196370
   5 H :    0.019385
   6 C :   -0.034726
   7 H :    0.034959
   8 H :    0.029652
   9 C :   -0.042415
  10 H :    0.020735
  11 H :    0.026739
  12 C :   -0.068596
  13 H :    0.026878
  14 H :    0.029129
  15 H :    0.032593
  16 S :    0.363623
  17 C :   -0.161701
  18 C :   -0.063201
  19 C :   -0.055786
  20 C :   -0.179991
  21 H :    0.019595
  22 C :   -0.031102
  23 H :    0.035725
  24 H :    0.028028
  25 C :   -0.045702
  26 H :    0.024554
  27 H :    0.026988
  28 C :   -0.058210
  29 H :    0.013188
  30 H :    0.023325
  31 H :    0.032948
  32 H :    0.036607
  33 H :    0.024752

  Mayer bond orders larger than 0.100000
B(  0-S ,  1-C ) :   1.1636 B(  0-S ,  4-C ) :   1.1766 B(  1-C ,  2-C ) :   1.5410
B(  1-C ,  4-C ) :   0.1003 B(  1-C , 32-H ) :   0.9678 B(  2-C ,  3-C ) :   1.2861
B(  2-C ,  6-C ) :   1.0233 B(  3-C ,  4-C ) :   1.5233 B(  3-C ,  5-H ) :   0.9943
B(  4-C , 20-C ) :   1.0710 B(  6-C ,  7-H ) :   0.9243 B(  6-C ,  8-H ) :   0.9412
B(  6-C ,  9-C ) :   1.0603 B(  9-C , 10-H ) :   0.9506 B(  9-C , 11-H ) :   0.9646
B(  9-C , 12-C ) :   1.0793 B( 12-C , 13-H ) :   0.9757 B( 12-C , 14-H ) :   0.9756
B( 12-C , 15-H ) :   0.9743 B( 16-S , 17-C ) :   1.1429 B( 16-S , 20-C ) :   1.1129
B( 17-C , 18-C ) :   1.6203 B( 17-C , 33-H ) :   0.9694 B( 18-C , 19-C ) :   1.2271
B( 18-C , 21-H ) :   1.0017 B( 19-C , 20-C ) :   1.6029 B( 19-C , 22-C ) :   1.0350
B( 22-C , 23-H ) :   0.9397 B( 22-C , 24-H ) :   0.9356 B( 22-C , 25-C ) :   1.0378
B( 25-C , 26-H ) :   0.9540 B( 25-C , 27-H ) :   0.9635 B( 25-C , 28-C ) :   1.0692
B( 28-C , 29-H ) :   0.9787 B( 28-C , 30-H ) :   0.9758 B( 28-C , 31-H ) :   0.9688

Dispersion correction           -0.014402202
FINAL SINGLE POINT ENERGY     -1339.867335714522

DIPOLE MOMENT
-------------
                                X             Y             Z
Electronic contribution:    -19.58448       2.89070     -25.18797
Nuclear contribution   :     20.09354      -2.80882      25.59941
                        -----------------------------------------
Total Dipole Moment    :      0.50906       0.08188       0.41144
                        -----------------------------------------
Magnitude (a.u.)       :      0.65964
Magnitude (Debye)      :      1.67667

Rotational constants in cm-1:     0.021135     0.008424     0.006276
Rotational constants in MHz :   633.602639   252.558483   188.145012

                             ****ORCA TERMINATED NORMALLY****
TOTAL RUN TIME: 0 days 0 hours 0 minutes 35 seconds 503 msec
