                         Program Version 4.2.1 -  RELEASE  -
|  1> ! wB97X-D3 SP def2-SVP
|  2> %pal
|  3> nprocs 16
|  4> end
|  5>
|  6> * xyz 0 1
|  7> S 	 50.6125 	 4.08412 	 89.2156
|  8> C 	 52.3556 	 4.06889 	 88.9556
|  9> C 	 52.8926 	 2.86574 	 89.4521
| 10> C 	 51.9713 	 2.0787 	 90.2333
| 11> C 	 50.6987 	 2.57693 	 90.1552
| 12> H 	 52.142 	 1.14105 	 90.724
| 13> C 	 54.2913 	 2.33205 	 89.3089
| 14> H 	 54.7169 	 1.94156 	 90.2327
| 15> H 	 54.7857 	 3.26743 	 88.9793
| 16> C 	 54.3931 	 1.09451 	 88.2621
| 17> H 	 53.64 	 0.384427 	 88.5993
| 18> H 	 54.0346 	 1.32213 	 87.2041
| 19> C 	 55.8464 	 0.442734 	 88.4516
| 20> H 	 55.8775 	 -0.405227 	 89.1701
| 21> H 	 56.0912 	 -0.0161807 	 87.5265
| 22> H 	 56.5877 	 1.23055 	 88.6988
| 23> S 	 48.6945 	 2.96138 	 91.917
| 24> C 	 47.3878 	 1.77261 	 91.9059
| 25> C 	 47.8128 	 0.532505 	 91.49
| 26> C 	 48.9961 	 0.676466 	 90.781
| 27> C 	 49.5355 	 1.97036 	 90.815
| 28> H 	 47.1387 	 -0.296456 	 91.5465
| 29> C 	 49.6242 	 -0.424352 	 89.919
| 30> H 	 49.2833 	 -1.35601 	 90.2969
| 31> H 	 50.6966 	 -0.425667 	 90.0225
| 32> C 	 49.3723 	 -0.438272 	 88.3921
| 33> H 	 49.6096 	 0.542875 	 88.0574
| 34> H 	 48.3732 	 -0.791424 	 88.1089
| 35> C 	 50.3818 	 -1.46813 	 87.8276
| 36> H 	 50.1537 	 -2.44348 	 88.3245
| 37> H 	 51.3969 	 -1.21571 	 88.0944
| 38> H 	 50.2174 	 -1.60961 	 86.7194
| 39> H 	 52.8856 	 4.83541 	 88.4681
| 40> H 	 46.3262 	 1.9895 	 92.0879
| 41> *
| 42>
| 43>                          ****END OF INPUT****

CARTESIAN COORDINATES (ANGSTROEM)
---------------------------------
  S     50.612500    4.084120   89.215600
  C     52.355600    4.068890   88.955600
  C     52.892600    2.865740   89.452100
  C     51.971300    2.078700   90.233300
  C     50.698700    2.576930   90.155200
  H     52.142000    1.141050   90.724000
  C     54.291300    2.332050   89.308900
  H     54.716900    1.941560   90.232700
  H     54.785700    3.267430   88.979300
  C     54.393100    1.094510   88.262100
  H     53.640000    0.384427   88.599300
  H     54.034600    1.322130   87.204100
  C     55.846400    0.442734   88.451600
  H     55.877500   -0.405227   89.170100
  H     56.091200   -0.016181   87.526500
  H     56.587700    1.230550   88.698800
  S     48.694500    2.961380   91.917000
  C     47.387800    1.772610   91.905900
  C     47.812800    0.532505   91.490000
  C     48.996100    0.676466   90.781000
  C     49.535500    1.970360   90.815000
  H     47.138700   -0.296456   91.546500
  C     49.624200   -0.424352   89.919000
  H     49.283300   -1.356010   90.296900
  H     50.696600   -0.425667   90.022500
  C     49.372300   -0.438272   88.392100
  H     49.609600    0.542875   88.057400
  H     48.373200   -0.791424   88.108900
  C     50.381800   -1.468130   87.827600
  H     50.153700   -2.443480   88.324500
  H     51.396900   -1.215710   88.094400
  H     50.217400   -1.609610   86.719400
  H     52.885600    4.835410   88.468100
  H     46.326200    1.989500   92.087900

 Total Charge           Charge          ....    0
 Multiplicity           Mult            ....    1
 Number of Electrons    NEL             ....  134
 Basis Dimension        Dim             ....  322

ORBITAL ENERGIES
----------------

  NO   OCC          E(Eh)            E(eV)
   0   2.0000     -88.967840     -2420.9380
   1   2.0000     -88.963360     -2420.8161
   2   2.0000     -10.328932      -281.0645
   3   2.0000     -10.318194      -280.7723
   4   2.0000     -10.317355      -280.7495
   5   2.0000     -10.314857      -280.6815
   6   2.0000     -10.303882      -280.3829
   7   2.0000     -10.303403      -280.3698
   8   2.0000     -10.300154      -280.2814
   9   2.0000     -10.297245      -280.2023
  10   2.0000     -10.290859      -280.0285
  11   2.0000     -10.290177      -280.0100
  12   2.0000     -10.286823      -279.9187
  13   2.0000     -10.284381      -279.8522
  14   2.0000     -10.282414      -279.7987
  15   2.0000     -10.282332      -279.7965
  16   2.0000      -8.081733      -219.9151
  17   2.0000      -8.078934      -219.8390
  18   2.0000      -6.040316      -164.3653
  19   2.0000      -6.037172      -164.2798
  20   2.0000      -6.036384      -164.2584
  21   2.0000      -6.033511      -164.1802
  22   2.0000      -6.032426      -164.1507
  23   2.0000      -6.029744      -164.0777
  24   2.0000      -1.008929       -27.4544
  25   2.0000      -0.983117       -26.7520
  26   2.0000      -0.908361       -24.7178
  27   2.0000      -0.899395       -24.4738
  28   2.0000      -0.869685       -23.6653
  29   2.0000      -0.850985       -23.1565
  30   2.0000      -0.842633       -22.9292
  31   2.0000      -0.813973       -22.1493
  32   2.0000      -0.773102       -21.0372
  33   2.0000      -0.761673       -20.7262
  34   2.0000      -0.706849       -19.2343
  35   2.0000      -0.700569       -19.0635
  36   2.0000      -0.691417       -18.8144
  37   2.0000      -0.664096       -18.0710
  38   2.0000      -0.646046       -17.5798
  39   2.0000      -0.617216       -16.7953
  40   2.0000      -0.593379       -16.1467
  41   2.0000      -0.575107       -15.6495
  42   2.0000      -0.570396       -15.5213
  43   2.0000      -0.551130       -14.9970
  44   2.0000      -0.526213       -14.3190
  45   2.0000      -0.516594       -14.0572
  46   2.0000      -0.514699       -14.0057
  47   2.0000      -0.511373       -13.9152
  48   2.0000      -0.497804       -13.5459
  49   2.0000      -0.494899       -13.4669
  50   2.0000      -0.492937       -13.4135
  51   2.0000      -0.482710       -13.1352
  52   2.0000      -0.470087       -12.7917
  53   2.0000      -0.461018       -12.5449
  54   2.0000      -0.457097       -12.4382
  55   2.0000      -0.448725       -12.2104
  56   2.0000      -0.445245       -12.1157
  57   2.0000      -0.439776       -11.9669
  58   2.0000      -0.436922       -11.8893
  59   2.0000      -0.426742       -11.6122
  60   2.0000      -0.420736       -11.4488
  61   2.0000      -0.418198       -11.3797
  62   2.0000      -0.409498       -11.1430
  63   2.0000      -0.342613        -9.3230
  64   2.0000      -0.332427        -9.0458
  65   2.0000      -0.320221        -8.7137
  66   2.0000      -0.289127        -7.8675
  67   0.0000       0.022170         0.6033
  68   0.0000       0.069623         1.8946
  69   0.0000       0.104419         2.8414
  70   0.0000       0.113011         3.0752
  71   0.0000       0.127954         3.4818

MULLIKEN ATOMIC CHARGES
-----------------------
   0 S :    0.114576
   1 C :   -0.111646
   2 C :   -0.088153
   3 C :    0.034533
   4 C :   -0.141906
   5 H :    0.020648
   6 C :    0.051248
   7 H :    0.034869
   8 H :    0.026446
   9 C :   -0.113313
  10 H :    0.028674
  11 H :    0.050845
  12 C :   -0.055223
  13 H :    0.043389
  14 H :    0.028157
  15 H :    0.051611
  16 S :    0.119928
  17 C :   -0.119494
  18 C :   -0.024464
  19 C :   -0.004898
  20 C :   -0.182282
  21 H :    0.014469
  22 C :    0.067450
  23 H :   -0.002793
  24 H :   -0.006578
  25 C :   -0.023622
  26 H :    0.029456
  27 H :    0.031456
  28 C :   -0.080094
  29 H :    0.025680
  30 H :    0.032388
  31 H :    0.047814
  32 H :    0.036197
  33 H :    0.064633
Sum of atomic charges:   -0.0000000

LOEWDIN ATOMIC CHARGES
----------------------
   0 S :    0.390960
   1 C :   -0.192759
   2 C :   -0.060210
   3 C :   -0.057432
   4 C :   -0.188012
   5 H :    0.030761
   6 C :   -0.035133
   7 H :    0.030930
   8 H :    0.031153
   9 C :   -0.040166
  10 H :    0.018442
  11 H :    0.032913
  12 C :   -0.070343
  13 H :    0.031182
  14 H :    0.021884
  15 H :    0.031316
  16 S :    0.418705
  17 C :   -0.175326
  18 C :   -0.066967
  19 C :   -0.057129
  20 C :   -0.218423
  21 H :    0.032695
  22 C :   -0.027450
  23 H :    0.020472
  24 H :    0.020956
  25 C :   -0.026986
  26 H :    0.019547
  27 H :    0.024701
  28 C :   -0.067239
  29 H :    0.026017
  30 H :    0.017794
  31 H :    0.031269
  32 H :    0.020204
  33 H :    0.031675

  Mayer bond orders larger than 0.100000
B(  0-S ,  1-C ) :   1.1239 B(  0-S ,  4-C ) :   1.1390 B(  1-C ,  2-C ) :   1.6069
B(  1-C , 32-H ) :   0.9773 B(  2-C ,  3-C ) :   1.2087 B(  2-C ,  6-C ) :   1.0377
B(  3-C ,  4-C ) :   1.5920 B(  3-C ,  5-H ) :   0.9906 B(  4-C , 20-C ) :   1.0338
B(  6-C ,  7-H ) :   0.9470 B(  6-C ,  8-H ) :   0.9384 B(  6-C ,  9-C ) :   1.0371
B(  9-C , 10-H ) :   0.9603 B(  9-C , 11-H ) :   0.9634 B(  9-C , 12-C ) :   1.0522
B( 12-C , 13-H ) :   0.9766 B( 12-C , 14-H ) :   0.9768 B( 12-C , 15-H ) :   0.9786
B( 16-S , 17-C ) :   1.1646 B( 16-S , 20-C ) :   1.1616 B( 17-C , 18-C ) :   1.5893
B( 17-C , 20-C ) :   0.1038 B( 17-C , 33-H ) :   0.9656 B( 18-C , 19-C ) :   1.2589
B( 18-C , 21-H ) :   0.9982 B( 19-C , 20-C ) :   1.5648 B( 19-C , 22-C ) :   1.0405
B( 22-C , 23-H ) :   0.9257 B( 22-C , 24-H ) :   0.9367 B( 22-C , 25-C ) :   1.0681
B( 25-C , 26-H ) :   0.9552 B( 25-C , 27-H ) :   0.9559 B( 25-C , 28-C ) :   1.0756
B( 28-C , 29-H ) :   0.9724 B( 28-C , 30-H ) :   0.9753 B( 28-C , 31-H ) :   0.9727

Dispersion correction           -0.014857647
FINAL SINGLE POINT ENERGY     -1339.849883690027

DIPOLE MOMENT
-------------
                                X             Y             Z
Electronic contribution:    -18.28432      22.35976      13.87991
Nuclear contribution   :     18.51077     -22.93248     -14.12155
                        -----------------------------------------
Total Dipole Moment    :      0.22645      -0.57272      -0.24164
                        -----------------------------------------
Magnitude (a.u.)       :      0.66157
Magnitude (Debye)      :      1.68158

Rotational constants in cm-1:     0.018467     0.009409     0.007132
Rotational constants in MHz :   553.633534   282.069096   213.801620

                             ****ORCA TERMINATED NORMALLY****
TOTAL RUN TIME: 0 days 0 hours 0 minutes 30 seconds 5 msec
