                         Program Version 4.2.1 -  RELEASE  -
|  1> ! wB97X-D3 SP def2-SVP
|  2> %pal
|  3> nprocs 16
|  4> end
|  5>
|  6> * xyz 0 1
|  7> S 	 12.1659 	 -8.52321 	 64.0611
|  8> C 	 10.4826 	 -8.16846 	 64.5564
|  9> C 	 10.262 	 -8.58241 	 65.8603
| 10> C 	 11.3045 	 -9.40705 	 66.3598
| 11> C 	 12.3496 	 -9.47568 	 65.4658
| 12> H 	 11.3296 	 -9.9465 	 67.3212
| 13> C 	 8.92733 	 -8.42552 	 66.5569
| 14> H 	 8.70249 	 -9.44866 	 66.8831
| 15> H 	 8.1729 	 -8.00949 	 65.8669
| 16> C 	 9.07085 	 -7.48906 	 67.8394
| 17> H 	 10.0011 	 -7.74802 	 68.3942
| 18> H 	 9.09693 	 -6.36983 	 67.5233
| 19> C 	 7.80556 	 -7.63905 	 68.7849
| 20> H 	 7.90895 	 -7.0568 	 69.6984
| 21> H 	 6.82735 	 -7.44473 	 68.3353
| 22> H 	 7.57079 	 -8.64878 	 69.1084
| 23> S 	 14.971 	 -9.0494 	 65.5898
| 24> C 	 16.1617 	 -10.2761 	 65.9619
| 25> C 	 15.4797 	 -11.5347 	 66.2346
| 26> C 	 14.0604 	 -11.4528 	 66.1245
| 27> C 	 13.6103 	 -10.1788 	 65.694
| 28> H 	 16.0038 	 -12.4387 	 66.6213
| 29> C 	 13.1636 	 -12.6271 	 66.297
| 30> H 	 12.1142 	 -12.3533 	 66.2278
| 31> H 	 13.1981 	 -12.9891 	 67.3008
| 32> C 	 13.3876 	 -13.7648 	 65.3407
| 33> H 	 14.3776 	 -14.238 	 65.4476
| 34> H 	 13.2927 	 -13.3365 	 64.3095
| 35> C 	 12.3261 	 -14.8181 	 65.4253
| 36> H 	 11.956 	 -14.9987 	 66.4831
| 37> H 	 12.6743 	 -15.7197 	 64.9378
| 38> H 	 11.3351 	 -14.5974 	 64.9175
| 39> H 	 9.88166 	 -7.43484 	 64.0646
| 40> H 	 17.2387 	 -10.2592 	 66.1317
| 41> *
| 42>
| 43>                          ****END OF INPUT****

CARTESIAN COORDINATES (ANGSTROEM)
---------------------------------
  S     12.165900   -8.523210   64.061100
  C     10.482600   -8.168460   64.556400
  C     10.262000   -8.582410   65.860300
  C     11.304500   -9.407050   66.359800
  C     12.349600   -9.475680   65.465800
  H     11.329600   -9.946500   67.321200
  C      8.927330   -8.425520   66.556900
  H      8.702490   -9.448660   66.883100
  H      8.172900   -8.009490   65.866900
  C      9.070850   -7.489060   67.839400
  H     10.001100   -7.748020   68.394200
  H      9.096930   -6.369830   67.523300
  C      7.805560   -7.639050   68.784900
  H      7.908950   -7.056800   69.698400
  H      6.827350   -7.444730   68.335300
  H      7.570790   -8.648780   69.108400
  S     14.971000   -9.049400   65.589800
  C     16.161700  -10.276100   65.961900
  C     15.479700  -11.534700   66.234600
  C     14.060400  -11.452800   66.124500
  C     13.610300  -10.178800   65.694000
  H     16.003800  -12.438700   66.621300
  C     13.163600  -12.627100   66.297000
  H     12.114200  -12.353300   66.227800
  H     13.198100  -12.989100   67.300800
  C     13.387600  -13.764800   65.340700
  H     14.377600  -14.238000   65.447600
  H     13.292700  -13.336500   64.309500
  C     12.326100  -14.818100   65.425300
  H     11.956000  -14.998700   66.483100
  H     12.674300  -15.719700   64.937800
  H     11.335100  -14.597400   64.917500
  H      9.881660   -7.434840   64.064600
  H     17.238700  -10.259200   66.131700

 Total Charge           Charge          ....    0
 Multiplicity           Mult            ....    1
 Number of Electrons    NEL             ....  134
 Basis Dimension        Dim             ....  322

ORBITAL ENERGIES
----------------

  NO   OCC          E(Eh)            E(eV)
   0   2.0000     -88.969464     -2420.9822
   1   2.0000     -88.968289     -2420.9502
   2   2.0000     -10.330083      -281.0958
   3   2.0000     -10.329265      -281.0736
   4   2.0000     -10.324980      -280.9570
   5   2.0000     -10.311968      -280.6029
   6   2.0000     -10.306946      -280.4663
   7   2.0000     -10.306450      -280.4528
   8   2.0000     -10.302590      -280.3477
   9   2.0000     -10.302259      -280.3387
  10   2.0000     -10.300084      -280.2795
  11   2.0000     -10.295144      -280.1451
  12   2.0000     -10.284665      -279.8600
  13   2.0000     -10.283653      -279.8324
  14   2.0000     -10.281682      -279.7788
  15   2.0000     -10.280760      -279.7537
  16   2.0000      -8.083233      -219.9560
  17   2.0000      -8.083202      -219.9551
  18   2.0000      -6.041860      -164.4074
  19   2.0000      -6.041621      -164.4009
  20   2.0000      -6.037808      -164.2971
  21   2.0000      -6.037558      -164.2903
  22   2.0000      -6.034216      -164.1994
  23   2.0000      -6.033909      -164.1910
  24   2.0000      -1.008526       -27.4434
  25   2.0000      -0.978334       -26.6218
  26   2.0000      -0.917257       -24.9598
  27   2.0000      -0.904621       -24.6160
  28   2.0000      -0.861411       -23.4402
  29   2.0000      -0.852982       -23.2108
  30   2.0000      -0.844568       -22.9819
  31   2.0000      -0.809546       -22.0289
  32   2.0000      -0.780559       -21.2401
  33   2.0000      -0.769013       -20.9259
  34   2.0000      -0.704218       -19.1628
  35   2.0000      -0.696837       -18.9619
  36   2.0000      -0.694328       -18.8936
  37   2.0000      -0.658964       -17.9313
  38   2.0000      -0.641002       -17.4425
  39   2.0000      -0.620930       -16.8964
  40   2.0000      -0.596577       -16.2337
  41   2.0000      -0.565433       -15.3862
  42   2.0000      -0.558774       -15.2050
  43   2.0000      -0.552974       -15.0472
  44   2.0000      -0.528513       -14.3816
  45   2.0000      -0.522867       -14.2279
  46   2.0000      -0.515697       -14.0328
  47   2.0000      -0.510699       -13.8968
  48   2.0000      -0.502039       -13.6612
  49   2.0000      -0.497627       -13.5411
  50   2.0000      -0.495929       -13.4949
  51   2.0000      -0.472690       -12.8626
  52   2.0000      -0.467100       -12.7104
  53   2.0000      -0.464752       -12.6466
  54   2.0000      -0.457591       -12.4517
  55   2.0000      -0.453386       -12.3373
  56   2.0000      -0.444328       -12.0908
  57   2.0000      -0.439454       -11.9582
  58   2.0000      -0.433433       -11.7943
  59   2.0000      -0.424909       -11.5624
  60   2.0000      -0.423864       -11.5339
  61   2.0000      -0.414714       -11.2849
  62   2.0000      -0.405854       -11.0439
  63   2.0000      -0.340346        -9.2613
  64   2.0000      -0.334009        -9.0888
  65   2.0000      -0.329158        -8.9568
  66   2.0000      -0.289656        -7.8819
  67   0.0000       0.029052         0.7906
  68   0.0000       0.061319         1.6686
  69   0.0000       0.106148         2.8884
  70   0.0000       0.115971         3.1557
  71   0.0000       0.128749         3.5034

MULLIKEN ATOMIC CHARGES
-----------------------
   0 S :    0.114501
   1 C :   -0.112038
   2 C :   -0.081201
   3 C :    0.025678
   4 C :   -0.142132
   5 H :    0.025976
   6 C :    0.054436
   7 H :    0.037083
   8 H :    0.034333
   9 C :   -0.119978
  10 H :    0.049587
  11 H :    0.055376
  12 C :   -0.051418
  13 H :    0.039755
  14 H :    0.024596
  15 H :    0.015050
  16 S :    0.108138
  17 C :   -0.089347
  18 C :   -0.083212
  19 C :   -0.014227
  20 C :   -0.165656
  21 H :    0.037579
  22 C :    0.081262
  23 H :    0.007934
  24 H :    0.013039
  25 C :   -0.075262
  26 H :    0.034973
  27 H :    0.041987
  28 C :   -0.075332
  29 H :    0.027590
  30 H :    0.035904
  31 H :    0.037120
  32 H :    0.042198
  33 H :    0.065708
Sum of atomic charges:    0.0000000

LOEWDIN ATOMIC CHARGES
----------------------
   0 S :    0.410398
   1 C :   -0.192487
   2 C :   -0.057501
   3 C :   -0.070613
   4 C :   -0.206621
   5 H :    0.038287
   6 C :   -0.027842
   7 H :    0.033781
   8 H :    0.033220
   9 C :   -0.041379
  10 H :    0.028099
  11 H :    0.037424
  12 C :   -0.080348
  13 H :    0.026341
  14 H :    0.025950
  15 H :    0.020942
  16 S :    0.414414
  17 C :   -0.202976
  18 C :   -0.074420
  19 C :   -0.057694
  20 C :   -0.190742
  21 H :    0.036352
  22 C :   -0.038460
  23 H :    0.029955
  24 H :    0.026487
  25 C :   -0.045562
  26 H :    0.024712
  27 H :    0.036011
  28 C :   -0.076326
  29 H :    0.026471
  30 H :    0.026255
  31 H :    0.030609
  32 H :    0.021092
  33 H :    0.036171

  Mayer bond orders larger than 0.100000
B(  0-S ,  1-C ) :   1.1121 B(  0-S ,  4-C ) :   1.1736 B(  1-C ,  2-C ) :   1.6266
B(  1-C , 32-H ) :   0.9680 B(  2-C ,  3-C ) :   1.2220 B(  2-C ,  6-C ) :   1.0249
B(  3-C ,  4-C ) :   1.5687 B(  3-C ,  5-H ) :   0.9910 B(  4-C , 20-C ) :   1.0120
B(  6-C ,  7-H ) :   0.9486 B(  6-C ,  8-H ) :   0.9466 B(  6-C ,  9-C ) :   1.0401
B(  9-C , 10-H ) :   0.9631 B(  9-C , 11-H ) :   0.9568 B(  9-C , 12-C ) :   1.0644
B( 12-C , 13-H ) :   0.9776 B( 12-C , 14-H ) :   0.9740 B( 12-C , 15-H ) :   0.9753
B( 16-S , 17-C ) :   1.1682 B( 16-S , 20-C ) :   1.1526 B( 17-C , 18-C ) :   1.5627
B( 17-C , 20-C ) :   0.1188 B( 17-C , 33-H ) :   0.9672 B( 18-C , 19-C ) :   1.2775
B( 18-C , 21-H ) :   0.9776 B( 19-C , 20-C ) :   1.5595 B( 19-C , 22-C ) :   1.0586
B( 22-C , 23-H ) :   0.9345 B( 22-C , 24-H ) :   0.9132 B( 22-C , 25-C ) :   1.0742
B( 25-C , 26-H ) :   0.9533 B( 25-C , 27-H ) :   0.9502 B( 25-C , 28-C ) :   1.0877
B( 28-C , 29-H ) :   0.9715 B( 28-C , 30-H ) :   0.9728 B( 28-C , 31-H ) :   0.9723

Dispersion correction           -0.013449743
FINAL SINGLE POINT ENERGY     -1339.869948173689

DIPOLE MOMENT
-------------
                                X             Y             Z
Electronic contribution:     19.25955      13.24549     -12.73169
Nuclear contribution   :    -19.62846     -13.54989      13.18323
                        -----------------------------------------
Total Dipole Moment    :     -0.36890      -0.30440       0.45154
                        -----------------------------------------
Magnitude (a.u.)       :      0.65775
Magnitude (Debye)      :      1.67187

Rotational constants in cm-1:     0.017563     0.007820     0.006552
Rotational constants in MHz :   526.518391   234.441227   196.438770

                             ****ORCA TERMINATED NORMALLY****
TOTAL RUN TIME: 0 days 0 hours 0 minutes 31 seconds 928 msec
