                         Program Version 4.2.1 -  RELEASE  -
|  1> ! wB97X-D3 SP def2-SVP
|  2> %pal
|  3> nprocs 16
|  4> end
|  5>
|  6> * xyz 0 1
|  7> S 	 -39.9415 	 56.4371 	 113.463
|  8> C 	 -41.6216 	 56.8317 	 113.264
|  9> C 	 -42.0841 	 56.4242 	 112.065
| 10> C 	 -41.07 	 55.7311 	 111.277
| 11> C 	 -39.8197 	 55.6049 	 111.888
| 12> H 	 -41.0239 	 55.3075 	 110.27
| 13> C 	 -43.4774 	 56.6813 	 111.627
| 14> H 	 -43.8914 	 57.3759 	 112.311
| 15> H 	 -44.0677 	 55.758 	 111.666
| 16> C 	 -43.6704 	 57.3087 	 110.235
| 17> H 	 -43.282 	 56.5439 	 109.626
| 18> H 	 -44.7943 	 57.2359 	 110.036
| 19> C 	 -42.958 	 58.656 	 109.899
| 20> H 	 -43.5996 	 59.309 	 109.335
| 21> H 	 -42.8502 	 59.2897 	 110.752
| 22> H 	 -42.011 	 58.4843 	 109.424
| 23> S 	 -37.2136 	 55.927 	 110.951
| 24> C 	 -36.4184 	 54.506 	 110.424
| 25> C 	 -37.0992 	 53.366 	 110.722
| 26> C 	 -38.3377 	 53.6308 	 111.296
| 27> C 	 -38.5958 	 54.9513 	 111.395
| 28> H 	 -36.7595 	 52.3593 	 110.503
| 29> C 	 -39.3119 	 52.4552 	 111.734
| 30> H 	 -38.9678 	 51.4862 	 111.407
| 31> H 	 -40.2541 	 52.4871 	 111.175
| 32> C 	 -39.6929 	 52.3143 	 113.216
| 33> H 	 -40.1823 	 53.2175 	 113.572
| 34> H 	 -38.8011 	 52.3757 	 113.866
| 35> C 	 -40.7131 	 51.1964 	 113.605
| 36> H 	 -41.6521 	 51.4511 	 113.108
| 37> H 	 -40.9467 	 51.2016 	 114.676
| 38> H 	 -40.4029 	 50.1607 	 113.383
| 39> H 	 -42.1967 	 57.4574 	 113.938
| 40> H 	 -35.4218 	 54.4198 	 110.086
| 41> *
| 42>
| 43>                          ****END OF INPUT****

CARTESIAN COORDINATES (ANGSTROEM)
---------------------------------
  S    -39.941500   56.437100  113.463000
  C    -41.621600   56.831700  113.264000
  C    -42.084100   56.424200  112.065000
  C    -41.070000   55.731100  111.277000
  C    -39.819700   55.604900  111.888000
  H    -41.023900   55.307500  110.270000
  C    -43.477400   56.681300  111.627000
  H    -43.891400   57.375900  112.311000
  H    -44.067700   55.758000  111.666000
  C    -43.670400   57.308700  110.235000
  H    -43.282000   56.543900  109.626000
  H    -44.794300   57.235900  110.036000
  C    -42.958000   58.656000  109.899000
  H    -43.599600   59.309000  109.335000
  H    -42.850200   59.289700  110.752000
  H    -42.011000   58.484300  109.424000
  S    -37.213600   55.927000  110.951000
  C    -36.418400   54.506000  110.424000
  C    -37.099200   53.366000  110.722000
  C    -38.337700   53.630800  111.296000
  C    -38.595800   54.951300  111.395000
  H    -36.759500   52.359300  110.503000
  C    -39.311900   52.455200  111.734000
  H    -38.967800   51.486200  111.407000
  H    -40.254100   52.487100  111.175000
  C    -39.692900   52.314300  113.216000
  H    -40.182300   53.217500  113.572000
  H    -38.801100   52.375700  113.866000
  C    -40.713100   51.196400  113.605000
  H    -41.652100   51.451100  113.108000
  H    -40.946700   51.201600  114.676000
  H    -40.402900   50.160700  113.383000
  H    -42.196700   57.457400  113.938000
  H    -35.421800   54.419800  110.086000

 Total Charge           Charge          ....    0
 Multiplicity           Mult            ....    1
 Number of Electrons    NEL             ....  134
 Basis Dimension        Dim             ....  322

ORBITAL ENERGIES
----------------

  NO   OCC          E(Eh)            E(eV)
   0   2.0000     -88.970725     -2421.0165
   1   2.0000     -88.959946     -2420.7232
   2   2.0000     -10.332325      -281.1568
   3   2.0000     -10.324471      -280.9431
   4   2.0000     -10.312016      -280.6042
   5   2.0000     -10.311011      -280.5769
   6   2.0000     -10.303082      -280.3611
   7   2.0000     -10.299070      -280.2519
   8   2.0000     -10.298819      -280.2451
   9   2.0000     -10.295087      -280.1436
  10   2.0000     -10.288673      -279.9690
  11   2.0000     -10.287082      -279.9257
  12   2.0000     -10.284915      -279.8668
  13   2.0000     -10.282240      -279.7940
  14   2.0000     -10.280987      -279.7599
  15   2.0000     -10.274161      -279.5741
  16   2.0000      -8.086207      -220.0369
  17   2.0000      -8.074416      -219.7160
  18   2.0000      -6.044594      -164.4818
  19   2.0000      -6.040706      -164.3760
  20   2.0000      -6.036949      -164.2737
  21   2.0000      -6.033022      -164.1669
  22   2.0000      -6.028826      -164.0527
  23   2.0000      -6.025197      -163.9539
  24   2.0000      -1.014065       -27.5941
  25   2.0000      -0.988340       -26.8941
  26   2.0000      -0.910990       -24.7893
  27   2.0000      -0.898620       -24.4527
  28   2.0000      -0.871254       -23.7080
  29   2.0000      -0.853442       -23.2233
  30   2.0000      -0.838483       -22.8163
  31   2.0000      -0.818447       -22.2711
  32   2.0000      -0.785892       -21.3852
  33   2.0000      -0.778118       -21.1737
  34   2.0000      -0.713449       -19.4139
  35   2.0000      -0.695850       -18.9350
  36   2.0000      -0.689563       -18.7640
  37   2.0000      -0.664739       -18.0885
  38   2.0000      -0.645356       -17.5610
  39   2.0000      -0.614827       -16.7303
  40   2.0000      -0.602576       -16.3969
  41   2.0000      -0.569308       -15.4917
  42   2.0000      -0.551788       -15.0149
  43   2.0000      -0.550927       -14.9915
  44   2.0000      -0.534575       -14.5465
  45   2.0000      -0.518256       -14.1025
  46   2.0000      -0.515067       -14.0157
  47   2.0000      -0.510401       -13.8887
  48   2.0000      -0.506893       -13.7933
  49   2.0000      -0.499968       -13.6048
  50   2.0000      -0.487289       -13.2598
  51   2.0000      -0.480113       -13.0645
  52   2.0000      -0.475644       -12.9429
  53   2.0000      -0.469238       -12.7686
  54   2.0000      -0.465438       -12.6652
  55   2.0000      -0.452509       -12.3134
  56   2.0000      -0.440214       -11.9788
  57   2.0000      -0.435052       -11.8384
  58   2.0000      -0.432529       -11.7697
  59   2.0000      -0.426074       -11.5941
  60   2.0000      -0.414128       -11.2690
  61   2.0000      -0.409887       -11.1536
  62   2.0000      -0.403403       -10.9772
  63   2.0000      -0.341460        -9.2916
  64   2.0000      -0.335781        -9.1371
  65   2.0000      -0.324623        -8.8334
  66   2.0000      -0.309745        -8.4286
  67   0.0000       0.039707         1.0805
  68   0.0000       0.060861         1.6561
  69   0.0000       0.119910         3.2629
  70   0.0000       0.124810         3.3962
  71   0.0000       0.135921         3.6986

MULLIKEN ATOMIC CHARGES
-----------------------
   0 S :    0.091722
   1 C :   -0.116873
   2 C :   -0.076119
   3 C :    0.047834
   4 C :   -0.193494
   5 H :    0.016639
   6 C :    0.089143
   7 H :   -0.001025
   8 H :    0.040387
   9 C :   -0.107602
  10 H :    0.015295
  11 H :    0.036925
  12 C :   -0.007969
  13 H :    0.024972
  14 H :    0.016011
  15 H :    0.047558
  16 S :    0.137906
  17 C :   -0.059378
  18 C :   -0.046256
  19 C :    0.013955
  20 C :   -0.209435
  21 H :    0.014564
  22 C :    0.111773
  23 H :    0.000098
  24 H :    0.016085
  25 C :   -0.087953
  26 H :    0.026589
  27 H :    0.024708
  28 C :   -0.061438
  29 H :    0.033275
  30 H :    0.037265
  31 H :    0.035213
  32 H :    0.049518
  33 H :    0.040107
Sum of atomic charges:   -0.0000000

LOEWDIN ATOMIC CHARGES
----------------------
   0 S :    0.383730
   1 C :   -0.193069
   2 C :   -0.070905
   3 C :   -0.065381
   4 C :   -0.182447
   5 H :    0.035261
   6 C :   -0.030338
   7 H :    0.019348
   8 H :    0.037150
   9 C :   -0.044697
  10 H :    0.014247
  11 H :    0.032749
  12 C :   -0.062866
  13 H :    0.029287
  14 H :    0.023570
  15 H :    0.030570
  16 S :    0.431805
  17 C :   -0.185851
  18 C :   -0.070922
  19 C :   -0.047449
  20 C :   -0.209119
  21 H :    0.033406
  22 C :   -0.027506
  23 H :    0.022825
  24 H :    0.031050
  25 C :   -0.050398
  26 H :    0.022883
  27 H :    0.023106
  28 C :   -0.066368
  29 H :    0.026802
  30 H :    0.031109
  31 H :    0.022099
  32 H :    0.032301
  33 H :    0.024019

  Mayer bond orders larger than 0.100000
B(  0-S ,  1-C ) :   1.1313 B(  0-S ,  4-C ) :   1.1310 B(  1-C ,  2-C ) :   1.6433
B(  1-C , 32-H ) :   0.9641 B(  2-C ,  3-C ) :   1.1714 B(  2-C ,  6-C ) :   1.0374
B(  3-C ,  4-C ) :   1.6349 B(  3-C ,  5-H ) :   0.9901 B(  4-C , 20-C ) :   1.0146
B(  6-C ,  7-H ) :   0.9350 B(  6-C ,  8-H ) :   0.9338 B(  6-C ,  9-C ) :   1.0782
B(  9-C , 10-H ) :   0.9597 B(  9-C , 11-H ) :   0.9585 B(  9-C , 12-C ) :   1.0527
B( 12-C , 13-H ) :   0.9738 B( 12-C , 14-H ) :   0.9783 B( 12-C , 15-H ) :   0.9758
B( 16-S , 17-C ) :   1.1669 B( 16-S , 20-C ) :   1.1438 B( 17-C , 18-C ) :   1.6002
B( 17-C , 33-H ) :   0.9658 B( 18-C , 19-C ) :   1.2759 B( 18-C , 21-H ) :   0.9889
B( 19-C , 20-C ) :   1.6184 B( 19-C , 22-C ) :   1.0190 B( 22-C , 23-H ) :   0.9388
B( 22-C , 24-H ) :   0.9322 B( 22-C , 25-C ) :   1.0568 B( 25-C , 26-H ) :   0.9510
B( 25-C , 27-H ) :   0.9564 B( 25-C , 28-C ) :   1.0775 B( 28-C , 29-H ) :   0.9746
B( 28-C , 30-H ) :   0.9741 B( 28-C , 31-H ) :   0.9786

Dispersion correction           -0.014783823
FINAL SINGLE POINT ENERGY     -1339.873107507142

DIPOLE MOMENT
-------------
                                X             Y             Z
Electronic contribution:     20.31292       8.18078       2.34023
Nuclear contribution   :    -20.65132      -8.43680      -2.55946
                        -----------------------------------------
Total Dipole Moment    :     -0.33841      -0.25602      -0.21923
                        -----------------------------------------
Magnitude (a.u.)       :      0.47763
Magnitude (Debye)      :      1.21404

Rotational constants in cm-1:     0.017463     0.009095     0.007366
Rotational constants in MHz :   523.516345   272.664912   220.835224

                             ****ORCA TERMINATED NORMALLY****
TOTAL RUN TIME: 0 days 0 hours 0 minutes 30 seconds 885 msec
