                         Program Version 4.2.1 -  RELEASE  -
|  1> ! wB97X-D3 SP def2-SVP
|  2> %pal
|  3> nprocs 16
|  4> end
|  5>
|  6> * xyz 0 1
|  7> S 	 -27.0886 	 56.8853 	 110.621
|  8> C 	 -28.0819 	 57.776 	 109.606
|  9> C 	 -29.0582 	 56.9908 	 109.006
| 10> C 	 -29.1475 	 55.6555 	 109.649
| 11> C 	 -28.1711 	 55.535 	 110.616
| 12> H 	 -29.8229 	 54.8131 	 109.536
| 13> C 	 -30.1542 	 57.4727 	 108.082
| 14> H 	 -29.8467 	 57.1383 	 107.044
| 15> H 	 -29.9796 	 58.5315 	 108.222
| 16> C 	 -31.6229 	 56.925 	 108.406
| 17> H 	 -31.6539 	 55.8913 	 108.167
| 18> H 	 -31.8771 	 57.1174 	 109.415
| 19> C 	 -32.6185 	 57.5338 	 107.427
| 20> H 	 -32.5593 	 57.0917 	 106.466
| 21> H 	 -33.6711 	 57.3958 	 107.592
| 22> H 	 -32.4762 	 58.5447 	 107.402
| 23> S 	 -28.388 	 54.6502 	 113.194
| 24> C 	 -28.2432 	 52.9309 	 113.496
| 25> C 	 -27.8813 	 52.226 	 112.359
| 26> C 	 -27.7587 	 53.0438 	 111.233
| 27> C 	 -28.0196 	 54.3873 	 111.535
| 28> H 	 -27.7507 	 51.1097 	 112.522
| 29> C 	 -27.4919 	 52.4242 	 109.847
| 30> H 	 -26.7435 	 51.5756 	 110.008
| 31> H 	 -26.9334 	 53.1224 	 109.246
| 32> C 	 -28.7934 	 51.8934 	 109.145
| 33> H 	 -29.5894 	 52.6103 	 109.152
| 34> H 	 -29.2322 	 51.1366 	 109.76
| 35> C 	 -28.5311 	 51.4299 	 107.734
| 36> H 	 -28.1554 	 52.286 	 107.029
| 37> H 	 -29.4728 	 50.977 	 107.376
| 38> H 	 -27.7775 	 50.6747 	 107.733
| 39> H 	 -27.6992 	 58.7269 	 109.186
| 40> H 	 -28.5991 	 52.3809 	 114.446
| 41> *
| 42>
| 43>                          ****END OF INPUT****

CARTESIAN COORDINATES (ANGSTROEM)
---------------------------------
  S    -27.088600   56.885300  110.621000
  C    -28.081900   57.776000  109.606000
  C    -29.058200   56.990800  109.006000
  C    -29.147500   55.655500  109.649000
  C    -28.171100   55.535000  110.616000
  H    -29.822900   54.813100  109.536000
  C    -30.154200   57.472700  108.082000
  H    -29.846700   57.138300  107.044000
  H    -29.979600   58.531500  108.222000
  C    -31.622900   56.925000  108.406000
  H    -31.653900   55.891300  108.167000
  H    -31.877100   57.117400  109.415000
  C    -32.618500   57.533800  107.427000
  H    -32.559300   57.091700  106.466000
  H    -33.671100   57.395800  107.592000
  H    -32.476200   58.544700  107.402000
  S    -28.388000   54.650200  113.194000
  C    -28.243200   52.930900  113.496000
  C    -27.881300   52.226000  112.359000
  C    -27.758700   53.043800  111.233000
  C    -28.019600   54.387300  111.535000
  H    -27.750700   51.109700  112.522000
  C    -27.491900   52.424200  109.847000
  H    -26.743500   51.575600  110.008000
  H    -26.933400   53.122400  109.246000
  C    -28.793400   51.893400  109.145000
  H    -29.589400   52.610300  109.152000
  H    -29.232200   51.136600  109.760000
  C    -28.531100   51.429900  107.734000
  H    -28.155400   52.286000  107.029000
  H    -29.472800   50.977000  107.376000
  H    -27.777500   50.674700  107.733000
  H    -27.699200   58.726900  109.186000
  H    -28.599100   52.380900  114.446000

 Total Charge           Charge          ....    0
 Multiplicity           Mult            ....    1
 Number of Electrons    NEL             ....  134
 Basis Dimension        Dim             ....  322

ORBITAL ENERGIES
----------------

  NO   OCC          E(Eh)            E(eV)
   0   2.0000     -88.967480     -2420.9282
   1   2.0000     -88.960170     -2420.7293
   2   2.0000     -10.323199      -280.9085
   3   2.0000     -10.323063      -280.9048
   4   2.0000     -10.319664      -280.8123
   5   2.0000     -10.309425      -280.5337
   6   2.0000     -10.304310      -280.3945
   7   2.0000     -10.302591      -280.3478
   8   2.0000     -10.297702      -280.2147
   9   2.0000     -10.297110      -280.1986
  10   2.0000     -10.294690      -280.1328
  11   2.0000     -10.294419      -280.1254
  12   2.0000     -10.286857      -279.9196
  13   2.0000     -10.284869      -279.8655
  14   2.0000     -10.284641      -279.8593
  15   2.0000     -10.263763      -279.2912
  16   2.0000      -8.082566      -219.9378
  17   2.0000      -8.076971      -219.7855
  18   2.0000      -6.040902      -164.3813
  19   2.0000      -6.036990      -164.2748
  20   2.0000      -6.035245      -164.2274
  21   2.0000      -6.033519      -164.1804
  22   2.0000      -6.031203      -164.1174
  23   2.0000      -6.027855      -164.0263
  24   2.0000      -1.009287       -27.4641
  25   2.0000      -0.988064       -26.8866
  26   2.0000      -0.907388       -24.6913
  27   2.0000      -0.905305       -24.6346
  28   2.0000      -0.869586       -23.6626
  29   2.0000      -0.853517       -23.2254
  30   2.0000      -0.850940       -23.1553
  31   2.0000      -0.813488       -22.1361
  32   2.0000      -0.776818       -21.1383
  33   2.0000      -0.763991       -20.7892
  34   2.0000      -0.713946       -19.4275
  35   2.0000      -0.702978       -19.1290
  36   2.0000      -0.684345       -18.6220
  37   2.0000      -0.654203       -17.8018
  38   2.0000      -0.642807       -17.4917
  39   2.0000      -0.611037       -16.6272
  40   2.0000      -0.588458       -16.0127
  41   2.0000      -0.576734       -15.6937
  42   2.0000      -0.560283       -15.2461
  43   2.0000      -0.555649       -15.1200
  44   2.0000      -0.528783       -14.3889
  45   2.0000      -0.522610       -14.2209
  46   2.0000      -0.516166       -14.0456
  47   2.0000      -0.510729       -13.8976
  48   2.0000      -0.500857       -13.6290
  49   2.0000      -0.496555       -13.5119
  50   2.0000      -0.487657       -13.2698
  51   2.0000      -0.477537       -12.9944
  52   2.0000      -0.470582       -12.8052
  53   2.0000      -0.462343       -12.5810
  54   2.0000      -0.457409       -12.4467
  55   2.0000      -0.448882       -12.2147
  56   2.0000      -0.445768       -12.1300
  57   2.0000      -0.437790       -11.9129
  58   2.0000      -0.435029       -11.8377
  59   2.0000      -0.425893       -11.5891
  60   2.0000      -0.424499       -11.5512
  61   2.0000      -0.418607       -11.3909
  62   2.0000      -0.414140       -11.2693
  63   2.0000      -0.344262        -9.3678
  64   2.0000      -0.330182        -8.9847
  65   2.0000      -0.319624        -8.6974
  66   2.0000      -0.297750        -8.1022
  67   0.0000       0.042311         1.1513
  68   0.0000       0.064658         1.7594
  69   0.0000       0.113781         3.0961
  70   0.0000       0.123986         3.3738
  71   0.0000       0.135467         3.6862

MULLIKEN ATOMIC CHARGES
-----------------------
   0 S :    0.123892
   1 C :   -0.127457
   2 C :   -0.111575
   3 C :    0.036591
   4 C :   -0.175706
   5 H :    0.012358
   6 C :    0.036282
   7 H :    0.045826
   8 H :    0.023821
   9 C :   -0.049447
  10 H :    0.029453
  11 H :    0.036443
  12 C :   -0.002108
  13 H :    0.014685
  14 H :    0.018940
  15 H :    0.010887
  16 S :    0.131878
  17 C :   -0.141456
  18 C :   -0.070850
  19 C :   -0.005667
  20 C :   -0.190737
  21 H :    0.045139
  22 C :    0.056199
  23 H :    0.032489
  24 H :    0.023268
  25 C :   -0.039674
  26 H :    0.007817
  27 H :    0.013928
  28 C :   -0.046809
  29 H :    0.051462
  30 H :    0.037974
  31 H :    0.022828
  32 H :    0.066632
  33 H :    0.082696
Sum of atomic charges:   -0.0000000

LOEWDIN ATOMIC CHARGES
----------------------
   0 S :    0.435008
   1 C :   -0.236080
   2 C :   -0.062461
   3 C :   -0.061536
   4 C :   -0.204236
   5 H :    0.030836
   6 C :   -0.035527
   7 H :    0.039648
   8 H :    0.029816
   9 C :   -0.023131
  10 H :    0.021921
  11 H :    0.022106
  12 C :   -0.058590
  13 H :    0.022492
  14 H :    0.026114
  15 H :    0.012584
  16 S :    0.429214
  17 C :   -0.208563
  18 C :   -0.085116
  19 C :   -0.059339
  20 C :   -0.217080
  21 H :    0.046134
  22 C :   -0.028256
  23 H :    0.037643
  24 H :    0.025274
  25 C :   -0.038784
  26 H :    0.016850
  27 H :    0.022251
  28 C :   -0.066865
  29 H :    0.038784
  30 H :    0.029879
  31 H :    0.017762
  32 H :    0.034268
  33 H :    0.046980

  Mayer bond orders larger than 0.100000
B(  0-S ,  1-C ) :   1.1502 B(  0-S ,  4-C ) :   1.1723 B(  1-C ,  2-C ) :   1.6243
B(  1-C , 32-H ) :   0.9553 B(  2-C ,  3-C ) :   1.1978 B(  2-C ,  6-C ) :   1.0222
B(  3-C ,  4-C ) :   1.6055 B(  3-C ,  5-H ) :   0.9897 B(  4-C , 20-C ) :   0.9980
B(  6-C ,  7-H ) :   0.9276 B(  6-C ,  8-H ) :   0.9497 B(  6-C ,  9-C ) :   1.0705
B(  9-C , 10-H ) :   0.9496 B(  9-C , 11-H ) :   0.9629 B(  9-C , 12-C ) :   1.0857
B( 12-C , 13-H ) :   0.9735 B( 12-C , 14-H ) :   0.9705 B( 12-C , 15-H ) :   0.9752
B( 16-S , 17-C ) :   1.1655 B( 16-S , 20-C ) :   1.1714 B( 17-C , 18-C ) :   1.6080
B( 17-C , 20-C ) :   0.1045 B( 17-C , 33-H ) :   0.9535 B( 18-C , 19-C ) :   1.2572
B( 18-C , 21-H ) :   0.9794 B( 19-C , 20-C ) :   1.5762 B( 19-C , 22-C ) :   1.0428
B( 22-C , 23-H ) :   0.9379 B( 22-C , 24-H ) :   0.9348 B( 22-C , 25-C ) :   1.0508
B( 25-C , 26-H ) :   0.9532 B( 25-C , 27-H ) :   0.9467 B( 25-C , 28-C ) :   1.0885
B( 28-C , 29-H ) :   0.9728 B( 28-C , 30-H ) :   0.9713 B( 28-C , 31-H ) :   0.9736

Dispersion correction           -0.014330279
FINAL SINGLE POINT ENERGY     -1339.859630131075

DIPOLE MOMENT
-------------
                                X             Y             Z
Electronic contribution:     15.73502       7.63945      23.52366
Nuclear contribution   :    -16.16014      -8.03114     -23.97541
                        -----------------------------------------
Total Dipole Moment    :     -0.42511      -0.39170      -0.45176
                        -----------------------------------------
Magnitude (a.u.)       :      0.73364
Magnitude (Debye)      :      1.86477

Rotational constants in cm-1:     0.016218     0.009049     0.007218
Rotational constants in MHz :   486.191229   271.267682   216.400579

                             ****ORCA TERMINATED NORMALLY****
TOTAL RUN TIME: 0 days 0 hours 0 minutes 29 seconds 682 msec
