                         Program Version 4.2.1 -  RELEASE  -
|  1> ! wB97X-D3 SP def2-SVP
|  2> %pal
|  3> nprocs 16
|  4> end
|  5>
|  6> * xyz 0 1
|  7> S 	 42.9284 	 13.3646 	 86.7656
|  8> C 	 44.0304 	 13.7223 	 85.4293
|  9> C 	 43.3893 	 14.1931 	 84.3074
| 10> C 	 41.998 	 14.0883 	 84.4787
| 11> C 	 41.6259 	 13.5671 	 85.7109
| 12> H 	 41.2533 	 14.2439 	 83.713
| 13> C 	 44.0602 	 14.6971 	 83.0747
| 14> H 	 45.1511 	 14.6438 	 83.1379
| 15> H 	 43.7549 	 15.6999 	 82.8049
| 16> C 	 43.8335 	 13.9051 	 81.7695
| 17> H 	 43.8899 	 12.8564 	 82.0379
| 18> H 	 42.8215 	 13.9421 	 81.358
| 19> C 	 44.7325 	 14.2396 	 80.6041
| 20> H 	 44.9674 	 15.3298 	 80.5971
| 21> H 	 45.5559 	 13.5453 	 80.6391
| 22> H 	 44.2568 	 13.8905 	 79.6579
| 23> S 	 39.7618 	 14.4884 	 87.5521
| 24> C 	 38.1461 	 13.8016 	 87.5285
| 25> C 	 38.1096 	 12.6458 	 86.7972
| 26> C 	 39.3088 	 12.4627 	 86.0102
| 27> C 	 40.2899 	 13.43 	 86.2665
| 28> H 	 37.2175 	 12.0273 	 86.8711
| 29> C 	 39.447 	 11.2094 	 85.1697
| 30> H 	 39.3973 	 10.4494 	 85.8421
| 31> H 	 40.4823 	 11.2358 	 84.8421
| 32> C 	 38.4802 	 11.1685 	 83.9419
| 33> H 	 38.9216 	 11.9151 	 83.2623
| 34> H 	 37.4707 	 11.4758 	 84.2806
| 35> C 	 38.4839 	 9.83119 	 83.1992
| 36> H 	 39.436 	 9.30021 	 83.1144
| 37> H 	 37.9213 	 9.83119 	 82.2934
| 38> H 	 37.7783 	 9.28102 	 83.785
| 39> H 	 45.1245 	 13.5065 	 85.5249
| 40> H 	 37.3839 	 14.0586 	 88.2737
| 41> *
| 42>
| 43>                          ****END OF INPUT****

CARTESIAN COORDINATES (ANGSTROEM)
---------------------------------
  S     42.928400   13.364600   86.765600
  C     44.030400   13.722300   85.429300
  C     43.389300   14.193100   84.307400
  C     41.998000   14.088300   84.478700
  C     41.625900   13.567100   85.710900
  H     41.253300   14.243900   83.713000
  C     44.060200   14.697100   83.074700
  H     45.151100   14.643800   83.137900
  H     43.754900   15.699900   82.804900
  C     43.833500   13.905100   81.769500
  H     43.889900   12.856400   82.037900
  H     42.821500   13.942100   81.358000
  C     44.732500   14.239600   80.604100
  H     44.967400   15.329800   80.597100
  H     45.555900   13.545300   80.639100
  H     44.256800   13.890500   79.657900
  S     39.761800   14.488400   87.552100
  C     38.146100   13.801600   87.528500
  C     38.109600   12.645800   86.797200
  C     39.308800   12.462700   86.010200
  C     40.289900   13.430000   86.266500
  H     37.217500   12.027300   86.871100
  C     39.447000   11.209400   85.169700
  H     39.397300   10.449400   85.842100
  H     40.482300   11.235800   84.842100
  C     38.480200   11.168500   83.941900
  H     38.921600   11.915100   83.262300
  H     37.470700   11.475800   84.280600
  C     38.483900    9.831190   83.199200
  H     39.436000    9.300210   83.114400
  H     37.921300    9.831190   82.293400
  H     37.778300    9.281020   83.785000
  H     45.124500   13.506500   85.524900
  H     37.383900   14.058600   88.273700

 Total Charge           Charge          ....    0
 Multiplicity           Mult            ....    1
 Number of Electrons    NEL             ....  134
 Basis Dimension        Dim             ....  322

ORBITAL ENERGIES
----------------

  NO   OCC          E(Eh)            E(eV)
   0   2.0000     -88.967075     -2420.9172
   1   2.0000     -88.961934     -2420.7773
   2   2.0000     -10.323865      -280.9266
   3   2.0000     -10.323516      -280.9171
   4   2.0000     -10.316957      -280.7387
   5   2.0000     -10.315028      -280.6862
   6   2.0000     -10.302100      -280.3344
   7   2.0000     -10.301205      -280.3100
   8   2.0000     -10.293434      -280.0986
   9   2.0000     -10.292507      -280.0734
  10   2.0000     -10.292147      -280.0636
  11   2.0000     -10.290519      -280.0192
  12   2.0000     -10.282224      -279.7935
  13   2.0000     -10.280639      -279.7504
  14   2.0000     -10.279876      -279.7297
  15   2.0000     -10.272306      -279.5237
  16   2.0000      -8.082927      -219.9476
  17   2.0000      -8.076855      -219.7824
  18   2.0000      -6.041206      -164.3896
  19   2.0000      -6.037354      -164.2847
  20   2.0000      -6.035453      -164.2330
  21   2.0000      -6.033781      -164.1875
  22   2.0000      -6.031410      -164.1230
  23   2.0000      -6.027436      -164.0149
  24   2.0000      -1.012303       -27.5462
  25   2.0000      -0.985227       -26.8094
  26   2.0000      -0.917794       -24.9744
  27   2.0000      -0.905838       -24.6491
  28   2.0000      -0.873454       -23.7679
  29   2.0000      -0.851603       -23.1733
  30   2.0000      -0.848034       -23.0762
  31   2.0000      -0.815432       -22.1890
  32   2.0000      -0.787389       -21.4259
  33   2.0000      -0.770729       -20.9726
  34   2.0000      -0.705183       -19.1890
  35   2.0000      -0.697312       -18.9748
  36   2.0000      -0.689181       -18.7536
  37   2.0000      -0.655949       -17.8493
  38   2.0000      -0.645297       -17.5594
  39   2.0000      -0.623808       -16.9747
  40   2.0000      -0.592763       -16.1299
  41   2.0000      -0.577690       -15.7198
  42   2.0000      -0.565557       -15.3896
  43   2.0000      -0.559236       -15.2176
  44   2.0000      -0.531455       -14.4616
  45   2.0000      -0.526800       -14.3350
  46   2.0000      -0.517166       -14.0728
  47   2.0000      -0.512706       -13.9514
  48   2.0000      -0.509833       -13.8733
  49   2.0000      -0.497627       -13.5411
  50   2.0000      -0.490800       -13.3554
  51   2.0000      -0.481028       -13.0894
  52   2.0000      -0.469511       -12.7760
  53   2.0000      -0.465897       -12.6777
  54   2.0000      -0.462749       -12.5920
  55   2.0000      -0.449679       -12.2364
  56   2.0000      -0.445598       -12.1253
  57   2.0000      -0.438124       -11.9220
  58   2.0000      -0.429496       -11.6872
  59   2.0000      -0.427800       -11.6410
  60   2.0000      -0.420745       -11.4491
  61   2.0000      -0.410247       -11.1634
  62   2.0000      -0.405804       -11.0425
  63   2.0000      -0.337532        -9.1847
  64   2.0000      -0.336216        -9.1489
  65   2.0000      -0.323563        -8.8046
  66   2.0000      -0.297785        -8.1031
  67   0.0000       0.042340         1.1521
  68   0.0000       0.057609         1.5676
  69   0.0000       0.107702         2.9307
  70   0.0000       0.122028         3.3205
  71   0.0000       0.132643         3.6094

MULLIKEN ATOMIC CHARGES
-----------------------
   0 S :    0.119225
   1 C :   -0.158106
   2 C :   -0.043976
   3 C :    0.045051
   4 C :   -0.190612
   5 H :    0.009856
   6 C :    0.099044
   7 H :    0.018489
   8 H :    0.032613
   9 C :   -0.123932
  10 H :    0.018590
  11 H :    0.021258
  12 C :   -0.041532
  13 H :    0.049209
  14 H :    0.027609
  15 H :    0.031944
  16 S :    0.102395
  17 C :   -0.099830
  18 C :   -0.037968
  19 C :   -0.059359
  20 C :   -0.156553
  21 H :    0.026666
  22 C :    0.122340
  23 H :    0.006062
  24 H :    0.016878
  25 C :   -0.101161
  26 H :    0.031260
  27 H :    0.036475
  28 C :   -0.007905
  29 H :    0.045539
  30 H :    0.023257
  31 H :    0.009622
  32 H :    0.063533
  33 H :    0.064018
Sum of atomic charges:    0.0000000

LOEWDIN ATOMIC CHARGES
----------------------
   0 S :    0.429395
   1 C :   -0.193647
   2 C :   -0.063805
   3 C :   -0.055247
   4 C :   -0.214263
   5 H :    0.031534
   6 C :   -0.028359
   7 H :    0.032792
   8 H :    0.032965
   9 C :   -0.053274
  10 H :    0.020079
  11 H :    0.017854
  12 C :   -0.069732
  13 H :    0.032476
  14 H :    0.025002
  15 H :    0.033993
  16 S :    0.397322
  17 C :   -0.185655
  18 C :   -0.073785
  19 C :   -0.050287
  20 C :   -0.211837
  21 H :    0.033973
  22 C :   -0.023642
  23 H :    0.015972
  24 H :    0.030363
  25 C :   -0.034592
  26 H :    0.024727
  27 H :    0.024811
  28 C :   -0.070699
  29 H :    0.030197
  30 H :    0.024679
  31 H :    0.024685
  32 H :    0.033705
  33 H :    0.032305

  Mayer bond orders larger than 0.100000
B(  0-S ,  1-C ) :   1.1440 B(  0-S ,  4-C ) :   1.1802 B(  1-C ,  2-C ) :   1.5975
B(  1-C , 32-H ) :   0.9621 B(  2-C ,  3-C ) :   1.2391 B(  2-C ,  6-C ) :   1.0476
B(  3-C ,  4-C ) :   1.5695 B(  3-C ,  5-H ) :   1.0013 B(  4-C , 20-C ) :   1.0111
B(  6-C ,  7-H ) :   0.9432 B(  6-C ,  8-H ) :   0.9265 B(  6-C ,  9-C ) :   1.0504
B(  9-C , 10-H ) :   0.9569 B(  9-C , 11-H ) :   0.9567 B(  9-C , 12-C ) :   1.0864
B( 12-C , 13-H ) :   0.9725 B( 12-C , 14-H ) :   0.9740 B( 12-C , 15-H ) :   0.9726
B( 16-S , 17-C ) :   1.1493 B( 16-S , 20-C ) :   1.1377 B( 17-C , 18-C ) :   1.6335
B( 17-C , 33-H ) :   0.9615 B( 18-C , 19-C ) :   1.2195 B( 18-C , 21-H ) :   0.9871
B( 19-C , 20-C ) :   1.6086 B( 19-C , 22-C ) :   1.0371 B( 22-C , 23-H ) :   0.9384
B( 22-C , 24-H ) :   0.9241 B( 22-C , 25-C ) :   1.0457 B( 25-C , 26-H ) :   0.9552
B( 25-C , 27-H ) :   0.9672 B( 25-C , 28-C ) :   1.0760 B( 28-C , 29-H ) :   0.9739
B( 28-C , 30-H ) :   0.9703 B( 28-C , 31-H ) :   0.9714

Dispersion correction           -0.013577526
FINAL SINGLE POINT ENERGY     -1339.864969003213

DIPOLE MOMENT
-------------
                                X             Y             Z
Electronic contribution:     -1.16199      10.32424      28.66837
Nuclear contribution   :      1.09509     -10.71300     -29.15832
                        -----------------------------------------
Total Dipole Moment    :     -0.06690      -0.38876      -0.48994
                        -----------------------------------------
Magnitude (a.u.)       :      0.62901
Magnitude (Debye)      :      1.59882

Rotational constants in cm-1:     0.016929     0.008482     0.006329
Rotational constants in MHz :   507.512740   254.274881   189.746209

                             ****ORCA TERMINATED NORMALLY****
TOTAL RUN TIME: 0 days 0 hours 0 minutes 29 seconds 231 msec
