                         Program Version 4.2.1 -  RELEASE  -
|  1> ! wB97X-D3 SP def2-SVP
|  2> %pal
|  3> nprocs 16
|  4> end
|  5>
|  6> * xyz 0 1
|  7> S 	 -51.8842 	 43.3598 	 106.306
|  8> C 	 -51.0405 	 44.9419 	 106.493
|  9> C 	 -51.9205 	 45.9526 	 106.774
| 10> C 	 -53.2689 	 45.4137 	 106.835
| 11> C 	 -53.4533 	 44.022 	 106.623
| 12> H 	 -54.1906 	 45.8753 	 107
| 13> C 	 -51.5606 	 47.4135 	 107.227
| 14> H 	 -50.6199 	 47.7153 	 106.719
| 15> H 	 -51.3786 	 47.4436 	 108.301
| 16> C 	 -52.7525 	 48.4156 	 106.879
| 17> H 	 -53.0314 	 48.4507 	 105.863
| 18> H 	 -53.5721 	 48.1014 	 107.387
| 19> C 	 -52.3406 	 49.7756 	 107.417
| 20> H 	 -51.7761 	 49.7342 	 108.333
| 21> H 	 -51.7424 	 50.3125 	 106.687
| 22> H 	 -53.2505 	 50.3915 	 107.512
| 23> S 	 -55.2161 	 42.3941 	 105.33
| 24> C 	 -56.5661 	 41.7025 	 106.213
| 25> C 	 -56.5868 	 42.2006 	 107.47
| 26> C 	 -55.4822 	 42.8862 	 107.886
| 27> C 	 -54.6291 	 43.1838 	 106.814
| 28> H 	 -57.4492 	 41.8393 	 108.001
| 29> C 	 -55.2595 	 43.3946 	 109.386
| 30> H 	 -56.1796 	 43.2666 	 109.95
| 31> H 	 -55.0019 	 44.4316 	 109.406
| 32> C 	 -54.218 	 42.5739 	 110.139
| 33> H 	 -54.194 	 42.9103 	 111.143
| 34> H 	 -53.2575 	 42.781 	 109.747
| 35> C 	 -54.5608 	 41.0329 	 110.353
| 36> H 	 -54.3701 	 40.6175 	 109.365
| 37> H 	 -55.5107 	 40.796 	 110.825
| 38> H 	 -53.7693 	 40.6651 	 111.07
| 39> H 	 -50.0159 	 45.1588 	 106.183
| 40> H 	 -57.3603 	 41.1343 	 105.766
| 41> *
| 42>
| 43>                          ****END OF INPUT****

CARTESIAN COORDINATES (ANGSTROEM)
---------------------------------
  S    -51.884200   43.359800  106.306000
  C    -51.040500   44.941900  106.493000
  C    -51.920500   45.952600  106.774000
  C    -53.268900   45.413700  106.835000
  C    -53.453300   44.022000  106.623000
  H    -54.190600   45.875300  107.000000
  C    -51.560600   47.413500  107.227000
  H    -50.619900   47.715300  106.719000
  H    -51.378600   47.443600  108.301000
  C    -52.752500   48.415600  106.879000
  H    -53.031400   48.450700  105.863000
  H    -53.572100   48.101400  107.387000
  C    -52.340600   49.775600  107.417000
  H    -51.776100   49.734200  108.333000
  H    -51.742400   50.312500  106.687000
  H    -53.250500   50.391500  107.512000
  S    -55.216100   42.394100  105.330000
  C    -56.566100   41.702500  106.213000
  C    -56.586800   42.200600  107.470000
  C    -55.482200   42.886200  107.886000
  C    -54.629100   43.183800  106.814000
  H    -57.449200   41.839300  108.001000
  C    -55.259500   43.394600  109.386000
  H    -56.179600   43.266600  109.950000
  H    -55.001900   44.431600  109.406000
  C    -54.218000   42.573900  110.139000
  H    -54.194000   42.910300  111.143000
  H    -53.257500   42.781000  109.747000
  C    -54.560800   41.032900  110.353000
  H    -54.370100   40.617500  109.365000
  H    -55.510700   40.796000  110.825000
  H    -53.769300   40.665100  111.070000
  H    -50.015900   45.158800  106.183000
  H    -57.360300   41.134300  105.766000

 Total Charge           Charge          ....    0
 Multiplicity           Mult            ....    1
 Number of Electrons    NEL             ....  134
 Basis Dimension        Dim             ....  322

ORBITAL ENERGIES
----------------

  NO   OCC          E(Eh)            E(eV)
   0   2.0000     -88.964179     -2420.8384
   1   2.0000     -88.962973     -2420.8056
   2   2.0000     -10.331722      -281.1404
   3   2.0000     -10.330916      -281.1185
   4   2.0000     -10.317211      -280.7456
   5   2.0000     -10.313657      -280.6489
   6   2.0000     -10.308511      -280.5089
   7   2.0000     -10.307853      -280.4909
   8   2.0000     -10.305915      -280.4382
   9   2.0000     -10.294114      -280.1171
  10   2.0000     -10.293465      -280.0994
  11   2.0000     -10.285559      -279.8843
  12   2.0000     -10.280378      -279.7433
  13   2.0000     -10.279073      -279.7078
  14   2.0000     -10.277096      -279.6540
  15   2.0000     -10.276311      -279.6326
  16   2.0000      -8.078623      -219.8305
  17   2.0000      -8.077111      -219.7894
  18   2.0000      -6.036922      -164.2730
  19   2.0000      -6.035714      -164.2401
  20   2.0000      -6.033128      -164.1698
  21   2.0000      -6.031534      -164.1264
  22   2.0000      -6.029644      -164.0749
  23   2.0000      -6.027946      -164.0287
  24   2.0000      -1.004959       -27.3463
  25   2.0000      -0.980838       -26.6900
  26   2.0000      -0.909194       -24.7404
  27   2.0000      -0.900777       -24.5114
  28   2.0000      -0.873980       -23.7822
  29   2.0000      -0.844033       -22.9673
  30   2.0000      -0.839284       -22.8381
  31   2.0000      -0.811471       -22.0813
  32   2.0000      -0.781736       -21.2721
  33   2.0000      -0.773670       -21.0526
  34   2.0000      -0.717948       -19.5364
  35   2.0000      -0.701780       -19.0964
  36   2.0000      -0.688030       -18.7222
  37   2.0000      -0.658113       -17.9082
  38   2.0000      -0.644761       -17.5448
  39   2.0000      -0.611035       -16.6271
  40   2.0000      -0.592299       -16.1173
  41   2.0000      -0.575354       -15.6562
  42   2.0000      -0.565377       -15.3847
  43   2.0000      -0.555585       -15.1182
  44   2.0000      -0.543531       -14.7902
  45   2.0000      -0.525756       -14.3065
  46   2.0000      -0.512647       -13.9498
  47   2.0000      -0.508202       -13.8289
  48   2.0000      -0.500813       -13.6278
  49   2.0000      -0.496240       -13.5034
  50   2.0000      -0.488956       -13.3052
  51   2.0000      -0.480503       -13.0752
  52   2.0000      -0.475110       -12.9284
  53   2.0000      -0.471123       -12.8199
  54   2.0000      -0.454830       -12.3766
  55   2.0000      -0.452108       -12.3025
  56   2.0000      -0.442489       -12.0407
  57   2.0000      -0.439060       -11.9474
  58   2.0000      -0.428674       -11.6648
  59   2.0000      -0.425954       -11.5908
  60   2.0000      -0.423206       -11.5160
  61   2.0000      -0.406802       -11.0696
  62   2.0000      -0.401679       -10.9302
  63   2.0000      -0.339690        -9.2434
  64   2.0000      -0.333213        -9.0672
  65   2.0000      -0.324856        -8.8398
  66   2.0000      -0.302432        -8.2296
  67   0.0000       0.029980         0.8158
  68   0.0000       0.059414         1.6167
  69   0.0000       0.114410         3.1133
  70   0.0000       0.119717         3.2577
  71   0.0000       0.129277         3.5178

MULLIKEN ATOMIC CHARGES
-----------------------
   0 S :    0.101469
   1 C :   -0.133986
   2 C :   -0.053638
   3 C :    0.038799
   4 C :   -0.164407
   5 H :   -0.014252
   6 C :    0.028782
   7 H :    0.031811
   8 H :    0.052976
   9 C :   -0.047913
  10 H :    0.028631
  11 H :    0.014874
  12 C :   -0.038088
  13 H :    0.029927
  14 H :    0.027105
  15 H :    0.030419
  16 S :    0.100926
  17 C :   -0.092457
  18 C :   -0.052087
  19 C :    0.008740
  20 C :   -0.199829
  21 H :    0.014254
  22 C :    0.119014
  23 H :    0.009445
  24 H :    0.025543
  25 C :   -0.071222
  26 H :    0.014301
  27 H :    0.029835
  28 C :   -0.081882
  29 H :    0.053468
  30 H :    0.039711
  31 H :    0.039365
  32 H :    0.056279
  33 H :    0.054088
Sum of atomic charges:   -0.0000000

LOEWDIN ATOMIC CHARGES
----------------------
   0 S :    0.393394
   1 C :   -0.186679
   2 C :   -0.065920
   3 C :   -0.061773
   4 C :   -0.211002
   5 H :    0.016535
   6 C :   -0.018348
   7 H :    0.030855
   8 H :    0.034678
   9 C :   -0.026190
  10 H :    0.023570
  11 H :    0.009082
  12 C :   -0.062407
  13 H :    0.022446
  14 H :    0.024295
  15 H :    0.028434
  16 S :    0.398385
  17 C :   -0.175927
  18 C :   -0.080679
  19 C :   -0.049645
  20 C :   -0.194881
  21 H :    0.033642
  22 C :   -0.016595
  23 H :    0.026909
  24 H :    0.026987
  25 C :   -0.035172
  26 H :    0.017499
  27 H :    0.019692
  28 C :   -0.067403
  29 H :    0.027942
  30 H :    0.023605
  31 H :    0.033489
  32 H :    0.032660
  33 H :    0.028522

  Mayer bond orders larger than 0.100000
B(  0-S ,  1-C ) :   1.1365 B(  0-S ,  4-C ) :   1.1486 B(  1-C ,  2-C ) :   1.6312
B(  1-C ,  4-C ) :   0.1024 B(  1-C , 32-H ) :   0.9632 B(  2-C ,  3-C ) :   1.2145
B(  2-C ,  6-C ) :   1.0054 B(  3-C ,  4-C ) :   1.5879 B(  3-C ,  5-H ) :   1.0029
B(  4-C , 20-C ) :   1.0235 B(  6-C ,  7-H ) :   0.9490 B(  6-C ,  8-H ) :   0.9467
B(  6-C ,  9-C ) :   1.0628 B(  9-C , 10-H ) :   0.9612 B(  9-C , 11-H ) :   0.9501
B(  9-C , 12-C ) :   1.0889 B( 12-C , 13-H ) :   0.9736 B( 12-C , 14-H ) :   0.9756
B( 12-C , 15-H ) :   0.9726 B( 16-S , 17-C ) :   1.1566 B( 16-S , 20-C ) :   1.1629
B( 17-C , 18-C ) :   1.6134 B( 17-C , 20-C ) :   0.1172 B( 17-C , 33-H ) :   0.9667
B( 18-C , 19-C ) :   1.2568 B( 18-C , 21-H ) :   0.9885 B( 19-C , 20-C ) :   1.5571
B( 19-C , 22-C ) :   1.0169 B( 22-C , 23-H ) :   0.9374 B( 22-C , 24-H ) :   0.9393
B( 22-C , 25-C ) :   1.0833 B( 25-C , 26-H ) :   0.9564 B( 25-C , 27-H ) :   0.9601
B( 25-C , 28-C ) :   1.0616 B( 28-C , 29-H ) :   0.9789 B( 28-C , 30-H ) :   0.9766
B( 28-C , 31-H ) :   0.9770

Dispersion correction           -0.014193005
FINAL SINGLE POINT ENERGY     -1339.851091575055

DIPOLE MOMENT
-------------
                                X             Y             Z
Electronic contribution:     -1.01400     -15.90412     -18.04442
Nuclear contribution   :      0.76933      16.40946      18.53800
                        -----------------------------------------
Total Dipole Moment    :     -0.24466       0.50534       0.49358
                        -----------------------------------------
Magnitude (a.u.)       :      0.74756
Magnitude (Debye)      :      1.90014

Rotational constants in cm-1:     0.019362     0.007629     0.007099
Rotational constants in MHz :   580.468736   228.716605   212.825987

                             ****ORCA TERMINATED NORMALLY****
TOTAL RUN TIME: 0 days 0 hours 0 minutes 29 seconds 868 msec
