                         Program Version 4.2.1 -  RELEASE  -
|  1> ! wB97X-D3 SP def2-SVP
|  2> %pal
|  3> nprocs 16
|  4> end
|  5>
|  6> * xyz 0 1
|  7> S 	 71.8785 	 26.0713 	 74.809
|  8> C 	 70.5714 	 26.2864 	 73.6349
|  9> C 	 70.664 	 25.404 	 72.5408
| 10> C 	 71.7831 	 24.5169 	 72.7339
| 11> C 	 72.4354 	 24.6429 	 73.9979
| 12> H 	 72.1379 	 23.8006 	 72.0113
| 13> C 	 69.7075 	 25.5183 	 71.3334
| 14> H 	 70.3822 	 25.7338 	 70.4933
| 15> H 	 69.0648 	 26.4612 	 71.4742
| 16> C 	 68.8821 	 24.315 	 71.0751
| 17> H 	 68.4797 	 24.341 	 70.0666
| 18> H 	 69.5703 	 23.4664 	 71.2075
| 19> C 	 67.683 	 24.0105 	 71.968
| 20> H 	 67.3865 	 22.9152 	 71.8731
| 21> H 	 67.868 	 24.2101 	 73.0542
| 22> H 	 66.8675 	 24.5434 	 71.5878
| 23> S 	 74.7788 	 24.6112 	 75.3121
| 24> C 	 75.7169 	 23.2001 	 75.3989
| 25> C 	 74.961 	 22.1081 	 74.9944
| 26> C 	 73.702 	 22.4372 	 74.4869
| 27> C 	 73.5311 	 23.7727 	 74.405
| 28> H 	 75.4092 	 21.1503 	 75.2508
| 29> C 	 72.7393 	 21.3195 	 74.0976
| 30> H 	 73.221 	 20.2988 	 74.0006
| 31> H 	 72.4004 	 21.5134 	 73.0242
| 32> C 	 71.535 	 21.2056 	 75.0956
| 33> H 	 70.9551 	 22.1444 	 75.0349
| 34> H 	 71.8964 	 21.0057 	 76.1311
| 35> C 	 70.4703 	 20.1916 	 74.5179
| 36> H 	 70.9903 	 19.295 	 74.1249
| 37> H 	 69.9398 	 20.4691 	 73.6308
| 38> H 	 69.7492 	 19.8855 	 75.2352
| 39> H 	 69.8536 	 27.1261 	 73.612
| 40> H 	 76.7098 	 23.0879 	 75.8317
| 41> *
| 42>
| 43>                          ****END OF INPUT****

CARTESIAN COORDINATES (ANGSTROEM)
---------------------------------
  S     71.878500   26.071300   74.809000
  C     70.571400   26.286400   73.634900
  C     70.664000   25.404000   72.540800
  C     71.783100   24.516900   72.733900
  C     72.435400   24.642900   73.997900
  H     72.137900   23.800600   72.011300
  C     69.707500   25.518300   71.333400
  H     70.382200   25.733800   70.493300
  H     69.064800   26.461200   71.474200
  C     68.882100   24.315000   71.075100
  H     68.479700   24.341000   70.066600
  H     69.570300   23.466400   71.207500
  C     67.683000   24.010500   71.968000
  H     67.386500   22.915200   71.873100
  H     67.868000   24.210100   73.054200
  H     66.867500   24.543400   71.587800
  S     74.778800   24.611200   75.312100
  C     75.716900   23.200100   75.398900
  C     74.961000   22.108100   74.994400
  C     73.702000   22.437200   74.486900
  C     73.531100   23.772700   74.405000
  H     75.409200   21.150300   75.250800
  C     72.739300   21.319500   74.097600
  H     73.221000   20.298800   74.000600
  H     72.400400   21.513400   73.024200
  C     71.535000   21.205600   75.095600
  H     70.955100   22.144400   75.034900
  H     71.896400   21.005700   76.131100
  C     70.470300   20.191600   74.517900
  H     70.990300   19.295000   74.124900
  H     69.939800   20.469100   73.630800
  H     69.749200   19.885500   75.235200
  H     69.853600   27.126100   73.612000
  H     76.709800   23.087900   75.831700

 Total Charge           Charge          ....    0
 Multiplicity           Mult            ....    1
 Number of Electrons    NEL             ....  134
 Basis Dimension        Dim             ....  322

ORBITAL ENERGIES
----------------

  NO   OCC          E(Eh)            E(eV)
   0   2.0000     -88.971774     -2421.0450
   1   2.0000     -88.963465     -2420.8190
   2   2.0000     -10.333866      -281.1988
   3   2.0000     -10.324415      -280.9416
   4   2.0000     -10.317727      -280.7596
   5   2.0000     -10.313583      -280.6469
   6   2.0000     -10.307158      -280.4720
   7   2.0000     -10.303594      -280.3750
   8   2.0000     -10.301554      -280.3195
   9   2.0000     -10.301188      -280.3096
  10   2.0000     -10.298102      -280.2256
  11   2.0000     -10.294482      -280.1271
  12   2.0000     -10.288958      -279.9768
  13   2.0000     -10.283943      -279.8403
  14   2.0000     -10.278180      -279.6835
  15   2.0000     -10.275055      -279.5985
  16   2.0000      -8.085884      -220.0281
  17   2.0000      -8.079572      -219.8563
  18   2.0000      -6.044407      -164.4767
  19   2.0000      -6.040538      -164.3714
  20   2.0000      -6.037933      -164.3005
  21   2.0000      -6.036616      -164.2647
  22   2.0000      -6.033982      -164.1930
  23   2.0000      -6.030310      -164.0931
  24   2.0000      -1.014353       -27.6019
  25   2.0000      -0.983630       -26.7659
  26   2.0000      -0.916236       -24.9321
  27   2.0000      -0.901730       -24.5373
  28   2.0000      -0.868536       -23.6341
  29   2.0000      -0.852548       -23.1990
  30   2.0000      -0.843477       -22.9522
  31   2.0000      -0.809497       -22.0275
  32   2.0000      -0.782903       -21.3039
  33   2.0000      -0.774350       -21.0711
  34   2.0000      -0.708570       -19.2812
  35   2.0000      -0.694867       -18.9083
  36   2.0000      -0.686753       -18.6875
  37   2.0000      -0.662980       -18.0406
  38   2.0000      -0.633344       -17.2342
  39   2.0000      -0.619251       -16.8507
  40   2.0000      -0.594842       -16.1865
  41   2.0000      -0.573165       -15.5966
  42   2.0000      -0.556485       -15.1427
  43   2.0000      -0.548236       -14.9183
  44   2.0000      -0.544378       -14.8133
  45   2.0000      -0.524048       -14.2601
  46   2.0000      -0.515763       -14.0346
  47   2.0000      -0.512996       -13.9593
  48   2.0000      -0.503387       -13.6979
  49   2.0000      -0.497785       -13.5454
  50   2.0000      -0.488027       -13.2799
  51   2.0000      -0.477687       -12.9985
  52   2.0000      -0.468859       -12.7583
  53   2.0000      -0.466968       -12.7069
  54   2.0000      -0.461427       -12.5561
  55   2.0000      -0.449551       -12.2329
  56   2.0000      -0.445203       -12.1146
  57   2.0000      -0.442349       -12.0369
  58   2.0000      -0.429679       -11.6922
  59   2.0000      -0.419936       -11.4270
  60   2.0000      -0.418164       -11.3788
  61   2.0000      -0.410459       -11.1691
  62   2.0000      -0.408108       -11.1052
  63   2.0000      -0.351094        -9.5537
  64   2.0000      -0.334978        -9.1152
  65   2.0000      -0.330087        -8.9821
  66   2.0000      -0.283875        -7.7246
  67   0.0000       0.023097         0.6285
  68   0.0000       0.070898         1.9292
  69   0.0000       0.101637         2.7657
  70   0.0000       0.119551         3.2532
  71   0.0000       0.122626         3.3368

MULLIKEN ATOMIC CHARGES
-----------------------
   0 S :    0.119706
   1 C :   -0.136144
   2 C :   -0.101567
   3 C :   -0.003689
   4 C :   -0.125580
   5 H :    0.014502
   6 C :    0.071189
   7 H :    0.042624
   8 H :    0.026226
   9 C :   -0.073465
  10 H :    0.029757
  11 H :    0.026050
  12 C :   -0.055814
  13 H :    0.037482
  14 H :    0.047993
  15 H :    0.019167
  16 S :    0.098815
  17 C :   -0.088621
  18 C :   -0.058779
  19 C :    0.012356
  20 C :   -0.163645
  21 H :    0.017356
  22 C :    0.006023
  23 H :    0.032632
  24 H :    0.034284
  25 C :   -0.079176
  26 H :    0.054103
  27 H :    0.049491
  28 C :   -0.039430
  29 H :    0.012580
  30 H :    0.024650
  31 H :    0.034059
  32 H :    0.056524
  33 H :    0.058342
Sum of atomic charges:    0.0000000

LOEWDIN ATOMIC CHARGES
----------------------
   0 S :    0.406829
   1 C :   -0.206356
   2 C :   -0.059683
   3 C :   -0.069240
   4 C :   -0.200381
   5 H :    0.025804
   6 C :   -0.032698
   7 H :    0.038898
   8 H :    0.034182
   9 C :   -0.051037
  10 H :    0.026568
  11 H :    0.025587
  12 C :   -0.066435
  13 H :    0.034942
  14 H :    0.031061
  15 H :    0.014257
  16 S :    0.421390
  17 C :   -0.199342
  18 C :   -0.077062
  19 C :   -0.062007
  20 C :   -0.189039
  21 H :    0.032691
  22 C :   -0.036421
  23 H :    0.032722
  24 H :    0.034639
  25 C :   -0.037031
  26 H :    0.032902
  27 H :    0.031516
  28 C :   -0.069166
  29 H :    0.022132
  30 H :    0.023120
  31 H :    0.021671
  32 H :    0.031906
  33 H :    0.033084

  Mayer bond orders larger than 0.100000
B(  0-S ,  1-C ) :   1.1350 B(  0-S ,  4-C ) :   1.1546 B(  1-C ,  2-C ) :   1.5967
B(  1-C , 32-H ) :   0.9616 B(  2-C ,  3-C ) :   1.2617 B(  2-C ,  6-C ) :   1.0128
B(  3-C ,  4-C ) :   1.5323 B(  3-C ,  5-H ) :   0.9924 B(  4-C , 20-C ) :   1.0722
B(  6-C ,  7-H ) :   0.9336 B(  6-C ,  8-H ) :   0.9424 B(  6-C ,  9-C ) :   1.0728
B(  9-C , 10-H ) :   0.9537 B(  9-C , 11-H ) :   0.9581 B(  9-C , 12-C ) :   1.0771
B( 12-C , 13-H ) :   0.9737 B( 12-C , 14-H ) :   0.9754 B( 12-C , 15-H ) :   0.9761
B( 16-S , 17-C ) :   1.1758 B( 16-S , 20-C ) :   1.1344 B( 17-C , 18-C ) :   1.5930
B( 17-C , 20-C ) :   0.1023 B( 17-C , 33-H ) :   0.9670 B( 18-C , 19-C ) :   1.2498
B( 18-C , 21-H ) :   0.9942 B( 19-C , 20-C ) :   1.5881 B( 19-C , 22-C ) :   1.0265
B( 22-C , 23-H ) :   0.9416 B( 22-C , 24-H ) :   0.9418 B( 22-C , 25-C ) :   1.0496
B( 25-C , 26-H ) :   0.9593 B( 25-C , 27-H ) :   0.9589 B( 25-C , 28-C ) :   1.0646
B( 28-C , 29-H ) :   0.9726 B( 28-C , 30-H ) :   0.9766 B( 28-C , 31-H ) :   0.9764

Dispersion correction           -0.014540453
FINAL SINGLE POINT ENERGY     -1339.866861015728

DIPOLE MOMENT
-------------
                                X             Y             Z
Electronic contribution:     22.76222      17.62258      12.18200
Nuclear contribution   :    -23.00490     -18.03873     -12.51035
                        -----------------------------------------
Total Dipole Moment    :     -0.24268      -0.41615      -0.32835
                        -----------------------------------------
Magnitude (a.u.)       :      0.58300
Magnitude (Debye)      :      1.48187

Rotational constants in cm-1:     0.018560     0.009592     0.007059
Rotational constants in MHz :   556.404800   287.570454   211.626838

                             ****ORCA TERMINATED NORMALLY****
TOTAL RUN TIME: 0 days 0 hours 0 minutes 30 seconds 866 msec
