                         Program Version 4.2.1 -  RELEASE  -
|  1> ! wB97X-D3 SP def2-SVP
|  2> %pal
|  3> nprocs 16
|  4> end
|  5>
|  6> * xyz 0 1
|  7> S 	 -23.0007 	 -8.03082 	 84.0748
|  8> C 	 -22.9837 	 -9.52872 	 84.8962
|  9> C 	 -21.6879 	 -9.93424 	 85.0271
| 10> C 	 -20.7312 	 -8.9462 	 84.6318
| 11> C 	 -21.2674 	 -7.76535 	 84.1805
| 12> H 	 -19.6386 	 -8.91479 	 84.6619
| 13> C 	 -21.3126 	 -11.3605 	 85.4794
| 14> H 	 -20.1999 	 -11.3721 	 85.3878
| 15> H 	 -21.5326 	 -12.0988 	 84.7314
| 16> C 	 -21.8515 	 -11.7951 	 86.8292
| 17> H 	 -22.9299 	 -11.6817 	 86.8027
| 18> H 	 -21.6224 	 -12.8335 	 86.9582
| 19> C 	 -21.486 	 -10.9251 	 88.0606
| 20> H 	 -20.4694 	 -10.6857 	 88.1173
| 21> H 	 -22.0127 	 -9.96536 	 88.116
| 22> H 	 -21.6975 	 -11.5745 	 88.9263
| 23> S 	 -19.5513 	 -5.78918 	 85.0321
| 24> C 	 -19.3067 	 -4.35821 	 84.1162
| 25> C 	 -20.0971 	 -4.30383 	 83.0416
| 26> C 	 -20.8093 	 -5.56041 	 82.8182
| 27> C 	 -20.6373 	 -6.4439 	 83.8405
| 28> H 	 -19.9754 	 -3.37547 	 82.4273
| 29> C 	 -21.6915 	 -5.85719 	 81.6469
| 30> H 	 -22.7053 	 -5.44037 	 81.6677
| 31> H 	 -21.8807 	 -6.95771 	 81.6427
| 32> C 	 -20.9801 	 -5.39283 	 80.3691
| 33> H 	 -19.8911 	 -5.67809 	 80.3346
| 34> H 	 -21.0293 	 -4.30925 	 80.3426
| 35> C 	 -21.706 	 -5.96853 	 79.1055
| 36> H 	 -21.7674 	 -7.00104 	 79.085
| 37> H 	 -21.1961 	 -5.69098 	 78.2035
| 38> H 	 -22.7406 	 -5.64192 	 79.0721
| 39> H 	 -23.8157 	 -10.1448 	 85.1497
| 40> H 	 -18.5777 	 -3.53582 	 84.3414
| 41> *
| 42>
| 43>                          ****END OF INPUT****

CARTESIAN COORDINATES (ANGSTROEM)
---------------------------------
  S    -23.000700   -8.030820   84.074800
  C    -22.983700   -9.528720   84.896200
  C    -21.687900   -9.934240   85.027100
  C    -20.731200   -8.946200   84.631800
  C    -21.267400   -7.765350   84.180500
  H    -19.638600   -8.914790   84.661900
  C    -21.312600  -11.360500   85.479400
  H    -20.199900  -11.372100   85.387800
  H    -21.532600  -12.098800   84.731400
  C    -21.851500  -11.795100   86.829200
  H    -22.929900  -11.681700   86.802700
  H    -21.622400  -12.833500   86.958200
  C    -21.486000  -10.925100   88.060600
  H    -20.469400  -10.685700   88.117300
  H    -22.012700   -9.965360   88.116000
  H    -21.697500  -11.574500   88.926300
  S    -19.551300   -5.789180   85.032100
  C    -19.306700   -4.358210   84.116200
  C    -20.097100   -4.303830   83.041600
  C    -20.809300   -5.560410   82.818200
  C    -20.637300   -6.443900   83.840500
  H    -19.975400   -3.375470   82.427300
  C    -21.691500   -5.857190   81.646900
  H    -22.705300   -5.440370   81.667700
  H    -21.880700   -6.957710   81.642700
  C    -20.980100   -5.392830   80.369100
  H    -19.891100   -5.678090   80.334600
  H    -21.029300   -4.309250   80.342600
  C    -21.706000   -5.968530   79.105500
  H    -21.767400   -7.001040   79.085000
  H    -21.196100   -5.690980   78.203500
  H    -22.740600   -5.641920   79.072100
  H    -23.815700  -10.144800   85.149700
  H    -18.577700   -3.535820   84.341400

 Total Charge           Charge          ....    0
 Multiplicity           Mult            ....    1
 Number of Electrons    NEL             ....  134
 Basis Dimension        Dim             ....  322

ORBITAL ENERGIES
----------------

  NO   OCC          E(Eh)            E(eV)
   0   2.0000     -88.962199     -2420.7845
   1   2.0000     -88.961795     -2420.7735
   2   2.0000     -10.333018      -281.1757
   3   2.0000     -10.327876      -281.0358
   4   2.0000     -10.314012      -280.6585
   5   2.0000     -10.310137      -280.5531
   6   2.0000     -10.303804      -280.3808
   7   2.0000     -10.300643      -280.2948
   8   2.0000     -10.295982      -280.1679
   9   2.0000     -10.294924      -280.1391
  10   2.0000     -10.290508      -280.0189
  11   2.0000     -10.289385      -279.9884
  12   2.0000     -10.288557      -279.9659
  13   2.0000     -10.285315      -279.8777
  14   2.0000     -10.271939      -279.5137
  15   2.0000     -10.268072      -279.4085
  16   2.0000      -8.077647      -219.8039
  17   2.0000      -8.077459      -219.7988
  18   2.0000      -6.036184      -164.2529
  19   2.0000      -6.035942      -164.2463
  20   2.0000      -6.032026      -164.1398
  21   2.0000      -6.031758      -164.1325
  22   2.0000      -6.028322      -164.0390
  23   2.0000      -6.028268      -164.0375
  24   2.0000      -1.012830       -27.5605
  25   2.0000      -0.994487       -27.0614
  26   2.0000      -0.909971       -24.7616
  27   2.0000      -0.907571       -24.6963
  28   2.0000      -0.872481       -23.7414
  29   2.0000      -0.847740       -23.0682
  30   2.0000      -0.841429       -22.8964
  31   2.0000      -0.822929       -22.3930
  32   2.0000      -0.783491       -21.3199
  33   2.0000      -0.773277       -21.0420
  34   2.0000      -0.707390       -19.2491
  35   2.0000      -0.700657       -19.0658
  36   2.0000      -0.697593       -18.9825
  37   2.0000      -0.655027       -17.8242
  38   2.0000      -0.638761       -17.3816
  39   2.0000      -0.612477       -16.6663
  40   2.0000      -0.595622       -16.2077
  41   2.0000      -0.582004       -15.8371
  42   2.0000      -0.561851       -15.2887
  43   2.0000      -0.546325       -14.8662
  44   2.0000      -0.541413       -14.7326
  45   2.0000      -0.526004       -14.3133
  46   2.0000      -0.517924       -14.0934
  47   2.0000      -0.515459       -14.0264
  48   2.0000      -0.504699       -13.7336
  49   2.0000      -0.495952       -13.4955
  50   2.0000      -0.490083       -13.3358
  51   2.0000      -0.482629       -13.1330
  52   2.0000      -0.474599       -12.9145
  53   2.0000      -0.466540       -12.6952
  54   2.0000      -0.461409       -12.5556
  55   2.0000      -0.442210       -12.0331
  56   2.0000      -0.441300       -12.0084
  57   2.0000      -0.439005       -11.9459
  58   2.0000      -0.432721       -11.7749
  59   2.0000      -0.422065       -11.4850
  60   2.0000      -0.421932       -11.4813
  61   2.0000      -0.412394       -11.2218
  62   2.0000      -0.405158       -11.0249
  63   2.0000      -0.353421        -9.6171
  64   2.0000      -0.330783        -9.0011
  65   2.0000      -0.325603        -8.8601
  66   2.0000      -0.300334        -8.1725
  67   0.0000       0.034882         0.9492
  68   0.0000       0.076401         2.0790
  69   0.0000       0.113157         3.0792
  70   0.0000       0.122806         3.3417
  71   0.0000       0.136295         3.7088

MULLIKEN ATOMIC CHARGES
-----------------------
   0 S :    0.104251
   1 C :   -0.102686
   2 C :   -0.099054
   3 C :    0.025450
   4 C :   -0.171315
   5 H :    0.013754
   6 C :    0.076619
   7 H :    0.012869
   8 H :    0.031040
   9 C :   -0.070471
  10 H :    0.022577
  11 H :    0.028719
  12 C :   -0.038629
  13 H :    0.015239
  14 H :    0.046129
  15 H :    0.034131
  16 S :    0.104518
  17 C :   -0.107879
  18 C :   -0.046384
  19 C :   -0.041192
  20 C :   -0.126085
  21 H :    0.038592
  22 C :    0.051842
  23 H :    0.042998
  24 H :    0.027931
  25 C :   -0.131970
  26 H :    0.047377
  27 H :    0.034874
  28 C :    0.001929
  29 H :    0.012950
  30 H :    0.025462
  31 H :    0.020169
  32 H :    0.045098
  33 H :    0.071149
Sum of atomic charges:   -0.0000000

LOEWDIN ATOMIC CHARGES
----------------------
   0 S :    0.421316
   1 C :   -0.199361
   2 C :   -0.070001
   3 C :   -0.071947
   4 C :   -0.190722
   5 H :    0.034081
   6 C :   -0.035607
   7 H :    0.029727
   8 H :    0.029874
   9 C :   -0.039329
  10 H :    0.023150
  11 H :    0.023381
  12 C :   -0.061625
  13 H :    0.013988
  14 H :    0.030762
  15 H :    0.031905
  16 S :    0.414088
  17 C :   -0.198054
  18 C :   -0.083345
  19 C :   -0.057653
  20 C :   -0.198870
  21 H :    0.043153
  22 C :   -0.040667
  23 H :    0.034375
  24 H :    0.027901
  25 C :   -0.037936
  26 H :    0.030867
  27 H :    0.020894
  28 C :   -0.058842
  29 H :    0.014506
  30 H :    0.023167
  31 H :    0.024813
  32 H :    0.028482
  33 H :    0.043528

  Mayer bond orders larger than 0.100000
B(  0-S ,  1-C ) :   1.1555 B(  0-S ,  4-C ) :   1.1529 B(  1-C ,  2-C ) :   1.5945
B(  1-C , 32-H ) :   0.9769 B(  2-C ,  3-C ) :   1.2333 B(  2-C ,  6-C ) :   1.0024
B(  3-C ,  4-C ) :   1.5895 B(  3-C ,  5-H ) :   0.9961 B(  4-C , 20-C ) :   0.9955
B(  6-C ,  7-H ) :   0.9418 B(  6-C ,  8-H ) :   0.9401 B(  6-C ,  9-C ) :   1.0801
B(  9-C , 10-H ) :   0.9562 B(  9-C , 11-H ) :   0.9565 B(  9-C , 12-C ) :   1.0690
B( 12-C , 13-H ) :   0.9799 B( 12-C , 14-H ) :   0.9737 B( 12-C , 15-H ) :   0.9744
B( 16-S , 17-C ) :   1.1477 B( 16-S , 20-C ) :   1.1291 B( 17-C , 18-C ) :   1.6697
B( 17-C , 33-H ) :   0.9552 B( 18-C , 19-C ) :   1.1764 B( 18-C , 21-H ) :   0.9820
B( 19-C , 20-C ) :   1.6474 B( 19-C , 22-C ) :   1.0521 B( 22-C , 23-H ) :   0.9305
B( 22-C , 24-H ) :   0.9347 B( 22-C , 25-C ) :   1.0506 B( 25-C , 26-H ) :   0.9634
B( 25-C , 27-H ) :   0.9517 B( 25-C , 28-C ) :   1.0842 B( 28-C , 29-H ) :   0.9766
B( 28-C , 30-H ) :   0.9741 B( 28-C , 31-H ) :   0.9702

Dispersion correction           -0.013930504
FINAL SINGLE POINT ENERGY     -1339.877901665684

DIPOLE MOMENT
-------------
                                X             Y             Z
Electronic contribution:      1.76833      10.22722       5.87097
Nuclear contribution   :     -1.68378     -10.40170      -6.08739
                        -----------------------------------------
Total Dipole Moment    :      0.08455      -0.17448      -0.21642
                        -----------------------------------------
Magnitude (a.u.)       :      0.29057
Magnitude (Debye)      :      0.73856

Rotational constants in cm-1:     0.023103     0.007515     0.006159
Rotational constants in MHz :   692.607992   225.299281   184.639287

                             ****ORCA TERMINATED NORMALLY****
TOTAL RUN TIME: 0 days 0 hours 0 minutes 32 seconds 133 msec
