                         Program Version 4.2.1 -  RELEASE  -
|  1> ! wB97X-D3 SP def2-SVP
|  2> %pal
|  3> nprocs 16
|  4> end
|  5>
|  6> * xyz 0 1
|  7> S 	 -34.2733 	 31.3362 	 45.0759
|  8> C 	 -33.0344 	 30.2503 	 45.6753
|  9> C 	 -32.6132 	 30.6787 	 46.8724
| 10> C 	 -33.6538 	 31.4557 	 47.4631
| 11> C 	 -34.6032 	 31.9675 	 46.6062
| 12> H 	 -33.6964 	 31.6258 	 48.5483
| 13> C 	 -31.4436 	 30.1837 	 47.6845
| 14> H 	 -31.6516 	 29.1216 	 47.7268
| 15> H 	 -31.5588 	 30.5439 	 48.6768
| 16> C 	 -30.0506 	 30.4586 	 47.0505
| 17> H 	 -30.083 	 30.8012 	 46.0227
| 18> H 	 -29.5909 	 31.2594 	 47.6506
| 19> C 	 -29.0256 	 29.3059 	 47.227
| 20> H 	 -27.9933 	 29.6049 	 47.0621
| 21> H 	 -29.0139 	 28.8244 	 48.1978
| 22> H 	 -29.1883 	 28.4435 	 46.6183
| 23> S 	 -36.237 	 32.8889 	 48.6267
| 24> C 	 -37.3215 	 34.2733 	 48.3286
| 25> C 	 -37.1335 	 34.8163 	 47.0371
| 26> C 	 -36.2187 	 34.06 	 46.2466
| 27> C 	 -35.5868 	 33.0214 	 46.9755
| 28> H 	 -37.7386 	 35.7323 	 46.6981
| 29> C 	 -36.1542 	 34.3926 	 44.7516
| 30> H 	 -37.1 	 34.8546 	 44.3834
| 31> H 	 -36.0081 	 33.4536 	 44.1922
| 32> C 	 -34.9584 	 35.2956 	 44.3729
| 33> H 	 -34.0911 	 34.9276 	 44.8986
| 34> H 	 -35.1997 	 36.2608 	 45.0024
| 35> C 	 -34.8196 	 35.5686 	 42.863
| 36> H 	 -34.603 	 34.6046 	 42.4395
| 37> H 	 -33.8583 	 36.0349 	 42.618
| 38> H 	 -35.754 	 35.8468 	 42.4712
| 39> H 	 -32.4082 	 29.6485 	 45.08
| 40> H 	 -38.0094 	 34.7489 	 48.9799
| 41> *
| 42>
| 43>                          ****END OF INPUT****

CARTESIAN COORDINATES (ANGSTROEM)
---------------------------------
  S    -34.273300   31.336200   45.075900
  C    -33.034400   30.250300   45.675300
  C    -32.613200   30.678700   46.872400
  C    -33.653800   31.455700   47.463100
  C    -34.603200   31.967500   46.606200
  H    -33.696400   31.625800   48.548300
  C    -31.443600   30.183700   47.684500
  H    -31.651600   29.121600   47.726800
  H    -31.558800   30.543900   48.676800
  C    -30.050600   30.458600   47.050500
  H    -30.083000   30.801200   46.022700
  H    -29.590900   31.259400   47.650600
  C    -29.025600   29.305900   47.227000
  H    -27.993300   29.604900   47.062100
  H    -29.013900   28.824400   48.197800
  H    -29.188300   28.443500   46.618300
  S    -36.237000   32.888900   48.626700
  C    -37.321500   34.273300   48.328600
  C    -37.133500   34.816300   47.037100
  C    -36.218700   34.060000   46.246600
  C    -35.586800   33.021400   46.975500
  H    -37.738600   35.732300   46.698100
  C    -36.154200   34.392600   44.751600
  H    -37.100000   34.854600   44.383400
  H    -36.008100   33.453600   44.192200
  C    -34.958400   35.295600   44.372900
  H    -34.091100   34.927600   44.898600
  H    -35.199700   36.260800   45.002400
  C    -34.819600   35.568600   42.863000
  H    -34.603000   34.604600   42.439500
  H    -33.858300   36.034900   42.618000
  H    -35.754000   35.846800   42.471200
  H    -32.408200   29.648500   45.080000
  H    -38.009400   34.748900   48.979900

 Total Charge           Charge          ....    0
 Multiplicity           Mult            ....    1
 Number of Electrons    NEL             ....  134
 Basis Dimension        Dim             ....  322

ORBITAL ENERGIES
----------------

  NO   OCC          E(Eh)            E(eV)
   0   2.0000     -88.972876     -2421.0751
   1   2.0000     -88.965450     -2420.8730
   2   2.0000     -10.339550      -281.3535
   3   2.0000     -10.328798      -281.0609
   4   2.0000     -10.320668      -280.8397
   5   2.0000     -10.309192      -280.5274
   6   2.0000     -10.304889      -280.4103
   7   2.0000     -10.303305      -280.3672
   8   2.0000     -10.296147      -280.1724
   9   2.0000     -10.296031      -280.1692
  10   2.0000     -10.294476      -280.1269
  11   2.0000     -10.292468      -280.0723
  12   2.0000     -10.289076      -279.9800
  13   2.0000     -10.289044      -279.9791
  14   2.0000     -10.277273      -279.6588
  15   2.0000     -10.275528      -279.6113
  16   2.0000      -8.085876      -220.0279
  17   2.0000      -8.080866      -219.8915
  18   2.0000      -6.044550      -164.4806
  19   2.0000      -6.040690      -164.3755
  20   2.0000      -6.039459      -164.3420
  21   2.0000      -6.036519      -164.2620
  22   2.0000      -6.035348      -164.2302
  23   2.0000      -6.031427      -164.1235
  24   2.0000      -1.014407       -27.6034
  25   2.0000      -0.981409       -26.7055
  26   2.0000      -0.913682       -24.8626
  27   2.0000      -0.904515       -24.6131
  28   2.0000      -0.868922       -23.6446
  29   2.0000      -0.853209       -23.2170
  30   2.0000      -0.843855       -22.9624
  31   2.0000      -0.809962       -22.0402
  32   2.0000      -0.788532       -21.4571
  33   2.0000      -0.775260       -21.0959
  34   2.0000      -0.713583       -19.4176
  35   2.0000      -0.705297       -19.1921
  36   2.0000      -0.687640       -18.7116
  37   2.0000      -0.665605       -18.1120
  38   2.0000      -0.634625       -17.2690
  39   2.0000      -0.612001       -16.6534
  40   2.0000      -0.593361       -16.1462
  41   2.0000      -0.576890       -15.6980
  42   2.0000      -0.563185       -15.3250
  43   2.0000      -0.554210       -15.0808
  44   2.0000      -0.531102       -14.4520
  45   2.0000      -0.527285       -14.3481
  46   2.0000      -0.520435       -14.1617
  47   2.0000      -0.508393       -13.8341
  48   2.0000      -0.502451       -13.6724
  49   2.0000      -0.496757       -13.5174
  50   2.0000      -0.494217       -13.4483
  51   2.0000      -0.485839       -13.2204
  52   2.0000      -0.474891       -12.9224
  53   2.0000      -0.469960       -12.7883
  54   2.0000      -0.459634       -12.5073
  55   2.0000      -0.447332       -12.1725
  56   2.0000      -0.445382       -12.1195
  57   2.0000      -0.437247       -11.8981
  58   2.0000      -0.432211       -11.7611
  59   2.0000      -0.425871       -11.5885
  60   2.0000      -0.424579       -11.5534
  61   2.0000      -0.415871       -11.3164
  62   2.0000      -0.398705       -10.8493
  63   2.0000      -0.355882        -9.6840
  64   2.0000      -0.333493        -9.0748
  65   2.0000      -0.325825        -8.8662
  66   2.0000      -0.283257        -7.7078
  67   0.0000       0.022059         0.6002
  68   0.0000       0.076385         2.0785
  69   0.0000       0.096475         2.6252
  70   0.0000       0.121559         3.3078
  71   0.0000       0.124695         3.3931

MULLIKEN ATOMIC CHARGES
-----------------------
   0 S :    0.090393
   1 C :   -0.074717
   2 C :   -0.116563
   3 C :   -0.048633
   4 C :   -0.073127
   5 H :    0.018897
   6 C :    0.090937
   7 H :    0.041340
   8 H :    0.015872
   9 C :   -0.060102
  10 H :    0.042653
  11 H :    0.037315
  12 C :   -0.064139
  13 H :    0.031682
  14 H :    0.022692
  15 H :    0.019742
  16 S :    0.100395
  17 C :   -0.076614
  18 C :   -0.072070
  19 C :   -0.051097
  20 C :   -0.129635
  21 H :    0.053946
  22 C :    0.024144
  23 H :    0.033009
  24 H :    0.023770
  25 C :   -0.122387
  26 H :    0.029373
  27 H :    0.023732
  28 C :    0.039666
  29 H :    0.008443
  30 H :    0.041490
  31 H :    0.026491
  32 H :    0.028501
  33 H :    0.044599
Sum of atomic charges:   -0.0000000

LOEWDIN ATOMIC CHARGES
----------------------
   0 S :    0.427142
   1 C :   -0.190161
   2 C :   -0.057306
   3 C :   -0.080837
   4 C :   -0.214088
   5 H :    0.023457
   6 C :   -0.025335
   7 H :    0.038525
   8 H :    0.027361
   9 C :   -0.036242
  10 H :    0.026008
  11 H :    0.032952
  12 C :   -0.071433
  13 H :    0.026663
  14 H :    0.025146
  15 H :    0.017954
  16 S :    0.396963
  17 C :   -0.179966
  18 C :   -0.074332
  19 C :   -0.062098
  20 C :   -0.175713
  21 H :    0.047522
  22 C :   -0.036592
  23 H :    0.032232
  24 H :    0.019942
  25 C :   -0.047256
  26 H :    0.020201
  27 H :    0.025240
  28 C :   -0.063026
  29 H :    0.026227
  30 H :    0.036971
  31 H :    0.022364
  32 H :    0.017833
  33 H :    0.023681

  Mayer bond orders larger than 0.100000
B(  0-S ,  1-C ) :   1.1232 B(  0-S ,  4-C ) :   1.1521 B(  1-C ,  2-C ) :   1.6231
B(  1-C , 32-H ) :   0.9679 B(  2-C ,  3-C ) :   1.2556 B(  2-C ,  6-C ) :   1.0172
B(  3-C ,  4-C ) :   1.5476 B(  3-C ,  5-H ) :   0.9816 B(  4-C , 20-C ) :   1.0471
B(  6-C ,  7-H ) :   0.9516 B(  6-C ,  8-H ) :   0.9391 B(  6-C ,  9-C ) :   1.0295
B(  9-C , 10-H ) :   0.9698 B(  9-C , 11-H ) :   0.9581 B(  9-C , 12-C ) :   1.0722
B( 12-C , 13-H ) :   0.9770 B( 12-C , 14-H ) :   0.9750 B( 12-C , 15-H ) :   0.9764
B( 16-S , 17-C ) :   1.1418 B( 16-S , 20-C ) :   1.1372 B( 17-C , 18-C ) :   1.6216
B( 17-C , 20-C ) :   0.1057 B( 17-C , 33-H ) :   0.9690 B( 18-C , 19-C ) :   1.2543
B( 18-C , 21-H ) :   0.9704 B( 19-C , 20-C ) :   1.5821 B( 19-C , 22-C ) :   1.0326
B( 22-C , 23-H ) :   0.9411 B( 22-C , 24-H ) :   0.9380 B( 22-C , 25-C ) :   1.0500
B( 25-C , 26-H ) :   0.9599 B( 25-C , 27-H ) :   0.9536 B( 25-C , 28-C ) :   1.0685
B( 28-C , 29-H ) :   0.9659 B( 28-C , 30-H ) :   0.9692 B( 28-C , 31-H ) :   0.9713

Dispersion correction           -0.013670365
FINAL SINGLE POINT ENERGY     -1339.846089910518

DIPOLE MOMENT
-------------
                                X             Y             Z
Electronic contribution:    -18.16828      -2.22155       8.50615
Nuclear contribution   :     18.56018       2.26825      -8.51650
                        -----------------------------------------
Total Dipole Moment    :      0.39190       0.04670      -0.01035
                        -----------------------------------------
Magnitude (a.u.)       :      0.39481
Magnitude (Debye)      :      1.00352

Rotational constants in cm-1:     0.019930     0.007631     0.006107
Rotational constants in MHz :   597.479749   228.774175   183.068693

                             ****ORCA TERMINATED NORMALLY****
TOTAL RUN TIME: 0 days 0 hours 0 minutes 31 seconds 843 msec
