                         Program Version 4.2.1 -  RELEASE  -
|  1> ! wB97X-D3 SP def2-SVP
|  2> %pal
|  3> nprocs 16
|  4> end
|  5>
|  6> * xyz 0 1
|  7> S 	 -49.6019 	 36.3352 	 109.091
|  8> C 	 -48.6981 	 37.8981 	 109.104
|  9> C 	 -49.3851 	 38.9393 	 108.487
| 10> C 	 -50.6924 	 38.4983 	 108.112
| 11> C 	 -50.9823 	 37.1858 	 108.399
| 12> H 	 -51.4174 	 39.064 	 107.562
| 13> C 	 -48.8165 	 40.364 	 108.308
| 14> H 	 -48.5416 	 40.6243 	 107.29
| 15> H 	 -47.8976 	 40.4188 	 108.925
| 16> C 	 -49.6553 	 41.4908 	 108.826
| 17> H 	 -50.4953 	 41.4965 	 108.174
| 18> H 	 -49.9595 	 41.3196 	 109.855
| 19> C 	 -48.9418 	 42.8288 	 108.805
| 20> H 	 -48.7322 	 43.116 	 107.796
| 21> H 	 -49.671 	 43.5612 	 109.13
| 22> H 	 -48.0195 	 42.7925 	 109.428
| 23> S 	 -52.0848 	 34.7992 	 107.611
| 24> C 	 -53.7863 	 34.5727 	 107.286
| 25> C 	 -54.3789 	 35.8262 	 107.374
| 26> C 	 -53.49 	 36.8885 	 107.803
| 27> C 	 -52.1955 	 36.4872 	 108.01
| 28> H 	 -55.3768 	 36.0085 	 107.16
| 29> C 	 -54.0997 	 38.2264 	 108.16
| 30> H 	 -53.4082 	 38.7779 	 108.775
| 31> H 	 -54.8804 	 38.0561 	 108.965
| 32> C 	 -54.7515 	 39.1001 	 107.054
| 33> H 	 -55.4557 	 39.7394 	 107.541
| 34> H 	 -55.3956 	 38.4854 	 106.422
| 35> C 	 -53.7331 	 39.8692 	 106.24
| 36> H 	 -53.1965 	 40.577 	 106.847
| 37> H 	 -54.2162 	 40.4439 	 105.449
| 38> H 	 -52.9726 	 39.2339 	 105.85
| 39> H 	 -47.7276 	 37.9947 	 109.53
| 40> H 	 -54.3444 	 33.6336 	 107.001
| 41> *
| 42>
| 43>                          ****END OF INPUT****

CARTESIAN COORDINATES (ANGSTROEM)
---------------------------------
  S    -49.601900   36.335200  109.091000
  C    -48.698100   37.898100  109.104000
  C    -49.385100   38.939300  108.487000
  C    -50.692400   38.498300  108.112000
  C    -50.982300   37.185800  108.399000
  H    -51.417400   39.064000  107.562000
  C    -48.816500   40.364000  108.308000
  H    -48.541600   40.624300  107.290000
  H    -47.897600   40.418800  108.925000
  C    -49.655300   41.490800  108.826000
  H    -50.495300   41.496500  108.174000
  H    -49.959500   41.319600  109.855000
  C    -48.941800   42.828800  108.805000
  H    -48.732200   43.116000  107.796000
  H    -49.671000   43.561200  109.130000
  H    -48.019500   42.792500  109.428000
  S    -52.084800   34.799200  107.611000
  C    -53.786300   34.572700  107.286000
  C    -54.378900   35.826200  107.374000
  C    -53.490000   36.888500  107.803000
  C    -52.195500   36.487200  108.010000
  H    -55.376800   36.008500  107.160000
  C    -54.099700   38.226400  108.160000
  H    -53.408200   38.777900  108.775000
  H    -54.880400   38.056100  108.965000
  C    -54.751500   39.100100  107.054000
  H    -55.455700   39.739400  107.541000
  H    -55.395600   38.485400  106.422000
  C    -53.733100   39.869200  106.240000
  H    -53.196500   40.577000  106.847000
  H    -54.216200   40.443900  105.449000
  H    -52.972600   39.233900  105.850000
  H    -47.727600   37.994700  109.530000
  H    -54.344400   33.633600  107.001000

 Total Charge           Charge          ....    0
 Multiplicity           Mult            ....    1
 Number of Electrons    NEL             ....  134
 Basis Dimension        Dim             ....  322

ORBITAL ENERGIES
----------------

  NO   OCC          E(Eh)            E(eV)
   0   2.0000     -88.970203     -2421.0023
   1   2.0000     -88.962102     -2420.7819
   2   2.0000     -10.332614      -281.1647
   3   2.0000     -10.326826      -281.0072
   4   2.0000     -10.323958      -280.9292
   5   2.0000     -10.318751      -280.7875
   6   2.0000     -10.308291      -280.5029
   7   2.0000     -10.300492      -280.2906
   8   2.0000     -10.294733      -280.1339
   9   2.0000     -10.293408      -280.0979
  10   2.0000     -10.292123      -280.0629
  11   2.0000     -10.290114      -280.0082
  12   2.0000     -10.287426      -279.9351
  13   2.0000     -10.279607      -279.7223
  14   2.0000     -10.279415      -279.7171
  15   2.0000     -10.274951      -279.5956
  16   2.0000      -8.083761      -219.9703
  17   2.0000      -8.077256      -219.7933
  18   2.0000      -6.042365      -164.4211
  19   2.0000      -6.038656      -164.3202
  20   2.0000      -6.035943      -164.2464
  21   2.0000      -6.034260      -164.2006
  22   2.0000      -6.031589      -164.1279
  23   2.0000      -6.027894      -164.0273
  24   2.0000      -1.007451       -27.4141
  25   2.0000      -0.981147       -26.6984
  26   2.0000      -0.920077       -25.0366
  27   2.0000      -0.909041       -24.7363
  28   2.0000      -0.873091       -23.7580
  29   2.0000      -0.853634       -23.2286
  30   2.0000      -0.843945       -22.9649
  31   2.0000      -0.816751       -22.2249
  32   2.0000      -0.783544       -21.3213
  33   2.0000      -0.776054       -21.1175
  34   2.0000      -0.713596       -19.4179
  35   2.0000      -0.700271       -19.0553
  36   2.0000      -0.691620       -18.8199
  37   2.0000      -0.663339       -18.0504
  38   2.0000      -0.643421       -17.5084
  39   2.0000      -0.622990       -16.9524
  40   2.0000      -0.597110       -16.2482
  41   2.0000      -0.585059       -15.9203
  42   2.0000      -0.566259       -15.4087
  43   2.0000      -0.554822       -15.0975
  44   2.0000      -0.536451       -14.5976
  45   2.0000      -0.524242       -14.2654
  46   2.0000      -0.521179       -14.1820
  47   2.0000      -0.509017       -13.8510
  48   2.0000      -0.505224       -13.7478
  49   2.0000      -0.502507       -13.6739
  50   2.0000      -0.497561       -13.5393
  51   2.0000      -0.483507       -13.1569
  52   2.0000      -0.473939       -12.8965
  53   2.0000      -0.466314       -12.6891
  54   2.0000      -0.463019       -12.5994
  55   2.0000      -0.453292       -12.3347
  56   2.0000      -0.444328       -12.0908
  57   2.0000      -0.434176       -11.8145
  58   2.0000      -0.432192       -11.7605
  59   2.0000      -0.426544       -11.6069
  60   2.0000      -0.422356       -11.4929
  61   2.0000      -0.420442       -11.4408
  62   2.0000      -0.408682       -11.1208
  63   2.0000      -0.359287        -9.7767
  64   2.0000      -0.336142        -9.1469
  65   2.0000      -0.324428        -8.8281
  66   2.0000      -0.286932        -7.8078
  67   0.0000       0.022317         0.6073
  68   0.0000       0.079921         2.1748
  69   0.0000       0.099650         2.7116
  70   0.0000       0.117900         3.2082
  71   0.0000       0.133128         3.6226

MULLIKEN ATOMIC CHARGES
-----------------------
   0 S :    0.103770
   1 C :   -0.122665
   2 C :   -0.039861
   3 C :    0.019629
   4 C :   -0.110094
   5 H :   -0.040771
   6 C :    0.071316
   7 H :    0.034112
   8 H :    0.008888
   9 C :   -0.097636
  10 H :    0.020735
  11 H :    0.031684
  12 C :   -0.026347
  13 H :    0.017323
  14 H :    0.034408
  15 H :    0.043017
  16 S :    0.083823
  17 C :   -0.102472
  18 C :   -0.004523
  19 C :   -0.051348
  20 C :   -0.111963
  21 H :   -0.008158
  22 C :   -0.010385
  23 H :    0.010918
  24 H :    0.038093
  25 C :   -0.027958
  26 H :    0.017297
  27 H :    0.020226
  28 C :   -0.027206
  29 H :    0.023001
  30 H :    0.035214
  31 H :    0.043637
  32 H :    0.038410
  33 H :    0.085886
Sum of atomic charges:    0.0000000

LOEWDIN ATOMIC CHARGES
----------------------
   0 S :    0.377941
   1 C :   -0.170076
   2 C :   -0.053914
   3 C :   -0.061132
   4 C :   -0.179627
   5 H :    0.024257
   6 C :   -0.029601
   7 H :    0.030962
   8 H :    0.028973
   9 C :   -0.043008
  10 H :    0.016198
  11 H :    0.025004
  12 C :   -0.058647
  13 H :    0.019513
  14 H :    0.029739
  15 H :    0.030677
  16 S :    0.403566
  17 C :   -0.196944
  18 C :   -0.061390
  19 C :   -0.069353
  20 C :   -0.195406
  21 H :    0.016184
  22 C :   -0.040948
  23 H :    0.024383
  24 H :    0.040769
  25 C :   -0.033792
  26 H :    0.021962
  27 H :    0.022372
  28 C :   -0.062888
  29 H :    0.020560
  30 H :    0.029543
  31 H :    0.023444
  32 H :    0.020402
  33 H :    0.050276

  Mayer bond orders larger than 0.100000
B(  0-S ,  1-C ) :   1.1223 B(  0-S ,  4-C ) :   1.1290 B(  1-C ,  2-C ) :   1.6300
B(  1-C , 32-H ) :   0.9684 B(  2-C ,  3-C ) :   1.2210 B(  2-C ,  6-C ) :   1.0189
B(  3-C ,  4-C ) :   1.5893 B(  3-C ,  5-H ) :   0.9889 B(  4-C , 20-C ) :   1.0643
B(  6-C ,  7-H ) :   0.9364 B(  6-C ,  8-H ) :   0.9417 B(  6-C ,  9-C ) :   1.0698
B(  9-C , 10-H ) :   0.9485 B(  9-C , 11-H ) :   0.9561 B(  9-C , 12-C ) :   1.1007
B( 12-C , 13-H ) :   0.9703 B( 12-C , 14-H ) :   0.9714 B( 12-C , 15-H ) :   0.9729
B( 16-S , 17-C ) :   1.1454 B( 16-S , 20-C ) :   1.1292 B( 17-C , 18-C ) :   1.5927
B( 17-C , 33-H ) :   0.9635 B( 18-C , 19-C ) :   1.2516 B( 18-C , 21-H ) :   0.9972
B( 19-C , 20-C ) :   1.5904 B( 19-C , 22-C ) :   1.0420 B( 22-C , 23-H ) :   0.9391
B( 22-C , 24-H ) :   0.9384 B( 22-C , 25-C ) :   1.0636 B( 25-C , 26-H ) :   0.9508
B( 25-C , 27-H ) :   0.9568 B( 25-C , 28-C ) :   1.0874 B( 28-C , 29-H ) :   0.9664
B( 28-C , 30-H ) :   0.9672 B( 28-C , 31-H ) :   0.9664

Dispersion correction           -0.014387556
FINAL SINGLE POINT ENERGY     -1339.886207868892

DIPOLE MOMENT
-------------
                                X             Y             Z
Electronic contribution:      4.54346     -32.16632       3.38788
Nuclear contribution   :     -4.86177      32.92172      -3.50901
                        -----------------------------------------
Total Dipole Moment    :     -0.31831       0.75540      -0.12113
                        -----------------------------------------
Magnitude (a.u.)       :      0.82862
Magnitude (Debye)      :      2.10619

Rotational constants in cm-1:     0.018809     0.009242     0.006452
Rotational constants in MHz :   563.889953   277.067740   193.439032

                             ****ORCA TERMINATED NORMALLY****
TOTAL RUN TIME: 0 days 0 hours 0 minutes 28 seconds 877 msec
