                         Program Version 4.2.1 -  RELEASE  -
|  1> ! wB97X-D3 SP def2-SVP
|  2> %pal
|  3> nprocs 16
|  4> end
|  5>
|  6> * xyz 0 1
|  7> S 	 7.97066 	 -5.50824 	 86.2187
|  8> C 	 8.27955 	 -4.2332 	 85.1045
|  9> C 	 7.1479 	 -3.6913 	 84.6173
| 10> C 	 5.98191 	 -4.40159 	 85.0397
| 11> C 	 6.31985 	 -5.4772 	 85.8145
| 12> H 	 4.98759 	 -4.20447 	 84.7638
| 13> C 	 7.02085 	 -2.42024 	 83.8313
| 14> H 	 6.46686 	 -2.64424 	 82.9608
| 15> H 	 8.0506 	 -2.11945 	 83.5419
| 16> C 	 6.30945 	 -1.20955 	 84.5149
| 17> H 	 6.56855 	 -0.254544 	 84.0415
| 18> H 	 5.20176 	 -1.2201 	 84.3834
| 19> C 	 6.58828 	 -1.12747 	 85.9943
| 20> H 	 7.65686 	 -1.39851 	 86.2373
| 21> H 	 6.28407 	 -0.155764 	 86.4207
| 22> H 	 6.09686 	 -2.00904 	 86.5187
| 23> S 	 5.54748 	 -8.0892 	 85.7175
| 24> C 	 4.00871 	 -8.50481 	 86.3659
| 25> C 	 3.45155 	 -7.44298 	 87.0463
| 26> C 	 4.22493 	 -6.25766 	 86.8891
| 27> C 	 5.40145 	 -6.48052 	 86.2456
| 28> H 	 2.43897 	 -7.39657 	 87.4918
| 29> C 	 3.83288 	 -4.94786 	 87.626
| 30> H 	 2.75231 	 -4.86226 	 87.7741
| 31> H 	 4.24481 	 -4.16191 	 87.0121
| 32> C 	 4.51974 	 -4.62729 	 88.9657
| 33> H 	 4.23023 	 -3.67358 	 89.3489
| 34> H 	 5.61608 	 -4.66309 	 88.8962
| 35> C 	 4.13194 	 -5.70335 	 89.9538
| 36> H 	 3.08814 	 -5.95979 	 89.986
| 37> H 	 4.52887 	 -5.54622 	 90.939
| 38> H 	 4.58338 	 -6.65781 	 89.6855
| 39> H 	 9.12957 	 -3.58577 	 85.2198
| 40> H 	 3.46069 	 -9.47656 	 86.2367
| 41> *
| 42>
| 43>                          ****END OF INPUT****

CARTESIAN COORDINATES (ANGSTROEM)
---------------------------------
  S      7.970660   -5.508240   86.218700
  C      8.279550   -4.233200   85.104500
  C      7.147900   -3.691300   84.617300
  C      5.981910   -4.401590   85.039700
  C      6.319850   -5.477200   85.814500
  H      4.987590   -4.204470   84.763800
  C      7.020850   -2.420240   83.831300
  H      6.466860   -2.644240   82.960800
  H      8.050600   -2.119450   83.541900
  C      6.309450   -1.209550   84.514900
  H      6.568550   -0.254544   84.041500
  H      5.201760   -1.220100   84.383400
  C      6.588280   -1.127470   85.994300
  H      7.656860   -1.398510   86.237300
  H      6.284070   -0.155764   86.420700
  H      6.096860   -2.009040   86.518700
  S      5.547480   -8.089200   85.717500
  C      4.008710   -8.504810   86.365900
  C      3.451550   -7.442980   87.046300
  C      4.224930   -6.257660   86.889100
  C      5.401450   -6.480520   86.245600
  H      2.438970   -7.396570   87.491800
  C      3.832880   -4.947860   87.626000
  H      2.752310   -4.862260   87.774100
  H      4.244810   -4.161910   87.012100
  C      4.519740   -4.627290   88.965700
  H      4.230230   -3.673580   89.348900
  H      5.616080   -4.663090   88.896200
  C      4.131940   -5.703350   89.953800
  H      3.088140   -5.959790   89.986000
  H      4.528870   -5.546220   90.939000
  H      4.583380   -6.657810   89.685500
  H      9.129570   -3.585770   85.219800
  H      3.460690   -9.476560   86.236700

 Total Charge           Charge          ....    0
 Multiplicity           Mult            ....    1
 Number of Electrons    NEL             ....  134
 Basis Dimension        Dim             ....  322

ORBITAL ENERGIES
----------------

  NO   OCC          E(Eh)            E(eV)
   0   2.0000     -88.968541     -2420.9571
   1   2.0000     -88.966373     -2420.8981
   2   2.0000     -10.322773      -280.8969
   3   2.0000     -10.319377      -280.8045
   4   2.0000     -10.315214      -280.6912
   5   2.0000     -10.303645      -280.3764
   6   2.0000     -10.297069      -280.1975
   7   2.0000     -10.297004      -280.1957
   8   2.0000     -10.293784      -280.1081
   9   2.0000     -10.291952      -280.0583
  10   2.0000     -10.291549      -280.0473
  11   2.0000     -10.289651      -279.9956
  12   2.0000     -10.287275      -279.9310
  13   2.0000     -10.283332      -279.8237
  14   2.0000     -10.280798      -279.7547
  15   2.0000     -10.262931      -279.2685
  16   2.0000      -8.084618      -219.9936
  17   2.0000      -8.082757      -219.9430
  18   2.0000      -6.043010      -164.4387
  19   2.0000      -6.041075      -164.3860
  20   2.0000      -6.038870      -164.3260
  21   2.0000      -6.037165      -164.2796
  22   2.0000      -6.035481      -164.2338
  23   2.0000      -6.033488      -164.1795
  24   2.0000      -1.023716       -27.8567
  25   2.0000      -0.998314       -27.1655
  26   2.0000      -0.915555       -24.9135
  27   2.0000      -0.910025       -24.7630
  28   2.0000      -0.876526       -23.8515
  29   2.0000      -0.854110       -23.2415
  30   2.0000      -0.847782       -23.0693
  31   2.0000      -0.815573       -22.1929
  32   2.0000      -0.785268       -21.3682
  33   2.0000      -0.775169       -21.0934
  34   2.0000      -0.709988       -19.3198
  35   2.0000      -0.696903       -18.9637
  36   2.0000      -0.689820       -18.7710
  37   2.0000      -0.666326       -18.1316
  38   2.0000      -0.643722       -17.5166
  39   2.0000      -0.619775       -16.8649
  40   2.0000      -0.592736       -16.1292
  41   2.0000      -0.567603       -15.4453
  42   2.0000      -0.558163       -15.1884
  43   2.0000      -0.553676       -15.0663
  44   2.0000      -0.549165       -14.9435
  45   2.0000      -0.545305       -14.8385
  46   2.0000      -0.520057       -14.1515
  47   2.0000      -0.510261       -13.8849
  48   2.0000      -0.501022       -13.6335
  49   2.0000      -0.500053       -13.6071
  50   2.0000      -0.488079       -13.2813
  51   2.0000      -0.481248       -13.0954
  52   2.0000      -0.471699       -12.8356
  53   2.0000      -0.465809       -12.6753
  54   2.0000      -0.457000       -12.4356
  55   2.0000      -0.452404       -12.3105
  56   2.0000      -0.438734       -11.9386
  57   2.0000      -0.438667       -11.9367
  58   2.0000      -0.436064       -11.8659
  59   2.0000      -0.432100       -11.7580
  60   2.0000      -0.418758       -11.3950
  61   2.0000      -0.413671       -11.2566
  62   2.0000      -0.404345       -11.0028
  63   2.0000      -0.350406        -9.5350
  64   2.0000      -0.334097        -9.0912
  65   2.0000      -0.331474        -9.0199
  66   2.0000      -0.297912        -8.1066
  67   0.0000       0.038213         1.0398
  68   0.0000       0.067266         1.8304
  69   0.0000       0.110349         3.0027
  70   0.0000       0.123871         3.3707
  71   0.0000       0.130693         3.5563

MULLIKEN ATOMIC CHARGES
-----------------------
   0 S :    0.117247
   1 C :   -0.087697
   2 C :   -0.151237
   3 C :    0.053271
   4 C :   -0.186626
   5 H :    0.000157
   6 C :    0.117191
   7 H :    0.024713
   8 H :    0.022023
   9 C :   -0.097001
  10 H :    0.032937
  11 H :    0.029028
  12 C :   -0.067068
  13 H :    0.024707
  14 H :    0.048056
  15 H :    0.041428
  16 S :    0.139148
  17 C :   -0.116580
  18 C :   -0.029404
  19 C :   -0.069273
  20 C :   -0.141330
  21 H :    0.028622
  22 C :    0.078724
  23 H :    0.027086
  24 H :    0.006327
  25 C :   -0.034721
  26 H :    0.025278
  27 H :    0.030804
  28 C :   -0.050832
  29 H :    0.012383
  30 H :    0.021844
  31 H :    0.027733
  32 H :    0.046794
  33 H :    0.076271
Sum of atomic charges:   -0.0000000

LOEWDIN ATOMIC CHARGES
----------------------
   0 S :    0.434065
   1 C :   -0.215612
   2 C :   -0.060012
   3 C :   -0.054480
   4 C :   -0.199630
   5 H :    0.024421
   6 C :   -0.025974
   7 H :    0.029655
   8 H :    0.033169
   9 C :   -0.048375
  10 H :    0.026497
  11 H :    0.025018
  12 C :   -0.079321
  13 H :    0.027115
  14 H :    0.028163
  15 H :    0.032489
  16 S :    0.447919
  17 C :   -0.205870
  18 C :   -0.076230
  19 C :   -0.058908
  20 C :   -0.226006
  21 H :    0.036378
  22 C :   -0.028104
  23 H :    0.028911
  24 H :    0.026472
  25 C :   -0.031107
  26 H :    0.020284
  27 H :    0.027405
  28 C :   -0.070544
  29 H :    0.016653
  30 H :    0.020206
  31 H :    0.026848
  32 H :    0.025299
  33 H :    0.043206

  Mayer bond orders larger than 0.100000
B(  0-S ,  1-C ) :   1.1246 B(  0-S ,  4-C ) :   1.1796 B(  1-C ,  2-C ) :   1.6510
B(  1-C , 32-H ) :   0.9497 B(  2-C ,  3-C ) :   1.2227 B(  2-C ,  6-C ) :   1.0375
B(  3-C ,  4-C ) :   1.5705 B(  3-C ,  5-H ) :   1.0083 B(  4-C , 20-C ) :   1.0039
B(  6-C ,  7-H ) :   0.9318 B(  6-C ,  8-H ) :   0.9379 B(  6-C ,  9-C ) :   1.0600
B(  9-C , 10-H ) :   0.9593 B(  9-C , 11-H ) :   0.9506 B(  9-C , 12-C ) :   1.0919
B( 12-C , 13-H ) :   0.9708 B( 12-C , 14-H ) :   0.9727 B( 12-C , 15-H ) :   0.9586
B( 16-S , 17-C ) :   1.1692 B( 16-S , 20-C ) :   1.1590 B( 17-C , 18-C ) :   1.5825
B( 17-C , 33-H ) :   0.9613 B( 18-C , 19-C ) :   1.2702 B( 18-C , 21-H ) :   0.9810
B( 19-C , 20-C ) :   1.5930 B( 19-C , 22-C ) :   1.0465 B( 22-C , 23-H ) :   0.9391
B( 22-C , 24-H ) :   0.9196 B( 22-C , 25-C ) :   1.0819 B( 25-C , 26-H ) :   0.9554
B( 25-C , 27-H ) :   0.9506 B( 25-C , 28-C ) :   1.0819 B( 28-C , 29-H ) :   0.9744
B( 28-C , 30-H ) :   0.9715 B( 28-C , 31-H ) :   0.9697

Dispersion correction           -0.016402459
FINAL SINGLE POINT ENERGY     -1339.879063822637

DIPOLE MOMENT
-------------
                                X             Y             Z
Electronic contribution:      8.39103     -21.95750      -8.58814
Nuclear contribution   :     -8.82078      22.46780       8.61782
                        -----------------------------------------
Total Dipole Moment    :     -0.42976       0.51031       0.02968
                        -----------------------------------------
Magnitude (a.u.)       :      0.66782
Magnitude (Debye)      :      1.69747

Rotational constants in cm-1:     0.020409     0.009766     0.008018
Rotational constants in MHz :   611.854690   292.772829   240.360269

                             ****ORCA TERMINATED NORMALLY****
TOTAL RUN TIME: 0 days 0 hours 0 minutes 36 seconds 881 msec
