                         Program Version 4.2.1 -  RELEASE  -
|  1> ! wB97X-D3 SP def2-SVP
|  2> %pal
|  3> nprocs 16
|  4> end
|  5>
|  6> * xyz 0 1
|  7> S 	 38.2311 	 30.8875 	 53.675
|  8> C 	 38.6682 	 32.543 	 53.606
|  9> C 	 38.3252 	 33.1688 	 52.4434
| 10> C 	 37.8281 	 32.1748 	 51.4816
| 11> C 	 37.6547 	 30.9163 	 51.9931
| 12> H 	 37.7411 	 32.481 	 50.4474
| 13> C 	 38.6964 	 34.569 	 51.9842
| 14> H 	 38.1431 	 35.207 	 52.6464
| 15> H 	 38.1968 	 34.8186 	 51.1433
| 16> C 	 40.1798 	 34.9653 	 51.9389
| 17> H 	 40.1243 	 35.9387 	 51.369
| 18> H 	 40.551 	 35.0001 	 52.9771
| 19> C 	 40.8864 	 33.974 	 51.0495
| 20> H 	 40.2651 	 33.6572 	 50.185
| 21> H 	 41.7305 	 34.4768 	 50.6604
| 22> H 	 41.1899 	 33.207 	 51.594
| 23> S 	 38.457 	 28.3374 	 51.3781
| 24> C 	 37.4823 	 27.2908 	 50.2645
| 25> C 	 36.6562 	 28.2118 	 49.5741
| 26> C 	 36.5125 	 29.5276 	 50.1484
| 27> C 	 37.4008 	 29.7219 	 51.1924
| 28> H 	 36.1405 	 27.9155 	 48.7047
| 29> C 	 35.5299 	 30.5395 	 49.596
| 30> H 	 35.3389 	 30.486 	 48.5259
| 31> H 	 35.9285 	 31.5518 	 49.6775
| 32> C 	 34.1888 	 30.7698 	 50.3898
| 33> H 	 33.7581 	 31.7718 	 50.1581
| 34> H 	 34.408 	 31.013 	 51.4425
| 35> C 	 33.1484 	 29.6519 	 50.1611
| 36> H 	 32.1607 	 29.8742 	 50.5703
| 37> H 	 33.5457 	 28.6781 	 50.546
| 38> H 	 32.965 	 29.5069 	 49.0535
| 39> H 	 39.3437 	 33.0321 	 54.3845
| 40> H 	 37.6892 	 26.3074 	 49.824
| 41> *
| 42>
| 43>                          ****END OF INPUT****

CARTESIAN COORDINATES (ANGSTROEM)
---------------------------------
  S     38.231100   30.887500   53.675000
  C     38.668200   32.543000   53.606000
  C     38.325200   33.168800   52.443400
  C     37.828100   32.174800   51.481600
  C     37.654700   30.916300   51.993100
  H     37.741100   32.481000   50.447400
  C     38.696400   34.569000   51.984200
  H     38.143100   35.207000   52.646400
  H     38.196800   34.818600   51.143300
  C     40.179800   34.965300   51.938900
  H     40.124300   35.938700   51.369000
  H     40.551000   35.000100   52.977100
  C     40.886400   33.974000   51.049500
  H     40.265100   33.657200   50.185000
  H     41.730500   34.476800   50.660400
  H     41.189900   33.207000   51.594000
  S     38.457000   28.337400   51.378100
  C     37.482300   27.290800   50.264500
  C     36.656200   28.211800   49.574100
  C     36.512500   29.527600   50.148400
  C     37.400800   29.721900   51.192400
  H     36.140500   27.915500   48.704700
  C     35.529900   30.539500   49.596000
  H     35.338900   30.486000   48.525900
  H     35.928500   31.551800   49.677500
  C     34.188800   30.769800   50.389800
  H     33.758100   31.771800   50.158100
  H     34.408000   31.013000   51.442500
  C     33.148400   29.651900   50.161100
  H     32.160700   29.874200   50.570300
  H     33.545700   28.678100   50.546000
  H     32.965000   29.506900   49.053500
  H     39.343700   33.032100   54.384500
  H     37.689200   26.307400   49.824000

 Total Charge           Charge          ....    0
 Multiplicity           Mult            ....    1
 Number of Electrons    NEL             ....  134
 Basis Dimension        Dim             ....  322

ORBITAL ENERGIES
----------------

  NO   OCC          E(Eh)            E(eV)
   0   2.0000     -88.968460     -2420.9549
   1   2.0000     -88.966314     -2420.8965
   2   2.0000     -10.331999      -281.1480
   3   2.0000     -10.330984      -281.1204
   4   2.0000     -10.325649      -280.9752
   5   2.0000     -10.317810      -280.7619
   6   2.0000     -10.304247      -280.3928
   7   2.0000     -10.301271      -280.3118
   8   2.0000     -10.298191      -280.2280
   9   2.0000     -10.296453      -280.1807
  10   2.0000     -10.293113      -280.0899
  11   2.0000     -10.292988      -280.0864
  12   2.0000     -10.289978      -280.0045
  13   2.0000     -10.280838      -279.7558
  14   2.0000     -10.280720      -279.7526
  15   2.0000     -10.262719      -279.2628
  16   2.0000      -8.083355      -219.9593
  17   2.0000      -8.079763      -219.8615
  18   2.0000      -6.042012      -164.4115
  19   2.0000      -6.038576      -164.3180
  20   2.0000      -6.037840      -164.2980
  21   2.0000      -6.034415      -164.2048
  22   2.0000      -6.033935      -164.1917
  23   2.0000      -6.030264      -164.0918
  24   2.0000      -1.005616       -27.3642
  25   2.0000      -0.980570       -26.6827
  26   2.0000      -0.919682       -25.0258
  27   2.0000      -0.898311       -24.4443
  28   2.0000      -0.870095       -23.6765
  29   2.0000      -0.851471       -23.1697
  30   2.0000      -0.838952       -22.8290
  31   2.0000      -0.814385       -22.1605
  32   2.0000      -0.787769       -21.4363
  33   2.0000      -0.773232       -21.0407
  34   2.0000      -0.707449       -19.2507
  35   2.0000      -0.702540       -19.1171
  36   2.0000      -0.687441       -18.7062
  37   2.0000      -0.665732       -18.1155
  38   2.0000      -0.636511       -17.3203
  39   2.0000      -0.616803       -16.7841
  40   2.0000      -0.591524       -16.0962
  41   2.0000      -0.584674       -15.9098
  42   2.0000      -0.555346       -15.1117
  43   2.0000      -0.548161       -14.9162
  44   2.0000      -0.542089       -14.7510
  45   2.0000      -0.536313       -14.5938
  46   2.0000      -0.512003       -13.9323
  47   2.0000      -0.509352       -13.8602
  48   2.0000      -0.502608       -13.6767
  49   2.0000      -0.497932       -13.5494
  50   2.0000      -0.485262       -13.2046
  51   2.0000      -0.480272       -13.0689
  52   2.0000      -0.472841       -12.8667
  53   2.0000      -0.468607       -12.7515
  54   2.0000      -0.460436       -12.5291
  55   2.0000      -0.449483       -12.2310
  56   2.0000      -0.435304       -11.8452
  57   2.0000      -0.434120       -11.8130
  58   2.0000      -0.428011       -11.6468
  59   2.0000      -0.426776       -11.6132
  60   2.0000      -0.418835       -11.3971
  61   2.0000      -0.415781       -11.3140
  62   2.0000      -0.405774       -11.0417
  63   2.0000      -0.352430        -9.5901
  64   2.0000      -0.328159        -8.9297
  65   2.0000      -0.325370        -8.8538
  66   2.0000      -0.291797        -7.9402
  67   0.0000       0.018729         0.5096
  68   0.0000       0.073823         2.0088
  69   0.0000       0.098317         2.6753
  70   0.0000       0.114832         3.1247
  71   0.0000       0.130624         3.5545

MULLIKEN ATOMIC CHARGES
-----------------------
   0 S :    0.118418
   1 C :   -0.160385
   2 C :   -0.109493
   3 C :    0.002523
   4 C :   -0.137606
   5 H :    0.027816
   6 C :    0.108705
   7 H :    0.014287
   8 H :   -0.023230
   9 C :   -0.086501
  10 H :    0.040858
  11 H :    0.042106
  12 C :    0.028734
  13 H :    0.028322
  14 H :    0.018871
  15 H :    0.008382
  16 S :    0.094579
  17 C :   -0.101118
  18 C :   -0.037081
  19 C :   -0.009385
  20 C :   -0.126980
  21 H :    0.005307
  22 C :    0.050151
  23 H :    0.026718
  24 H :    0.004989
  25 C :   -0.085499
  26 H :    0.019381
  27 H :    0.032871
  28 C :   -0.056594
  29 H :    0.037325
  30 H :    0.047817
  31 H :    0.025680
  32 H :    0.075376
  33 H :    0.074656
Sum of atomic charges:   -0.0000000

LOEWDIN ATOMIC CHARGES
----------------------
   0 S :    0.408845
   1 C :   -0.213400
   2 C :   -0.066203
   3 C :   -0.050842
   4 C :   -0.194542
   5 H :    0.028614
   6 C :   -0.036005
   7 H :    0.032262
   8 H :    0.012346
   9 C :   -0.032749
  10 H :    0.035270
  11 H :    0.027332
  12 C :   -0.048428
  13 H :    0.031848
  14 H :    0.022560
  15 H :    0.007783
  16 S :    0.385757
  17 C :   -0.188286
  18 C :   -0.055136
  19 C :   -0.064341
  20 C :   -0.184771
  21 H :    0.019759
  22 C :   -0.036504
  23 H :    0.030670
  24 H :    0.030724
  25 C :   -0.044913
  26 H :    0.024456
  27 H :    0.027673
  28 C :   -0.075867
  29 H :    0.024459
  30 H :    0.031300
  31 H :    0.027082
  32 H :    0.043270
  33 H :    0.039977

  Mayer bond orders larger than 0.100000
B(  0-S ,  1-C ) :   1.1484 B(  0-S ,  4-C ) :   1.1264 B(  1-C ,  2-C ) :   1.6321
B(  1-C , 32-H ) :   0.9529 B(  2-C ,  3-C ) :   1.2392 B(  2-C ,  6-C ) :   1.0206
B(  3-C ,  4-C ) :   1.5804 B(  3-C ,  5-H ) :   0.9802 B(  4-C , 20-C ) :   1.0566
B(  6-C ,  7-H ) :   0.9198 B(  6-C ,  8-H ) :   0.9307 B(  6-C ,  9-C ) :   1.0760
B(  9-C , 10-H ) :   0.9546 B(  9-C , 11-H ) :   0.9557 B(  9-C , 12-C ) :   1.0743
B( 12-C , 13-H ) :   0.9744 B( 12-C , 14-H ) :   0.9708 B( 12-C , 15-H ) :   0.9696
B( 16-S , 17-C ) :   1.1226 B( 16-S , 20-C ) :   1.1494 B( 17-C , 18-C ) :   1.6027
B( 17-C , 20-C ) :   0.1033 B( 17-C , 33-H ) :   0.9649 B( 18-C , 19-C ) :   1.2495
B( 18-C , 21-H ) :   0.9863 B( 19-C , 20-C ) :   1.5781 B( 19-C , 22-C ) :   1.0479
B( 22-C , 23-H ) :   0.9429 B( 22-C , 24-H ) :   0.9263 B( 22-C , 25-C ) :   1.0690
B( 25-C , 26-H ) :   0.9557 B( 25-C , 27-H ) :   0.9539 B( 25-C , 28-C ) :   1.0675
B( 28-C , 29-H ) :   0.9753 B( 28-C , 30-H ) :   0.9763 B( 28-C , 31-H ) :   0.9744

Dispersion correction           -0.014934211
FINAL SINGLE POINT ENERGY     -1339.844002480427

DIPOLE MOMENT
-------------
                                X             Y             Z
Electronic contribution:      7.30619     -16.88342      11.16151
Nuclear contribution   :     -7.22995      17.54149     -11.69849
                        -----------------------------------------
Total Dipole Moment    :      0.07624       0.65807      -0.53697
                        -----------------------------------------
Magnitude (a.u.)       :      0.85277
Magnitude (Debye)      :      2.16756

Rotational constants in cm-1:     0.019998     0.008388     0.007267
Rotational constants in MHz :   599.511788   251.476297   217.860809

                             ****ORCA TERMINATED NORMALLY****
TOTAL RUN TIME: 0 days 0 hours 0 minutes 35 seconds 952 msec
