                         Program Version 4.2.1 -  RELEASE  -
|  1> ! wB97X-D3 SP def2-SVP
|  2> %pal
|  3> nprocs 16
|  4> end
|  5>
|  6> * xyz 0 1
|  7> S 	 -59.6198 	 50.3171 	 135.402
|  8> C 	 -59.9539 	 51.9156 	 134.704
|  9> C 	 -59.919 	 52.8673 	 135.701
| 10> C 	 -59.8497 	 52.3055 	 137.03
| 11> C 	 -59.7847 	 50.9203 	 137.032
| 12> H 	 -60.0352 	 52.7786 	 138.024
| 13> C 	 -59.8448 	 54.375 	 135.467
| 14> H 	 -59.5247 	 54.5468 	 134.466
| 15> H 	 -58.9537 	 54.7088 	 136.066
| 16> C 	 -61.0128 	 55.1915 	 135.947
| 17> H 	 -61.9282 	 54.9295 	 135.574
| 18> H 	 -61.2237 	 54.9482 	 136.984
| 19> C 	 -60.7994 	 56.6714 	 135.814
| 20> H 	 -59.8699 	 56.9936 	 136.218
| 21> H 	 -60.7122 	 56.991 	 134.774
| 22> H 	 -61.6396 	 57.1841 	 136.343
| 23> S 	 -58.3567 	 49.3525 	 138.73
| 24> C 	 -59.2171 	 48.5213 	 140.01
| 25> C 	 -60.5665 	 48.7357 	 139.876
| 26> C 	 -60.9207 	 49.6038 	 138.824
| 27> C 	 -59.8372 	 50.0538 	 138.098
| 28> H 	 -61.3114 	 48.2361 	 140.558
| 29> C 	 -62.4025 	 49.8035 	 138.374
| 30> H 	 -62.573 	 49.7496 	 137.287
| 31> H 	 -62.7252 	 50.7929 	 138.664
| 32> C 	 -63.5189 	 48.8641 	 138.989
| 33> H 	 -63.3664 	 48.7975 	 140.095
| 34> H 	 -63.371 	 47.8877 	 138.658
| 35> C 	 -64.8704 	 49.4048 	 138.732
| 36> H 	 -64.9573 	 49.4507 	 137.63
| 37> H 	 -65.0932 	 50.3867 	 139.214
| 38> H 	 -65.6201 	 48.7051 	 139.096
| 39> H 	 -59.7677 	 52.2558 	 133.656
| 40> H 	 -58.7561 	 47.8336 	 140.652
| 41> *
| 42>
| 43>                          ****END OF INPUT****

CARTESIAN COORDINATES (ANGSTROEM)
---------------------------------
  S    -59.619800   50.317100  135.402000
  C    -59.953900   51.915600  134.704000
  C    -59.919000   52.867300  135.701000
  C    -59.849700   52.305500  137.030000
  C    -59.784700   50.920300  137.032000
  H    -60.035200   52.778600  138.024000
  C    -59.844800   54.375000  135.467000
  H    -59.524700   54.546800  134.466000
  H    -58.953700   54.708800  136.066000
  C    -61.012800   55.191500  135.947000
  H    -61.928200   54.929500  135.574000
  H    -61.223700   54.948200  136.984000
  C    -60.799400   56.671400  135.814000
  H    -59.869900   56.993600  136.218000
  H    -60.712200   56.991000  134.774000
  H    -61.639600   57.184100  136.343000
  S    -58.356700   49.352500  138.730000
  C    -59.217100   48.521300  140.010000
  C    -60.566500   48.735700  139.876000
  C    -60.920700   49.603800  138.824000
  C    -59.837200   50.053800  138.098000
  H    -61.311400   48.236100  140.558000
  C    -62.402500   49.803500  138.374000
  H    -62.573000   49.749600  137.287000
  H    -62.725200   50.792900  138.664000
  C    -63.518900   48.864100  138.989000
  H    -63.366400   48.797500  140.095000
  H    -63.371000   47.887700  138.658000
  C    -64.870400   49.404800  138.732000
  H    -64.957300   49.450700  137.630000
  H    -65.093200   50.386700  139.214000
  H    -65.620100   48.705100  139.096000
  H    -59.767700   52.255800  133.656000
  H    -58.756100   47.833600  140.652000

 Total Charge           Charge          ....    0
 Multiplicity           Mult            ....    1
 Number of Electrons    NEL             ....  134
 Basis Dimension        Dim             ....  322

ORBITAL ENERGIES
----------------

  NO   OCC          E(Eh)            E(eV)
   0   2.0000     -88.964069     -2420.8354
   1   2.0000     -88.963545     -2420.8211
   2   2.0000     -10.322250      -280.8827
   3   2.0000     -10.317614      -280.7566
   4   2.0000     -10.316820      -280.7349
   5   2.0000     -10.315461      -280.6980
   6   2.0000     -10.304404      -280.3971
   7   2.0000     -10.303555      -280.3740
   8   2.0000     -10.298095      -280.2254
   9   2.0000     -10.295776      -280.1623
  10   2.0000     -10.293888      -280.1109
  11   2.0000     -10.291847      -280.0554
  12   2.0000     -10.282828      -279.8100
  13   2.0000     -10.280432      -279.7448
  14   2.0000     -10.276167      -279.6287
  15   2.0000     -10.274950      -279.5956
  16   2.0000      -8.078968      -219.8399
  17   2.0000      -8.077987      -219.8132
  18   2.0000      -6.037408      -164.2862
  19   2.0000      -6.036638      -164.2653
  20   2.0000      -6.033369      -164.1763
  21   2.0000      -6.032524      -164.1533
  22   2.0000      -6.029863      -164.0809
  23   2.0000      -6.028606      -164.0467
  24   2.0000      -1.010699       -27.5025
  25   2.0000      -0.982503       -26.7353
  26   2.0000      -0.918614       -24.9968
  27   2.0000      -0.908009       -24.7082
  28   2.0000      -0.880555       -23.9611
  29   2.0000      -0.852046       -23.1853
  30   2.0000      -0.845054       -22.9951
  31   2.0000      -0.813580       -22.1386
  32   2.0000      -0.781111       -21.2551
  33   2.0000      -0.769899       -20.9500
  34   2.0000      -0.716222       -19.4894
  35   2.0000      -0.703703       -19.1487
  36   2.0000      -0.701054       -19.0767
  37   2.0000      -0.653764       -17.7898
  38   2.0000      -0.641760       -17.4632
  39   2.0000      -0.613038       -16.6816
  40   2.0000      -0.602872       -16.4050
  41   2.0000      -0.570350       -15.5200
  42   2.0000      -0.568300       -15.4642
  43   2.0000      -0.556195       -15.1348
  44   2.0000      -0.535291       -14.5660
  45   2.0000      -0.528216       -14.3735
  46   2.0000      -0.517392       -14.0789
  47   2.0000      -0.509962       -13.8768
  48   2.0000      -0.505217       -13.7477
  49   2.0000      -0.499821       -13.6008
  50   2.0000      -0.495648       -13.4873
  51   2.0000      -0.475822       -12.9478
  52   2.0000      -0.471898       -12.8410
  53   2.0000      -0.467336       -12.7169
  54   2.0000      -0.460041       -12.5184
  55   2.0000      -0.456177       -12.4132
  56   2.0000      -0.449346       -12.2273
  57   2.0000      -0.438086       -11.9209
  58   2.0000      -0.432298       -11.7634
  59   2.0000      -0.419070       -11.4035
  60   2.0000      -0.416103       -11.3227
  61   2.0000      -0.413019       -11.2388
  62   2.0000      -0.411087       -11.1862
  63   2.0000      -0.335830        -9.1384
  64   2.0000      -0.327592        -8.9142
  65   2.0000      -0.324392        -8.8272
  66   2.0000      -0.309041        -8.4094
  67   0.0000       0.038243         1.0406
  68   0.0000       0.052841         1.4379
  69   0.0000       0.107770         2.9326
  70   0.0000       0.123864         3.3705
  71   0.0000       0.136008         3.7010

MULLIKEN ATOMIC CHARGES
-----------------------
   0 S :    0.104453
   1 C :   -0.114883
   2 C :   -0.116096
   3 C :    0.050016
   4 C :   -0.196285
   5 H :    0.034479
   6 C :    0.069378
   7 H :    0.002676
   8 H :    0.033231
   9 C :   -0.016833
  10 H :   -0.001036
  11 H :    0.008732
  12 C :   -0.030973
  13 H :    0.012563
  14 H :    0.026282
  15 H :    0.042474
  16 S :    0.111167
  17 C :   -0.069176
  18 C :   -0.062008
  19 C :    0.025045
  20 C :   -0.194600
  21 H :    0.037381
  22 C :    0.056576
  23 H :    0.041859
  24 H :    0.015740
  25 C :   -0.088927
  26 H :    0.026727
  27 H :    0.022424
  28 C :   -0.044116
  29 H :    0.031871
  30 H :    0.043860
  31 H :    0.033153
  32 H :    0.063917
  33 H :    0.040928
Sum of atomic charges:   -0.0000000

LOEWDIN ATOMIC CHARGES
----------------------
   0 S :    0.395820
   1 C :   -0.205220
   2 C :   -0.061082
   3 C :   -0.060319
   4 C :   -0.198831
   5 H :    0.041109
   6 C :   -0.028945
   7 H :    0.020668
   8 H :    0.040663
   9 C :   -0.041036
  10 H :    0.013365
  11 H :    0.025629
  12 C :   -0.059642
  13 H :    0.017423
  14 H :    0.024705
  15 H :    0.034537
  16 S :    0.408669
  17 C :   -0.173680
  18 C :   -0.079541
  19 C :   -0.050370
  20 C :   -0.213640
  21 H :    0.040426
  22 C :   -0.027234
  23 H :    0.033332
  24 H :    0.027396
  25 C :   -0.042946
  26 H :    0.021419
  27 H :    0.014850
  28 C :   -0.065004
  29 H :    0.028534
  30 H :    0.031303
  31 H :    0.028073
  32 H :    0.039627
  33 H :    0.019943

  Mayer bond orders larger than 0.100000
B(  0-S ,  1-C ) :   1.1173 B(  0-S ,  4-C ) :   1.1369 B(  1-C ,  2-C ) :   1.6506
B(  1-C , 32-H ) :   0.9557 B(  2-C ,  3-C ) :   1.2053 B(  2-C ,  6-C ) :   1.0241
B(  3-C ,  4-C ) :   1.6121 B(  3-C ,  5-H ) :   0.9821 B(  4-C , 20-C ) :   1.0583
B(  6-C ,  7-H ) :   0.9420 B(  6-C ,  8-H ) :   0.9385 B(  6-C ,  9-C ) :   1.0576
B(  9-C , 10-H ) :   0.9472 B(  9-C , 11-H ) :   0.9470 B(  9-C , 12-C ) :   1.0906
B( 12-C , 13-H ) :   0.9728 B( 12-C , 14-H ) :   0.9737 B( 12-C , 15-H ) :   0.9725
B( 16-S , 17-C ) :   1.1631 B( 16-S , 20-C ) :   1.1435 B( 17-C , 18-C ) :   1.5870
B( 17-C , 20-C ) :   0.1091 B( 17-C , 33-H ) :   0.9735 B( 18-C , 19-C ) :   1.2775
B( 18-C , 21-H ) :   0.9728 B( 19-C , 20-C ) :   1.5923 B( 19-C , 22-C ) :   1.0143
B( 22-C , 23-H ) :   0.9440 B( 22-C , 24-H ) :   0.9299 B( 22-C , 25-C ) :   1.0688
B( 25-C , 26-H ) :   0.9449 B( 25-C , 27-H ) :   0.9537 B( 25-C , 28-C ) :   1.0964
B( 28-C , 29-H ) :   0.9722 B( 28-C , 30-H ) :   0.9719 B( 28-C , 31-H ) :   0.9681

Dispersion correction           -0.013485376
FINAL SINGLE POINT ENERGY     -1339.868786685281

DIPOLE MOMENT
-------------
                                X             Y             Z
Electronic contribution:     21.25805     -17.26584      -1.11401
Nuclear contribution   :    -21.68689      17.55567       1.31368
                        -----------------------------------------
Total Dipole Moment    :     -0.42884       0.28983       0.19967
                        -----------------------------------------
Magnitude (a.u.)       :      0.55477
Magnitude (Debye)      :      1.41012

Rotational constants in cm-1:     0.017136     0.007925     0.006531
Rotational constants in MHz :   513.710075   237.577132   195.801831

                             ****ORCA TERMINATED NORMALLY****
TOTAL RUN TIME: 0 days 0 hours 0 minutes 33 seconds 420 msec
