                         Program Version 4.2.1 -  RELEASE  -
|  1> ! wB97X-D3 SP def2-SVP
|  2> %pal
|  3> nprocs 16
|  4> end
|  5>
|  6> * xyz 0 1
|  7> S 	 -28.2545 	 69.2854 	 108.809
|  8> C 	 -28.9467 	 69.888 	 107.375
|  9> C 	 -28.6936 	 69.0064 	 106.325
| 10> C 	 -28.1588 	 67.7467 	 106.757
| 11> C 	 -27.8105 	 67.7489 	 108.073
| 12> H 	 -27.9322 	 66.8483 	 106.071
| 13> C 	 -29.1628 	 69.271 	 104.936
| 14> H 	 -28.4089 	 68.9344 	 104.225
| 15> H 	 -29.1645 	 70.4406 	 104.739
| 16> C 	 -30.524 	 68.81 	 104.58
| 17> H 	 -30.8189 	 69.355 	 103.72
| 18> H 	 -30.5144 	 67.7676 	 104.294
| 19> C 	 -31.5289 	 69.0787 	 105.684
| 20> H 	 -32.5618 	 69.0979 	 105.216
| 21> H 	 -31.5052 	 68.3558 	 106.465
| 22> H 	 -31.4967 	 69.9811 	 106.171
| 23> S 	 -25.9277 	 67.2157 	 109.97
| 24> C 	 -25.3705 	 65.6326 	 110.187
| 25> C 	 -25.9883 	 64.7002 	 109.352
| 26> C 	 -27.1108 	 65.3049 	 108.687
| 27> C 	 -27.05 	 66.7046 	 108.779
| 28> H 	 -25.7214 	 63.7182 	 109.431
| 29> C 	 -27.9598 	 64.4698 	 107.692
| 30> H 	 -28.7706 	 65.0833 	 107.31
| 31> H 	 -28.5034 	 63.6903 	 108.241
| 32> C 	 -27.1729 	 63.6498 	 106.644
| 33> H 	 -27.8759 	 62.8839 	 106.288
| 34> H 	 -26.3892 	 63.0143 	 107.122
| 35> C 	 -26.6066 	 64.4494 	 105.382
| 36> H 	 -27.4268 	 65.023 	 104.917
| 37> H 	 -26.2388 	 63.714 	 104.703
| 38> H 	 -25.8626 	 65.1075 	 105.734
| 39> H 	 -29.4235 	 70.8288 	 107.287
| 40> H 	 -24.4551 	 65.338 	 110.791
| 41> *
| 42>
| 43>                          ****END OF INPUT****

CARTESIAN COORDINATES (ANGSTROEM)
---------------------------------
  S    -28.254500   69.285400  108.809000
  C    -28.946700   69.888000  107.375000
  C    -28.693600   69.006400  106.325000
  C    -28.158800   67.746700  106.757000
  C    -27.810500   67.748900  108.073000
  H    -27.932200   66.848300  106.071000
  C    -29.162800   69.271000  104.936000
  H    -28.408900   68.934400  104.225000
  H    -29.164500   70.440600  104.739000
  C    -30.524000   68.810000  104.580000
  H    -30.818900   69.355000  103.720000
  H    -30.514400   67.767600  104.294000
  C    -31.528900   69.078700  105.684000
  H    -32.561800   69.097900  105.216000
  H    -31.505200   68.355800  106.465000
  H    -31.496700   69.981100  106.171000
  S    -25.927700   67.215700  109.970000
  C    -25.370500   65.632600  110.187000
  C    -25.988300   64.700200  109.352000
  C    -27.110800   65.304900  108.687000
  C    -27.050000   66.704600  108.779000
  H    -25.721400   63.718200  109.431000
  C    -27.959800   64.469800  107.692000
  H    -28.770600   65.083300  107.310000
  H    -28.503400   63.690300  108.241000
  C    -27.172900   63.649800  106.644000
  H    -27.875900   62.883900  106.288000
  H    -26.389200   63.014300  107.122000
  C    -26.606600   64.449400  105.382000
  H    -27.426800   65.023000  104.917000
  H    -26.238800   63.714000  104.703000
  H    -25.862600   65.107500  105.734000
  H    -29.423500   70.828800  107.287000
  H    -24.455100   65.338000  110.791000

 Total Charge           Charge          ....    0
 Multiplicity           Mult            ....    1
 Number of Electrons    NEL             ....  134
 Basis Dimension        Dim             ....  322

ORBITAL ENERGIES
----------------

  NO   OCC          E(Eh)            E(eV)
   0   2.0000     -88.967783     -2420.9364
   1   2.0000     -88.964690     -2420.8523
   2   2.0000     -10.329019      -281.0669
   3   2.0000     -10.326417      -280.9961
   4   2.0000     -10.316462      -280.7252
   5   2.0000     -10.309679      -280.5406
   6   2.0000     -10.306500      -280.4541
   7   2.0000     -10.298169      -280.2274
   8   2.0000     -10.297554      -280.2107
   9   2.0000     -10.296231      -280.1747
  10   2.0000     -10.295042      -280.1423
  11   2.0000     -10.290816      -280.0273
  12   2.0000     -10.288544      -279.9655
  13   2.0000     -10.279502      -279.7195
  14   2.0000     -10.277156      -279.6556
  15   2.0000     -10.266932      -279.3774
  16   2.0000      -8.084137      -219.9806
  17   2.0000      -8.080156      -219.8722
  18   2.0000      -6.042378      -164.4215
  19   2.0000      -6.038629      -164.3194
  20   2.0000      -6.038435      -164.3142
  21   2.0000      -6.035068      -164.2226
  22   2.0000      -6.034503      -164.2072
  23   2.0000      -6.030986      -164.1115
  24   2.0000      -1.012893       -27.5622
  25   2.0000      -0.991359       -26.9762
  26   2.0000      -0.919761       -25.0280
  27   2.0000      -0.903016       -24.5723
  28   2.0000      -0.869576       -23.6624
  29   2.0000      -0.850928       -23.1549
  30   2.0000      -0.844162       -22.9708
  31   2.0000      -0.814157       -22.1543
  32   2.0000      -0.786854       -21.4114
  33   2.0000      -0.777601       -21.1596
  34   2.0000      -0.711037       -19.3483
  35   2.0000      -0.697311       -18.9748
  36   2.0000      -0.691724       -18.8228
  37   2.0000      -0.659553       -17.9473
  38   2.0000      -0.637416       -17.3450
  39   2.0000      -0.620656       -16.8889
  40   2.0000      -0.594344       -16.1729
  41   2.0000      -0.570171       -15.5151
  42   2.0000      -0.554940       -15.1007
  43   2.0000      -0.550218       -14.9722
  44   2.0000      -0.546867       -14.8810
  45   2.0000      -0.534723       -14.5506
  46   2.0000      -0.518205       -14.1011
  47   2.0000      -0.515849       -14.0370
  48   2.0000      -0.503183       -13.6923
  49   2.0000      -0.499847       -13.6015
  50   2.0000      -0.491542       -13.3755
  51   2.0000      -0.479793       -13.0558
  52   2.0000      -0.470585       -12.8053
  53   2.0000      -0.464000       -12.6261
  54   2.0000      -0.462578       -12.5874
  55   2.0000      -0.452739       -12.3197
  56   2.0000      -0.451248       -12.2791
  57   2.0000      -0.437798       -11.9131
  58   2.0000      -0.430326       -11.7098
  59   2.0000      -0.422124       -11.4866
  60   2.0000      -0.417381       -11.3575
  61   2.0000      -0.413012       -11.2386
  62   2.0000      -0.408936       -11.1277
  63   2.0000      -0.357699        -9.7335
  64   2.0000      -0.333570        -9.0769
  65   2.0000      -0.327104        -8.9010
  66   2.0000      -0.284295        -7.7361
  67   0.0000       0.030537         0.8310
  68   0.0000       0.077760         2.1160
  69   0.0000       0.109227         2.9722
  70   0.0000       0.118482         3.2241
  71   0.0000       0.130924         3.5626

MULLIKEN ATOMIC CHARGES
-----------------------
   0 S :    0.109250
   1 C :   -0.105997
   2 C :   -0.087450
   3 C :   -0.010724
   4 C :   -0.114270
   5 H :    0.022162
   6 C :   -0.001688
   7 H :    0.026293
   8 H :    0.030347
   9 C :   -0.006251
  10 H :    0.017979
  11 H :    0.021784
  12 C :   -0.026492
  13 H :    0.027954
  14 H :    0.034512
  15 H :   -0.002612
  16 S :    0.129133
  17 C :   -0.114578
  18 C :   -0.014460
  19 C :   -0.042125
  20 C :   -0.150616
  21 H :   -0.010193
  22 C :    0.055705
  23 H :    0.024108
  24 H :    0.026602
  25 C :   -0.113376
  26 H :    0.026630
  27 H :    0.034208
  28 C :   -0.030967
  29 H :    0.045333
  30 H :    0.035861
  31 H :    0.043967
  32 H :    0.042745
  33 H :    0.077226
Sum of atomic charges:   -0.0000000

LOEWDIN ATOMIC CHARGES
----------------------
   0 S :    0.414419
   1 C :   -0.201617
   2 C :   -0.066339
   3 C :   -0.076635
   4 C :   -0.189796
   5 H :    0.045945
   6 C :   -0.044636
   7 H :    0.028724
   8 H :    0.037984
   9 C :   -0.038095
  10 H :    0.022704
  11 H :    0.022854
  12 C :   -0.058710
  13 H :    0.033303
  14 H :    0.024669
  15 H :    0.009550
  16 S :    0.447119
  17 C :   -0.213999
  18 C :   -0.062149
  19 C :   -0.055598
  20 C :   -0.209587
  21 H :    0.014856
  22 C :   -0.037958
  23 H :    0.027641
  24 H :    0.036430
  25 C :   -0.040489
  26 H :    0.023468
  27 H :    0.026147
  28 C :   -0.058496
  29 H :    0.024902
  30 H :    0.025699
  31 H :    0.022499
  32 H :    0.022637
  33 H :    0.042556

  Mayer bond orders larger than 0.100000
B(  0-S ,  1-C ) :   1.1476 B(  0-S ,  4-C ) :   1.1498 B(  1-C ,  2-C ) :   1.5736
B(  1-C , 32-H ) :   0.9755 B(  2-C ,  3-C ) :   1.2480 B(  2-C ,  6-C ) :   1.0484
B(  3-C ,  4-C ) :   1.5718 B(  3-C ,  5-H ) :   0.9734 B(  4-C , 20-C ) :   1.0462
B(  6-C ,  7-H ) :   0.9360 B(  6-C ,  8-H ) :   0.9421 B(  6-C ,  9-C ) :   1.0835
B(  9-C , 10-H ) :   0.9533 B(  9-C , 11-H ) :   0.9485 B(  9-C , 12-C ) :   1.0870
B( 12-C , 13-H ) :   0.9708 B( 12-C , 14-H ) :   0.9675 B( 12-C , 15-H ) :   0.9725
B( 16-S , 17-C ) :   1.1783 B( 16-S , 20-C ) :   1.1608 B( 17-C , 18-C ) :   1.6030
B( 17-C , 33-H ) :   0.9568 B( 18-C , 19-C ) :   1.2374 B( 18-C , 21-H ) :   0.9987
B( 19-C , 20-C ) :   1.5597 B( 19-C , 22-C ) :   1.0522 B( 22-C , 23-H ) :   0.9402
B( 22-C , 24-H ) :   0.9255 B( 22-C , 25-C ) :   1.0751 B( 25-C , 26-H ) :   0.9559
B( 25-C , 27-H ) :   0.9517 B( 25-C , 28-C ) :   1.0692 B( 28-C , 29-H ) :   0.9655
B( 28-C , 30-H ) :   0.9708 B( 28-C , 31-H ) :   0.9791

Dispersion correction           -0.015312286
FINAL SINGLE POINT ENERGY     -1339.868876765330

DIPOLE MOMENT
-------------
                                X             Y             Z
Electronic contribution:     11.70851       9.74771      23.43883
Nuclear contribution   :    -11.79601     -10.15358     -23.97017
                        -----------------------------------------
Total Dipole Moment    :     -0.08750      -0.40587      -0.53134
                        -----------------------------------------
Magnitude (a.u.)       :      0.67432
Magnitude (Debye)      :      1.71398

Rotational constants in cm-1:     0.019768     0.009661     0.007083
Rotational constants in MHz :   592.619480   289.619053   212.337048

                             ****ORCA TERMINATED NORMALLY****
TOTAL RUN TIME: 0 days 0 hours 0 minutes 28 seconds 798 msec
