                         Program Version 4.2.1 -  RELEASE  -
|  1> ! wB97X-D3 SP def2-SVP
|  2> %pal
|  3> nprocs 16
|  4> end
|  5>
|  6> * xyz 0 1
|  7> S 	 1.22557 	 -19.3057 	 84.8731
|  8> C 	 0.848887 	 -19.5398 	 86.5754
|  9> C 	 1.96889 	 -19.8122 	 87.3295
| 10> C 	 3.15158 	 -19.9459 	 86.4771
| 11> C 	 2.91842 	 -19.6818 	 85.1494
| 12> H 	 4.17144 	 -20.1619 	 86.8529
| 13> C 	 1.92427 	 -20.0964 	 88.7971
| 14> H 	 2.56038 	 -20.9384 	 88.9983
| 15> H 	 1.02011 	 -20.5465 	 89.2055
| 16> C 	 2.51808 	 -19.0801 	 89.782
| 17> H 	 2.55916 	 -19.5783 	 90.7691
| 18> H 	 3.6049 	 -18.9152 	 89.5278
| 19> C 	 1.74519 	 -17.7838 	 90.0313
| 20> H 	 2.39944 	 -17.0607 	 90.6359
| 21> H 	 1.25828 	 -17.4639 	 89.0501
| 22> H 	 0.88752 	 -18.1413 	 90.6081
| 23> S 	 4.13321 	 -21.1184 	 83.0353
| 24> C 	 5.24839 	 -20.2836 	 81.9676
| 25> C 	 5.3809 	 -18.9738 	 82.2651
| 26> C 	 4.59743 	 -18.592 	 83.4218
| 27> C 	 3.83176 	 -19.6568 	 83.9547
| 28> H 	 6.07971 	 -18.2658 	 81.7751
| 29> C 	 4.76351 	 -17.1505 	 83.9199
| 30> H 	 5.82991 	 -16.9439 	 83.838
| 31> H 	 4.51595 	 -17.3354 	 84.9926
| 32> C 	 4.00304 	 -15.9758 	 83.3283
| 33> H 	 4.21036 	 -15.1958 	 84.0499
| 34> H 	 2.92012 	 -16.0756 	 83.3207
| 35> C 	 4.45991 	 -15.6656 	 81.8735
| 36> H 	 4.06589 	 -14.7127 	 81.4942
| 37> H 	 4.15925 	 -16.4277 	 81.1217
| 38> H 	 5.55255 	 -15.6569 	 81.7442
| 39> H 	 -0.154133 	 -19.5093 	 87.0255
| 40> H 	 5.7492 	 -20.6951 	 81.1338
| 41> *
| 42>
| 43>                          ****END OF INPUT****

CARTESIAN COORDINATES (ANGSTROEM)
---------------------------------
  S      1.225570  -19.305700   84.873100
  C      0.848887  -19.539800   86.575400
  C      1.968890  -19.812200   87.329500
  C      3.151580  -19.945900   86.477100
  C      2.918420  -19.681800   85.149400
  H      4.171440  -20.161900   86.852900
  C      1.924270  -20.096400   88.797100
  H      2.560380  -20.938400   88.998300
  H      1.020110  -20.546500   89.205500
  C      2.518080  -19.080100   89.782000
  H      2.559160  -19.578300   90.769100
  H      3.604900  -18.915200   89.527800
  C      1.745190  -17.783800   90.031300
  H      2.399440  -17.060700   90.635900
  H      1.258280  -17.463900   89.050100
  H      0.887520  -18.141300   90.608100
  S      4.133210  -21.118400   83.035300
  C      5.248390  -20.283600   81.967600
  C      5.380900  -18.973800   82.265100
  C      4.597430  -18.592000   83.421800
  C      3.831760  -19.656800   83.954700
  H      6.079710  -18.265800   81.775100
  C      4.763510  -17.150500   83.919900
  H      5.829910  -16.943900   83.838000
  H      4.515950  -17.335400   84.992600
  C      4.003040  -15.975800   83.328300
  H      4.210360  -15.195800   84.049900
  H      2.920120  -16.075600   83.320700
  C      4.459910  -15.665600   81.873500
  H      4.065890  -14.712700   81.494200
  H      4.159250  -16.427700   81.121700
  H      5.552550  -15.656900   81.744200
  H     -0.154133  -19.509300   87.025500
  H      5.749200  -20.695100   81.133800

 Total Charge           Charge          ....    0
 Multiplicity           Mult            ....    1
 Number of Electrons    NEL             ....  134
 Basis Dimension        Dim             ....  322

ORBITAL ENERGIES
----------------

  NO   OCC          E(Eh)            E(eV)
   0   2.0000     -88.966587     -2420.9039
   1   2.0000     -88.964912     -2420.8583
   2   2.0000     -10.334846      -281.2255
   3   2.0000     -10.332132      -281.1516
   4   2.0000     -10.317249      -280.7466
   5   2.0000     -10.313116      -280.6342
   6   2.0000     -10.305565      -280.4287
   7   2.0000     -10.305279      -280.4209
   8   2.0000     -10.303781      -280.3801
   9   2.0000     -10.291637      -280.0497
  10   2.0000     -10.290848      -280.0282
  11   2.0000     -10.290679      -280.0236
  12   2.0000     -10.290315      -280.0137
  13   2.0000     -10.287936      -279.9490
  14   2.0000     -10.286190      -279.9015
  15   2.0000     -10.282509      -279.8013
  16   2.0000      -8.081051      -219.8966
  17   2.0000      -8.079551      -219.8558
  18   2.0000      -6.039695      -164.3485
  19   2.0000      -6.038146      -164.3063
  20   2.0000      -6.035517      -164.2348
  21   2.0000      -6.034040      -164.1946
  22   2.0000      -6.031767      -164.1327
  23   2.0000      -6.030240      -164.0912
  24   2.0000      -1.001136       -27.2423
  25   2.0000      -0.982340       -26.7308
  26   2.0000      -0.912060       -24.8184
  27   2.0000      -0.905462       -24.6389
  28   2.0000      -0.866032       -23.5659
  29   2.0000      -0.844234       -22.9728
  30   2.0000      -0.842485       -22.9252
  31   2.0000      -0.817484       -22.2449
  32   2.0000      -0.785148       -21.3650
  33   2.0000      -0.772149       -21.0112
  34   2.0000      -0.710495       -19.3335
  35   2.0000      -0.692139       -18.8340
  36   2.0000      -0.683353       -18.5950
  37   2.0000      -0.658242       -17.9117
  38   2.0000      -0.640114       -17.4184
  39   2.0000      -0.618031       -16.8175
  40   2.0000      -0.589360       -16.0373
  41   2.0000      -0.572581       -15.5807
  42   2.0000      -0.551047       -14.9947
  43   2.0000      -0.547244       -14.8913
  44   2.0000      -0.539354       -14.6766
  45   2.0000      -0.535767       -14.5790
  46   2.0000      -0.516083       -14.0433
  47   2.0000      -0.511977       -13.9316
  48   2.0000      -0.501611       -13.6495
  49   2.0000      -0.491996       -13.3879
  50   2.0000      -0.483275       -13.1506
  51   2.0000      -0.475724       -12.9451
  52   2.0000      -0.472289       -12.8516
  53   2.0000      -0.468329       -12.7439
  54   2.0000      -0.461076       -12.5465
  55   2.0000      -0.443655       -12.0725
  56   2.0000      -0.441574       -12.0158
  57   2.0000      -0.439250       -11.9526
  58   2.0000      -0.433565       -11.7979
  59   2.0000      -0.420820       -11.4511
  60   2.0000      -0.414036       -11.2665
  61   2.0000      -0.410107       -11.1596
  62   2.0000      -0.406534       -11.0623
  63   2.0000      -0.336219        -9.1490
  64   2.0000      -0.331555        -9.0221
  65   2.0000      -0.320682        -8.7262
  66   2.0000      -0.314345        -8.5538
  67   0.0000       0.050901         1.3851
  68   0.0000       0.051524         1.4020
  69   0.0000       0.112362         3.0575
  70   0.0000       0.120339         3.2746
  71   0.0000       0.123655         3.3648

MULLIKEN ATOMIC CHARGES
-----------------------
   0 S :    0.111369
   1 C :   -0.125060
   2 C :   -0.068118
   3 C :    0.050414
   4 C :   -0.180399
   5 H :    0.026864
   6 C :    0.056166
   7 H :    0.014995
   8 H :    0.018918
   9 C :   -0.118156
  10 H :    0.025868
  11 H :    0.030799
  12 C :   -0.054920
  13 H :    0.061267
  14 H :    0.044515
  15 H :    0.021119
  16 S :    0.117225
  17 C :   -0.064870
  18 C :   -0.038836
  19 C :   -0.042796
  20 C :   -0.177974
  21 H :    0.030342
  22 C :    0.023513
  23 H :    0.027415
  24 H :    0.035402
  25 C :   -0.002390
  26 H :    0.034064
  27 H :    0.033041
  28 C :   -0.088101
  29 H :    0.037898
  30 H :    0.044424
  31 H :    0.020600
  32 H :    0.055409
  33 H :    0.039991
Sum of atomic charges:   -0.0000000

LOEWDIN ATOMIC CHARGES
----------------------
   0 S :    0.399262
   1 C :   -0.192195
   2 C :   -0.066460
   3 C :   -0.057360
   4 C :   -0.194210
   5 H :    0.038774
   6 C :   -0.043899
   7 H :    0.036652
   8 H :    0.031717
   9 C :   -0.050276
  10 H :    0.024909
  11 H :    0.022488
  12 C :   -0.080903
  13 H :    0.040291
  14 H :    0.033225
  15 H :    0.023125
  16 S :    0.406717
  17 C :   -0.175348
  18 C :   -0.078786
  19 C :   -0.049996
  20 C :   -0.218891
  21 H :    0.037391
  22 C :   -0.038168
  23 H :    0.031156
  24 H :    0.037282
  25 C :   -0.034614
  26 H :    0.029302
  27 H :    0.027675
  28 C :   -0.075176
  29 H :    0.027385
  30 H :    0.031219
  31 H :    0.019940
  32 H :    0.033915
  33 H :    0.023857

  Mayer bond orders larger than 0.100000
B(  0-S ,  1-C ) :   1.1332 B(  0-S ,  4-C ) :   1.1505 B(  1-C ,  2-C ) :   1.6317
B(  1-C , 32-H ) :   0.9665 B(  2-C ,  3-C ) :   1.2083 B(  2-C ,  6-C ) :   1.0256
B(  3-C ,  4-C ) :   1.6276 B(  3-C ,  5-H ) :   0.9899 B(  4-C , 20-C ) :   0.9816
B(  6-C ,  7-H ) :   0.9260 B(  6-C ,  8-H ) :   0.9460 B(  6-C ,  9-C ) :   1.0810
B(  9-C , 10-H ) :   0.9555 B(  9-C , 11-H ) :   0.9568 B(  9-C , 12-C ) :   1.0620
B( 12-C , 13-H ) :   0.9718 B( 12-C , 14-H ) :   0.9766 B( 12-C , 15-H ) :   0.9735
B( 16-S , 17-C ) :   1.1505 B( 16-S , 20-C ) :   1.1397 B( 17-C , 18-C ) :   1.6251
B( 17-C , 33-H ) :   0.9665 B( 18-C , 19-C ) :   1.2437 B( 18-C , 21-H ) :   0.9794
B( 19-C , 20-C ) :   1.6123 B( 19-C , 22-C ) :   1.0208 B( 22-C , 23-H ) :   0.9421
B( 22-C , 24-H ) :   0.9298 B( 22-C , 25-C ) :   1.0759 B( 25-C , 26-H ) :   0.9523
B( 25-C , 27-H ) :   0.9529 B( 25-C , 28-C ) :   1.0668 B( 28-C , 29-H ) :   0.9740
B( 28-C , 30-H ) :   0.9728 B( 28-C , 31-H ) :   0.9756

Dispersion correction           -0.014331477
FINAL SINGLE POINT ENERGY     -1339.877961300346

DIPOLE MOMENT
-------------
                                X             Y             Z
Electronic contribution:     -3.23662     -18.03056     -14.33667
Nuclear contribution   :      3.50589      18.25126      14.68562
                        -----------------------------------------
Total Dipole Moment    :      0.26927       0.22070       0.34895
                        -----------------------------------------
Magnitude (a.u.)       :      0.49293
Magnitude (Debye)      :      1.25293

Rotational constants in cm-1:     0.020506     0.007663     0.006568
Rotational constants in MHz :   614.753073   229.727538   196.906943

                             ****ORCA TERMINATED NORMALLY****
TOTAL RUN TIME: 0 days 0 hours 0 minutes 33 seconds 9 msec
