                         Program Version 4.2.1 -  RELEASE  -
|  1> ! wB97X-D3 SP def2-SVP
|  2> %pal
|  3> nprocs 16
|  4> end
|  5>
|  6> * xyz 0 1
|  7> S 	 -49.8898 	 27.8931 	 93.9443
|  8> C 	 -48.2986 	 27.263 	 93.3722
|  9> C 	 -48.4366 	 26.6488 	 92.1899
| 10> C 	 -49.7228 	 26.7733 	 91.6613
| 11> C 	 -50.6725 	 27.3333 	 92.4944
| 12> H 	 -50.0461 	 26.3136 	 90.7422
| 13> C 	 -47.307 	 25.9622 	 91.5175
| 14> H 	 -46.3747 	 26.2859 	 91.9266
| 15> H 	 -47.4257 	 26.3299 	 90.4929
| 16> C 	 -47.385 	 24.3989 	 91.4954
| 17> H 	 -48.3763 	 24.1791 	 91.1486
| 18> H 	 -46.6533 	 23.8344 	 90.9144
| 19> C 	 -47.4806 	 23.7756 	 92.8709
| 20> H 	 -47.5224 	 22.6952 	 92.7752
| 21> H 	 -46.5114 	 23.916 	 93.4402
| 22> H 	 -48.3676 	 24.1939 	 93.3333
| 23> S 	 -52.6443 	 29.1999 	 92.2669
| 24> C 	 -54.0421 	 28.722 	 91.3302
| 25> C 	 -54.0637 	 27.3309 	 91.064
| 26> C 	 -53.0014 	 26.6793 	 91.7201
| 27> C 	 -52.0364 	 27.578 	 92.1652
| 28> H 	 -54.6869 	 26.8286 	 90.3791
| 29> C 	 -52.8112 	 25.1613 	 91.5592
| 30> H 	 -51.7863 	 24.8675 	 91.7427
| 31> H 	 -53.087 	 24.8059 	 90.5823
| 32> C 	 -53.7986 	 24.3811 	 92.4381
| 33> H 	 -54.8123 	 24.6477 	 92.2524
| 34> H 	 -53.6142 	 24.751 	 93.4371
| 35> C 	 -53.697 	 22.8766 	 92.3441
| 36> H 	 -54.2492 	 22.3164 	 93.0441
| 37> H 	 -52.6039 	 22.5491 	 92.3556
| 38> H 	 -54.0684 	 22.6424 	 91.326
| 39> H 	 -47.4949 	 27.1756 	 94.0509
| 40> H 	 -54.7111 	 29.4368 	 90.8993
| 41> *
| 42>
| 43>                          ****END OF INPUT****

CARTESIAN COORDINATES (ANGSTROEM)
---------------------------------
  S    -49.889800   27.893100   93.944300
  C    -48.298600   27.263000   93.372200
  C    -48.436600   26.648800   92.189900
  C    -49.722800   26.773300   91.661300
  C    -50.672500   27.333300   92.494400
  H    -50.046100   26.313600   90.742200
  C    -47.307000   25.962200   91.517500
  H    -46.374700   26.285900   91.926600
  H    -47.425700   26.329900   90.492900
  C    -47.385000   24.398900   91.495400
  H    -48.376300   24.179100   91.148600
  H    -46.653300   23.834400   90.914400
  C    -47.480600   23.775600   92.870900
  H    -47.522400   22.695200   92.775200
  H    -46.511400   23.916000   93.440200
  H    -48.367600   24.193900   93.333300
  S    -52.644300   29.199900   92.266900
  C    -54.042100   28.722000   91.330200
  C    -54.063700   27.330900   91.064000
  C    -53.001400   26.679300   91.720100
  C    -52.036400   27.578000   92.165200
  H    -54.686900   26.828600   90.379100
  C    -52.811200   25.161300   91.559200
  H    -51.786300   24.867500   91.742700
  H    -53.087000   24.805900   90.582300
  C    -53.798600   24.381100   92.438100
  H    -54.812300   24.647700   92.252400
  H    -53.614200   24.751000   93.437100
  C    -53.697000   22.876600   92.344100
  H    -54.249200   22.316400   93.044100
  H    -52.603900   22.549100   92.355600
  H    -54.068400   22.642400   91.326000
  H    -47.494900   27.175600   94.050900
  H    -54.711100   29.436800   90.899300

 Total Charge           Charge          ....    0
 Multiplicity           Mult            ....    1
 Number of Electrons    NEL             ....  134
 Basis Dimension        Dim             ....  322

ORBITAL ENERGIES
----------------

  NO   OCC          E(Eh)            E(eV)
   0   2.0000     -88.970343     -2421.0061
   1   2.0000     -88.962781     -2420.8003
   2   2.0000     -10.328070      -281.0411
   3   2.0000     -10.324665      -280.9484
   4   2.0000     -10.321021      -280.8492
   5   2.0000     -10.309887      -280.5463
   6   2.0000     -10.303884      -280.3829
   7   2.0000     -10.296467      -280.1811
   8   2.0000     -10.294494      -280.1274
   9   2.0000     -10.291300      -280.0405
  10   2.0000     -10.290854      -280.0284
  11   2.0000     -10.289820      -280.0002
  12   2.0000     -10.285313      -279.8776
  13   2.0000     -10.280277      -279.7406
  14   2.0000     -10.277630      -279.6685
  15   2.0000     -10.276518      -279.6383
  16   2.0000      -8.085379      -220.0143
  17   2.0000      -8.077344      -219.7957
  18   2.0000      -6.043737      -164.4585
  19   2.0000      -6.039916      -164.3545
  20   2.0000      -6.036194      -164.2532
  21   2.0000      -6.035918      -164.2457
  22   2.0000      -6.031855      -164.1351
  23   2.0000      -6.028069      -164.0321
  24   2.0000      -1.012968       -27.5643
  25   2.0000      -0.989035       -26.9130
  26   2.0000      -0.918073       -24.9820
  27   2.0000      -0.913124       -24.8474
  28   2.0000      -0.874236       -23.7892
  29   2.0000      -0.856953       -23.3189
  30   2.0000      -0.847409       -23.0592
  31   2.0000      -0.814250       -22.1569
  32   2.0000      -0.786251       -21.3950
  33   2.0000      -0.775058       -21.0904
  34   2.0000      -0.709452       -19.3052
  35   2.0000      -0.697472       -18.9792
  36   2.0000      -0.692602       -18.8467
  37   2.0000      -0.669388       -18.2150
  38   2.0000      -0.643812       -17.5190
  39   2.0000      -0.625209       -17.0128
  40   2.0000      -0.603143       -16.4123
  41   2.0000      -0.576392       -15.6844
  42   2.0000      -0.570044       -15.5117
  43   2.0000      -0.552545       -15.0355
  44   2.0000      -0.545499       -14.8438
  45   2.0000      -0.526213       -14.3190
  46   2.0000      -0.525357       -14.2957
  47   2.0000      -0.518473       -14.1084
  48   2.0000      -0.506996       -13.7961
  49   2.0000      -0.501373       -13.6431
  50   2.0000      -0.486158       -13.2290
  51   2.0000      -0.480626       -13.0785
  52   2.0000      -0.474814       -12.9203
  53   2.0000      -0.466160       -12.6848
  54   2.0000      -0.463451       -12.6111
  55   2.0000      -0.453224       -12.3328
  56   2.0000      -0.446224       -12.1424
  57   2.0000      -0.437056       -11.8929
  58   2.0000      -0.433219       -11.7885
  59   2.0000      -0.430121       -11.7042
  60   2.0000      -0.418511       -11.3883
  61   2.0000      -0.412924       -11.2362
  62   2.0000      -0.410793       -11.1782
  63   2.0000      -0.343673        -9.3518
  64   2.0000      -0.335467        -9.1285
  65   2.0000      -0.332764        -9.0550
  66   2.0000      -0.290823        -7.9137
  67   0.0000       0.026771         0.7285
  68   0.0000       0.061809         1.6819
  69   0.0000       0.107219         2.9176
  70   0.0000       0.116973         3.1830
  71   0.0000       0.127439         3.4678

MULLIKEN ATOMIC CHARGES
-----------------------
   0 S :    0.084237
   1 C :   -0.119069
   2 C :   -0.095245
   3 C :    0.029830
   4 C :   -0.157639
   5 H :    0.008454
   6 C :    0.114381
   7 H :    0.014180
   8 H :    0.033529
   9 C :   -0.061348
  10 H :    0.009982
  11 H :    0.037456
  12 C :   -0.079608
  13 H :    0.030805
  14 H :    0.028270
  15 H :    0.053158
  16 S :    0.129959
  17 C :   -0.089783
  18 C :   -0.014706
  19 C :   -0.024365
  20 C :   -0.162901
  21 H :    0.011623
  22 C :    0.081860
  23 H :    0.019873
  24 H :    0.006991
  25 C :   -0.086244
  26 H :    0.017735
  27 H :    0.020717
  28 C :   -0.024014
  29 H :    0.035822
  30 H :    0.031906
  31 H :    0.020728
  32 H :    0.037884
  33 H :    0.055542
Sum of atomic charges:    0.0000000

LOEWDIN ATOMIC CHARGES
----------------------
   0 S :    0.376929
   1 C :   -0.165990
   2 C :   -0.070601
   3 C :   -0.064677
   4 C :   -0.190657
   5 H :    0.027919
   6 C :   -0.020498
   7 H :    0.024251
   8 H :    0.037826
   9 C :   -0.040797
  10 H :    0.019890
  11 H :    0.024821
  12 C :   -0.068139
  13 H :    0.024788
  14 H :    0.024375
  15 H :    0.026843
  16 S :    0.422649
  17 C :   -0.181906
  18 C :   -0.055916
  19 C :   -0.049525
  20 C :   -0.205224
  21 H :    0.025878
  22 C :   -0.022795
  23 H :    0.024776
  24 H :    0.022705
  25 C :   -0.041867
  26 H :    0.017912
  27 H :    0.019680
  28 C :   -0.062162
  29 H :    0.020706
  30 H :    0.030847
  31 H :    0.025696
  32 H :    0.019373
  33 H :    0.022891

  Mayer bond orders larger than 0.100000
B(  0-S ,  1-C ) :   1.1164 B(  0-S ,  4-C ) :   1.1510 B(  1-C ,  2-C ) :   1.6189
B(  1-C , 32-H ) :   0.9724 B(  2-C ,  3-C ) :   1.2398 B(  2-C ,  6-C ) :   1.0135
B(  3-C ,  4-C ) :   1.5689 B(  3-C ,  5-H ) :   0.9917 B(  4-C , 20-C ) :   1.0632
B(  6-C ,  7-H ) :   0.9455 B(  6-C ,  8-H ) :   0.9362 B(  6-C ,  9-C ) :   1.0587
B(  9-C , 10-H ) :   0.9565 B(  9-C , 11-H ) :   0.9626 B(  9-C , 12-C ) :   1.0767
B( 12-C , 13-H ) :   0.9726 B( 12-C , 14-H ) :   0.9743 B( 12-C , 15-H ) :   0.9752
B( 16-S , 17-C ) :   1.1630 B( 16-S , 20-C ) :   1.1489 B( 17-C , 18-C ) :   1.5789
B( 17-C , 20-C ) :   0.1088 B( 17-C , 33-H ) :   0.9726 B( 18-C , 19-C ) :   1.2502
B( 18-C , 21-H ) :   0.9941 B( 19-C , 20-C ) :   1.5656 B( 19-C , 22-C ) :   1.0531
B( 22-C , 23-H ) :   0.9345 B( 22-C , 24-H ) :   0.9405 B( 22-C , 25-C ) :   1.0461
B( 25-C , 26-H ) :   0.9595 B( 25-C , 27-H ) :   0.9536 B( 25-C , 28-C ) :   1.0832
B( 28-C , 29-H ) :   0.9749 B( 28-C , 30-H ) :   0.9735 B( 28-C , 31-H ) :   0.9709

Dispersion correction           -0.014495739
FINAL SINGLE POINT ENERGY     -1339.869023677711

DIPOLE MOMENT
-------------
                                X             Y             Z
Electronic contribution:     -5.00758      28.84691       5.53152
Nuclear contribution   :      5.04171     -29.44429      -6.01501
                        -----------------------------------------
Total Dipole Moment    :      0.03413      -0.59738      -0.48349
                        -----------------------------------------
Magnitude (a.u.)       :      0.76928
Magnitude (Debye)      :      1.95534

Rotational constants in cm-1:     0.016990     0.009778     0.007069
Rotational constants in MHz :   509.334147   293.137005   211.922519

                             ****ORCA TERMINATED NORMALLY****
TOTAL RUN TIME: 0 days 0 hours 0 minutes 31 seconds 600 msec
