                         Program Version 4.2.1 -  RELEASE  -
|  1> ! wB97X-D3 SP def2-SVP
|  2> %pal
|  3> nprocs 16
|  4> end
|  5>
|  6> * xyz 0 1
|  7> S 	 -38.8603 	 22.2589 	 78.891
|  8> C 	 -38.8179 	 22.8669 	 80.4823
|  9> C 	 -39.0336 	 24.2568 	 80.4745
| 10> C 	 -39.4045 	 24.7685 	 79.1819
| 11> C 	 -39.3253 	 23.7987 	 78.1868
| 12> H 	 -39.7865 	 25.7642 	 78.9349
| 13> C 	 -38.9354 	 25.1906 	 81.6521
| 14> H 	 -38.4733 	 24.6025 	 82.5146
| 15> H 	 -39.9097 	 25.6178 	 81.8338
| 16> C 	 -38.0072 	 26.4405 	 81.3801
| 17> H 	 -36.9442 	 26.102 	 81.4893
| 18> H 	 -38.0499 	 26.7837 	 80.3025
| 19> C 	 -38.4607 	 27.6233 	 82.2863
| 20> H 	 -38.5485 	 27.2089 	 83.2868
| 21> H 	 -37.7974 	 28.4813 	 82.1428
| 22> H 	 -39.4614 	 27.9908 	 81.9954
| 23> S 	 -38.7501 	 22.888 	 75.6615
| 24> C 	 -39.7425 	 23.3858 	 74.3468
| 25> C 	 -40.6585 	 24.4117 	 74.7147
| 26> C 	 -40.7333 	 24.5291 	 76.1147
| 27> C 	 -39.7071 	 23.8731 	 76.7856
| 28> H 	 -41.3315 	 24.8653 	 73.9915
| 29> C 	 -41.7911 	 25.3269 	 76.8068
| 30> H 	 -41.4441 	 26.3968 	 76.8643
| 31> H 	 -41.9359 	 25.0007 	 77.8271
| 32> C 	 -43.2529 	 25.3455 	 76.2787
| 33> H 	 -43.1995 	 25.7022 	 75.2615
| 34> H 	 -43.867 	 25.9572 	 76.9158
| 35> C 	 -43.8501 	 23.9161 	 76.2785
| 36> H 	 -44.5703 	 23.8371 	 75.4836
| 37> H 	 -44.3119 	 23.6579 	 77.2153
| 38> H 	 -43.1561 	 23.1534 	 76.0763
| 39> H 	 -38.4337 	 22.3192 	 81.3937
| 40> H 	 -39.5822 	 23.0499 	 73.332
| 41> *
| 42>
| 43>                          ****END OF INPUT****

CARTESIAN COORDINATES (ANGSTROEM)
---------------------------------
  S    -38.860300   22.258900   78.891000
  C    -38.817900   22.866900   80.482300
  C    -39.033600   24.256800   80.474500
  C    -39.404500   24.768500   79.181900
  C    -39.325300   23.798700   78.186800
  H    -39.786500   25.764200   78.934900
  C    -38.935400   25.190600   81.652100
  H    -38.473300   24.602500   82.514600
  H    -39.909700   25.617800   81.833800
  C    -38.007200   26.440500   81.380100
  H    -36.944200   26.102000   81.489300
  H    -38.049900   26.783700   80.302500
  C    -38.460700   27.623300   82.286300
  H    -38.548500   27.208900   83.286800
  H    -37.797400   28.481300   82.142800
  H    -39.461400   27.990800   81.995400
  S    -38.750100   22.888000   75.661500
  C    -39.742500   23.385800   74.346800
  C    -40.658500   24.411700   74.714700
  C    -40.733300   24.529100   76.114700
  C    -39.707100   23.873100   76.785600
  H    -41.331500   24.865300   73.991500
  C    -41.791100   25.326900   76.806800
  H    -41.444100   26.396800   76.864300
  H    -41.935900   25.000700   77.827100
  C    -43.252900   25.345500   76.278700
  H    -43.199500   25.702200   75.261500
  H    -43.867000   25.957200   76.915800
  C    -43.850100   23.916100   76.278500
  H    -44.570300   23.837100   75.483600
  H    -44.311900   23.657900   77.215300
  H    -43.156100   23.153400   76.076300
  H    -38.433700   22.319200   81.393700
  H    -39.582200   23.049900   73.332000

 Total Charge           Charge          ....    0
 Multiplicity           Mult            ....    1
 Number of Electrons    NEL             ....  134
 Basis Dimension        Dim             ....  322

ORBITAL ENERGIES
----------------

  NO   OCC          E(Eh)            E(eV)
   0   2.0000     -88.968797     -2420.9641
   1   2.0000     -88.964810     -2420.8556
   2   2.0000     -10.329918      -281.0914
   3   2.0000     -10.327093      -281.0145
   4   2.0000     -10.321220      -280.8547
   5   2.0000     -10.316586      -280.7286
   6   2.0000     -10.304258      -280.3931
   7   2.0000     -10.302335      -280.3408
   8   2.0000     -10.298431      -280.2346
   9   2.0000     -10.297074      -280.1976
  10   2.0000     -10.296225      -280.1745
  11   2.0000     -10.294655      -280.1318
  12   2.0000     -10.291036      -280.0333
  13   2.0000     -10.286698      -279.9153
  14   2.0000     -10.283488      -279.8279
  15   2.0000     -10.265691      -279.3436
  16   2.0000      -8.083588      -219.9656
  17   2.0000      -8.080124      -219.8713
  18   2.0000      -6.041980      -164.4106
  19   2.0000      -6.038701      -164.3214
  20   2.0000      -6.038016      -164.3028
  21   2.0000      -6.034551      -164.2085
  22   2.0000      -6.034428      -164.2051
  23   2.0000      -6.030894      -164.1090
  24   2.0000      -1.007773       -27.4229
  25   2.0000      -0.985196       -26.8086
  26   2.0000      -0.910223       -24.7684
  27   2.0000      -0.905337       -24.6355
  28   2.0000      -0.867308       -23.6006
  29   2.0000      -0.853536       -23.2259
  30   2.0000      -0.844030       -22.9672
  31   2.0000      -0.810526       -22.0555
  32   2.0000      -0.783080       -21.3087
  33   2.0000      -0.765300       -20.8249
  34   2.0000      -0.708294       -19.2736
  35   2.0000      -0.696854       -18.9624
  36   2.0000      -0.689945       -18.7743
  37   2.0000      -0.659706       -17.9515
  38   2.0000      -0.637772       -17.3547
  39   2.0000      -0.619545       -16.8587
  40   2.0000      -0.600280       -16.3345
  41   2.0000      -0.566863       -15.4251
  42   2.0000      -0.554443       -15.0872
  43   2.0000      -0.550547       -14.9811
  44   2.0000      -0.546852       -14.8806
  45   2.0000      -0.528660       -14.3856
  46   2.0000      -0.516170       -14.0457
  47   2.0000      -0.508006       -13.8235
  48   2.0000      -0.501473       -13.6458
  49   2.0000      -0.498874       -13.5751
  50   2.0000      -0.490048       -13.3349
  51   2.0000      -0.481604       -13.1051
  52   2.0000      -0.472308       -12.8522
  53   2.0000      -0.462834       -12.5943
  54   2.0000      -0.457349       -12.4451
  55   2.0000      -0.452949       -12.3254
  56   2.0000      -0.447101       -12.1662
  57   2.0000      -0.434838       -11.8325
  58   2.0000      -0.433379       -11.7928
  59   2.0000      -0.428833       -11.6691
  60   2.0000      -0.420418       -11.4402
  61   2.0000      -0.412936       -11.2366
  62   2.0000      -0.408172       -11.1069
  63   2.0000      -0.351553        -9.5663
  64   2.0000      -0.333850        -9.0845
  65   2.0000      -0.325919        -8.8687
  66   2.0000      -0.282984        -7.7004
  67   0.0000       0.024006         0.6532
  68   0.0000       0.074173         2.0183
  69   0.0000       0.108741         2.9590
  70   0.0000       0.116851         3.1797
  71   0.0000       0.132438         3.6038

MULLIKEN ATOMIC CHARGES
-----------------------
   0 S :    0.110921
   1 C :   -0.131178
   2 C :   -0.108248
   3 C :    0.006160
   4 C :   -0.130821
   5 H :    0.023224
   6 C :    0.064657
   7 H :    0.038247
   8 H :    0.030579
   9 C :   -0.137916
  10 H :    0.041710
  11 H :    0.041732
  12 C :   -0.050737
  13 H :    0.040493
  14 H :    0.043249
  15 H :    0.032256
  16 S :    0.112510
  17 C :   -0.099341
  18 C :   -0.035974
  19 C :   -0.032442
  20 C :   -0.147288
  21 H :    0.026329
  22 C :    0.002761
  23 H :    0.049359
  24 H :    0.029676
  25 C :   -0.049185
  26 H :    0.022530
  27 H :    0.033219
  28 C :   -0.036742
  29 H :    0.022353
  30 H :    0.027760
  31 H :    0.028571
  32 H :    0.071232
  33 H :    0.060344
Sum of atomic charges:   -0.0000000

LOEWDIN ATOMIC CHARGES
----------------------
   0 S :    0.420191
   1 C :   -0.230566
   2 C :   -0.068103
   3 C :   -0.065663
   4 C :   -0.192115
   5 H :    0.033975
   6 C :   -0.035632
   7 H :    0.038347
   8 H :    0.028994
   9 C :   -0.048206
  10 H :    0.027630
  11 H :    0.025364
  12 C :   -0.067093
  13 H :    0.025565
  14 H :    0.028544
  15 H :    0.026039
  16 S :    0.414476
  17 C :   -0.188211
  18 C :   -0.070466
  19 C :   -0.057987
  20 C :   -0.194668
  21 H :    0.032783
  22 C :   -0.040634
  23 H :    0.036723
  24 H :    0.029163
  25 C :   -0.030123
  26 H :    0.016496
  27 H :    0.026522
  28 C :   -0.061393
  29 H :    0.024541
  30 H :    0.024273
  31 H :    0.021060
  32 H :    0.043816
  33 H :    0.026357

  Mayer bond orders larger than 0.100000
B(  0-S ,  1-C ) :   1.1466 B(  0-S ,  4-C ) :   1.1585 B(  1-C ,  2-C ) :   1.5939
B(  1-C , 32-H ) :   0.9574 B(  2-C ,  3-C ) :   1.2371 B(  2-C ,  6-C ) :   1.0403
B(  3-C ,  4-C ) :   1.5585 B(  3-C ,  5-H ) :   0.9900 B(  4-C , 20-C ) :   1.0579
B(  6-C ,  7-H ) :   0.9406 B(  6-C ,  8-H ) :   0.9411 B(  6-C ,  9-C ) :   1.0384
B(  9-C , 10-H ) :   0.9587 B(  9-C , 11-H ) :   0.9629 B(  9-C , 12-C ) :   1.0639
B( 12-C , 13-H ) :   0.9762 B( 12-C , 14-H ) :   0.9742 B( 12-C , 15-H ) :   0.9751
B( 16-S , 17-C ) :   1.1865 B( 16-S , 20-C ) :   1.1356 B( 17-C , 18-C ) :   1.5625
B( 17-C , 20-C ) :   0.1089 B( 17-C , 33-H ) :   0.9687 B( 18-C , 19-C ) :   1.2628
B( 18-C , 21-H ) :   0.9871 B( 19-C , 20-C ) :   1.5730 B( 19-C , 22-C ) :   1.0451
B( 22-C , 23-H ) :   0.9287 B( 22-C , 24-H ) :   0.9372 B( 22-C , 25-C ) :   1.0788
B( 25-C , 26-H ) :   0.9571 B( 25-C , 27-H ) :   0.9566 B( 25-C , 28-C ) :   1.0713
B( 28-C , 29-H ) :   0.9758 B( 28-C , 30-H ) :   0.9761 B( 28-C , 31-H ) :   0.9782

Dispersion correction           -0.014056842
FINAL SINGLE POINT ENERGY     -1339.882589239824

DIPOLE MOMENT
-------------
                                X             Y             Z
Electronic contribution:     12.90361     -19.19562     -11.84997
Nuclear contribution   :    -13.23270      19.69071      11.95828
                        -----------------------------------------
Total Dipole Moment    :     -0.32908       0.49509       0.10831
                        -----------------------------------------
Magnitude (a.u.)       :      0.60427
Magnitude (Debye)      :      1.53592

Rotational constants in cm-1:     0.018856     0.008173     0.006794
Rotational constants in MHz :   565.303603   245.014565   203.672551

                             ****ORCA TERMINATED NORMALLY****
TOTAL RUN TIME: 0 days 0 hours 0 minutes 28 seconds 382 msec
