                         Program Version 4.2.1 -  RELEASE  -
|  1> ! wB97X-D3 SP def2-SVP
|  2> %pal
|  3> nprocs 16
|  4> end
|  5>
|  6> * xyz 0 1
|  7> S 	 -15.4594 	 -11.6196 	 85.2772
|  8> C 	 -16.7961 	 -11.6373 	 86.3582
|  9> C 	 -16.3825 	 -11.496 	 87.6883
| 10> C 	 -14.9594 	 -11.2451 	 87.7545
| 11> C 	 -14.274 	 -11.2713 	 86.5607
| 12> H 	 -14.3497 	 -11.1202 	 88.6032
| 13> C 	 -17.248 	 -11.3957 	 88.928
| 14> H 	 -18.2373 	 -11.4496 	 88.4849
| 15> H 	 -17.0294 	 -10.4117 	 89.3243
| 16> C 	 -16.9473 	 -12.4248 	 90.0377
| 17> H 	 -17.0363 	 -13.4215 	 89.6427
| 18> H 	 -15.8811 	 -12.3347 	 90.314
| 19> C 	 -17.717 	 -12.1694 	 91.3044
| 20> H 	 -17.9788 	 -11.1195 	 91.282
| 21> H 	 -18.59 	 -12.7957 	 91.3388
| 22> H 	 -17.0371 	 -12.3852 	 92.2018
| 23> S 	 -11.7732 	 -12.0638 	 85.6305
| 24> C 	 -10.3072 	 -11.2442 	 86.055
| 25> C 	 -10.5975 	 -10.0157 	 86.5722
| 26> C 	 -12.0016 	 -9.83858 	 86.7703
| 27> C 	 -12.8581 	 -10.8694 	 86.2977
| 28> H 	 -9.81777 	 -9.35483 	 86.902
| 29> C 	 -12.5864 	 -8.57767 	 87.3975
| 30> H 	 -11.9019 	 -8.33085 	 88.2465
| 31> H 	 -13.4387 	 -8.91848 	 87.8962
| 32> C 	 -12.8727 	 -7.40233 	 86.4679
| 33> H 	 -13.3757 	 -7.71939 	 85.5619
| 34> H 	 -11.8916 	 -7.07492 	 86.1035
| 35> C 	 -13.6278 	 -6.24925 	 87.038
| 36> H 	 -13.5712 	 -5.32528 	 86.4446
| 37> H 	 -13.18 	 -5.94424 	 88.0081
| 38> H 	 -14.6257 	 -6.50272 	 87.2962
| 39> H 	 -17.8359 	 -11.5597 	 86.1011
| 40> H 	 -9.29107 	 -11.5979 	 85.8708
| 41> *
| 42>
| 43>                          ****END OF INPUT****

CARTESIAN COORDINATES (ANGSTROEM)
---------------------------------
  S    -15.459400  -11.619600   85.277200
  C    -16.796100  -11.637300   86.358200
  C    -16.382500  -11.496000   87.688300
  C    -14.959400  -11.245100   87.754500
  C    -14.274000  -11.271300   86.560700
  H    -14.349700  -11.120200   88.603200
  C    -17.248000  -11.395700   88.928000
  H    -18.237300  -11.449600   88.484900
  H    -17.029400  -10.411700   89.324300
  C    -16.947300  -12.424800   90.037700
  H    -17.036300  -13.421500   89.642700
  H    -15.881100  -12.334700   90.314000
  C    -17.717000  -12.169400   91.304400
  H    -17.978800  -11.119500   91.282000
  H    -18.590000  -12.795700   91.338800
  H    -17.037100  -12.385200   92.201800
  S    -11.773200  -12.063800   85.630500
  C    -10.307200  -11.244200   86.055000
  C    -10.597500  -10.015700   86.572200
  C    -12.001600   -9.838580   86.770300
  C    -12.858100  -10.869400   86.297700
  H     -9.817770   -9.354830   86.902000
  C    -12.586400   -8.577670   87.397500
  H    -11.901900   -8.330850   88.246500
  H    -13.438700   -8.918480   87.896200
  C    -12.872700   -7.402330   86.467900
  H    -13.375700   -7.719390   85.561900
  H    -11.891600   -7.074920   86.103500
  C    -13.627800   -6.249250   87.038000
  H    -13.571200   -5.325280   86.444600
  H    -13.180000   -5.944240   88.008100
  H    -14.625700   -6.502720   87.296200
  H    -17.835900  -11.559700   86.101100
  H     -9.291070  -11.597900   85.870800

 Total Charge           Charge          ....    0
 Multiplicity           Mult            ....    1
 Number of Electrons    NEL             ....  134
 Basis Dimension        Dim             ....  322

ORBITAL ENERGIES
----------------

  NO   OCC          E(Eh)            E(eV)
   0   2.0000     -88.965629     -2420.8778
   1   2.0000     -88.962232     -2420.7854
   2   2.0000     -10.337267      -281.2913
   3   2.0000     -10.333811      -281.1973
   4   2.0000     -10.319527      -280.8086
   5   2.0000     -10.316513      -280.7266
   6   2.0000     -10.308845      -280.5179
   7   2.0000     -10.304355      -280.3957
   8   2.0000     -10.293965      -280.1130
   9   2.0000     -10.293719      -280.1063
  10   2.0000     -10.293102      -280.0895
  11   2.0000     -10.284958      -279.8679
  12   2.0000     -10.283991      -279.8416
  13   2.0000     -10.280464      -279.7456
  14   2.0000     -10.279894      -279.7301
  15   2.0000     -10.273100      -279.5453
  16   2.0000      -8.080431      -219.8797
  17   2.0000      -8.077545      -219.8012
  18   2.0000      -6.039041      -164.3307
  19   2.0000      -6.036045      -164.2491
  20   2.0000      -6.034800      -164.2153
  21   2.0000      -6.031674      -164.1302
  22   2.0000      -6.031188      -164.1170
  23   2.0000      -6.028547      -164.0451
  24   2.0000      -1.005359       -27.3572
  25   2.0000      -0.987066       -26.8594
  26   2.0000      -0.915081       -24.9006
  27   2.0000      -0.908678       -24.7264
  28   2.0000      -0.873097       -23.7582
  29   2.0000      -0.852312       -23.1926
  30   2.0000      -0.848522       -23.0895
  31   2.0000      -0.822933       -22.3931
  32   2.0000      -0.779305       -21.2060
  33   2.0000      -0.768395       -20.9091
  34   2.0000      -0.707924       -19.2636
  35   2.0000      -0.698554       -19.0086
  36   2.0000      -0.693944       -18.8832
  37   2.0000      -0.659697       -17.9513
  38   2.0000      -0.647208       -17.6114
  39   2.0000      -0.621346       -16.9077
  40   2.0000      -0.592502       -16.1228
  41   2.0000      -0.579994       -15.7824
  42   2.0000      -0.567966       -15.4551
  43   2.0000      -0.559250       -15.2180
  44   2.0000      -0.529044       -14.3960
  45   2.0000      -0.527348       -14.3499
  46   2.0000      -0.519860       -14.1461
  47   2.0000      -0.513827       -13.9820
  48   2.0000      -0.508364       -13.8333
  49   2.0000      -0.505289       -13.7496
  50   2.0000      -0.500973       -13.6322
  51   2.0000      -0.476110       -12.9556
  52   2.0000      -0.473431       -12.8827
  53   2.0000      -0.465574       -12.6689
  54   2.0000      -0.458920       -12.4878
  55   2.0000      -0.448203       -12.1962
  56   2.0000      -0.446023       -12.1369
  57   2.0000      -0.437631       -11.9085
  58   2.0000      -0.429211       -11.6794
  59   2.0000      -0.422186       -11.4883
  60   2.0000      -0.416805       -11.3418
  61   2.0000      -0.414962       -11.2917
  62   2.0000      -0.404859       -11.0168
  63   2.0000      -0.351069        -9.5531
  64   2.0000      -0.330038        -8.9808
  65   2.0000      -0.326195        -8.8762
  66   2.0000      -0.296443        -8.0666
  67   0.0000       0.033106         0.9009
  68   0.0000       0.058473         1.5911
  69   0.0000       0.115355         3.1390
  70   0.0000       0.127118         3.4591
  71   0.0000       0.130185         3.5425

MULLIKEN ATOMIC CHARGES
-----------------------
   0 S :    0.106727
   1 C :   -0.105156
   2 C :   -0.121914
   3 C :    0.033371
   4 C :   -0.140714
   5 H :    0.005949
   6 C :    0.091379
   7 H :    0.015443
   8 H :    0.030381
   9 C :   -0.099195
  10 H :    0.029470
  11 H :    0.027989
  12 C :   -0.026944
  13 H :    0.025861
  14 H :    0.037842
  15 H :    0.044412
  16 S :    0.093722
  17 C :   -0.087827
  18 C :   -0.014526
  19 C :   -0.118211
  20 C :   -0.114871
  21 H :    0.017846
  22 C :    0.097963
  23 H :    0.017497
  24 H :   -0.019915
  25 C :   -0.030652
  26 H :    0.027896
  27 H :    0.012085
  28 C :   -0.027310
  29 H :    0.039376
  30 H :    0.012582
  31 H :    0.026195
  32 H :    0.048997
  33 H :    0.064253
Sum of atomic charges:   -0.0000000

LOEWDIN ATOMIC CHARGES
----------------------
   0 S :    0.404656
   1 C :   -0.206206
   2 C :   -0.063529
   3 C :   -0.057272
   4 C :   -0.186346
   5 H :    0.023266
   6 C :   -0.029478
   7 H :    0.027971
   8 H :    0.031659
   9 C :   -0.044556
  10 H :    0.022680
  11 H :    0.026594
  12 C :   -0.063968
  13 H :    0.024324
  14 H :    0.024196
  15 H :    0.037380
  16 S :    0.418541
  17 C :   -0.183669
  18 C :   -0.079434
  19 C :   -0.049923
  20 C :   -0.210501
  21 H :    0.032935
  22 C :   -0.033189
  23 H :    0.031611
  24 H :    0.015428
  25 C :   -0.041093
  26 H :    0.026678
  27 H :    0.023400
  28 C :   -0.064818
  29 H :    0.031679
  30 H :    0.024806
  31 H :    0.020153
  32 H :    0.029963
  33 H :    0.036060

  Mayer bond orders larger than 0.100000
B(  0-S ,  1-C ) :   1.1519 B(  0-S ,  4-C ) :   1.1375 B(  1-C ,  2-C ) :   1.6084
B(  1-C , 32-H ) :   0.9643 B(  2-C ,  3-C ) :   1.2224 B(  2-C ,  6-C ) :   1.0264
B(  3-C ,  4-C ) :   1.6139 B(  3-C ,  5-H ) :   0.9930 B(  4-C , 20-C ) :   0.9957
B(  6-C ,  7-H ) :   0.9392 B(  6-C ,  8-H ) :   0.9312 B(  6-C ,  9-C ) :   1.0691
B(  9-C , 10-H ) :   0.9578 B(  9-C , 11-H ) :   0.9594 B(  9-C , 12-C ) :   1.0716
B( 12-C , 13-H ) :   0.9731 B( 12-C , 14-H ) :   0.9762 B( 12-C , 15-H ) :   0.9774
B( 16-S , 17-C ) :   1.1884 B( 16-S , 20-C ) :   1.1403 B( 17-C , 18-C ) :   1.5643
B( 17-C , 20-C ) :   0.1007 B( 17-C , 33-H ) :   0.9651 B( 18-C , 19-C ) :   1.2756
B( 18-C , 21-H ) :   0.9976 B( 19-C , 20-C ) :   1.5655 B( 19-C , 22-C ) :   1.0430
B( 22-C , 23-H ) :   0.9276 B( 22-C , 24-H ) :   0.9265 B( 22-C , 25-C ) :   1.0629
B( 25-C , 26-H ) :   0.9527 B( 25-C , 27-H ) :   0.9486 B( 25-C , 28-C ) :   1.0944
B( 28-C , 29-H ) :   0.9719 B( 28-C , 30-H ) :   0.9694 B( 28-C , 31-H ) :   0.9733

Dispersion correction           -0.013628196
FINAL SINGLE POINT ENERGY     -1339.873099142234

DIPOLE MOMENT
-------------
                                X             Y             Z
Electronic contribution:     10.45769     -14.64843     -20.84215
Nuclear contribution   :    -10.48822      15.04658      21.47770
                        -----------------------------------------
Total Dipole Moment    :     -0.03053       0.39815       0.63556
                        -----------------------------------------
Magnitude (a.u.)       :      0.75059
Magnitude (Debye)      :      1.90785

Rotational constants in cm-1:     0.016834     0.007960     0.006919
Rotational constants in MHz :   504.661068   238.637454   207.439015

                             ****ORCA TERMINATED NORMALLY****
TOTAL RUN TIME: 0 days 0 hours 0 minutes 32 seconds 880 msec
