                         Program Version 4.2.1 -  RELEASE  -
|  1> ! wB97X-D3 SP def2-SVP
|  2> %pal
|  3> nprocs 16
|  4> end
|  5>
|  6> * xyz 0 1
|  7> S 	 43.778 	 19.3492 	 79.3446
|  8> C 	 43.2033 	 19.6759 	 80.9464
|  9> C 	 43.9858 	 19.0561 	 81.9535
| 10> C 	 45.0149 	 18.2288 	 81.4434
| 11> C 	 45.0765 	 18.2521 	 79.9965
| 12> H 	 45.7751 	 17.6547 	 81.9232
| 13> C 	 43.8988 	 19.2874 	 83.5043
| 14> H 	 44.3539 	 18.4013 	 83.917
| 15> H 	 42.8122 	 19.3249 	 83.5953
| 16> C 	 44.5697 	 20.4901 	 84.1023
| 17> H 	 44.3137 	 21.4716 	 83.6019
| 18> H 	 44.4145 	 20.5002 	 85.1514
| 19> C 	 46.1201 	 20.4133 	 83.8368
| 20> H 	 46.791 	 19.7215 	 84.4693
| 21> H 	 46.2619 	 20.2913 	 82.7262
| 22> H 	 46.5001 	 21.4059 	 84.0404
| 23> S 	 45.7256 	 16.5855 	 77.7414
| 24> C 	 47.3203 	 16.625 	 77.2521
| 25> C 	 48.1194 	 17.4108 	 78.0152
| 26> C 	 47.4654 	 18.0119 	 79.1337
| 27> C 	 46.1157 	 17.7252 	 79.1255
| 28> H 	 49.1595 	 17.583 	 77.8122
| 29> C 	 48.1629 	 18.9735 	 80.0943
| 30> H 	 47.4053 	 19.4935 	 80.7214
| 31> H 	 48.6139 	 19.8029 	 79.5654
| 32> C 	 49.2927 	 18.3427 	 80.8335
| 33> H 	 50.0356 	 18.9977 	 81.2923
| 34> H 	 49.8908 	 17.8314 	 80.0822
| 35> C 	 48.795 	 17.4374 	 81.9576
| 36> H 	 48.2299 	 16.5519 	 81.6258
| 37> H 	 48.097 	 17.9598 	 82.6599
| 38> H 	 49.6102 	 17.083 	 82.4888
| 39> H 	 42.5422 	 20.4575 	 81.3005
| 40> H 	 47.8645 	 15.9209 	 76.6168
| 41> *
| 42>
| 43>                          ****END OF INPUT****

CARTESIAN COORDINATES (ANGSTROEM)
---------------------------------
  S     43.778000   19.349200   79.344600
  C     43.203300   19.675900   80.946400
  C     43.985800   19.056100   81.953500
  C     45.014900   18.228800   81.443400
  C     45.076500   18.252100   79.996500
  H     45.775100   17.654700   81.923200
  C     43.898800   19.287400   83.504300
  H     44.353900   18.401300   83.917000
  H     42.812200   19.324900   83.595300
  C     44.569700   20.490100   84.102300
  H     44.313700   21.471600   83.601900
  H     44.414500   20.500200   85.151400
  C     46.120100   20.413300   83.836800
  H     46.791000   19.721500   84.469300
  H     46.261900   20.291300   82.726200
  H     46.500100   21.405900   84.040400
  S     45.725600   16.585500   77.741400
  C     47.320300   16.625000   77.252100
  C     48.119400   17.410800   78.015200
  C     47.465400   18.011900   79.133700
  C     46.115700   17.725200   79.125500
  H     49.159500   17.583000   77.812200
  C     48.162900   18.973500   80.094300
  H     47.405300   19.493500   80.721400
  H     48.613900   19.802900   79.565400
  C     49.292700   18.342700   80.833500
  H     50.035600   18.997700   81.292300
  H     49.890800   17.831400   80.082200
  C     48.795000   17.437400   81.957600
  H     48.229900   16.551900   81.625800
  H     48.097000   17.959800   82.659900
  H     49.610200   17.083000   82.488800
  H     42.542200   20.457500   81.300500
  H     47.864500   15.920900   76.616800

 Total Charge           Charge          ....    0
 Multiplicity           Mult            ....    1
 Number of Electrons    NEL             ....  134
 Basis Dimension        Dim             ....  322

ORBITAL ENERGIES
----------------

  NO   OCC          E(Eh)            E(eV)
   0   2.0000     -88.972271     -2421.0586
   1   2.0000     -88.966865     -2420.9115
   2   2.0000     -10.337639      -281.3015
   3   2.0000     -10.330411      -281.1048
   4   2.0000     -10.316311      -280.7211
   5   2.0000     -10.311580      -280.5923
   6   2.0000     -10.305074      -280.4153
   7   2.0000     -10.304664      -280.4042
   8   2.0000     -10.299566      -280.2654
   9   2.0000     -10.293072      -280.0887
  10   2.0000     -10.292879      -280.0835
  11   2.0000     -10.290126      -280.0086
  12   2.0000     -10.287455      -279.9359
  13   2.0000     -10.286687      -279.9150
  14   2.0000     -10.284903      -279.8664
  15   2.0000     -10.273307      -279.5509
  16   2.0000      -8.085512      -220.0180
  17   2.0000      -8.082028      -219.9232
  18   2.0000      -6.043948      -164.4642
  19   2.0000      -6.040488      -164.3700
  20   2.0000      -6.040177      -164.3616
  21   2.0000      -6.036538      -164.2625
  22   2.0000      -6.036489      -164.2612
  23   2.0000      -6.032721      -164.1587
  24   2.0000      -1.003244       -27.2996
  25   2.0000      -0.977944       -26.6112
  26   2.0000      -0.918302       -24.9883
  27   2.0000      -0.910182       -24.7673
  28   2.0000      -0.868051       -23.6209
  29   2.0000      -0.849940       -23.1280
  30   2.0000      -0.844428       -22.9781
  31   2.0000      -0.808261       -21.9939
  32   2.0000      -0.788025       -21.4433
  33   2.0000      -0.771551       -20.9950
  34   2.0000      -0.708060       -19.2673
  35   2.0000      -0.699307       -19.0291
  36   2.0000      -0.696234       -18.9455
  37   2.0000      -0.654294       -17.8042
  38   2.0000      -0.637612       -17.3503
  39   2.0000      -0.610919       -16.6239
  40   2.0000      -0.596455       -16.2304
  41   2.0000      -0.576588       -15.6897
  42   2.0000      -0.560658       -15.2563
  43   2.0000      -0.552120       -15.0240
  44   2.0000      -0.549044       -14.9402
  45   2.0000      -0.537327       -14.6214
  46   2.0000      -0.514164       -13.9911
  47   2.0000      -0.510320       -13.8865
  48   2.0000      -0.499258       -13.5855
  49   2.0000      -0.494586       -13.4584
  50   2.0000      -0.484246       -13.1770
  51   2.0000      -0.481448       -13.1009
  52   2.0000      -0.467945       -12.7334
  53   2.0000      -0.462896       -12.5960
  54   2.0000      -0.459168       -12.4946
  55   2.0000      -0.451315       -12.2809
  56   2.0000      -0.444281       -12.0895
  57   2.0000      -0.437189       -11.8965
  58   2.0000      -0.432944       -11.7810
  59   2.0000      -0.422922       -11.5083
  60   2.0000      -0.421592       -11.4721
  61   2.0000      -0.413900       -11.2628
  62   2.0000      -0.411540       -11.1986
  63   2.0000      -0.342738        -9.3264
  64   2.0000      -0.336580        -9.1588
  65   2.0000      -0.328704        -8.9445
  66   2.0000      -0.288505        -7.8506
  67   0.0000       0.028168         0.7665
  68   0.0000       0.053821         1.4645
  69   0.0000       0.114105         3.1050
  70   0.0000       0.121626         3.3096
  71   0.0000       0.125089         3.4038

MULLIKEN ATOMIC CHARGES
-----------------------
   0 S :    0.122461
   1 C :   -0.094191
   2 C :   -0.152853
   3 C :    0.049800
   4 C :   -0.184149
   5 H :   -0.001337
   6 C :    0.090054
   7 H :    0.021489
   8 H :    0.032733
   9 C :   -0.031496
  10 H :    0.037235
  11 H :    0.034451
  12 C :   -0.133024
  13 H :    0.054206
  14 H :    0.058570
  15 H :    0.023834
  16 S :    0.119416
  17 C :   -0.057147
  18 C :   -0.061876
  19 C :   -0.006248
  20 C :   -0.202240
  21 H :    0.011392
  22 C :    0.081767
  23 H :    0.029681
  24 H :    0.026246
  25 C :   -0.065571
  26 H :    0.026863
  27 H :    0.017148
  28 C :   -0.041193
  29 H :    0.039723
  30 H :    0.029135
  31 H :    0.015180
  32 H :    0.046462
  33 H :    0.063479
Sum of atomic charges:   -0.0000000

LOEWDIN ATOMIC CHARGES
----------------------
   0 S :    0.402017
   1 C :   -0.217054
   2 C :   -0.066116
   3 C :   -0.055100
   4 C :   -0.176349
   5 H :    0.027543
   6 C :   -0.029360
   7 H :    0.030632
   8 H :    0.031482
   9 C :   -0.036344
  10 H :    0.033800
  11 H :    0.022539
  12 C :   -0.083334
  13 H :    0.030869
  14 H :    0.031213
  15 H :    0.021457
  16 S :    0.405802
  17 C :   -0.209472
  18 C :   -0.078223
  19 C :   -0.041022
  20 C :   -0.189186
  21 H :    0.025884
  22 C :   -0.031587
  23 H :    0.031862
  24 H :    0.033784
  25 C :   -0.041366
  26 H :    0.026144
  27 H :    0.022960
  28 C :   -0.064034
  29 H :    0.026693
  30 H :    0.027306
  31 H :    0.015112
  32 H :    0.030854
  33 H :    0.040593

  Mayer bond orders larger than 0.100000
B(  0-S ,  1-C ) :   1.1533 B(  0-S ,  4-C ) :   1.1541 B(  1-C ,  2-C ) :   1.5919
B(  1-C ,  4-C ) :   0.1109 B(  1-C , 32-H ) :   0.9600 B(  2-C ,  3-C ) :   1.2585
B(  2-C ,  6-C ) :   1.0034 B(  3-C ,  4-C ) :   1.5345 B(  3-C ,  5-H ) :   0.9968
B(  4-C , 20-C ) :   1.0670 B(  6-C ,  7-H ) :   0.9394 B(  6-C ,  8-H ) :   0.9398
B(  6-C ,  9-C ) :   1.0790 B(  9-C , 10-H ) :   0.9554 B(  9-C , 11-H ) :   0.9540
B(  9-C , 12-C ) :   1.0678 B( 12-C , 13-H ) :   0.9704 B( 12-C , 14-H ) :   0.9708
B( 12-C , 15-H ) :   0.9712 B( 16-S , 17-C ) :   1.1648 B( 16-S , 20-C ) :   1.1156
B( 17-C , 18-C ) :   1.6195 B( 17-C , 33-H ) :   0.9523 B( 18-C , 19-C ) :   1.2418
B( 18-C , 21-H ) :   0.9865 B( 19-C , 20-C ) :   1.5945 B( 19-C , 22-C ) :   1.0332
B( 22-C , 23-H ) :   0.9372 B( 22-C , 24-H ) :   0.9296 B( 22-C , 25-C ) :   1.0693
B( 25-C , 26-H ) :   0.9544 B( 25-C , 27-H ) :   0.9506 B( 25-C , 28-C ) :   1.0795
B( 28-C , 29-H ) :   0.9720 B( 28-C , 30-H ) :   0.9686 B( 28-C , 31-H ) :   0.9687

Dispersion correction           -0.016546791
FINAL SINGLE POINT ENERGY     -1339.860286991867

DIPOLE MOMENT
-------------
                                X             Y             Z
Electronic contribution:    -15.04256      -7.77154     -25.23224
Nuclear contribution   :     15.68637       8.06261      25.75686
                        -----------------------------------------
Total Dipole Moment    :      0.64381       0.29107       0.52462
                        -----------------------------------------
Magnitude (a.u.)       :      0.88002
Magnitude (Debye)      :      2.23684

Rotational constants in cm-1:     0.019096     0.010346     0.007368
Rotational constants in MHz :   572.482425   310.165246   220.888585

                             ****ORCA TERMINATED NORMALLY****
TOTAL RUN TIME: 0 days 0 hours 0 minutes 33 seconds 924 msec
