                         Program Version 4.2.1 -  RELEASE  -
|  1> ! wB97X-D3 SP def2-SVP
|  2> %pal
|  3> nprocs 16
|  4> end
|  5>
|  6> * xyz 0 1
|  7> S 	 -40.4826 	 34.5571 	 81.0677
|  8> C 	 -40.1335 	 35.7348 	 79.8683
|  9> C 	 -40.8847 	 35.5761 	 78.724
| 10> C 	 -41.5461 	 34.3108 	 78.7079
| 11> C 	 -41.4961 	 33.6577 	 79.9202
| 12> H 	 -42.2536 	 34.0284 	 78.0036
| 13> C 	 -41.088 	 36.599 	 77.6005
| 14> H 	 -41.2286 	 35.9684 	 76.7729
| 15> H 	 -40.1817 	 37.2051 	 77.46
| 16> C 	 -42.2554 	 37.6318 	 77.6534
| 17> H 	 -43.2127 	 37.1268 	 77.5602
| 18> H 	 -42.1689 	 38.028 	 78.6513
| 19> C 	 -42.1772 	 38.8046 	 76.5825
| 20> H 	 -42.2424 	 38.4036 	 75.6066
| 21> H 	 -43.0622 	 39.5729 	 76.6793
| 22> H 	 -41.2418 	 39.3557 	 76.5653
| 23> S 	 -43.9333 	 32.6734 	 81.0384
| 24> C 	 -44.1627 	 30.9188 	 80.938
| 25> C 	 -42.9912 	 30.2194 	 80.6185
| 26> C 	 -41.966 	 31.1232 	 80.2179
| 27> C 	 -42.2912 	 32.4912 	 80.3486
| 28> H 	 -42.9955 	 29.1777 	 80.5755
| 29> C 	 -40.6271 	 30.5241 	 79.7477
| 30> H 	 -40.4239 	 31.1432 	 78.8835
| 31> H 	 -40.7995 	 29.5453 	 79.3492
| 32> C 	 -39.4817 	 30.4786 	 80.7822
| 33> H 	 -39.6856 	 29.6295 	 81.3499
| 34> H 	 -39.5813 	 31.3185 	 81.5279
| 35> C 	 -38.0665 	 30.2708 	 80.1382
| 36> H 	 -37.6221 	 31.073 	 79.6719
| 37> H 	 -38.0872 	 29.4976 	 79.3692
| 38> H 	 -37.3713 	 30.0228 	 80.9176
| 39> H 	 -39.6409 	 36.6483 	 80.0763
| 40> H 	 -45.1319 	 30.488 	 81.0859
| 41> *
| 42>
| 43>                          ****END OF INPUT****

CARTESIAN COORDINATES (ANGSTROEM)
---------------------------------
  S    -40.482600   34.557100   81.067700
  C    -40.133500   35.734800   79.868300
  C    -40.884700   35.576100   78.724000
  C    -41.546100   34.310800   78.707900
  C    -41.496100   33.657700   79.920200
  H    -42.253600   34.028400   78.003600
  C    -41.088000   36.599000   77.600500
  H    -41.228600   35.968400   76.772900
  H    -40.181700   37.205100   77.460000
  C    -42.255400   37.631800   77.653400
  H    -43.212700   37.126800   77.560200
  H    -42.168900   38.028000   78.651300
  C    -42.177200   38.804600   76.582500
  H    -42.242400   38.403600   75.606600
  H    -43.062200   39.572900   76.679300
  H    -41.241800   39.355700   76.565300
  S    -43.933300   32.673400   81.038400
  C    -44.162700   30.918800   80.938000
  C    -42.991200   30.219400   80.618500
  C    -41.966000   31.123200   80.217900
  C    -42.291200   32.491200   80.348600
  H    -42.995500   29.177700   80.575500
  C    -40.627100   30.524100   79.747700
  H    -40.423900   31.143200   78.883500
  H    -40.799500   29.545300   79.349200
  C    -39.481700   30.478600   80.782200
  H    -39.685600   29.629500   81.349900
  H    -39.581300   31.318500   81.527900
  C    -38.066500   30.270800   80.138200
  H    -37.622100   31.073000   79.671900
  H    -38.087200   29.497600   79.369200
  H    -37.371300   30.022800   80.917600
  H    -39.640900   36.648300   80.076300
  H    -45.131900   30.488000   81.085900

 Total Charge           Charge          ....    0
 Multiplicity           Mult            ....    1
 Number of Electrons    NEL             ....  134
 Basis Dimension        Dim             ....  322

ORBITAL ENERGIES
----------------

  NO   OCC          E(Eh)            E(eV)
   0   2.0000     -88.968206     -2420.9480
   1   2.0000     -88.965723     -2420.8804
   2   2.0000     -10.330264      -281.1008
   3   2.0000     -10.328964      -281.0654
   4   2.0000     -10.321403      -280.8596
   5   2.0000     -10.308195      -280.5002
   6   2.0000     -10.306047      -280.4418
   7   2.0000     -10.300434      -280.2891
   8   2.0000     -10.292419      -280.0710
   9   2.0000     -10.291615      -280.0491
  10   2.0000     -10.290741      -280.0253
  11   2.0000     -10.289663      -279.9960
  12   2.0000     -10.288929      -279.9760
  13   2.0000     -10.284995      -279.8689
  14   2.0000     -10.284378      -279.8522
  15   2.0000     -10.269541      -279.4484
  16   2.0000      -8.081825      -219.9176
  17   2.0000      -8.080604      -219.8844
  18   2.0000      -6.040303      -164.3650
  19   2.0000      -6.038953      -164.3283
  20   2.0000      -6.036553      -164.2630
  21   2.0000      -6.035133      -164.2243
  22   2.0000      -6.032634      -164.1563
  23   2.0000      -6.031476      -164.1248
  24   2.0000      -1.001391       -27.2492
  25   2.0000      -0.978728       -26.6325
  26   2.0000      -0.902960       -24.5708
  27   2.0000      -0.899893       -24.4873
  28   2.0000      -0.864738       -23.5307
  29   2.0000      -0.848725       -23.0950
  30   2.0000      -0.846477       -23.0338
  31   2.0000      -0.812247       -22.1024
  32   2.0000      -0.782748       -21.2997
  33   2.0000      -0.769837       -20.9483
  34   2.0000      -0.709098       -19.2955
  35   2.0000      -0.704170       -19.1614
  36   2.0000      -0.694036       -18.8857
  37   2.0000      -0.662908       -18.0386
  38   2.0000      -0.648024       -17.6336
  39   2.0000      -0.617704       -16.8086
  40   2.0000      -0.590239       -16.0612
  41   2.0000      -0.568991       -15.4830
  42   2.0000      -0.562612       -15.3095
  43   2.0000      -0.553572       -15.0635
  44   2.0000      -0.520713       -14.1693
  45   2.0000      -0.518399       -14.1064
  46   2.0000      -0.510465       -13.8904
  47   2.0000      -0.506254       -13.7759
  48   2.0000      -0.505156       -13.7460
  49   2.0000      -0.493600       -13.4315
  50   2.0000      -0.492820       -13.4103
  51   2.0000      -0.481731       -13.1086
  52   2.0000      -0.471775       -12.8376
  53   2.0000      -0.466825       -12.7029
  54   2.0000      -0.461409       -12.5556
  55   2.0000      -0.448840       -12.2136
  56   2.0000      -0.442422       -12.0389
  57   2.0000      -0.437334       -11.9005
  58   2.0000      -0.432297       -11.7634
  59   2.0000      -0.431290       -11.7360
  60   2.0000      -0.419715       -11.4210
  61   2.0000      -0.416894       -11.3443
  62   2.0000      -0.413244       -11.2449
  63   2.0000      -0.338849        -9.2206
  64   2.0000      -0.330979        -9.0064
  65   2.0000      -0.315626        -8.5886
  66   2.0000      -0.306635        -8.3440
  67   0.0000       0.040563         1.1038
  68   0.0000       0.046021         1.2523
  69   0.0000       0.110139         2.9970
  70   0.0000       0.119389         3.2487
  71   0.0000       0.123744         3.3672

MULLIKEN ATOMIC CHARGES
-----------------------
   0 S :    0.115626
   1 C :   -0.091425
   2 C :   -0.123492
   3 C :    0.088549
   4 C :   -0.188642
   5 H :   -0.006961
   6 C :    0.067857
   7 H :    0.010631
   8 H :    0.022346
   9 C :   -0.042988
  10 H :    0.031049
  11 H :    0.025792
  12 C :   -0.078063
  13 H :    0.023720
  14 H :    0.055182
  15 H :    0.032353
  16 S :    0.109816
  17 C :   -0.105823
  18 C :    0.008428
  19 C :   -0.057761
  20 C :   -0.169235
  21 H :    0.001718
  22 C :    0.088590
  23 H :    0.025208
  24 H :    0.007487
  25 C :   -0.038597
  26 H :    0.008599
  27 H :    0.037658
  28 C :   -0.017524
  29 H :    0.019184
  30 H :    0.023936
  31 H :    0.026627
  32 H :    0.034407
  33 H :    0.055750
Sum of atomic charges:   -0.0000000

LOEWDIN ATOMIC CHARGES
----------------------
   0 S :    0.412598
   1 C :   -0.201238
   2 C :   -0.062346
   3 C :   -0.048017
   4 C :   -0.186442
   5 H :    0.023089
   6 C :   -0.030277
   7 H :    0.020875
   8 H :    0.031272
   9 C :   -0.033389
  10 H :    0.023547
  11 H :    0.020982
  12 C :   -0.071476
  13 H :    0.017372
  14 H :    0.042137
  15 H :    0.022864
  16 S :    0.385277
  17 C :   -0.165018
  18 C :   -0.065767
  19 C :   -0.040891
  20 C :   -0.208731
  21 H :    0.023616
  22 C :   -0.030038
  23 H :    0.029936
  24 H :    0.023307
  25 C :   -0.032669
  26 H :    0.015737
  27 H :    0.028861
  28 C :   -0.056049
  29 H :    0.015176
  30 H :    0.026365
  31 H :    0.026690
  32 H :    0.020083
  33 H :    0.022564

  Mayer bond orders larger than 0.100000
B(  0-S ,  1-C ) :   1.1513 B(  0-S ,  4-C ) :   1.1514 B(  1-C ,  2-C ) :   1.6186
B(  1-C , 32-H ) :   0.9672 B(  2-C ,  3-C ) :   1.2451 B(  2-C ,  6-C ) :   1.0262
B(  3-C ,  4-C ) :   1.6014 B(  3-C ,  5-H ) :   0.9947 B(  4-C , 20-C ) :   1.0216
B(  6-C ,  7-H ) :   0.9355 B(  6-C ,  8-H ) :   0.9439 B(  6-C ,  9-C ) :   1.0557
B(  9-C , 10-H ) :   0.9579 B(  9-C , 11-H ) :   0.9594 B(  9-C , 12-C ) :   1.0674
B( 12-C , 13-H ) :   0.9780 B( 12-C , 14-H ) :   0.9764 B( 12-C , 15-H ) :   0.9764
B( 16-S , 17-C ) :   1.1720 B( 16-S , 20-C ) :   1.1237 B( 17-C , 18-C ) :   1.5834
B( 17-C , 20-C ) :   0.1024 B( 17-C , 33-H ) :   0.9688 B( 18-C , 19-C ) :   1.2521
B( 18-C , 21-H ) :   0.9996 B( 19-C , 20-C ) :   1.5948 B( 19-C , 22-C ) :   1.0346
B( 22-C , 23-H ) :   0.9325 B( 22-C , 24-H ) :   0.9332 B( 22-C , 25-C ) :   1.0532
B( 25-C , 26-H ) :   0.9522 B( 25-C , 27-H ) :   0.9604 B( 25-C , 28-C ) :   1.0714
B( 28-C , 29-H ) :   0.9788 B( 28-C , 30-H ) :   0.9741 B( 28-C , 31-H ) :   0.9743

Dispersion correction           -0.014050424
FINAL SINGLE POINT ENERGY     -1339.861623674010

DIPOLE MOMENT
-------------
                                X             Y             Z
Electronic contribution:    -10.41018      -4.65259      14.91759
Nuclear contribution   :     10.37671       4.58353     -15.33472
                        -----------------------------------------
Total Dipole Moment    :     -0.03346      -0.06906      -0.41714
                        -----------------------------------------
Magnitude (a.u.)       :      0.42414
Magnitude (Debye)      :      1.07807

Rotational constants in cm-1:     0.019444     0.007636     0.006285
Rotational constants in MHz :   582.912268   228.912601   188.432637

                             ****ORCA TERMINATED NORMALLY****
TOTAL RUN TIME: 0 days 0 hours 0 minutes 30 seconds 196 msec
