                         Program Version 4.2.1 -  RELEASE  -
|  1> ! wB97X-D3 SP def2-SVP
|  2> %pal
|  3> nprocs 16
|  4> end
|  5>
|  6> * xyz 0 1
|  7> S 	 -9.23137 	 33.4752 	 52.3693
|  8> C 	 -9.18098 	 32.2092 	 53.5751
|  9> C 	 -7.95944 	 31.5375 	 53.4875
| 10> C 	 -7.23444 	 31.9529 	 52.3021
| 11> C 	 -7.73788 	 33.0179 	 51.5868
| 12> H 	 -6.23251 	 31.7147 	 52.0376
| 13> C 	 -7.52281 	 30.3816 	 54.3508
| 14> H 	 -7.90533 	 29.4265 	 53.9349
| 15> H 	 -8.19378 	 30.268 	 55.1965
| 16> C 	 -6.00206 	 30.3412 	 54.5291
| 17> H 	 -5.83524 	 29.3868 	 55.103
| 18> H 	 -5.50965 	 30.3121 	 53.5033
| 19> C 	 -5.45389 	 31.492 	 55.3838
| 20> H 	 -5.56987 	 32.4203 	 54.8624
| 21> H 	 -6.05301 	 31.7435 	 56.2796
| 22> H 	 -4.36275 	 31.4525 	 55.7281
| 23> S 	 -7.1229 	 35.6403 	 51.0553
| 24> C 	 -6.00375 	 35.9937 	 49.7617
| 25> C 	 -5.45226 	 34.8272 	 49.3151
| 26> C 	 -6.03173 	 33.6613 	 49.784
| 27> C 	 -6.98733 	 33.9314 	 50.7209
| 28> H 	 -4.62974 	 34.9243 	 48.6833
| 29> C 	 -5.61419 	 32.3277 	 49.269
| 30> H 	 -5.7942 	 32.3798 	 48.1533
| 31> H 	 -6.29952 	 31.5957 	 49.6083
| 32> C 	 -4.11463 	 31.9543 	 49.4959
| 33> H 	 -3.87672 	 31.8511 	 50.5736
| 34> H 	 -3.53781 	 32.8037 	 49.1194
| 35> C 	 -3.69085 	 30.7458 	 48.6347
| 36> H 	 -3.83838 	 30.778 	 47.5523
| 37> H 	 -4.37931 	 29.9122 	 48.7853
| 38> H 	 -2.68722 	 30.4337 	 48.8185
| 39> H 	 -9.92265 	 31.9791 	 54.3242
| 40> H 	 -5.61009 	 37.0045 	 49.5269
| 41> *
| 42>
| 43>                          ****END OF INPUT****

CARTESIAN COORDINATES (ANGSTROEM)
---------------------------------
  S     -9.231370   33.475200   52.369300
  C     -9.180980   32.209200   53.575100
  C     -7.959440   31.537500   53.487500
  C     -7.234440   31.952900   52.302100
  C     -7.737880   33.017900   51.586800
  H     -6.232510   31.714700   52.037600
  C     -7.522810   30.381600   54.350800
  H     -7.905330   29.426500   53.934900
  H     -8.193780   30.268000   55.196500
  C     -6.002060   30.341200   54.529100
  H     -5.835240   29.386800   55.103000
  H     -5.509650   30.312100   53.503300
  C     -5.453890   31.492000   55.383800
  H     -5.569870   32.420300   54.862400
  H     -6.053010   31.743500   56.279600
  H     -4.362750   31.452500   55.728100
  S     -7.122900   35.640300   51.055300
  C     -6.003750   35.993700   49.761700
  C     -5.452260   34.827200   49.315100
  C     -6.031730   33.661300   49.784000
  C     -6.987330   33.931400   50.720900
  H     -4.629740   34.924300   48.683300
  C     -5.614190   32.327700   49.269000
  H     -5.794200   32.379800   48.153300
  H     -6.299520   31.595700   49.608300
  C     -4.114630   31.954300   49.495900
  H     -3.876720   31.851100   50.573600
  H     -3.537810   32.803700   49.119400
  C     -3.690850   30.745800   48.634700
  H     -3.838380   30.778000   47.552300
  H     -4.379310   29.912200   48.785300
  H     -2.687220   30.433700   48.818500
  H     -9.922650   31.979100   54.324200
  H     -5.610090   37.004500   49.526900

 Total Charge           Charge          ....    0
 Multiplicity           Mult            ....    1
 Number of Electrons    NEL             ....  134
 Basis Dimension        Dim             ....  322

ORBITAL ENERGIES
----------------

  NO   OCC          E(Eh)            E(eV)
   0   2.0000     -88.965332     -2420.8698
   1   2.0000     -88.963945     -2420.8320
   2   2.0000     -10.329393      -281.0771
   3   2.0000     -10.326872      -281.0085
   4   2.0000     -10.317015      -280.7403
   5   2.0000     -10.315458      -280.6979
   6   2.0000     -10.305955      -280.4393
   7   2.0000     -10.300637      -280.2946
   8   2.0000     -10.297268      -280.2029
   9   2.0000     -10.295331      -280.1502
  10   2.0000     -10.294393      -280.1247
  11   2.0000     -10.293047      -280.0881
  12   2.0000     -10.292004      -280.0597
  13   2.0000     -10.282814      -279.8096
  14   2.0000     -10.279532      -279.7203
  15   2.0000     -10.279056      -279.7073
  16   2.0000      -8.080269      -219.8753
  17   2.0000      -8.078606      -219.8301
  18   2.0000      -6.038784      -164.3237
  19   2.0000      -6.037207      -164.2808
  20   2.0000      -6.034830      -164.2161
  21   2.0000      -6.032906      -164.1637
  22   2.0000      -6.030906      -164.1093
  23   2.0000      -6.029482      -164.0705
  24   2.0000      -1.013405       -27.5762
  25   2.0000      -0.988171       -26.8895
  26   2.0000      -0.913422       -24.8555
  27   2.0000      -0.910168       -24.7669
  28   2.0000      -0.872018       -23.7288
  29   2.0000      -0.856090       -23.2954
  30   2.0000      -0.837547       -22.7908
  31   2.0000      -0.818867       -22.2825
  32   2.0000      -0.784596       -21.3499
  33   2.0000      -0.775835       -21.1115
  34   2.0000      -0.712895       -19.3989
  35   2.0000      -0.705698       -19.2030
  36   2.0000      -0.693607       -18.8740
  37   2.0000      -0.663190       -18.0463
  38   2.0000      -0.645783       -17.5726
  39   2.0000      -0.624234       -16.9863
  40   2.0000      -0.600740       -16.3470
  41   2.0000      -0.572582       -15.5808
  42   2.0000      -0.558480       -15.1970
  43   2.0000      -0.543728       -14.7956
  44   2.0000      -0.533851       -14.5268
  45   2.0000      -0.529585       -14.4107
  46   2.0000      -0.519180       -14.1276
  47   2.0000      -0.515202       -14.0194
  48   2.0000      -0.508532       -13.8379
  49   2.0000      -0.502946       -13.6858
  50   2.0000      -0.490431       -13.3453
  51   2.0000      -0.480878       -13.0854
  52   2.0000      -0.471680       -12.8351
  53   2.0000      -0.467366       -12.7177
  54   2.0000      -0.457789       -12.4571
  55   2.0000      -0.450385       -12.2556
  56   2.0000      -0.445735       -12.1291
  57   2.0000      -0.436131       -11.8677
  58   2.0000      -0.433202       -11.7880
  59   2.0000      -0.424925       -11.5628
  60   2.0000      -0.421886       -11.4801
  61   2.0000      -0.417828       -11.3697
  62   2.0000      -0.405766       -11.0415
  63   2.0000      -0.357004        -9.7146
  64   2.0000      -0.332563        -9.0495
  65   2.0000      -0.323780        -8.8105
  66   2.0000      -0.288763        -7.8576
  67   0.0000       0.025978         0.7069
  68   0.0000       0.076066         2.0699
  69   0.0000       0.109206         2.9717
  70   0.0000       0.120782         3.2866
  71   0.0000       0.127132         3.4594

MULLIKEN ATOMIC CHARGES
-----------------------
   0 S :    0.091421
   1 C :   -0.105968
   2 C :   -0.098563
   3 C :    0.029793
   4 C :   -0.145356
   5 H :   -0.007527
   6 C :    0.067386
   7 H :    0.037262
   8 H :    0.000612
   9 C :   -0.087953
  10 H :    0.039354
  11 H :    0.057531
  12 C :   -0.064688
  13 H :    0.027338
  14 H :    0.027708
  15 H :    0.050268
  16 S :    0.106087
  17 C :   -0.104490
  18 C :   -0.030997
  19 C :   -0.012917
  20 C :   -0.136527
  21 H :   -0.007007
  22 C :    0.048462
  23 H :    0.038528
  24 H :    0.015611
  25 C :   -0.067077
  26 H :    0.044123
  27 H :    0.029743
  28 C :   -0.036648
  29 H :    0.025102
  30 H :    0.016585
  31 H :    0.036392
  32 H :    0.048497
  33 H :    0.067915
Sum of atomic charges:   -0.0000000

LOEWDIN ATOMIC CHARGES
----------------------
   0 S :    0.404362
   1 C :   -0.196141
   2 C :   -0.062180
   3 C :   -0.066428
   4 C :   -0.193827
   5 H :    0.019829
   6 C :   -0.045538
   7 H :    0.041310
   8 H :    0.029768
   9 C :   -0.044643
  10 H :    0.031955
  11 H :    0.035011
  12 C :   -0.081811
  13 H :    0.022392
  14 H :    0.029257
  15 H :    0.035413
  16 S :    0.407221
  17 C :   -0.189598
  18 C :   -0.064076
  19 C :   -0.068592
  20 C :   -0.188776
  21 H :    0.020761
  22 C :   -0.031281
  23 H :    0.042024
  24 H :    0.021347
  25 C :   -0.034846
  26 H :    0.028501
  27 H :    0.024401
  28 C :   -0.072154
  29 H :    0.028852
  30 H :    0.025529
  31 H :    0.023501
  32 H :    0.030701
  33 H :    0.037755

  Mayer bond orders larger than 0.100000
B(  0-S ,  1-C ) :   1.1429 B(  0-S ,  4-C ) :   1.1455 B(  1-C ,  2-C ) :   1.5874
B(  1-C , 32-H ) :   0.9707 B(  2-C ,  3-C ) :   1.2457 B(  2-C ,  6-C ) :   1.0308
B(  3-C ,  4-C ) :   1.5753 B(  3-C ,  5-H ) :   0.9801 B(  4-C , 20-C ) :   1.0433
B(  6-C ,  7-H ) :   0.9331 B(  6-C ,  8-H ) :   0.9317 B(  6-C ,  9-C ) :   1.0638
B(  9-C , 10-H ) :   0.9535 B(  9-C , 11-H ) :   0.9506 B(  9-C , 12-C ) :   1.0664
B( 12-C , 13-H ) :   0.9705 B( 12-C , 14-H ) :   0.9719 B( 12-C , 15-H ) :   0.9764
B( 16-S , 17-C ) :   1.1447 B( 16-S , 20-C ) :   1.1481 B( 17-C , 18-C ) :   1.6126
B( 17-C , 33-H ) :   0.9631 B( 18-C , 19-C ) :   1.2400 B( 18-C , 21-H ) :   1.0014
B( 19-C , 20-C ) :   1.5925 B( 19-C , 22-C ) :   1.0476 B( 22-C , 23-H ) :   0.9352
B( 22-C , 24-H ) :   0.9264 B( 22-C , 25-C ) :   1.0527 B( 25-C , 26-H ) :   0.9557
B( 25-C , 27-H ) :   0.9555 B( 25-C , 28-C ) :   1.0763 B( 28-C , 29-H ) :   0.9723
B( 28-C , 30-H ) :   0.9711 B( 28-C , 31-H ) :   0.9756

Dispersion correction           -0.014397102
FINAL SINGLE POINT ENERGY     -1339.867803631633

DIPOLE MOMENT
-------------
                                X             Y             Z
Electronic contribution:    -19.72329      20.73777      -2.19658
Nuclear contribution   :     20.28907     -21.20087       2.27688
                        -----------------------------------------
Total Dipole Moment    :      0.56578      -0.46310       0.08030
                        -----------------------------------------
Magnitude (a.u.)       :      0.73554
Magnitude (Debye)      :      1.86958

Rotational constants in cm-1:     0.015650     0.010361     0.007358
Rotational constants in MHz :   469.176699   310.600718   220.599278

                             ****ORCA TERMINATED NORMALLY****
TOTAL RUN TIME: 0 days 0 hours 0 minutes 33 seconds 696 msec
