                         Program Version 4.2.1 -  RELEASE  -
|  1> ! wB97X-D3 SP def2-SVP
|  2> %pal
|  3> nprocs 16
|  4> end
|  5>
|  6> * xyz 0 1
|  7> S 	 -39.4918 	 20.5771 	 84.2037
|  8> C 	 -39.0812 	 18.9405 	 83.7986
|  9> C 	 -40.1966 	 18.2983 	 83.2875
| 10> C 	 -41.2119 	 19.2324 	 83.0665
| 11> C 	 -40.8781 	 20.5321 	 83.2292
| 12> H 	 -42.1247 	 19.0015 	 82.4996
| 13> C 	 -40.1637 	 16.8134 	 82.8977
| 14> H 	 -39.3679 	 16.7608 	 82.1251
| 15> H 	 -41.1243 	 16.5325 	 82.4674
| 16> C 	 -39.6879 	 15.9514 	 84.02
| 17> H 	 -39.5714 	 14.8956 	 83.6633
| 18> H 	 -38.7603 	 16.2073 	 84.3357
| 19> C 	 -40.5843 	 16.0939 	 85.253
| 20> H 	 -41.6626 	 15.8925 	 85.1415
| 21> H 	 -40.299 	 15.3933 	 86.0389
| 22> H 	 -40.4244 	 17.1012 	 85.7206
| 23> S 	 -41.5212 	 23.0547 	 84.1795
| 24> C 	 -42.7558 	 23.9263 	 83.3949
| 25> C 	 -43.1811 	 23.2925 	 82.2516
| 26> C 	 -42.6262 	 22.0143 	 82.0581
| 27> C 	 -41.7325 	 21.7009 	 83.0381
| 28> H 	 -43.8475 	 23.703 	 81.5652
| 29> C 	 -42.9132 	 21.2089 	 80.7986
| 30> H 	 -42.1987 	 20.4038 	 80.6778
| 31> H 	 -42.7816 	 21.7069 	 79.8135
| 32> C 	 -44.3399 	 20.7448 	 80.67
| 33> H 	 -45.0651 	 21.5712 	 80.7362
| 34> H 	 -44.6464 	 19.9578 	 81.4074
| 35> C 	 -44.5757 	 19.8545 	 79.3918
| 36> H 	 -44.5428 	 20.3337 	 78.4579
| 37> H 	 -45.578 	 19.4983 	 79.5125
| 38> H 	 -43.8283 	 19.064 	 79.1824
| 39> H 	 -38.1213 	 18.3716 	 83.9106
| 40> H 	 -42.9152 	 24.9945 	 83.6893
| 41> *
| 42>
| 43>                          ****END OF INPUT****

CARTESIAN COORDINATES (ANGSTROEM)
---------------------------------
  S    -39.491800   20.577100   84.203700
  C    -39.081200   18.940500   83.798600
  C    -40.196600   18.298300   83.287500
  C    -41.211900   19.232400   83.066500
  C    -40.878100   20.532100   83.229200
  H    -42.124700   19.001500   82.499600
  C    -40.163700   16.813400   82.897700
  H    -39.367900   16.760800   82.125100
  H    -41.124300   16.532500   82.467400
  C    -39.687900   15.951400   84.020000
  H    -39.571400   14.895600   83.663300
  H    -38.760300   16.207300   84.335700
  C    -40.584300   16.093900   85.253000
  H    -41.662600   15.892500   85.141500
  H    -40.299000   15.393300   86.038900
  H    -40.424400   17.101200   85.720600
  S    -41.521200   23.054700   84.179500
  C    -42.755800   23.926300   83.394900
  C    -43.181100   23.292500   82.251600
  C    -42.626200   22.014300   82.058100
  C    -41.732500   21.700900   83.038100
  H    -43.847500   23.703000   81.565200
  C    -42.913200   21.208900   80.798600
  H    -42.198700   20.403800   80.677800
  H    -42.781600   21.706900   79.813500
  C    -44.339900   20.744800   80.670000
  H    -45.065100   21.571200   80.736200
  H    -44.646400   19.957800   81.407400
  C    -44.575700   19.854500   79.391800
  H    -44.542800   20.333700   78.457900
  H    -45.578000   19.498300   79.512500
  H    -43.828300   19.064000   79.182400
  H    -38.121300   18.371600   83.910600
  H    -42.915200   24.994500   83.689300

 Total Charge           Charge          ....    0
 Multiplicity           Mult            ....    1
 Number of Electrons    NEL             ....  134
 Basis Dimension        Dim             ....  322

ORBITAL ENERGIES
----------------

  NO   OCC          E(Eh)            E(eV)
   0   2.0000     -88.964602     -2420.8499
   1   2.0000     -88.963394     -2420.8170
   2   2.0000     -10.327437      -281.0239
   3   2.0000     -10.320881      -280.8454
   4   2.0000     -10.317895      -280.7642
   5   2.0000     -10.311389      -280.5872
   6   2.0000     -10.299752      -280.2705
   7   2.0000     -10.295964      -280.1674
   8   2.0000     -10.294403      -280.1250
   9   2.0000     -10.293770      -280.1077
  10   2.0000     -10.293665      -280.1049
  11   2.0000     -10.287685      -279.9422
  12   2.0000     -10.285569      -279.8846
  13   2.0000     -10.281070      -279.7621
  14   2.0000     -10.276505      -279.6379
  15   2.0000     -10.275184      -279.6020
  16   2.0000      -8.080158      -219.8723
  17   2.0000      -8.079492      -219.8542
  18   2.0000      -6.038626      -164.3194
  19   2.0000      -6.037937      -164.3006
  20   2.0000      -6.034612      -164.2101
  21   2.0000      -6.033988      -164.1932
  22   2.0000      -6.030861      -164.1081
  23   2.0000      -6.030058      -164.0862
  24   2.0000      -1.019623       -27.7454
  25   2.0000      -0.995425       -27.0869
  26   2.0000      -0.921290       -25.0696
  27   2.0000      -0.912769       -24.8377
  28   2.0000      -0.869001       -23.6467
  29   2.0000      -0.857298       -23.3283
  30   2.0000      -0.844046       -22.9677
  31   2.0000      -0.811871       -22.0921
  32   2.0000      -0.788141       -21.4464
  33   2.0000      -0.776694       -21.1349
  34   2.0000      -0.707386       -19.2489
  35   2.0000      -0.702875       -19.1262
  36   2.0000      -0.694724       -18.9044
  37   2.0000      -0.667618       -18.1668
  38   2.0000      -0.632748       -17.2179
  39   2.0000      -0.619546       -16.8587
  40   2.0000      -0.606286       -16.4979
  41   2.0000      -0.578768       -15.7491
  42   2.0000      -0.563200       -15.3254
  43   2.0000      -0.554898       -15.0995
  44   2.0000      -0.538763       -14.6605
  45   2.0000      -0.533315       -14.5122
  46   2.0000      -0.518013       -14.0959
  47   2.0000      -0.511337       -13.9142
  48   2.0000      -0.505475       -13.7547
  49   2.0000      -0.498724       -13.5710
  50   2.0000      -0.495196       -13.4750
  51   2.0000      -0.475374       -12.9356
  52   2.0000      -0.471918       -12.8415
  53   2.0000      -0.466871       -12.7042
  54   2.0000      -0.453933       -12.3521
  55   2.0000      -0.450921       -12.2702
  56   2.0000      -0.448383       -12.2011
  57   2.0000      -0.437647       -11.9090
  58   2.0000      -0.432265       -11.7625
  59   2.0000      -0.430367       -11.7109
  60   2.0000      -0.420808       -11.4508
  61   2.0000      -0.413805       -11.2602
  62   2.0000      -0.408504       -11.1160
  63   2.0000      -0.357548        -9.7294
  64   2.0000      -0.336206        -9.1486
  65   2.0000      -0.327086        -8.9005
  66   2.0000      -0.283195        -7.7061
  67   0.0000       0.022620         0.6155
  68   0.0000       0.075983         2.0676
  69   0.0000       0.099244         2.7006
  70   0.0000       0.121366         3.3025
  71   0.0000       0.132222         3.5979

MULLIKEN ATOMIC CHARGES
-----------------------
   0 S :    0.100403
   1 C :   -0.137128
   2 C :   -0.115193
   3 C :   -0.001281
   4 C :   -0.117986
   5 H :    0.010148
   6 C :    0.099521
   7 H :    0.040940
   8 H :    0.023068
   9 C :   -0.032680
  10 H :    0.031767
  11 H :   -0.006135
  12 C :   -0.082355
  13 H :    0.034135
  14 H :    0.024319
  15 H :    0.053322
  16 S :    0.095377
  17 C :   -0.097456
  18 C :   -0.003445
  19 C :   -0.001561
  20 C :   -0.142344
  21 H :   -0.009592
  22 C :    0.048552
  23 H :    0.016263
  24 H :    0.031805
  25 C :   -0.109573
  26 H :    0.039352
  27 H :    0.036714
  28 C :   -0.045554
  29 H :    0.011474
  30 H :    0.033554
  31 H :    0.031967
  32 H :    0.061198
  33 H :    0.078405
Sum of atomic charges:   -0.0000000

LOEWDIN ATOMIC CHARGES
----------------------
   0 S :    0.425289
   1 C :   -0.212331
   2 C :   -0.063416
   3 C :   -0.075943
   4 C :   -0.202359
   5 H :    0.030210
   6 C :   -0.025433
   7 H :    0.039872
   8 H :    0.028208
   9 C :   -0.037935
  10 H :    0.029973
  11 H :    0.008036
  12 C :   -0.073377
  13 H :    0.024741
  14 H :    0.023685
  15 H :    0.034493
  16 S :    0.403106
  17 C :   -0.199764
  18 C :   -0.062496
  19 C :   -0.057820
  20 C :   -0.174906
  21 H :    0.020222
  22 C :   -0.038758
  23 H :    0.026790
  24 H :    0.038765
  25 C :   -0.040511
  26 H :    0.025639
  27 H :    0.027882
  28 C :   -0.068565
  29 H :    0.012413
  30 H :    0.026365
  31 H :    0.030081
  32 H :    0.038770
  33 H :    0.039074

  Mayer bond orders larger than 0.100000
B(  0-S ,  1-C ) :   1.1481 B(  0-S ,  4-C ) :   1.1559 B(  1-C ,  2-C ) :   1.5793
B(  1-C ,  4-C ) :   0.1051 B(  1-C , 32-H ) :   0.9650 B(  2-C ,  3-C ) :   1.2802
B(  2-C ,  6-C ) :   0.9987 B(  3-C ,  4-C ) :   1.5455 B(  3-C ,  5-H ) :   0.9893
B(  4-C , 20-C ) :   1.0585 B(  6-C ,  7-H ) :   0.9388 B(  6-C ,  8-H ) :   0.9465
B(  6-C ,  9-C ) :   1.0807 B(  9-C , 10-H ) :   0.9533 B(  9-C , 11-H ) :   0.9469
B(  9-C , 12-C ) :   1.0783 B( 12-C , 13-H ) :   0.9788 B( 12-C , 14-H ) :   0.9729
B( 12-C , 15-H ) :   0.9671 B( 16-S , 17-C ) :   1.1677 B( 16-S , 20-C ) :   1.1301
B( 17-C , 18-C ) :   1.5818 B( 17-C , 33-H ) :   0.9624 B( 18-C , 19-C ) :   1.2511
B( 18-C , 21-H ) :   1.0018 B( 19-C , 20-C ) :   1.6213 B( 19-C , 22-C ) :   1.0336
B( 22-C , 23-H ) :   0.9344 B( 22-C , 24-H ) :   0.9413 B( 22-C , 25-C ) :   1.0563
B( 25-C , 26-H ) :   0.9560 B( 25-C , 27-H ) :   0.9583 B( 25-C , 28-C ) :   1.0682
B( 28-C , 29-H ) :   0.9728 B( 28-C , 30-H ) :   0.9784 B( 28-C , 31-H ) :   0.9741

Dispersion correction           -0.014037680
FINAL SINGLE POINT ENERGY     -1339.856859104908

DIPOLE MOMENT
-------------
                                X             Y             Z
Electronic contribution:     10.36951      22.62807      12.12961
Nuclear contribution   :    -10.55717     -23.00268     -12.65702
                        -----------------------------------------
Total Dipole Moment    :     -0.18767      -0.37461      -0.52741
                        -----------------------------------------
Magnitude (a.u.)       :      0.67358
Magnitude (Debye)      :      1.71211

Rotational constants in cm-1:     0.018301     0.009003     0.006502
Rotational constants in MHz :   548.654707   269.888344   194.923777

                             ****ORCA TERMINATED NORMALLY****
TOTAL RUN TIME: 0 days 0 hours 0 minutes 30 seconds 410 msec
