                         Program Version 4.2.1 -  RELEASE  -
|  1> ! wB97X-D3 SP def2-SVP
|  2> %pal
|  3> nprocs 16
|  4> end
|  5>
|  6> * xyz 0 1
|  7> S 	 39.5973 	 22.4928 	 86.2955
|  8> C 	 37.965 	 22.8499 	 86.5774
|  9> C 	 37.3299 	 23.6806 	 85.6283
| 10> C 	 38.3373 	 24.1573 	 84.7001
| 11> C 	 39.6201 	 23.7126 	 84.8946
| 12> H 	 38.0448 	 24.6773 	 83.7607
| 13> C 	 35.8285 	 24.0568 	 85.607
| 14> H 	 35.3326 	 23.2339 	 86.1036
| 15> H 	 35.4433 	 23.9513 	 84.5881
| 16> C 	 35.3345 	 25.3365 	 86.3491
| 17> H 	 35.5281 	 25.1212 	 87.4477
| 18> H 	 35.8468 	 26.1936 	 86.0383
| 19> C 	 33.8097 	 25.5887 	 86.2831
| 20> H 	 33.284 	 24.7562 	 86.7177
| 21> H 	 33.5452 	 26.4817 	 86.8519
| 22> H 	 33.4486 	 25.6611 	 85.2372
| 23> S 	 42.094 	 23.1189 	 84.553
| 24> C 	 43.1334 	 23.8306 	 83.3176
| 25> C 	 42.4793 	 24.8624 	 82.6776
| 26> C 	 41.1108 	 25.0166 	 83.093
| 27> C 	 40.7394 	 24.0054 	 84.0644
| 28> H 	 43.0102 	 25.5373 	 81.9771
| 29> C 	 40.1866 	 26.0779 	 82.4031
| 30> H 	 39.2633 	 25.6407 	 82.1533
| 31> H 	 40.5475 	 26.2472 	 81.4276
| 32> C 	 40.1522 	 27.4802 	 83.1135
| 33> H 	 39.9824 	 27.2864 	 84.1244
| 34> H 	 39.2561 	 28.0103 	 82.7267
| 35> C 	 41.3871 	 28.295 	 82.7368
| 36> H 	 41.704 	 29.0938 	 83.4918
| 37> H 	 41.2184 	 28.9297 	 81.832
| 38> H 	 42.3296 	 27.6825 	 82.8231
| 39> H 	 37.2614 	 22.2555 	 87.2009
| 40> H 	 44.2437 	 23.7225 	 83.2413
| 41> *
| 42>
| 43>                          ****END OF INPUT****

CARTESIAN COORDINATES (ANGSTROEM)
---------------------------------
  S     39.597300   22.492800   86.295500
  C     37.965000   22.849900   86.577400
  C     37.329900   23.680600   85.628300
  C     38.337300   24.157300   84.700100
  C     39.620100   23.712600   84.894600
  H     38.044800   24.677300   83.760700
  C     35.828500   24.056800   85.607000
  H     35.332600   23.233900   86.103600
  H     35.443300   23.951300   84.588100
  C     35.334500   25.336500   86.349100
  H     35.528100   25.121200   87.447700
  H     35.846800   26.193600   86.038300
  C     33.809700   25.588700   86.283100
  H     33.284000   24.756200   86.717700
  H     33.545200   26.481700   86.851900
  H     33.448600   25.661100   85.237200
  S     42.094000   23.118900   84.553000
  C     43.133400   23.830600   83.317600
  C     42.479300   24.862400   82.677600
  C     41.110800   25.016600   83.093000
  C     40.739400   24.005400   84.064400
  H     43.010200   25.537300   81.977100
  C     40.186600   26.077900   82.403100
  H     39.263300   25.640700   82.153300
  H     40.547500   26.247200   81.427600
  C     40.152200   27.480200   83.113500
  H     39.982400   27.286400   84.124400
  H     39.256100   28.010300   82.726700
  C     41.387100   28.295000   82.736800
  H     41.704000   29.093800   83.491800
  H     41.218400   28.929700   81.832000
  H     42.329600   27.682500   82.823100
  H     37.261400   22.255500   87.200900
  H     44.243700   23.722500   83.241300

 Total Charge           Charge          ....    0
 Multiplicity           Mult            ....    1
 Number of Electrons    NEL             ....  134
 Basis Dimension        Dim             ....  322

ORBITAL ENERGIES
----------------

  NO   OCC          E(Eh)            E(eV)
   0   2.0000     -88.972702     -2421.0703
   1   2.0000     -88.966987     -2420.9148
   2   2.0000     -10.335286      -281.2374
   3   2.0000     -10.331139      -281.1246
   4   2.0000     -10.318434      -280.7789
   5   2.0000     -10.317618      -280.7567
   6   2.0000     -10.313778      -280.6522
   7   2.0000     -10.307639      -280.4851
   8   2.0000     -10.298998      -280.2500
   9   2.0000     -10.298736      -280.2429
  10   2.0000     -10.297398      -280.2064
  11   2.0000     -10.291071      -280.0343
  12   2.0000     -10.289426      -279.9895
  13   2.0000     -10.288989      -279.9776
  14   2.0000     -10.286897      -279.9207
  15   2.0000     -10.281818      -279.7825
  16   2.0000      -8.086481      -220.0443
  17   2.0000      -8.082727      -219.9422
  18   2.0000      -6.045209      -164.4985
  19   2.0000      -6.041289      -164.3918
  20   2.0000      -6.041216      -164.3899
  21   2.0000      -6.037030      -164.2759
  22   2.0000      -6.036887      -164.2720
  23   2.0000      -6.033514      -164.1803
  24   2.0000      -1.008331       -27.4381
  25   2.0000      -0.979497       -26.6535
  26   2.0000      -0.906877       -24.6774
  27   2.0000      -0.902956       -24.5707
  28   2.0000      -0.877074       -23.8664
  29   2.0000      -0.853264       -23.2185
  30   2.0000      -0.840551       -22.8726
  31   2.0000      -0.814188       -22.1552
  32   2.0000      -0.779910       -21.2224
  33   2.0000      -0.767116       -20.8743
  34   2.0000      -0.709228       -19.2991
  35   2.0000      -0.700423       -19.0595
  36   2.0000      -0.693112       -18.8605
  37   2.0000      -0.665151       -18.0997
  38   2.0000      -0.629037       -17.1170
  39   2.0000      -0.619751       -16.8643
  40   2.0000      -0.595279       -16.1984
  41   2.0000      -0.565384       -15.3849
  42   2.0000      -0.559533       -15.2257
  43   2.0000      -0.547513       -14.8986
  44   2.0000      -0.545359       -14.8400
  45   2.0000      -0.522466       -14.2170
  46   2.0000      -0.517093       -14.0708
  47   2.0000      -0.507067       -13.7980
  48   2.0000      -0.502095       -13.6627
  49   2.0000      -0.493013       -13.4156
  50   2.0000      -0.485755       -13.2181
  51   2.0000      -0.479993       -13.0613
  52   2.0000      -0.473536       -12.8856
  53   2.0000      -0.460321       -12.5260
  54   2.0000      -0.458922       -12.4879
  55   2.0000      -0.449028       -12.2187
  56   2.0000      -0.444195       -12.0872
  57   2.0000      -0.438935       -11.9440
  58   2.0000      -0.431452       -11.7404
  59   2.0000      -0.423718       -11.5300
  60   2.0000      -0.422073       -11.4852
  61   2.0000      -0.415101       -11.2955
  62   2.0000      -0.411578       -11.1996
  63   2.0000      -0.371530       -10.1098
  64   2.0000      -0.339745        -9.2449
  65   2.0000      -0.323317        -8.7979
  66   2.0000      -0.274690        -7.4747
  67   0.0000       0.011245         0.3060
  68   0.0000       0.079757         2.1703
  69   0.0000       0.090578         2.4648
  70   0.0000       0.113076         3.0769
  71   0.0000       0.126932         3.4540

MULLIKEN ATOMIC CHARGES
-----------------------
   0 S :    0.112226
   1 C :   -0.098584
   2 C :   -0.121364
   3 C :   -0.035009
   4 C :   -0.084887
   5 H :    0.023469
   6 C :    0.060006
   7 H :    0.004047
   8 H :    0.026602
   9 C :   -0.057367
  10 H :    0.037613
  11 H :    0.027016
  12 C :   -0.055384
  13 H :    0.024326
  14 H :    0.044097
  15 H :    0.033581
  16 S :    0.084512
  17 C :   -0.095040
  18 C :   -0.051752
  19 C :   -0.063008
  20 C :   -0.127822
  21 H :    0.038370
  22 C :    0.061779
  23 H :    0.012176
  24 H :    0.000558
  25 C :   -0.009561
  26 H :    0.027831
  27 H :    0.030316
  28 C :   -0.108295
  29 H :    0.033166
  30 H :    0.052367
  31 H :    0.040902
  32 H :    0.060643
  33 H :    0.072471
Sum of atomic charges:   -0.0000000

LOEWDIN ATOMIC CHARGES
----------------------
   0 S :    0.382648
   1 C :   -0.217478
   2 C :   -0.064852
   3 C :   -0.064678
   4 C :   -0.174051
   5 H :    0.037291
   6 C :   -0.036582
   7 H :    0.027390
   8 H :    0.029643
   9 C :   -0.034332
  10 H :    0.034110
  11 H :    0.014042
  12 C :   -0.065445
  13 H :    0.021111
  14 H :    0.030428
  15 H :    0.025603
  16 S :    0.433423
  17 C :   -0.203420
  18 C :   -0.074202
  19 C :   -0.057992
  20 C :   -0.202791
  21 H :    0.037799
  22 C :   -0.026693
  23 H :    0.019576
  24 H :    0.024229
  25 C :   -0.032288
  26 H :    0.017870
  27 H :    0.029405
  28 C :   -0.087841
  29 H :    0.033665
  30 H :    0.034243
  31 H :    0.032322
  32 H :    0.037259
  33 H :    0.040586

  Mayer bond orders larger than 0.100000
B(  0-S ,  1-C ) :   1.1526 B(  0-S ,  4-C ) :   1.0866 B(  1-C ,  2-C ) :   1.6246
B(  1-C , 32-H ) :   0.9471 B(  2-C ,  3-C ) :   1.2419 B(  2-C ,  6-C ) :   1.0294
B(  3-C ,  4-C ) :   1.6023 B(  3-C ,  5-H ) :   0.9848 B(  4-C , 20-C ) :   1.1426
B(  6-C ,  7-H ) :   0.9344 B(  6-C ,  8-H ) :   0.9420 B(  6-C ,  9-C ) :   1.0515
B(  9-C , 10-H ) :   0.9562 B(  9-C , 11-H ) :   0.9631 B(  9-C , 12-C ) :   1.0779
B( 12-C , 13-H ) :   0.9759 B( 12-C , 14-H ) :   0.9745 B( 12-C , 15-H ) :   0.9760
B( 16-S , 17-C ) :   1.1532 B( 16-S , 20-C ) :   1.1667 B( 17-C , 18-C ) :   1.5939
B( 17-C , 33-H ) :   0.9610 B( 18-C , 19-C ) :   1.2906 B( 18-C , 21-H ) :   0.9747
B( 19-C , 20-C ) :   1.4932 B( 19-C , 22-C ) :   1.0222 B( 22-C , 23-H ) :   0.9448
B( 22-C , 24-H ) :   0.9347 B( 22-C , 25-C ) :   1.0492 B( 25-C , 26-H ) :   0.9628
B( 25-C , 27-H ) :   0.9574 B( 25-C , 28-C ) :   1.0716 B( 28-C , 29-H ) :   0.9710
B( 28-C , 30-H ) :   0.9736 B( 28-C , 31-H ) :   0.9720

Dispersion correction           -0.013591672
FINAL SINGLE POINT ENERGY     -1339.849626666215

DIPOLE MOMENT
-------------
                                X             Y             Z
Electronic contribution:     19.81075     -22.56549       5.33147
Nuclear contribution   :    -20.26451      23.03495      -5.61621
                        -----------------------------------------
Total Dipole Moment    :     -0.45375       0.46946      -0.28474
                        -----------------------------------------
Magnitude (a.u.)       :      0.71229
Magnitude (Debye)      :      1.81051

Rotational constants in cm-1:     0.018331     0.008297     0.005971
Rotational constants in MHz :   549.541743   248.737950   179.020352

                             ****ORCA TERMINATED NORMALLY****
TOTAL RUN TIME: 0 days 0 hours 0 minutes 27 seconds 918 msec
