                         Program Version 4.2.1 -  RELEASE  -
|  1> ! wB97X-D3 SP def2-SVP
|  2> %pal
|  3> nprocs 16
|  4> end
|  5>
|  6> * xyz 0 1
|  7> S 	 -14.2306 	 68.7386 	 50.129
|  8> C 	 -14.42 	 67.7494 	 48.6534
|  9> C 	 -14.7758 	 68.5642 	 47.5547
| 10> C 	 -14.9333 	 69.9041 	 47.9594
| 11> C 	 -14.518 	 70.1997 	 49.2415
| 12> H 	 -15.286 	 70.6706 	 47.3102
| 13> C 	 -15.104 	 68.058 	 46.2466
| 14> H 	 -14.6295 	 67.151 	 46.0406
| 15> H 	 -14.6452 	 68.744 	 45.5049
| 16> C 	 -16.6188 	 67.8842 	 45.9828
| 17> H 	 -16.8687 	 66.9991 	 46.5848
| 18> H 	 -17.1515 	 68.6979 	 46.3537
| 19> C 	 -17.078 	 67.7791 	 44.5209
| 20> H 	 -18.141 	 67.8274 	 44.4907
| 21> H 	 -16.6957 	 68.6451 	 43.879
| 22> H 	 -16.8706 	 66.7873 	 44.095
| 23> S 	 -15.0579 	 71.5911 	 51.6737
| 24> C 	 -14.6833 	 73.3004 	 51.7411
| 25> C 	 -14.1689 	 73.7419 	 50.5177
| 26> C 	 -14.0672 	 72.7367 	 49.5297
| 27> C 	 -14.4462 	 71.4734 	 49.9923
| 28> H 	 -13.9124 	 74.8054 	 50.3433
| 29> C 	 -13.4078 	 73.0826 	 48.1521
| 30> H 	 -13.5464 	 74.1409 	 47.9625
| 31> H 	 -13.9777 	 72.6194 	 47.3448
| 32> C 	 -12.0075 	 72.4786 	 47.9392
| 33> H 	 -11.9914 	 71.3809 	 47.8325
| 34> H 	 -11.352 	 72.6821 	 48.7423
| 35> C 	 -11.3011 	 73.0398 	 46.7603
| 36> H 	 -11.0712 	 74.0822 	 46.9003
| 37> H 	 -11.7734 	 72.8217 	 45.8334
| 38> H 	 -10.3778 	 72.4847 	 46.7553
| 39> H 	 -14.4541 	 66.6567 	 48.644
| 40> H 	 -14.8945 	 73.903 	 52.5664
| 41> *
| 42>
| 43>                          ****END OF INPUT****

CARTESIAN COORDINATES (ANGSTROEM)
---------------------------------
  S    -14.230600   68.738600   50.129000
  C    -14.420000   67.749400   48.653400
  C    -14.775800   68.564200   47.554700
  C    -14.933300   69.904100   47.959400
  C    -14.518000   70.199700   49.241500
  H    -15.286000   70.670600   47.310200
  C    -15.104000   68.058000   46.246600
  H    -14.629500   67.151000   46.040600
  H    -14.645200   68.744000   45.504900
  C    -16.618800   67.884200   45.982800
  H    -16.868700   66.999100   46.584800
  H    -17.151500   68.697900   46.353700
  C    -17.078000   67.779100   44.520900
  H    -18.141000   67.827400   44.490700
  H    -16.695700   68.645100   43.879000
  H    -16.870600   66.787300   44.095000
  S    -15.057900   71.591100   51.673700
  C    -14.683300   73.300400   51.741100
  C    -14.168900   73.741900   50.517700
  C    -14.067200   72.736700   49.529700
  C    -14.446200   71.473400   49.992300
  H    -13.912400   74.805400   50.343300
  C    -13.407800   73.082600   48.152100
  H    -13.546400   74.140900   47.962500
  H    -13.977700   72.619400   47.344800
  C    -12.007500   72.478600   47.939200
  H    -11.991400   71.380900   47.832500
  H    -11.352000   72.682100   48.742300
  C    -11.301100   73.039800   46.760300
  H    -11.071200   74.082200   46.900300
  H    -11.773400   72.821700   45.833400
  H    -10.377800   72.484700   46.755300
  H    -14.454100   66.656700   48.644000
  H    -14.894500   73.903000   52.566400

 Total Charge           Charge          ....    0
 Multiplicity           Mult            ....    1
 Number of Electrons    NEL             ....  134
 Basis Dimension        Dim             ....  322

ORBITAL ENERGIES
----------------

  NO   OCC          E(Eh)            E(eV)
   0   2.0000     -88.969426     -2420.9812
   1   2.0000     -88.964671     -2420.8518
   2   2.0000     -10.332603      -281.1644
   3   2.0000     -10.330972      -281.1200
   4   2.0000     -10.318171      -280.7717
   5   2.0000     -10.317537      -280.7545
   6   2.0000     -10.305407      -280.4244
   7   2.0000     -10.298944      -280.2485
   8   2.0000     -10.297171      -280.2003
   9   2.0000     -10.294363      -280.1239
  10   2.0000     -10.289889      -280.0021
  11   2.0000     -10.284129      -279.8454
  12   2.0000     -10.284097      -279.8445
  13   2.0000     -10.284035      -279.8428
  14   2.0000     -10.277036      -279.6524
  15   2.0000     -10.266059      -279.3537
  16   2.0000      -8.083206      -219.9552
  17   2.0000      -8.079144      -219.8447
  18   2.0000      -6.041733      -164.4039
  19   2.0000      -6.037841      -164.2980
  20   2.0000      -6.037634      -164.2924
  21   2.0000      -6.034014      -164.1939
  22   2.0000      -6.033698      -164.1853
  23   2.0000      -6.029940      -164.0830
  24   2.0000      -1.002859       -27.2892
  25   2.0000      -0.981048       -26.6957
  26   2.0000      -0.918173       -24.9848
  27   2.0000      -0.910633       -24.7796
  28   2.0000      -0.865209       -23.5435
  29   2.0000      -0.856592       -23.3091
  30   2.0000      -0.844599       -22.9827
  31   2.0000      -0.814941       -22.1757
  32   2.0000      -0.785480       -21.3740
  33   2.0000      -0.771922       -21.0051
  34   2.0000      -0.707395       -19.2492
  35   2.0000      -0.701511       -19.0891
  36   2.0000      -0.691061       -18.8047
  37   2.0000      -0.660018       -17.9600
  38   2.0000      -0.643716       -17.5164
  39   2.0000      -0.625348       -17.0166
  40   2.0000      -0.599475       -16.3126
  41   2.0000      -0.568259       -15.4631
  42   2.0000      -0.566884       -15.4257
  43   2.0000      -0.563037       -15.3210
  44   2.0000      -0.528919       -14.3926
  45   2.0000      -0.524612       -14.2754
  46   2.0000      -0.519315       -14.1313
  47   2.0000      -0.515609       -14.0304
  48   2.0000      -0.505941       -13.7673
  49   2.0000      -0.499497       -13.5920
  50   2.0000      -0.488263       -13.2863
  51   2.0000      -0.486019       -13.2252
  52   2.0000      -0.469240       -12.7687
  53   2.0000      -0.465189       -12.6584
  54   2.0000      -0.461493       -12.5579
  55   2.0000      -0.450023       -12.2458
  56   2.0000      -0.444303       -12.0901
  57   2.0000      -0.436587       -11.8801
  58   2.0000      -0.429636       -11.6910
  59   2.0000      -0.427340       -11.6285
  60   2.0000      -0.422024       -11.4838
  61   2.0000      -0.416630       -11.3371
  62   2.0000      -0.414286       -11.2733
  63   2.0000      -0.346488        -9.4284
  64   2.0000      -0.334392        -9.0993
  65   2.0000      -0.329370        -8.9626
  66   2.0000      -0.284955        -7.7540
  67   0.0000       0.021827         0.5939
  68   0.0000       0.071377         1.9423
  69   0.0000       0.102976         2.8021
  70   0.0000       0.120568         3.2808
  71   0.0000       0.132725         3.6116

MULLIKEN ATOMIC CHARGES
-----------------------
   0 S :    0.093105
   1 C :   -0.122825
   2 C :   -0.095534
   3 C :    0.025697
   4 C :   -0.143775
   5 H :    0.000824
   6 C :    0.091294
   7 H :    0.002597
   8 H :    0.017433
   9 C :   -0.060122
  10 H :    0.026472
  11 H :    0.016220
  12 C :   -0.049005
  13 H :    0.026436
  14 H :    0.045691
  15 H :    0.032791
  16 S :    0.106322
  17 C :   -0.076683
  18 C :   -0.043790
  19 C :   -0.035109
  20 C :   -0.133717
  21 H :    0.029471
  22 C :    0.086573
  23 H :    0.017164
  24 H :    0.007905
  25 C :   -0.070658
  26 H :    0.042148
  27 H :    0.015966
  28 C :   -0.018306
  29 H :    0.029223
  30 H :    0.019155
  31 H :    0.022070
  32 H :    0.052853
  33 H :    0.042115
Sum of atomic charges:   -0.0000000

LOEWDIN ATOMIC CHARGES
----------------------
   0 S :    0.398544
   1 C :   -0.192986
   2 C :   -0.060190
   3 C :   -0.064411
   4 C :   -0.187006
   5 H :    0.025056
   6 C :   -0.035052
   7 H :    0.023035
   8 H :    0.032581
   9 C :   -0.031752
  10 H :    0.028516
  11 H :    0.015648
  12 C :   -0.068131
  13 H :    0.023114
  14 H :    0.035055
  15 H :    0.025011
  16 S :    0.393511
  17 C :   -0.174678
  18 C :   -0.074527
  19 C :   -0.054221
  20 C :   -0.192608
  21 H :    0.036443
  22 C :   -0.028417
  23 H :    0.028076
  24 H :    0.028311
  25 C :   -0.038217
  26 H :    0.031970
  27 H :    0.018360
  28 C :   -0.056664
  29 H :    0.022400
  30 H :    0.016715
  31 H :    0.029123
  32 H :    0.028685
  33 H :    0.018707

  Mayer bond orders larger than 0.100000
B(  0-S ,  1-C ) :   1.1367 B(  0-S ,  4-C ) :   1.1622 B(  1-C ,  2-C ) :   1.5739
B(  1-C ,  4-C ) :   0.1053 B(  1-C , 32-H ) :   0.9680 B(  2-C ,  3-C ) :   1.2605
B(  2-C ,  6-C ) :   1.0619 B(  3-C ,  4-C ) :   1.5546 B(  3-C ,  5-H ) :   0.9951
B(  4-C , 20-C ) :   1.0409 B(  6-C ,  7-H ) :   0.9305 B(  6-C ,  8-H ) :   0.9274
B(  6-C ,  9-C ) :   1.0513 B(  9-C , 10-H ) :   0.9523 B(  9-C , 11-H ) :   0.9629
B(  9-C , 12-C ) :   1.0843 B( 12-C , 13-H ) :   0.9732 B( 12-C , 14-H ) :   0.9723
B( 12-C , 15-H ) :   0.9751 B( 16-S , 17-C ) :   1.1607 B( 16-S , 20-C ) :   1.1363
B( 17-C , 18-C ) :   1.5741 B( 17-C , 20-C ) :   0.1088 B( 17-C , 33-H ) :   0.9775
B( 18-C , 19-C ) :   1.2774 B( 18-C , 21-H ) :   0.9841 B( 19-C , 20-C ) :   1.5810
B( 19-C , 22-C ) :   1.0392 B( 22-C , 23-H ) :   0.9420 B( 22-C , 24-H ) :   0.9267
B( 22-C , 25-C ) :   1.0559 B( 25-C , 26-H ) :   0.9517 B( 25-C , 27-H ) :   0.9567
B( 25-C , 28-C ) :   1.0996 B( 28-C , 29-H ) :   0.9749 B( 28-C , 30-H ) :   0.9726
B( 28-C , 31-H ) :   0.9701

Dispersion correction           -0.013979346
FINAL SINGLE POINT ENERGY     -1339.876960145278

DIPOLE MOMENT
-------------
                                X             Y             Z
Electronic contribution:     -2.44110      -0.66582      28.93264
Nuclear contribution   :      2.36873       0.87580     -29.56132
                        -----------------------------------------
Total Dipole Moment    :     -0.07236       0.20998      -0.62868
                        -----------------------------------------
Magnitude (a.u.)       :      0.66676
Magnitude (Debye)      :      1.69476

Rotational constants in cm-1:     0.017665     0.008396     0.006752
Rotational constants in MHz :   529.593988   251.710803   202.422932

                             ****ORCA TERMINATED NORMALLY****
TOTAL RUN TIME: 0 days 0 hours 0 minutes 34 seconds 394 msec
