                         Program Version 4.2.1 -  RELEASE  -
|  1> ! wB97X-D3 SP def2-SVP
|  2> %pal
|  3> nprocs 16
|  4> end
|  5>
|  6> * xyz 0 1
|  7> S 	 -1.04858 	 -16.505 	 83.1386
|  8> C 	 -2.49653 	 -17.4648 	 82.8925
|  9> C 	 -3.4041 	 -16.7687 	 82.091
| 10> C 	 -3.03713 	 -15.4314 	 81.8238
| 11> C 	 -1.80561 	 -15.092 	 82.3797
| 12> H 	 -3.56301 	 -14.6699 	 81.3706
| 13> C 	 -4.65344 	 -17.417 	 81.5471
| 14> H 	 -5.43839 	 -17.176 	 82.2643
| 15> H 	 -4.51072 	 -18.5376 	 81.5588
| 16> C 	 -5.10061 	 -17.1544 	 80.1493
| 17> H 	 -5.34743 	 -16.0752 	 80.1017
| 18> H 	 -4.27447 	 -17.2784 	 79.4599
| 19> C 	 -6.17277 	 -18.1143 	 79.5656
| 20> H 	 -6.48592 	 -18.0306 	 78.5265
| 21> H 	 -5.78293 	 -19.1785 	 79.6713
| 22> H 	 -7.1464 	 -17.9942 	 80.0698
| 23> S 	 -1.05986 	 -13.0514 	 84.0379
| 24> C 	 -0.836577 	 -11.4891 	 83.4953
| 25> C 	 -0.9506 	 -11.4364 	 82.1159
| 26> C 	 -1.29773 	 -12.6752 	 81.4926
| 27> C 	 -1.3806 	 -13.6833 	 82.4474
| 28> H 	 -0.832385 	 -10.4316 	 81.6709
| 29> C 	 -1.44135 	 -12.9172 	 80.0288
| 30> H 	 -1.39097 	 -13.9933 	 79.8179
| 31> H 	 -0.63598 	 -12.5245 	 79.5518
| 32> C 	 -2.63152 	 -12.3214 	 79.2092
| 33> H 	 -3.60899 	 -12.4401 	 79.6174
| 34> H 	 -2.78805 	 -12.8186 	 78.3126
| 35> C 	 -2.4198 	 -10.8836 	 78.8796
| 36> H 	 -2.42398 	 -10.2939 	 79.803
| 37> H 	 -3.19021 	 -10.5018 	 78.1757
| 38> H 	 -1.43399 	 -10.5988 	 78.4178
| 39> H 	 -2.55278 	 -18.4522 	 83.3405
| 40> H 	 -0.747144 	 -10.5924 	 84.0642
| 41> *
| 42>
| 43>                          ****END OF INPUT****

CARTESIAN COORDINATES (ANGSTROEM)
---------------------------------
  S     -1.048580  -16.505000   83.138600
  C     -2.496530  -17.464800   82.892500
  C     -3.404100  -16.768700   82.091000
  C     -3.037130  -15.431400   81.823800
  C     -1.805610  -15.092000   82.379700
  H     -3.563010  -14.669900   81.370600
  C     -4.653440  -17.417000   81.547100
  H     -5.438390  -17.176000   82.264300
  H     -4.510720  -18.537600   81.558800
  C     -5.100610  -17.154400   80.149300
  H     -5.347430  -16.075200   80.101700
  H     -4.274470  -17.278400   79.459900
  C     -6.172770  -18.114300   79.565600
  H     -6.485920  -18.030600   78.526500
  H     -5.782930  -19.178500   79.671300
  H     -7.146400  -17.994200   80.069800
  S     -1.059860  -13.051400   84.037900
  C     -0.836577  -11.489100   83.495300
  C     -0.950600  -11.436400   82.115900
  C     -1.297730  -12.675200   81.492600
  C     -1.380600  -13.683300   82.447400
  H     -0.832385  -10.431600   81.670900
  C     -1.441350  -12.917200   80.028800
  H     -1.390970  -13.993300   79.817900
  H     -0.635980  -12.524500   79.551800
  C     -2.631520  -12.321400   79.209200
  H     -3.608990  -12.440100   79.617400
  H     -2.788050  -12.818600   78.312600
  C     -2.419800  -10.883600   78.879600
  H     -2.423980  -10.293900   79.803000
  H     -3.190210  -10.501800   78.175700
  H     -1.433990  -10.598800   78.417800
  H     -2.552780  -18.452200   83.340500
  H     -0.747144  -10.592400   84.064200

 Total Charge           Charge          ....    0
 Multiplicity           Mult            ....    1
 Number of Electrons    NEL             ....  134
 Basis Dimension        Dim             ....  322

ORBITAL ENERGIES
----------------

  NO   OCC          E(Eh)            E(eV)
   0   2.0000     -88.968325     -2420.9512
   1   2.0000     -88.963515     -2420.8203
   2   2.0000     -10.331936      -281.1463
   3   2.0000     -10.325913      -280.9824
   4   2.0000     -10.317278      -280.7474
   5   2.0000     -10.308857      -280.5183
   6   2.0000     -10.304794      -280.4077
   7   2.0000     -10.304608      -280.4026
   8   2.0000     -10.293035      -280.0877
   9   2.0000     -10.291492      -280.0457
  10   2.0000     -10.289049      -279.9792
  11   2.0000     -10.288720      -279.9703
  12   2.0000     -10.288608      -279.9673
  13   2.0000     -10.283764      -279.8354
  14   2.0000     -10.279230      -279.7121
  15   2.0000     -10.277812      -279.6735
  16   2.0000      -8.082436      -219.9343
  17   2.0000      -8.079948      -219.8666
  18   2.0000      -6.040917      -164.3817
  19   2.0000      -6.038209      -164.3080
  20   2.0000      -6.037033      -164.2760
  21   2.0000      -6.034049      -164.1948
  22   2.0000      -6.033268      -164.1736
  23   2.0000      -6.031017      -164.1123
  24   2.0000      -1.011038       -27.5117
  25   2.0000      -0.987291       -26.8656
  26   2.0000      -0.916063       -24.9273
  27   2.0000      -0.913402       -24.8549
  28   2.0000      -0.871689       -23.7199
  29   2.0000      -0.855967       -23.2920
  30   2.0000      -0.848367       -23.0852
  31   2.0000      -0.815366       -22.1872
  32   2.0000      -0.784803       -21.3556
  33   2.0000      -0.772416       -21.0185
  34   2.0000      -0.712833       -19.3972
  35   2.0000      -0.703952       -19.1555
  36   2.0000      -0.691732       -18.8230
  37   2.0000      -0.660885       -17.9836
  38   2.0000      -0.646558       -17.5937
  39   2.0000      -0.622253       -16.9324
  40   2.0000      -0.599475       -16.3125
  41   2.0000      -0.572825       -15.5874
  42   2.0000      -0.566176       -15.4064
  43   2.0000      -0.553279       -15.0555
  44   2.0000      -0.545084       -14.8325
  45   2.0000      -0.523604       -14.2480
  46   2.0000      -0.516515       -14.0551
  47   2.0000      -0.513038       -13.9605
  48   2.0000      -0.504060       -13.7162
  49   2.0000      -0.500694       -13.6246
  50   2.0000      -0.499617       -13.5953
  51   2.0000      -0.480749       -13.0818
  52   2.0000      -0.475520       -12.9396
  53   2.0000      -0.469621       -12.7790
  54   2.0000      -0.460407       -12.5283
  55   2.0000      -0.452717       -12.3190
  56   2.0000      -0.444960       -12.1080
  57   2.0000      -0.437265       -11.8986
  58   2.0000      -0.432676       -11.7737
  59   2.0000      -0.421918       -11.4810
  60   2.0000      -0.416438       -11.3319
  61   2.0000      -0.413491       -11.2517
  62   2.0000      -0.412983       -11.2378
  63   2.0000      -0.347284        -9.4501
  64   2.0000      -0.331597        -9.0232
  65   2.0000      -0.328170        -8.9300
  66   2.0000      -0.291133        -7.9221
  67   0.0000       0.030143         0.8202
  68   0.0000       0.070505         1.9186
  69   0.0000       0.116516         3.1706
  70   0.0000       0.125106         3.4043
  71   0.0000       0.135619         3.6904

MULLIKEN ATOMIC CHARGES
-----------------------
   0 S :    0.111839
   1 C :   -0.149505
   2 C :   -0.043704
   3 C :    0.056974
   4 C :   -0.150144
   5 H :   -0.018517
   6 C :    0.054405
   7 H :    0.042531
   8 H :    0.019605
   9 C :   -0.075933
  10 H :    0.030070
  11 H :    0.028678
  12 C :   -0.075107
  13 H :    0.037214
  14 H :    0.040771
  15 H :    0.032757
  16 S :    0.128257
  17 C :   -0.078392
  18 C :   -0.075705
  19 C :    0.003296
  20 C :   -0.184714
  21 H :    0.026691
  22 C :    0.090138
  23 H :    0.028315
  24 H :   -0.003857
  25 C :   -0.002754
  26 H :    0.012757
  27 H :    0.004340
  28 C :   -0.094620
  29 H :    0.029219
  30 H :    0.038229
  31 H :    0.028300
  32 H :    0.060339
  33 H :    0.048227
Sum of atomic charges:    0.0000000

LOEWDIN ATOMIC CHARGES
----------------------
   0 S :    0.395746
   1 C :   -0.195476
   2 C :   -0.059287
   3 C :   -0.050461
   4 C :   -0.187160
   5 H :    0.019955
   6 C :   -0.039367
   7 H :    0.034169
   8 H :    0.032813
   9 C :   -0.049047
  10 H :    0.022683
  11 H :    0.025350
  12 C :   -0.071781
  13 H :    0.027951
  14 H :    0.033342
  15 H :    0.025072
  16 S :    0.449791
  17 C :   -0.211962
  18 C :   -0.081917
  19 C :   -0.055778
  20 C :   -0.199327
  21 H :    0.033380
  22 C :   -0.023458
  23 H :    0.036724
  24 H :    0.020861
  25 C :   -0.036201
  26 H :    0.021013
  27 H :    0.018302
  28 C :   -0.073037
  29 H :    0.022220
  30 H :    0.029515
  31 H :    0.025556
  32 H :    0.030367
  33 H :    0.029450

  Mayer bond orders larger than 0.100000
B(  0-S ,  1-C ) :   1.1400 B(  0-S ,  4-C ) :   1.1578 B(  1-C ,  2-C ) :   1.5809
B(  1-C , 32-H ) :   0.9744 B(  2-C ,  3-C ) :   1.2434 B(  2-C ,  6-C ) :   1.0181
B(  3-C ,  4-C ) :   1.5460 B(  3-C ,  5-H ) :   1.0097 B(  4-C , 20-C ) :   1.0370
B(  6-C ,  7-H ) :   0.9283 B(  6-C ,  8-H ) :   0.9469 B(  6-C ,  9-C ) :   1.0708
B(  9-C , 10-H ) :   0.9463 B(  9-C , 11-H ) :   0.9585 B(  9-C , 12-C ) :   1.0772
B( 12-C , 13-H ) :   0.9762 B( 12-C , 14-H ) :   0.9717 B( 12-C , 15-H ) :   0.9768
B( 16-S , 17-C ) :   1.1830 B( 16-S , 20-C ) :   1.1657 B( 17-C , 18-C ) :   1.5890
B( 17-C , 33-H ) :   0.9684 B( 18-C , 19-C ) :   1.2471 B( 18-C , 21-H ) :   0.9860
B( 19-C , 20-C ) :   1.5658 B( 19-C , 22-C ) :   1.0534 B( 22-C , 23-H ) :   0.9296
B( 22-C , 24-H ) :   0.9263 B( 22-C , 25-C ) :   1.0638 B( 25-C , 26-H ) :   0.9491
B( 25-C , 27-H ) :   0.9482 B( 25-C , 28-C ) :   1.0877 B( 28-C , 29-H ) :   0.9747
B( 28-C , 30-H ) :   0.9695 B( 28-C , 31-H ) :   0.9738

Dispersion correction           -0.014076627
FINAL SINGLE POINT ENERGY     -1339.868203719700

DIPOLE MOMENT
-------------
                                X             Y             Z
Electronic contribution:     18.64828      -0.47304      24.77795
Nuclear contribution   :    -19.12342       0.58140     -25.25084
                        -----------------------------------------
Total Dipole Moment    :     -0.47514       0.10836      -0.47289
                        -----------------------------------------
Magnitude (a.u.)       :      0.67906
Magnitude (Debye)      :      1.72604

Rotational constants in cm-1:     0.016994     0.009070     0.006376
Rotational constants in MHz :   509.473762   271.922642   191.138449

                             ****ORCA TERMINATED NORMALLY****
TOTAL RUN TIME: 0 days 0 hours 0 minutes 34 seconds 53 msec
