                         Program Version 4.2.1 -  RELEASE  -
|  1> ! wB97X-D3 SP def2-SVP
|  2> %pal
|  3> nprocs 16
|  4> end
|  5>
|  6> * xyz 0 1
|  7> S 	 -59.2391 	 50.4418 	 125.408
|  8> C 	 -60.1307 	 48.8491 	 125.645
|  9> C 	 -60.7201 	 48.4616 	 124.496
| 10> C 	 -60.3718 	 49.354 	 123.377
| 11> C 	 -59.6709 	 50.502 	 123.695
| 12> H 	 -60.8423 	 49.1728 	 122.43
| 13> C 	 -61.6188 	 47.2213 	 124.262
| 14> H 	 -62.5911 	 47.3233 	 124.738
| 15> H 	 -61.0915 	 46.2567 	 124.624
| 16> C 	 -61.9746 	 46.7942 	 122.823
| 17> H 	 -62.7009 	 47.3503 	 122.289
| 18> H 	 -61.1669 	 46.8689 	 122.117
| 19> C 	 -62.6039 	 45.3943 	 122.762
| 20> H 	 -63.2082 	 45.276 	 121.832
| 21> H 	 -61.8739 	 44.5309 	 122.969
| 22> H 	 -63.1646 	 45.3085 	 123.703
| 23> S 	 -60.7273 	 52.4426 	 122.115
| 24> C 	 -59.7359 	 53.8119 	 121.53
| 25> C 	 -58.3998 	 53.5913 	 121.817
| 26> C 	 -58.2115 	 52.4677 	 122.713
| 27> C 	 -59.3769 	 51.701 	 122.862
| 28> H 	 -57.6984 	 54.3497 	 121.489
| 29> C 	 -56.7754 	 52.1577 	 123.28
| 30> H 	 -56.761 	 51.0872 	 123.546
| 31> H 	 -56.7368 	 52.6217 	 124.296
| 32> C 	 -55.4421 	 52.5338 	 122.57
| 33> H 	 -54.6149 	 52.2331 	 123.197
| 34> H 	 -55.2428 	 53.5831 	 122.566
| 35> C 	 -55.2979 	 51.9405 	 121.166
| 36> H 	 -56.1553 	 52.3126 	 120.526
| 37> H 	 -55.2287 	 50.8459 	 121.196
| 38> H 	 -54.3735 	 52.2981 	 120.709
| 39> H 	 -60.2243 	 48.4251 	 126.646
| 40> H 	 -60.0082 	 54.5991 	 120.906
| 41> *
| 42>
| 43>                          ****END OF INPUT****

CARTESIAN COORDINATES (ANGSTROEM)
---------------------------------
  S    -59.239100   50.441800  125.408000
  C    -60.130700   48.849100  125.645000
  C    -60.720100   48.461600  124.496000
  C    -60.371800   49.354000  123.377000
  C    -59.670900   50.502000  123.695000
  H    -60.842300   49.172800  122.430000
  C    -61.618800   47.221300  124.262000
  H    -62.591100   47.323300  124.738000
  H    -61.091500   46.256700  124.624000
  C    -61.974600   46.794200  122.823000
  H    -62.700900   47.350300  122.289000
  H    -61.166900   46.868900  122.117000
  C    -62.603900   45.394300  122.762000
  H    -63.208200   45.276000  121.832000
  H    -61.873900   44.530900  122.969000
  H    -63.164600   45.308500  123.703000
  S    -60.727300   52.442600  122.115000
  C    -59.735900   53.811900  121.530000
  C    -58.399800   53.591300  121.817000
  C    -58.211500   52.467700  122.713000
  C    -59.376900   51.701000  122.862000
  H    -57.698400   54.349700  121.489000
  C    -56.775400   52.157700  123.280000
  H    -56.761000   51.087200  123.546000
  H    -56.736800   52.621700  124.296000
  C    -55.442100   52.533800  122.570000
  H    -54.614900   52.233100  123.197000
  H    -55.242800   53.583100  122.566000
  C    -55.297900   51.940500  121.166000
  H    -56.155300   52.312600  120.526000
  H    -55.228700   50.845900  121.196000
  H    -54.373500   52.298100  120.709000
  H    -60.224300   48.425100  126.646000
  H    -60.008200   54.599100  120.906000

 Total Charge           Charge          ....    0
 Multiplicity           Mult            ....    1
 Number of Electrons    NEL             ....  134
 Basis Dimension        Dim             ....  322

ORBITAL ENERGIES
----------------

  NO   OCC          E(Eh)            E(eV)
   0   2.0000     -88.968599     -2420.9587
   1   2.0000     -88.963032     -2420.8072
   2   2.0000     -10.337999      -281.3113
   3   2.0000     -10.331761      -281.1415
   4   2.0000     -10.321253      -280.8556
   5   2.0000     -10.316639      -280.7300
   6   2.0000     -10.313630      -280.6481
   7   2.0000     -10.309166      -280.5267
   8   2.0000     -10.307764      -280.4885
   9   2.0000     -10.297758      -280.2162
  10   2.0000     -10.297474      -280.2085
  11   2.0000     -10.296638      -280.1858
  12   2.0000     -10.289366      -279.9879
  13   2.0000     -10.286449      -279.9085
  14   2.0000     -10.283456      -279.8271
  15   2.0000     -10.279474      -279.7187
  16   2.0000      -8.083119      -219.9529
  17   2.0000      -8.076369      -219.7692
  18   2.0000      -6.041763      -164.4047
  19   2.0000      -6.037573      -164.2907
  20   2.0000      -6.035187      -164.2258
  21   2.0000      -6.033813      -164.1884
  22   2.0000      -6.031125      -164.1153
  23   2.0000      -6.026820      -163.9981
  24   2.0000      -1.001017       -27.2391
  25   2.0000      -0.976339       -26.5675
  26   2.0000      -0.910733       -24.7823
  27   2.0000      -0.899153       -24.4672
  28   2.0000      -0.872014       -23.7287
  29   2.0000      -0.846435       -23.0327
  30   2.0000      -0.835734       -22.7415
  31   2.0000      -0.816113       -22.2076
  32   2.0000      -0.778273       -21.1779
  33   2.0000      -0.770955       -20.9787
  34   2.0000      -0.711594       -19.3635
  35   2.0000      -0.699588       -19.0368
  36   2.0000      -0.691323       -18.8118
  37   2.0000      -0.662300       -18.0221
  38   2.0000      -0.635525       -17.2935
  39   2.0000      -0.621249       -16.9051
  40   2.0000      -0.590490       -16.0681
  41   2.0000      -0.571710       -15.5570
  42   2.0000      -0.569060       -15.4849
  43   2.0000      -0.545992       -14.8572
  44   2.0000      -0.536490       -14.5986
  45   2.0000      -0.526625       -14.3302
  46   2.0000      -0.519106       -14.1256
  47   2.0000      -0.509481       -13.8637
  48   2.0000      -0.495453       -13.4819
  49   2.0000      -0.492857       -13.4113
  50   2.0000      -0.487156       -13.2562
  51   2.0000      -0.483896       -13.1675
  52   2.0000      -0.466246       -12.6872
  53   2.0000      -0.459979       -12.5167
  54   2.0000      -0.453574       -12.3424
  55   2.0000      -0.451733       -12.2923
  56   2.0000      -0.442409       -12.0385
  57   2.0000      -0.434130       -11.8133
  58   2.0000      -0.429276       -11.6812
  59   2.0000      -0.427795       -11.6409
  60   2.0000      -0.413253       -11.2452
  61   2.0000      -0.412548       -11.2260
  62   2.0000      -0.410717       -11.1762
  63   2.0000      -0.349479        -9.5098
  64   2.0000      -0.328805        -8.9472
  65   2.0000      -0.328612        -8.9420
  66   2.0000      -0.298402        -8.1199
  67   0.0000       0.030698         0.8353
  68   0.0000       0.067683         1.8418
  69   0.0000       0.103316         2.8114
  70   0.0000       0.114740         3.1222
  71   0.0000       0.128018         3.4835

MULLIKEN ATOMIC CHARGES
-----------------------
   0 S :    0.079308
   1 C :   -0.152415
   2 C :   -0.047957
   3 C :    0.020227
   4 C :   -0.114875
   5 H :    0.010105
   6 C :    0.019903
   7 H :    0.052571
   8 H :    0.055481
   9 C :   -0.079856
  10 H :    0.017512
  11 H :    0.025471
  12 C :   -0.085153
  13 H :    0.055845
  14 H :    0.039556
  15 H :    0.022783
  16 S :    0.116515
  17 C :   -0.072164
  18 C :   -0.045148
  19 C :   -0.045949
  20 C :   -0.142705
  21 H :    0.030528
  22 C :    0.028557
  23 H :    0.031023
  24 H :    0.043258
  25 C :   -0.043241
  26 H :    0.021169
  27 H :    0.014936
  28 C :   -0.063619
  29 H :    0.046735
  30 H :    0.040579
  31 H :    0.029304
  32 H :    0.057882
  33 H :    0.033833
Sum of atomic charges:    0.0000000

LOEWDIN ATOMIC CHARGES
----------------------
   0 S :    0.357345
   1 C :   -0.163086
   2 C :   -0.062118
   3 C :   -0.068361
   4 C :   -0.180200
   5 H :    0.025489
   6 C :   -0.035179
   7 H :    0.036214
   8 H :    0.046726
   9 C :   -0.053939
  10 H :    0.018394
  11 H :    0.019219
  12 C :   -0.072302
  13 H :    0.034834
  14 H :    0.029973
  15 H :    0.024474
  16 S :    0.418141
  17 C :   -0.168436
  18 C :   -0.068787
  19 C :   -0.054085
  20 C :   -0.214724
  21 H :    0.034619
  22 C :   -0.041539
  23 H :    0.029623
  24 H :    0.039354
  25 C :   -0.045470
  26 H :    0.029233
  27 H :    0.018370
  28 C :   -0.068546
  29 H :    0.032991
  30 H :    0.027438
  31 H :    0.024263
  32 H :    0.031739
  33 H :    0.018333

  Mayer bond orders larger than 0.100000
B(  0-S ,  1-C ) :   1.1040 B(  0-S ,  4-C ) :   1.1271 B(  1-C ,  2-C ) :   1.6690
B(  1-C , 32-H ) :   0.9742 B(  2-C ,  3-C ) :   1.2187 B(  2-C ,  6-C ) :   0.9985
B(  3-C ,  4-C ) :   1.6021 B(  3-C ,  5-H ) :   0.9880 B(  4-C , 20-C ) :   1.0119
B(  6-C ,  7-H ) :   0.9345 B(  6-C ,  8-H ) :   0.9551 B(  6-C ,  9-C ) :   1.0699
B(  9-C , 10-H ) :   0.9504 B(  9-C , 11-H ) :   0.9490 B(  9-C , 12-C ) :   1.0751
B( 12-C , 13-H ) :   0.9741 B( 12-C , 14-H ) :   0.9710 B( 12-C , 15-H ) :   0.9716
B( 16-S , 17-C ) :   1.1453 B( 16-S , 20-C ) :   1.1522 B( 17-C , 18-C ) :   1.6342
B( 17-C , 33-H ) :   0.9701 B( 18-C , 19-C ) :   1.2310 B( 18-C , 21-H ) :   0.9821
B( 19-C , 20-C ) :   1.5905 B( 19-C , 22-C ) :   1.0213 B( 22-C , 23-H ) :   0.9401
B( 22-C , 24-H ) :   0.9307 B( 22-C , 25-C ) :   1.0806 B( 25-C , 26-H ) :   0.9450
B( 25-C , 27-H ) :   0.9479 B( 25-C , 28-C ) :   1.0826 B( 28-C , 29-H ) :   0.9741
B( 28-C , 30-H ) :   0.9762 B( 28-C , 31-H ) :   0.9732

Dispersion correction           -0.013586220
FINAL SINGLE POINT ENERGY     -1339.861030096779

DIPOLE MOMENT
-------------
                                X             Y             Z
Electronic contribution:     -6.25186      14.86171       7.65081
Nuclear contribution   :      6.32390     -14.99391      -7.80521
                        -----------------------------------------
Total Dipole Moment    :      0.07204      -0.13219      -0.15439
                        -----------------------------------------
Magnitude (a.u.)       :      0.21564
Magnitude (Debye)      :      0.54812

Rotational constants in cm-1:     0.020914     0.006860     0.006364
Rotational constants in MHz :   626.980089   205.672179   190.783423

                             ****ORCA TERMINATED NORMALLY****
TOTAL RUN TIME: 0 days 0 hours 0 minutes 32 seconds 80 msec
