                         Program Version 4.2.1 -  RELEASE  -
|  1> ! wB97X-D3 SP def2-SVP
|  2> %pal
|  3> nprocs 16
|  4> end
|  5>
|  6> * xyz 0 1
|  7> S 	 25.7756 	 10.5059 	 69.1631
|  8> C 	 25.2119 	 11.2412 	 67.6885
|  9> C 	 23.9071 	 11.6957 	 67.9752
| 10> C 	 23.5324 	 11.6468 	 69.3511
| 11> C 	 24.4603 	 11.0392 	 70.1005
| 12> H 	 22.6221 	 11.8742 	 69.8045
| 13> C 	 23.0598 	 12.4865 	 66.936
| 14> H 	 22.3614 	 11.7325 	 66.6242
| 15> H 	 23.6741 	 12.7603 	 66.0455
| 16> C 	 22.294 	 13.7845 	 67.4778
| 17> H 	 21.6149 	 13.4997 	 68.3194
| 18> H 	 23.0691 	 14.3677 	 67.9044
| 19> C 	 21.6081 	 14.5864 	 66.3118
| 20> H 	 20.745 	 15.1117 	 66.7366
| 21> H 	 22.2028 	 15.3063 	 65.772
| 22> H 	 21.3388 	 13.8435 	 65.5028
| 23> S 	 24.7451 	 9.28201 	 72.0658
| 24> C 	 24.3477 	 9.64542 	 73.708
| 25> C 	 23.7373 	 10.8718 	 73.7813
| 26> C 	 23.6457 	 11.4962 	 72.4959
| 27> C 	 24.3938 	 10.8243 	 71.5094
| 28> H 	 23.3062 	 11.1786 	 74.7249
| 29> C 	 22.967 	 12.829 	 72.3953
| 30> H 	 23.1414 	 13.2598 	 71.3958
| 31> H 	 23.5648 	 13.4794 	 73.0958
| 32> C 	 21.491 	 12.8609 	 72.7603
| 33> H 	 21.2328 	 12.7327 	 73.783
| 34> H 	 20.942 	 12.0331 	 72.2929
| 35> C 	 20.7569 	 14.1517 	 72.2631
| 36> H 	 19.6961 	 14.1831 	 72.5391
| 37> H 	 20.7256 	 13.9435 	 71.179
| 38> H 	 21.2588 	 15.0306 	 72.5747
| 39> H 	 25.6507 	 11.3018 	 66.7045
| 40> H 	 24.6395 	 9.06143 	 74.4976
| 41> *
| 42>
| 43>                          ****END OF INPUT****

CARTESIAN COORDINATES (ANGSTROEM)
---------------------------------
  S     25.775600   10.505900   69.163100
  C     25.211900   11.241200   67.688500
  C     23.907100   11.695700   67.975200
  C     23.532400   11.646800   69.351100
  C     24.460300   11.039200   70.100500
  H     22.622100   11.874200   69.804500
  C     23.059800   12.486500   66.936000
  H     22.361400   11.732500   66.624200
  H     23.674100   12.760300   66.045500
  C     22.294000   13.784500   67.477800
  H     21.614900   13.499700   68.319400
  H     23.069100   14.367700   67.904400
  C     21.608100   14.586400   66.311800
  H     20.745000   15.111700   66.736600
  H     22.202800   15.306300   65.772000
  H     21.338800   13.843500   65.502800
  S     24.745100    9.282010   72.065800
  C     24.347700    9.645420   73.708000
  C     23.737300   10.871800   73.781300
  C     23.645700   11.496200   72.495900
  C     24.393800   10.824300   71.509400
  H     23.306200   11.178600   74.724900
  C     22.967000   12.829000   72.395300
  H     23.141400   13.259800   71.395800
  H     23.564800   13.479400   73.095800
  C     21.491000   12.860900   72.760300
  H     21.232800   12.732700   73.783000
  H     20.942000   12.033100   72.292900
  C     20.756900   14.151700   72.263100
  H     19.696100   14.183100   72.539100
  H     20.725600   13.943500   71.179000
  H     21.258800   15.030600   72.574700
  H     25.650700   11.301800   66.704500
  H     24.639500    9.061430   74.497600

 Total Charge           Charge          ....    0
 Multiplicity           Mult            ....    1
 Number of Electrons    NEL             ....  134
 Basis Dimension        Dim             ....  322

ORBITAL ENERGIES
----------------

  NO   OCC          E(Eh)            E(eV)
   0   2.0000     -88.964901     -2420.8580
   1   2.0000     -88.961253     -2420.7588
   2   2.0000     -10.320908      -280.8462
   3   2.0000     -10.319918      -280.8192
   4   2.0000     -10.315687      -280.7041
   5   2.0000     -10.307888      -280.4919
   6   2.0000     -10.304926      -280.4113
   7   2.0000     -10.303718      -280.3784
   8   2.0000     -10.295825      -280.1637
   9   2.0000     -10.294932      -280.1393
  10   2.0000     -10.294669      -280.1322
  11   2.0000     -10.292625      -280.0766
  12   2.0000     -10.286641      -279.9137
  13   2.0000     -10.286429      -279.9080
  14   2.0000     -10.283828      -279.8372
  15   2.0000     -10.280554      -279.7481
  16   2.0000      -8.080524      -219.8822
  17   2.0000      -8.078084      -219.8158
  18   2.0000      -6.039065      -164.3313
  19   2.0000      -6.036505      -164.2617
  20   2.0000      -6.034741      -164.2136
  21   2.0000      -6.032211      -164.1448
  22   2.0000      -6.031335      -164.1210
  23   2.0000      -6.028901      -164.0547
  24   2.0000      -1.022544       -27.8248
  25   2.0000      -0.993880       -27.0448
  26   2.0000      -0.912292       -24.8247
  27   2.0000      -0.900610       -24.5069
  28   2.0000      -0.876826       -23.8596
  29   2.0000      -0.855281       -23.2734
  30   2.0000      -0.843957       -22.9652
  31   2.0000      -0.821446       -22.3527
  32   2.0000      -0.778689       -21.1892
  33   2.0000      -0.768983       -20.9251
  34   2.0000      -0.713475       -19.4147
  35   2.0000      -0.703047       -19.1309
  36   2.0000      -0.697770       -18.9873
  37   2.0000      -0.664026       -18.0691
  38   2.0000      -0.644344       -17.5335
  39   2.0000      -0.624350       -16.9894
  40   2.0000      -0.600244       -16.3335
  41   2.0000      -0.569048       -15.4846
  42   2.0000      -0.568170       -15.4607
  43   2.0000      -0.558918       -15.2089
  44   2.0000      -0.531451       -14.4615
  45   2.0000      -0.529140       -14.3986
  46   2.0000      -0.519402       -14.1336
  47   2.0000      -0.518033       -14.0964
  48   2.0000      -0.509977       -13.8772
  49   2.0000      -0.506150       -13.7730
  50   2.0000      -0.493531       -13.4297
  51   2.0000      -0.482308       -13.1243
  52   2.0000      -0.478643       -13.0245
  53   2.0000      -0.463368       -12.6089
  54   2.0000      -0.459795       -12.5117
  55   2.0000      -0.450932       -12.2705
  56   2.0000      -0.447924       -12.1886
  57   2.0000      -0.436813       -11.8863
  58   2.0000      -0.431806       -11.7500
  59   2.0000      -0.424596       -11.5538
  60   2.0000      -0.418252       -11.3812
  61   2.0000      -0.417040       -11.3482
  62   2.0000      -0.405773       -11.0416
  63   2.0000      -0.357700        -9.7335
  64   2.0000      -0.330491        -8.9931
  65   2.0000      -0.323933        -8.8147
  66   2.0000      -0.288681        -7.8554
  67   0.0000       0.026693         0.7264
  68   0.0000       0.082113         2.2344
  69   0.0000       0.107350         2.9212
  70   0.0000       0.120872         3.2891
  71   0.0000       0.124438         3.3861

MULLIKEN ATOMIC CHARGES
-----------------------
   0 S :    0.114958
   1 C :   -0.112367
   2 C :   -0.091450
   3 C :    0.006225
   4 C :   -0.118324
   5 H :   -0.013684
   6 C :    0.027496
   7 H :    0.036383
   8 H :    0.028681
   9 C :   -0.094135
  10 H :    0.048039
  11 H :    0.033311
  12 C :   -0.058583
  13 H :    0.043559
  14 H :    0.036275
  15 H :    0.037697
  16 S :    0.099475
  17 C :   -0.059210
  18 C :   -0.022198
  19 C :   -0.072795
  20 C :   -0.089877
  21 H :    0.020948
  22 C :    0.041023
  23 H :    0.019180
  24 H :    0.044483
  25 C :   -0.079238
  26 H :    0.020853
  27 H :    0.023354
  28 C :   -0.054291
  29 H :    0.035069
  30 H :    0.031168
  31 H :    0.038685
  32 H :    0.051570
  33 H :    0.027718
Sum of atomic charges:   -0.0000000

LOEWDIN ATOMIC CHARGES
----------------------
   0 S :    0.430492
   1 C :   -0.210123
   2 C :   -0.054942
   3 C :   -0.069968
   4 C :   -0.203251
   5 H :    0.022312
   6 C :   -0.036166
   7 H :    0.027834
   8 H :    0.029800
   9 C :   -0.040638
  10 H :    0.026282
  11 H :    0.020143
  12 C :   -0.070360
  13 H :    0.030629
  14 H :    0.024246
  15 H :    0.032261
  16 S :    0.444241
  17 C :   -0.177438
  18 C :   -0.064818
  19 C :   -0.058908
  20 C :   -0.221581
  21 H :    0.033430
  22 C :   -0.041173
  23 H :    0.029007
  24 H :    0.041607
  25 C :   -0.042257
  26 H :    0.015702
  27 H :    0.024592
  28 C :   -0.060746
  29 H :    0.028088
  30 H :    0.027320
  31 H :    0.019068
  32 H :    0.033615
  33 H :    0.011700

  Mayer bond orders larger than 0.100000
B(  0-S ,  1-C ) :   1.1318 B(  0-S ,  4-C ) :   1.1607 B(  1-C ,  2-C ) :   1.5900
B(  1-C , 32-H ) :   0.9754 B(  2-C ,  3-C ) :   1.2383 B(  2-C ,  6-C ) :   1.0132
B(  3-C ,  4-C ) :   1.5824 B(  3-C ,  5-H ) :   0.9982 B(  4-C , 20-C ) :   1.0305
B(  6-C ,  7-H ) :   0.9285 B(  6-C ,  8-H ) :   0.9560 B(  6-C ,  9-C ) :   1.0644
B(  9-C , 10-H ) :   0.9531 B(  9-C , 11-H ) :   0.9636 B(  9-C , 12-C ) :   1.0620
B( 12-C , 13-H ) :   0.9767 B( 12-C , 14-H ) :   0.9773 B( 12-C , 15-H ) :   0.9788
B( 16-S , 17-C ) :   1.1710 B( 16-S , 20-C ) :   1.1716 B( 17-C , 18-C ) :   1.5789
B( 17-C , 20-C ) :   0.1020 B( 17-C , 33-H ) :   0.9809 B( 18-C , 19-C ) :   1.2524
B( 18-C , 21-H ) :   0.9966 B( 19-C , 20-C ) :   1.5438 B( 19-C , 22-C ) :   1.0539
B( 22-C , 23-H ) :   0.9438 B( 22-C , 24-H ) :   0.9294 B( 22-C , 25-C ) :   1.0449
B( 25-C , 26-H ) :   0.9534 B( 25-C , 27-H ) :   0.9610 B( 25-C , 28-C ) :   1.0817
B( 28-C , 29-H ) :   0.9743 B( 28-C , 30-H ) :   0.9808 B( 28-C , 31-H ) :   0.9767

Dispersion correction           -0.014291308
FINAL SINGLE POINT ENERGY     -1339.858236204866

DIPOLE MOMENT
-------------
                                X             Y             Z
Electronic contribution:     22.70047     -24.07811       7.00002
Nuclear contribution   :    -23.25745      24.53825      -6.95901
                        -----------------------------------------
Total Dipole Moment    :     -0.55699       0.46014       0.04102
                        -----------------------------------------
Magnitude (a.u.)       :      0.72363
Magnitude (Debye)      :      1.83933

Rotational constants in cm-1:     0.016685     0.010124     0.006522
Rotational constants in MHz :   500.212987   303.506661   195.522872

                             ****ORCA TERMINATED NORMALLY****
TOTAL RUN TIME: 0 days 0 hours 0 minutes 29 seconds 554 msec
