                         Program Version 4.2.1 -  RELEASE  -
|  1> ! wB97X-D3 SP def2-SVP
|  2> %pal
|  3> nprocs 16
|  4> end
|  5>
|  6> * xyz 0 1
|  7> S 	 55.0165 	 12.8074 	 75.9461
|  8> C 	 56.1147 	 14.2203 	 75.7459
|  9> C 	 57.3366 	 13.8082 	 75.347
| 10> C 	 57.4946 	 12.3766 	 75.3801
| 11> C 	 56.3403 	 11.7316 	 75.65
| 12> H 	 58.3474 	 11.8531 	 75.0958
| 13> C 	 58.4074 	 14.7237 	 74.9277
| 14> H 	 58.012 	 15.6758 	 74.453
| 15> H 	 58.8796 	 14.1506 	 74.1271
| 16> C 	 59.4548 	 15.1504 	 76.0298
| 17> H 	 59.8706 	 14.17 	 76.4388
| 18> H 	 60.3078 	 15.6749 	 75.638
| 19> C 	 59.0118 	 15.9444 	 77.3023
| 20> H 	 58.0836 	 15.5364 	 77.6245
| 21> H 	 59.766 	 15.8733 	 78.0807
| 22> H 	 58.9194 	 17.0044 	 77.0757
| 23> S 	 55.5338 	 9.79818 	 77.4559
| 24> C 	 55.8999 	 8.18896 	 77.3052
| 25> C 	 56.3862 	 7.90958 	 76.0319
| 26> C 	 56.513 	 9.08814 	 75.2285
| 27> C 	 56.1432 	 10.2668 	 75.8706
| 28> H 	 56.8073 	 6.98574 	 75.7134
| 29> C 	 57.1349 	 8.94533 	 73.8182
| 30> H 	 57.8182 	 8.04757 	 73.7368
| 31> H 	 57.7804 	 9.81323 	 73.6017
| 32> C 	 56.1636 	 8.7892 	 72.6694
| 33> H 	 55.4809 	 9.67132 	 72.6306
| 34> H 	 55.6403 	 7.95511 	 72.973
| 35> C 	 56.8398 	 8.61775 	 71.2377
| 36> H 	 57.8073 	 9.17311 	 71.0901
| 37> H 	 56.1135 	 8.83337 	 70.4515
| 38> H 	 57.1305 	 7.57716 	 71.1289
| 39> H 	 55.8414 	 15.2201 	 75.9519
| 40> H 	 55.7686 	 7.36449 	 77.9999
| 41> *
| 42>
| 43>                          ****END OF INPUT****

CARTESIAN COORDINATES (ANGSTROEM)
---------------------------------
  S     55.016500   12.807400   75.946100
  C     56.114700   14.220300   75.745900
  C     57.336600   13.808200   75.347000
  C     57.494600   12.376600   75.380100
  C     56.340300   11.731600   75.650000
  H     58.347400   11.853100   75.095800
  C     58.407400   14.723700   74.927700
  H     58.012000   15.675800   74.453000
  H     58.879600   14.150600   74.127100
  C     59.454800   15.150400   76.029800
  H     59.870600   14.170000   76.438800
  H     60.307800   15.674900   75.638000
  C     59.011800   15.944400   77.302300
  H     58.083600   15.536400   77.624500
  H     59.766000   15.873300   78.080700
  H     58.919400   17.004400   77.075700
  S     55.533800    9.798180   77.455900
  C     55.899900    8.188960   77.305200
  C     56.386200    7.909580   76.031900
  C     56.513000    9.088140   75.228500
  C     56.143200   10.266800   75.870600
  H     56.807300    6.985740   75.713400
  C     57.134900    8.945330   73.818200
  H     57.818200    8.047570   73.736800
  H     57.780400    9.813230   73.601700
  C     56.163600    8.789200   72.669400
  H     55.480900    9.671320   72.630600
  H     55.640300    7.955110   72.973000
  C     56.839800    8.617750   71.237700
  H     57.807300    9.173110   71.090100
  H     56.113500    8.833370   70.451500
  H     57.130500    7.577160   71.128900
  H     55.841400   15.220100   75.951900
  H     55.768600    7.364490   77.999900

 Total Charge           Charge          ....    0
 Multiplicity           Mult            ....    1
 Number of Electrons    NEL             ....  134
 Basis Dimension        Dim             ....  322

ORBITAL ENERGIES
----------------

  NO   OCC          E(Eh)            E(eV)
   0   2.0000     -88.966095     -2420.8905
   1   2.0000     -88.963811     -2420.8284
   2   2.0000     -10.332402      -281.1590
   3   2.0000     -10.330970      -281.1200
   4   2.0000     -10.315359      -280.6952
   5   2.0000     -10.311399      -280.5874
   6   2.0000     -10.307390      -280.4783
   7   2.0000     -10.298259      -280.2299
   8   2.0000     -10.297830      -280.2182
   9   2.0000     -10.294935      -280.1394
  10   2.0000     -10.293291      -280.0947
  11   2.0000     -10.290325      -280.0140
  12   2.0000     -10.289120      -279.9812
  13   2.0000     -10.284540      -279.8566
  14   2.0000     -10.281629      -279.7774
  15   2.0000     -10.275879      -279.6209
  16   2.0000      -8.082305      -219.9307
  17   2.0000      -8.078555      -219.8286
  18   2.0000      -6.040650      -164.3744
  19   2.0000      -6.037183      -164.2801
  20   2.0000      -6.036304      -164.2562
  21   2.0000      -6.033400      -164.1772
  22   2.0000      -6.033173      -164.1710
  23   2.0000      -6.029066      -164.0592
  24   2.0000      -1.012494       -27.5514
  25   2.0000      -0.992033       -26.9946
  26   2.0000      -0.909239       -24.7417
  27   2.0000      -0.906839       -24.6764
  28   2.0000      -0.865945       -23.5636
  29   2.0000      -0.850021       -23.1302
  30   2.0000      -0.844263       -22.9736
  31   2.0000      -0.818882       -22.2829
  32   2.0000      -0.783774       -21.3276
  33   2.0000      -0.775904       -21.1134
  34   2.0000      -0.706217       -19.2171
  35   2.0000      -0.697450       -18.9786
  36   2.0000      -0.691249       -18.8098
  37   2.0000      -0.664321       -18.0771
  38   2.0000      -0.645526       -17.5657
  39   2.0000      -0.623508       -16.9665
  40   2.0000      -0.597331       -16.2542
  41   2.0000      -0.570696       -15.5294
  42   2.0000      -0.562949       -15.3186
  43   2.0000      -0.550467       -14.9790
  44   2.0000      -0.542776       -14.7697
  45   2.0000      -0.521414       -14.1884
  46   2.0000      -0.517021       -14.0689
  47   2.0000      -0.506931       -13.7943
  48   2.0000      -0.505527       -13.7561
  49   2.0000      -0.501348       -13.6424
  50   2.0000      -0.494048       -13.4437
  51   2.0000      -0.480125       -13.0649
  52   2.0000      -0.475512       -12.9393
  53   2.0000      -0.468155       -12.7391
  54   2.0000      -0.463599       -12.6152
  55   2.0000      -0.449880       -12.2419
  56   2.0000      -0.444459       -12.0944
  57   2.0000      -0.438791       -11.9401
  58   2.0000      -0.432438       -11.7672
  59   2.0000      -0.420818       -11.4511
  60   2.0000      -0.417781       -11.3684
  61   2.0000      -0.411794       -11.2055
  62   2.0000      -0.406827       -11.0703
  63   2.0000      -0.345836        -9.4107
  64   2.0000      -0.332775        -9.0553
  65   2.0000      -0.329733        -8.9725
  66   2.0000      -0.300634        -8.1807
  67   0.0000       0.035848         0.9755
  68   0.0000       0.067542         1.8379
  69   0.0000       0.104850         2.8531
  70   0.0000       0.122250         3.3266
  71   0.0000       0.133805         3.6410

MULLIKEN ATOMIC CHARGES
-----------------------
   0 S :    0.092885
   1 C :   -0.115275
   2 C :   -0.070803
   3 C :    0.060906
   4 C :   -0.132428
   5 H :   -0.011484
   6 C :    0.052258
   7 H :    0.036528
   8 H :    0.029631
   9 C :   -0.100081
  10 H :    0.026724
  11 H :    0.029804
  12 C :   -0.033846
  13 H :    0.028875
  14 H :    0.036906
  15 H :    0.027985
  16 S :    0.123831
  17 C :   -0.071036
  18 C :   -0.041493
  19 C :   -0.042408
  20 C :   -0.141362
  21 H :    0.007838
  22 C :    0.016569
  23 H :    0.023877
  24 H :    0.017002
  25 C :   -0.047799
  26 H :    0.039316
  27 H :    0.010087
  28 C :   -0.060526
  29 H :    0.040385
  30 H :    0.045500
  31 H :    0.025371
  32 H :    0.034105
  33 H :    0.062155
Sum of atomic charges:    0.0000000

LOEWDIN ATOMIC CHARGES
----------------------
   0 S :    0.382944
   1 C :   -0.169548
   2 C :   -0.064274
   3 C :   -0.056195
   4 C :   -0.186299
   5 H :    0.022365
   6 C :   -0.036654
   7 H :    0.035782
   8 H :    0.036389
   9 C :   -0.042258
  10 H :    0.026954
  11 H :    0.019163
  12 C :   -0.061178
  13 H :    0.019480
  14 H :    0.029359
  15 H :    0.022171
  16 S :    0.452881
  17 C :   -0.213064
  18 C :   -0.078890
  19 C :   -0.053712
  20 C :   -0.204123
  21 H :    0.024422
  22 C :   -0.036324
  23 H :    0.030939
  24 H :    0.023204
  25 C :   -0.036200
  26 H :    0.028010
  27 H :    0.012481
  28 C :   -0.069605
  29 H :    0.030918
  30 H :    0.029558
  31 H :    0.022858
  32 H :    0.020698
  33 H :    0.037746

  Mayer bond orders larger than 0.100000
B(  0-S ,  1-C ) :   1.1051 B(  0-S ,  4-C ) :   1.1510 B(  1-C ,  2-C ) :   1.6420
B(  1-C , 32-H ) :   0.9770 B(  2-C ,  3-C ) :   1.1947 B(  2-C ,  6-C ) :   1.0222
B(  3-C ,  4-C ) :   1.6226 B(  3-C ,  5-H ) :   1.0016 B(  4-C , 20-C ) :   0.9859
B(  6-C ,  7-H ) :   0.9474 B(  6-C ,  8-H ) :   0.9357 B(  6-C ,  9-C ) :   1.0600
B(  9-C , 10-H ) :   0.9592 B(  9-C , 11-H ) :   0.9611 B(  9-C , 12-C ) :   1.0743
B( 12-C , 13-H ) :   0.9754 B( 12-C , 14-H ) :   0.9750 B( 12-C , 15-H ) :   0.9768
B( 16-S , 17-C ) :   1.2045 B( 16-S , 20-C ) :   1.1502 B( 17-C , 18-C ) :   1.5466
B( 17-C , 33-H ) :   0.9655 B( 18-C , 19-C ) :   1.2930 B( 18-C , 21-H ) :   0.9930
B( 19-C , 20-C ) :   1.5857 B( 19-C , 22-C ) :   1.0303 B( 22-C , 23-H ) :   0.9451
B( 22-C , 24-H ) :   0.9370 B( 22-C , 25-C ) :   1.0649 B( 25-C , 26-H ) :   0.9605
B( 25-C , 27-H ) :   0.9563 B( 25-C , 28-C ) :   1.0646 B( 28-C , 29-H ) :   0.9779
B( 28-C , 30-H ) :   0.9778 B( 28-C , 31-H ) :   0.9757

Dispersion correction           -0.013722777
FINAL SINGLE POINT ENERGY     -1339.871472782154

DIPOLE MOMENT
-------------
                                X             Y             Z
Electronic contribution:    -16.72223      -5.06095      14.61576
Nuclear contribution   :     17.30241       4.97727     -14.86890
                        -----------------------------------------
Total Dipole Moment    :      0.58018      -0.08368      -0.25314
                        -----------------------------------------
Magnitude (a.u.)       :      0.63851
Magnitude (Debye)      :      1.62296

Rotational constants in cm-1:     0.018522     0.007930     0.006588
Rotational constants in MHz :   555.283474   237.728604   197.512284

                             ****ORCA TERMINATED NORMALLY****
TOTAL RUN TIME: 0 days 0 hours 0 minutes 29 seconds 732 msec
