                         Program Version 4.2.1 -  RELEASE  -
|  1> ! wB97X-D3 SP def2-SVP
|  2> %pal
|  3> nprocs 16
|  4> end
|  5>
|  6> * xyz 0 1
|  7> S 	 -2.91519 	 -9.87093 	 85.5855
|  8> C 	 -1.69989 	 -10.5725 	 84.49
|  9> C 	 -1.17843 	 -11.769 	 85.0071
| 10> C 	 -1.67082 	 -12.0453 	 86.3058
| 11> C 	 -2.57575 	 -11.1602 	 86.7468
| 12> H 	 -1.40563 	 -12.8475 	 86.9881
| 13> C 	 -0.101769 	 -12.6049 	 84.3685
| 14> H 	 0.164579 	 -12.0922 	 83.4641
| 15> H 	 -0.426185 	 -13.6114 	 84.2083
| 16> C 	 1.24922 	 -12.6767 	 85.1752
| 17> H 	 0.892855 	 -12.7263 	 86.2096
| 18> H 	 1.78101 	 -13.5805 	 85.049
| 19> C 	 2.12214 	 -11.4496 	 84.9777
| 20> H 	 2.28883 	 -11.1966 	 83.9957
| 21> H 	 1.7021 	 -10.6157 	 85.5525
| 22> H 	 3.12777 	 -11.5724 	 85.2911
| 23> S 	 -4.78718 	 -12.1011 	 88.0859
| 24> C 	 -4.57641 	 -12.4919 	 89.7722
| 25> C 	 -3.61387 	 -11.7675 	 90.4223
| 26> C 	 -2.75921 	 -11.187 	 89.4141
| 27> C 	 -3.20747 	 -11.2836 	 88.0519
| 28> H 	 -3.40321 	 -12 	 91.4398
| 29> C 	 -1.40963 	 -10.7545 	 89.6994
| 30> H 	 -0.94201 	 -10.3454 	 88.8097
| 31> H 	 -0.833392 	 -11.6139 	 90.0982
| 32> C 	 -1.26457 	 -9.51522 	 90.7485
| 33> H 	 -1.90211 	 -9.728 	 91.5711
| 34> H 	 -1.71249 	 -8.64272 	 90.3085
| 35> C 	 0.147244 	 -9.15603 	 91.1161
| 36> H 	 0.68696 	 -9.85524 	 91.7678
| 37> H 	 0.0997656 	 -8.19326 	 91.5473
| 38> H 	 0.866745 	 -9.09999 	 90.2994
| 39> H 	 -1.42214 	 -10.1402 	 83.4986
| 40> H 	 -5.30382 	 -13.0229 	 90.2733
| 41> *
| 42>
| 43>                          ****END OF INPUT****

CARTESIAN COORDINATES (ANGSTROEM)
---------------------------------
  S     -2.915190   -9.870930   85.585500
  C     -1.699890  -10.572500   84.490000
  C     -1.178430  -11.769000   85.007100
  C     -1.670820  -12.045300   86.305800
  C     -2.575750  -11.160200   86.746800
  H     -1.405630  -12.847500   86.988100
  C     -0.101769  -12.604900   84.368500
  H      0.164579  -12.092200   83.464100
  H     -0.426185  -13.611400   84.208300
  C      1.249220  -12.676700   85.175200
  H      0.892855  -12.726300   86.209600
  H      1.781010  -13.580500   85.049000
  C      2.122140  -11.449600   84.977700
  H      2.288830  -11.196600   83.995700
  H      1.702100  -10.615700   85.552500
  H      3.127770  -11.572400   85.291100
  S     -4.787180  -12.101100   88.085900
  C     -4.576410  -12.491900   89.772200
  C     -3.613870  -11.767500   90.422300
  C     -2.759210  -11.187000   89.414100
  C     -3.207470  -11.283600   88.051900
  H     -3.403210  -12.000000   91.439800
  C     -1.409630  -10.754500   89.699400
  H     -0.942010  -10.345400   88.809700
  H     -0.833392  -11.613900   90.098200
  C     -1.264570   -9.515220   90.748500
  H     -1.902110   -9.728000   91.571100
  H     -1.712490   -8.642720   90.308500
  C      0.147244   -9.156030   91.116100
  H      0.686960   -9.855240   91.767800
  H      0.099766   -8.193260   91.547300
  H      0.866745   -9.099990   90.299400
  H     -1.422140  -10.140200   83.498600
  H     -5.303820  -13.022900   90.273300

 Total Charge           Charge          ....    0
 Multiplicity           Mult            ....    1
 Number of Electrons    NEL             ....  134
 Basis Dimension        Dim             ....  322

ORBITAL ENERGIES
----------------

  NO   OCC          E(Eh)            E(eV)
   0   2.0000     -88.967218     -2420.9211
   1   2.0000     -88.959744     -2420.7177
   2   2.0000     -10.326476      -280.9977
   3   2.0000     -10.325298      -280.9656
   4   2.0000     -10.322898      -280.9003
   5   2.0000     -10.313623      -280.6480
   6   2.0000     -10.308354      -280.5046
   7   2.0000     -10.302292      -280.3396
   8   2.0000     -10.294654      -280.1318
   9   2.0000     -10.288739      -279.9708
  10   2.0000     -10.288044      -279.9519
  11   2.0000     -10.286319      -279.9050
  12   2.0000     -10.283045      -279.8159
  13   2.0000     -10.282945      -279.8132
  14   2.0000     -10.273051      -279.5439
  15   2.0000     -10.266183      -279.3570
  16   2.0000      -8.081227      -219.9014
  17   2.0000      -8.074795      -219.7263
  18   2.0000      -6.039763      -164.3503
  19   2.0000      -6.035944      -164.2464
  20   2.0000      -6.033216      -164.1722
  21   2.0000      -6.031893      -164.1362
  22   2.0000      -6.029285      -164.0652
  23   2.0000      -6.025589      -163.9646
  24   2.0000      -1.003855       -27.3163
  25   2.0000      -0.981884       -26.7184
  26   2.0000      -0.911173       -24.7943
  27   2.0000      -0.903986       -24.5987
  28   2.0000      -0.871016       -23.7015
  29   2.0000      -0.854363       -23.2484
  30   2.0000      -0.849210       -23.1082
  31   2.0000      -0.819564       -22.3015
  32   2.0000      -0.783510       -21.3204
  33   2.0000      -0.764635       -20.8068
  34   2.0000      -0.712608       -19.3910
  35   2.0000      -0.703514       -19.1436
  36   2.0000      -0.694903       -18.9093
  37   2.0000      -0.658081       -17.9073
  38   2.0000      -0.642636       -17.4870
  39   2.0000      -0.622005       -16.9256
  40   2.0000      -0.596587       -16.2340
  41   2.0000      -0.574270       -15.6267
  42   2.0000      -0.563074       -15.3220
  43   2.0000      -0.552550       -15.0357
  44   2.0000      -0.539529       -14.6813
  45   2.0000      -0.528029       -14.3684
  46   2.0000      -0.516908       -14.0658
  47   2.0000      -0.513212       -13.9652
  48   2.0000      -0.503387       -13.6978
  49   2.0000      -0.499023       -13.5791
  50   2.0000      -0.485001       -13.1975
  51   2.0000      -0.476123       -12.9560
  52   2.0000      -0.473916       -12.8959
  53   2.0000      -0.469594       -12.7783
  54   2.0000      -0.459377       -12.5003
  55   2.0000      -0.452869       -12.3232
  56   2.0000      -0.447092       -12.1660
  57   2.0000      -0.442216       -12.0333
  58   2.0000      -0.431897       -11.7525
  59   2.0000      -0.425398       -11.5757
  60   2.0000      -0.421825       -11.4784
  61   2.0000      -0.413165       -11.2428
  62   2.0000      -0.403442       -10.9782
  63   2.0000      -0.341487        -9.2923
  64   2.0000      -0.330153        -8.9839
  65   2.0000      -0.315603        -8.5880
  66   2.0000      -0.302418        -8.2292
  67   0.0000       0.043269         1.1774
  68   0.0000       0.048897         1.3306
  69   0.0000       0.108409         2.9500
  70   0.0000       0.117967         3.2100
  71   0.0000       0.125821         3.4238

MULLIKEN ATOMIC CHARGES
-----------------------
   0 S :    0.111442
   1 C :   -0.136206
   2 C :   -0.086487
   3 C :    0.034252
   4 C :   -0.163629
   5 H :    0.023855
   6 C :    0.106472
   7 H :    0.002381
   8 H :    0.032928
   9 C :   -0.073324
  10 H :    0.018028
  11 H :    0.018239
  12 C :   -0.010177
  13 H :    0.005330
  14 H :    0.042026
  15 H :    0.015919
  16 S :    0.092874
  17 C :   -0.069750
  18 C :   -0.001533
  19 C :   -0.035774
  20 C :   -0.160441
  21 H :    0.026783
  22 C :    0.018094
  23 H :    0.032441
  24 H :    0.040219
  25 C :   -0.075708
  26 H :    0.016594
  27 H :    0.024531
  28 C :   -0.018538
  29 H :    0.025856
  30 H :    0.028246
  31 H :    0.020133
  32 H :    0.064450
  33 H :    0.030475
Sum of atomic charges:   -0.0000000

LOEWDIN ATOMIC CHARGES
----------------------
   0 S :    0.383430
   1 C :   -0.192268
   2 C :   -0.063240
   3 C :   -0.057029
   4 C :   -0.196478
   5 H :    0.038214
   6 C :   -0.021866
   7 H :    0.023486
   8 H :    0.030842
   9 C :   -0.034739
  10 H :    0.023199
  11 H :    0.016664
  12 C :   -0.060262
  13 H :    0.012706
  14 H :    0.033501
  15 H :    0.024218
  16 S :    0.391160
  17 C :   -0.153558
  18 C :   -0.072873
  19 C :   -0.045363
  20 C :   -0.202192
  21 H :    0.033234
  22 C :   -0.038375
  23 H :    0.029447
  24 H :    0.033838
  25 C :   -0.031623
  26 H :    0.015093
  27 H :    0.024735
  28 C :   -0.066408
  29 H :    0.025096
  30 H :    0.025307
  31 H :    0.026242
  32 H :    0.036810
  33 H :    0.009051

  Mayer bond orders larger than 0.100000
B(  0-S ,  1-C ) :   1.1297 B(  0-S ,  4-C ) :   1.1273 B(  1-C ,  2-C ) :   1.6227
B(  1-C , 32-H ) :   0.9599 B(  2-C ,  3-C ) :   1.1995 B(  2-C ,  6-C ) :   1.0434
B(  3-C ,  4-C ) :   1.6290 B(  3-C ,  5-H ) :   0.9901 B(  4-C , 20-C ) :   1.0181
B(  6-C ,  7-H ) :   0.9419 B(  6-C ,  8-H ) :   0.9339 B(  6-C ,  9-C ) :   1.0593
B(  9-C , 10-H ) :   0.9592 B(  9-C , 11-H ) :   0.9594 B(  9-C , 12-C ) :   1.0783
B( 12-C , 13-H ) :   0.9729 B( 12-C , 14-H ) :   0.9768 B( 12-C , 15-H ) :   0.9698
B( 16-S , 17-C ) :   1.1852 B( 16-S , 20-C ) :   1.1159 B( 17-C , 18-C ) :   1.6246
B( 17-C , 33-H ) :   0.9670 B( 18-C , 19-C ) :   1.2072 B( 18-C , 21-H ) :   0.9894
B( 19-C , 20-C ) :   1.5937 B( 19-C , 22-C ) :   1.0838 B( 22-C , 23-H ) :   0.9349
B( 22-C , 24-H ) :   0.9354 B( 22-C , 25-C ) :   1.0429 B( 25-C , 26-H ) :   0.9607
B( 25-C , 27-H ) :   0.9572 B( 25-C , 28-C ) :   1.0861 B( 28-C , 29-H ) :   0.9732
B( 28-C , 30-H ) :   0.9727 B( 28-C , 31-H ) :   0.9704

Dispersion correction           -0.014251858
FINAL SINGLE POINT ENERGY     -1339.852621963025

DIPOLE MOMENT
-------------
                                X             Y             Z
Electronic contribution:    -27.73224      -1.30873      -6.26442
Nuclear contribution   :     28.40094       1.00748       6.53130
                        -----------------------------------------
Total Dipole Moment    :      0.66870      -0.30125       0.26688
                        -----------------------------------------
Magnitude (a.u.)       :      0.78048
Magnitude (Debye)      :      1.98381

Rotational constants in cm-1:     0.016144     0.009184     0.007144
Rotational constants in MHz :   483.980033   275.343609   214.157242

                             ****ORCA TERMINATED NORMALLY****
TOTAL RUN TIME: 0 days 0 hours 0 minutes 34 seconds 227 msec
