                         Program Version 4.2.1 -  RELEASE  -
|  1> ! wB97X-D3 SP def2-SVP
|  2> %pal
|  3> nprocs 16
|  4> end
|  5>
|  6> * xyz 0 1
|  7> S 	 -7.61109 	 35.1817 	 55.5177
|  8> C 	 -7.13383 	 34.0551 	 56.7648
|  9> C 	 -6.22553 	 33.1345 	 56.3231
| 10> C 	 -6.12802 	 33.0756 	 54.8851
| 11> C 	 -6.84793 	 34.1055 	 54.31
| 12> H 	 -5.48337 	 32.5166 	 54.2591
| 13> C 	 -5.43733 	 32.1949 	 57.2169
| 14> H 	 -5.89485 	 31.2391 	 57.1772
| 15> H 	 -5.47482 	 32.577 	 58.2354
| 16> C 	 -3.89335 	 32.086 	 56.9065
| 17> H 	 -3.34034 	 31.6927 	 57.758
| 18> H 	 -3.71728 	 31.4442 	 56.0516
| 19> C 	 -3.23278 	 33.4633 	 56.5873
| 20> H 	 -3.28932 	 34.2084 	 57.4055
| 21> H 	 -2.19565 	 33.2869 	 56.4232
| 22> H 	 -3.69305 	 33.9018 	 55.6782
| 23> S 	 -5.66649 	 35.4967 	 52.2684
| 24> C 	 -5.93257 	 35.0332 	 50.6535
| 25> C 	 -6.76123 	 33.9588 	 50.5629
| 26> C 	 -7.13917 	 33.482 	 51.8733
| 27> C 	 -6.76798 	 34.3516 	 52.8905
| 28> H 	 -6.95179 	 33.4753 	 49.6634
| 29> C 	 -7.88138 	 32.2201 	 52.0214
| 30> H 	 -7.9696 	 31.7599 	 52.9855
| 31> H 	 -7.28312 	 31.5686 	 51.3417
| 32> C 	 -9.28021 	 32.3003 	 51.3634
| 33> H 	 -8.9809 	 32.6457 	 50.3572
| 34> H 	 -9.93219 	 33.0854 	 51.7695
| 35> C 	 -9.92572 	 30.9578 	 51.3329
| 36> H 	 -10.208 	 30.6469 	 52.3625
| 37> H 	 -9.26601 	 30.2688 	 50.8019
| 38> H 	 -10.8431 	 30.9707 	 50.7051
| 39> H 	 -7.26705 	 34.2976 	 57.8212
| 40> H 	 -5.36535 	 35.4343 	 49.8231
| 41> *
| 42>
| 43>                          ****END OF INPUT****

CARTESIAN COORDINATES (ANGSTROEM)
---------------------------------
  S     -7.611090   35.181700   55.517700
  C     -7.133830   34.055100   56.764800
  C     -6.225530   33.134500   56.323100
  C     -6.128020   33.075600   54.885100
  C     -6.847930   34.105500   54.310000
  H     -5.483370   32.516600   54.259100
  C     -5.437330   32.194900   57.216900
  H     -5.894850   31.239100   57.177200
  H     -5.474820   32.577000   58.235400
  C     -3.893350   32.086000   56.906500
  H     -3.340340   31.692700   57.758000
  H     -3.717280   31.444200   56.051600
  C     -3.232780   33.463300   56.587300
  H     -3.289320   34.208400   57.405500
  H     -2.195650   33.286900   56.423200
  H     -3.693050   33.901800   55.678200
  S     -5.666490   35.496700   52.268400
  C     -5.932570   35.033200   50.653500
  C     -6.761230   33.958800   50.562900
  C     -7.139170   33.482000   51.873300
  C     -6.767980   34.351600   52.890500
  H     -6.951790   33.475300   49.663400
  C     -7.881380   32.220100   52.021400
  H     -7.969600   31.759900   52.985500
  H     -7.283120   31.568600   51.341700
  C     -9.280210   32.300300   51.363400
  H     -8.980900   32.645700   50.357200
  H     -9.932190   33.085400   51.769500
  C     -9.925720   30.957800   51.332900
  H    -10.208000   30.646900   52.362500
  H     -9.266010   30.268800   50.801900
  H    -10.843100   30.970700   50.705100
  H     -7.267050   34.297600   57.821200
  H     -5.365350   35.434300   49.823100

 Total Charge           Charge          ....    0
 Multiplicity           Mult            ....    1
 Number of Electrons    NEL             ....  134
 Basis Dimension        Dim             ....  322

ORBITAL ENERGIES
----------------

  NO   OCC          E(Eh)            E(eV)
   0   2.0000     -88.966118     -2420.8911
   1   2.0000     -88.960562     -2420.7400
   2   2.0000     -10.327744      -281.0322
   3   2.0000     -10.314893      -280.6825
   4   2.0000     -10.312282      -280.6115
   5   2.0000     -10.311177      -280.5814
   6   2.0000     -10.301096      -280.3071
   7   2.0000     -10.299009      -280.2503
   8   2.0000     -10.292806      -280.0815
   9   2.0000     -10.289991      -280.0049
  10   2.0000     -10.289869      -280.0016
  11   2.0000     -10.287668      -279.9417
  12   2.0000     -10.285234      -279.8754
  13   2.0000     -10.281726      -279.7800
  14   2.0000     -10.278549      -279.6936
  15   2.0000     -10.274943      -279.5954
  16   2.0000      -8.080381      -219.8784
  17   2.0000      -8.077260      -219.7934
  18   2.0000      -6.038950      -164.3282
  19   2.0000      -6.035681      -164.2392
  20   2.0000      -6.035176      -164.2255
  21   2.0000      -6.031458      -164.1243
  22   2.0000      -6.030893      -164.1089
  23   2.0000      -6.028034      -164.0312
  24   2.0000      -1.013364       -27.5750
  25   2.0000      -0.986491       -26.8438
  26   2.0000      -0.917405       -24.9639
  27   2.0000      -0.904500       -24.6127
  28   2.0000      -0.874835       -23.8055
  29   2.0000      -0.853443       -23.2234
  30   2.0000      -0.842740       -22.9321
  31   2.0000      -0.817073       -22.2337
  32   2.0000      -0.781225       -21.2582
  33   2.0000      -0.767762       -20.8919
  34   2.0000      -0.703966       -19.1559
  35   2.0000      -0.693762       -18.8782
  36   2.0000      -0.692004       -18.8304
  37   2.0000      -0.663116       -18.0443
  38   2.0000      -0.643711       -17.5163
  39   2.0000      -0.619396       -16.8546
  40   2.0000      -0.603752       -16.4289
  41   2.0000      -0.570413       -15.5217
  42   2.0000      -0.560912       -15.2632
  43   2.0000      -0.556929       -15.1548
  44   2.0000      -0.541156       -14.7256
  45   2.0000      -0.522562       -14.2196
  46   2.0000      -0.517995       -14.0954
  47   2.0000      -0.515522       -14.0281
  48   2.0000      -0.505339       -13.7510
  49   2.0000      -0.496791       -13.5184
  50   2.0000      -0.487160       -13.2563
  51   2.0000      -0.475729       -12.9452
  52   2.0000      -0.468783       -12.7562
  53   2.0000      -0.462936       -12.5971
  54   2.0000      -0.461008       -12.5447
  55   2.0000      -0.454753       -12.3745
  56   2.0000      -0.447159       -12.1678
  57   2.0000      -0.436795       -11.8858
  58   2.0000      -0.431226       -11.7343
  59   2.0000      -0.424811       -11.5597
  60   2.0000      -0.422324       -11.4920
  61   2.0000      -0.416137       -11.3237
  62   2.0000      -0.407955       -11.1010
  63   2.0000      -0.343513        -9.3475
  64   2.0000      -0.327557        -8.9133
  65   2.0000      -0.321002        -8.7349
  66   2.0000      -0.300270        -8.1708
  67   0.0000       0.041396         1.1265
  68   0.0000       0.064908         1.7662
  69   0.0000       0.110689         3.0120
  70   0.0000       0.113955         3.1009
  71   0.0000       0.133507         3.6329

MULLIKEN ATOMIC CHARGES
-----------------------
   0 S :    0.107130
   1 C :   -0.113519
   2 C :   -0.116121
   3 C :    0.053369
   4 C :   -0.179868
   5 H :    0.011963
   6 C :    0.116064
   7 H :    0.038893
   8 H :    0.012723
   9 C :   -0.109534
  10 H :    0.036631
  11 H :    0.032013
  12 C :   -0.063254
  13 H :    0.033308
  14 H :    0.028014
  15 H :    0.045357
  16 S :    0.110827
  17 C :   -0.079912
  18 C :   -0.011844
  19 C :   -0.057173
  20 C :   -0.137505
  21 H :   -0.001443
  22 C :    0.056281
  23 H :    0.023227
  24 H :    0.024429
  25 C :   -0.097743
  26 H :    0.011370
  27 H :    0.040591
  28 C :   -0.022093
  29 H :    0.042213
  30 H :    0.022736
  31 H :    0.034092
  32 H :    0.051168
  33 H :    0.057610
Sum of atomic charges:   -0.0000000

LOEWDIN ATOMIC CHARGES
----------------------
   0 S :    0.386419
   1 C :   -0.200167
   2 C :   -0.060651
   3 C :   -0.049098
   4 C :   -0.179575
   5 H :    0.028391
   6 C :   -0.026879
   7 H :    0.028941
   8 H :    0.028438
   9 C :   -0.038361
  10 H :    0.026450
  11 H :    0.019759
  12 C :   -0.067401
  13 H :    0.025792
  14 H :    0.020806
  15 H :    0.028910
  16 S :    0.438208
  17 C :   -0.191780
  18 C :   -0.069745
  19 C :   -0.049125
  20 C :   -0.228505
  21 H :    0.019971
  22 C :   -0.032680
  23 H :    0.023436
  24 H :    0.036959
  25 C :   -0.041787
  26 H :    0.020373
  27 H :    0.026344
  28 C :   -0.067875
  29 H :    0.030212
  30 H :    0.024610
  31 H :    0.029535
  32 H :    0.028916
  33 H :    0.031161

  Mayer bond orders larger than 0.100000
B(  0-S ,  1-C ) :   1.1220 B(  0-S ,  4-C ) :   1.1384 B(  1-C ,  2-C ) :   1.6605
B(  1-C , 32-H ) :   0.9600 B(  2-C ,  3-C ) :   1.1895 B(  2-C ,  6-C ) :   1.0244
B(  3-C ,  4-C ) :   1.6025 B(  3-C ,  5-H ) :   0.9986 B(  4-C , 20-C ) :   1.0334
B(  6-C ,  7-H ) :   0.9432 B(  6-C ,  8-H ) :   0.9384 B(  6-C ,  9-C ) :   1.0621
B(  9-C , 10-H ) :   0.9628 B(  9-C , 11-H ) :   0.9547 B(  9-C , 12-C ) :   1.0823
B( 12-C , 13-H ) :   0.9773 B( 12-C , 14-H ) :   0.9742 B( 12-C , 15-H ) :   0.9681
B( 16-S , 17-C ) :   1.1804 B( 16-S , 20-C ) :   1.1442 B( 17-C , 18-C ) :   1.5928
B( 17-C , 33-H ) :   0.9662 B( 18-C , 19-C ) :   1.2391 B( 18-C , 21-H ) :   0.9979
B( 19-C , 20-C ) :   1.5841 B( 19-C , 22-C ) :   1.0559 B( 22-C , 23-H ) :   0.9424
B( 22-C , 24-H ) :   0.9270 B( 22-C , 25-C ) :   1.0534 B( 25-C , 26-H ) :   0.9535
B( 25-C , 27-H ) :   0.9552 B( 25-C , 28-C ) :   1.0942 B( 28-C , 29-H ) :   0.9706
B( 28-C , 30-H ) :   0.9698 B( 28-C , 31-H ) :   0.9700

Dispersion correction           -0.014739874
FINAL SINGLE POINT ENERGY     -1339.878768836043

DIPOLE MOMENT
-------------
                                X             Y             Z
Electronic contribution:     -1.43075      19.38887      -1.22910
Nuclear contribution   :      1.75154     -19.98439       1.12858
                        -----------------------------------------
Total Dipole Moment    :      0.32080      -0.59552      -0.10052
                        -----------------------------------------
Magnitude (a.u.)       :      0.68386
Magnitude (Debye)      :      1.73823

Rotational constants in cm-1:     0.018148     0.008774     0.007690
Rotational constants in MHz :   544.057338   263.039660   230.549993

                             ****ORCA TERMINATED NORMALLY****
TOTAL RUN TIME: 0 days 0 hours 0 minutes 35 seconds 677 msec
