                         Program Version 4.2.1 -  RELEASE  -
|  1> ! wB97X-D3 SP def2-SVP
|  2> %pal
|  3> nprocs 16
|  4> end
|  5>
|  6> * xyz 0 1
|  7> S 	 -54.4132 	 43.6662 	 113.997
|  8> C 	 -54.1037 	 44.4337 	 112.483
|  9> C 	 -54.3547 	 43.5365 	 111.516
| 10> C 	 -55.0204 	 42.3416 	 111.952
| 11> C 	 -55.1689 	 42.2563 	 113.288
| 12> H 	 -55.422 	 41.5925 	 111.262
| 13> C 	 -54.1649 	 43.74 	 110.051
| 14> H 	 -53.8907 	 44.8263 	 110.006
| 15> H 	 -55.1544 	 43.6085 	 109.552
| 16> C 	 -53.0984 	 42.8784 	 109.482
| 17> H 	 -52.2719 	 43.2601 	 109.979
| 18> H 	 -53.2957 	 41.8532 	 109.865
| 19> C 	 -52.7491 	 42.9238 	 107.941
| 20> H 	 -52.621 	 43.9176 	 107.613
| 21> H 	 -51.8291 	 42.2883 	 107.755
| 22> H 	 -53.6192 	 42.4543 	 107.502
| 23> S 	 -55.1379 	 41.0132 	 115.701
| 24> C 	 -56.2145 	 39.651 	 115.977
| 25> C 	 -57.0186 	 39.5094 	 114.851
| 26> C 	 -56.7534 	 40.4046 	 113.78
| 27> C 	 -55.7349 	 41.2116 	 114.073
| 28> H 	 -57.8045 	 38.7786 	 114.88
| 29> C 	 -57.5724 	 40.2426 	 112.478
| 30> H 	 -58.0409 	 39.2835 	 112.615
| 31> H 	 -56.905 	 40.174 	 111.633
| 32> C 	 -58.6577 	 41.2709 	 112.283
| 33> H 	 -58.1847 	 42.2492 	 112.024
| 34> H 	 -59.2852 	 41.3388 	 113.206
| 35> C 	 -59.618 	 40.8031 	 111.093
| 36> H 	 -59.1471 	 40.8488 	 110.134
| 37> H 	 -60.5061 	 41.4628 	 110.994
| 38> H 	 -59.9106 	 39.7229 	 111.167
| 39> H 	 -53.6935 	 45.408 	 112.311
| 40> H 	 -56.2701 	 38.9432 	 116.864
| 41> *
| 42>
| 43>                          ****END OF INPUT****

CARTESIAN COORDINATES (ANGSTROEM)
---------------------------------
  S    -54.413200   43.666200  113.997000
  C    -54.103700   44.433700  112.483000
  C    -54.354700   43.536500  111.516000
  C    -55.020400   42.341600  111.952000
  C    -55.168900   42.256300  113.288000
  H    -55.422000   41.592500  111.262000
  C    -54.164900   43.740000  110.051000
  H    -53.890700   44.826300  110.006000
  H    -55.154400   43.608500  109.552000
  C    -53.098400   42.878400  109.482000
  H    -52.271900   43.260100  109.979000
  H    -53.295700   41.853200  109.865000
  C    -52.749100   42.923800  107.941000
  H    -52.621000   43.917600  107.613000
  H    -51.829100   42.288300  107.755000
  H    -53.619200   42.454300  107.502000
  S    -55.137900   41.013200  115.701000
  C    -56.214500   39.651000  115.977000
  C    -57.018600   39.509400  114.851000
  C    -56.753400   40.404600  113.780000
  C    -55.734900   41.211600  114.073000
  H    -57.804500   38.778600  114.880000
  C    -57.572400   40.242600  112.478000
  H    -58.040900   39.283500  112.615000
  H    -56.905000   40.174000  111.633000
  C    -58.657700   41.270900  112.283000
  H    -58.184700   42.249200  112.024000
  H    -59.285200   41.338800  113.206000
  C    -59.618000   40.803100  111.093000
  H    -59.147100   40.848800  110.134000
  H    -60.506100   41.462800  110.994000
  H    -59.910600   39.722900  111.167000
  H    -53.693500   45.408000  112.311000
  H    -56.270100   38.943200  116.864000

 Total Charge           Charge          ....    0
 Multiplicity           Mult            ....    1
 Number of Electrons    NEL             ....  134
 Basis Dimension        Dim             ....  322

ORBITAL ENERGIES
----------------

  NO   OCC          E(Eh)            E(eV)
   0   2.0000     -88.966796     -2420.9096
   1   2.0000     -88.959878     -2420.7213
   2   2.0000     -10.325533      -280.9720
   3   2.0000     -10.324656      -280.9482
   4   2.0000     -10.321700      -280.8677
   5   2.0000     -10.309095      -280.5247
   6   2.0000     -10.298012      -280.2232
   7   2.0000     -10.296312      -280.1769
   8   2.0000     -10.293800      -280.1085
   9   2.0000     -10.292924      -280.0847
  10   2.0000     -10.292672      -280.0778
  11   2.0000     -10.289387      -279.9885
  12   2.0000     -10.288948      -279.9765
  13   2.0000     -10.285308      -279.8775
  14   2.0000     -10.283022      -279.8153
  15   2.0000     -10.279538      -279.7205
  16   2.0000      -8.081613      -219.9119
  17   2.0000      -8.075575      -219.7476
  18   2.0000      -6.040256      -164.3637
  19   2.0000      -6.036140      -164.2517
  20   2.0000      -6.034271      -164.2009
  21   2.0000      -6.032180      -164.1440
  22   2.0000      -6.029974      -164.0839
  23   2.0000      -6.026023      -163.9764
  24   2.0000      -1.018840       -27.7240
  25   2.0000      -0.993622       -27.0378
  26   2.0000      -0.918649       -24.9977
  27   2.0000      -0.910128       -24.7658
  28   2.0000      -0.877888       -23.8886
  29   2.0000      -0.851461       -23.1694
  30   2.0000      -0.841764       -22.9056
  31   2.0000      -0.819120       -22.2894
  32   2.0000      -0.782569       -21.2948
  33   2.0000      -0.776513       -21.1300
  34   2.0000      -0.713099       -19.4044
  35   2.0000      -0.698310       -19.0020
  36   2.0000      -0.694492       -18.8981
  37   2.0000      -0.669010       -18.2047
  38   2.0000      -0.639940       -17.4137
  39   2.0000      -0.626605       -17.0508
  40   2.0000      -0.593938       -16.1619
  41   2.0000      -0.573165       -15.5966
  42   2.0000      -0.567978       -15.4555
  43   2.0000      -0.559674       -15.2295
  44   2.0000      -0.528363       -14.3775
  45   2.0000      -0.523040       -14.2326
  46   2.0000      -0.518780       -14.1167
  47   2.0000      -0.515456       -14.0263
  48   2.0000      -0.508242       -13.8300
  49   2.0000      -0.506018       -13.7694
  50   2.0000      -0.497201       -13.5295
  51   2.0000      -0.486249       -13.2315
  52   2.0000      -0.474700       -12.9172
  53   2.0000      -0.466006       -12.6807
  54   2.0000      -0.464313       -12.6346
  55   2.0000      -0.448284       -12.1984
  56   2.0000      -0.443494       -12.0681
  57   2.0000      -0.441395       -12.0110
  58   2.0000      -0.430258       -11.7079
  59   2.0000      -0.425713       -11.5842
  60   2.0000      -0.416514       -11.3339
  61   2.0000      -0.413905       -11.2629
  62   2.0000      -0.405331       -11.0296
  63   2.0000      -0.366877        -9.9832
  64   2.0000      -0.335963        -9.1420
  65   2.0000      -0.325436        -8.8556
  66   2.0000      -0.290140        -7.8951
  67   0.0000       0.027240         0.7412
  68   0.0000       0.080563         2.1922
  69   0.0000       0.105610         2.8738
  70   0.0000       0.118261         3.2181
  71   0.0000       0.139903         3.8069

MULLIKEN ATOMIC CHARGES
-----------------------
   0 S :    0.087345
   1 C :   -0.105468
   2 C :   -0.099945
   3 C :   -0.021099
   4 C :   -0.092528
   5 H :    0.005684
   6 C :    0.059404
   7 H :    0.008347
   8 H :    0.030341
   9 C :   -0.087150
  10 H :    0.006944
  11 H :    0.030659
  12 C :   -0.014821
  13 H :    0.029081
  14 H :    0.052150
  15 H :    0.030397
  16 S :    0.106467
  17 C :   -0.112469
  18 C :   -0.039223
  19 C :   -0.047066
  20 C :   -0.123961
  21 H :    0.008989
  22 C :    0.079780
  23 H :    0.004607
  24 H :    0.029239
  25 C :   -0.075370
  26 H :    0.050673
  27 H :    0.043901
  28 C :   -0.066301
  29 H :    0.020103
  30 H :    0.045427
  31 H :    0.032992
  32 H :    0.040055
  33 H :    0.082814
Sum of atomic charges:    0.0000000

LOEWDIN ATOMIC CHARGES
----------------------
   0 S :    0.398971
   1 C :   -0.197886
   2 C :   -0.066787
   3 C :   -0.073577
   4 C :   -0.178305
   5 H :    0.030098
   6 C :   -0.037102
   7 H :    0.028228
   8 H :    0.027626
   9 C :   -0.045041
  10 H :    0.015779
  11 H :    0.026041
  12 C :   -0.056616
  13 H :    0.018504
  14 H :    0.038406
  15 H :    0.023757
  16 S :    0.402196
  17 C :   -0.196329
  18 C :   -0.069059
  19 C :   -0.059681
  20 C :   -0.191355
  21 H :    0.025330
  22 C :   -0.023799
  23 H :    0.027268
  24 H :    0.024469
  25 C :   -0.036921
  26 H :    0.031339
  27 H :    0.031567
  28 C :   -0.073991
  29 H :    0.018407
  30 H :    0.029909
  31 H :    0.027937
  32 H :    0.030990
  33 H :    0.049629

  Mayer bond orders larger than 0.100000
B(  0-S ,  1-C ) :   1.1152 B(  0-S ,  4-C ) :   1.1305 B(  1-C ,  2-C ) :   1.6404
B(  1-C , 32-H ) :   0.9715 B(  2-C ,  3-C ) :   1.2150 B(  2-C ,  6-C ) :   1.0326
B(  3-C ,  4-C ) :   1.5883 B(  3-C ,  5-H ) :   0.9914 B(  4-C , 20-C ) :   1.0798
B(  6-C ,  7-H ) :   0.9355 B(  6-C ,  8-H ) :   0.9382 B(  6-C ,  9-C ) :   1.0534
B(  9-C , 10-H ) :   0.9479 B(  9-C , 11-H ) :   0.9603 B(  9-C , 12-C ) :   1.0718
B( 12-C , 13-H ) :   0.9751 B( 12-C , 14-H ) :   0.9757 B( 12-C , 15-H ) :   0.9779
B( 16-S , 17-C ) :   1.1390 B( 16-S , 20-C ) :   1.1215 B( 17-C , 18-C ) :   1.6224
B( 17-C , 33-H ) :   0.9600 B( 18-C , 19-C ) :   1.2397 B( 18-C , 21-H ) :   0.9860
B( 19-C , 20-C ) :   1.6362 B( 19-C , 22-C ) :   1.0185 B( 22-C , 23-H ) :   0.9278
B( 22-C , 24-H ) :   0.9367 B( 22-C , 25-C ) :   1.0706 B( 25-C , 26-H ) :   0.9537
B( 25-C , 27-H ) :   0.9552 B( 25-C , 28-C ) :   1.0688 B( 28-C , 29-H ) :   0.9754
B( 28-C , 30-H ) :   0.9774 B( 28-C , 31-H ) :   0.9753

Dispersion correction           -0.013897358
FINAL SINGLE POINT ENERGY     -1339.873513108333

DIPOLE MOMENT
-------------
                                X             Y             Z
Electronic contribution:      7.96076       2.44900      28.96646
Nuclear contribution   :     -8.26162      -2.69868     -29.54583
                        -----------------------------------------
Total Dipole Moment    :     -0.30086      -0.24968      -0.57937
                        -----------------------------------------
Magnitude (a.u.)       :      0.69895
Magnitude (Debye)      :      1.77658

Rotational constants in cm-1:     0.017179     0.008976     0.006789
Rotational constants in MHz :   515.002602   269.084487   203.519650

                             ****ORCA TERMINATED NORMALLY****
TOTAL RUN TIME: 0 days 0 hours 0 minutes 30 seconds 145 msec
