                         Program Version 4.2.1 -  RELEASE  -
|  1> ! wB97X-D3 SP def2-SVP
|  2> %pal
|  3> nprocs 16
|  4> end
|  5>
|  6> * xyz 0 1
|  7> S 	 -15.9241 	 32.8514 	 35.6559
|  8> C 	 -17.5349 	 32.1752 	 36.1168
|  9> C 	 -18.5677 	 33.1025 	 35.9555
| 10> C 	 -18.0082 	 34.3908 	 35.7182
| 11> C 	 -16.6503 	 34.4106 	 35.5605
| 12> H 	 -18.4671 	 35.2799 	 35.5651
| 13> C 	 -20.0161 	 32.8152 	 35.9651
| 14> H 	 -20.2668 	 32.0774 	 36.6755
| 15> H 	 -20.0227 	 32.3188 	 35.0454
| 16> C 	 -21.0326 	 33.9362 	 35.9867
| 17> H 	 -20.7358 	 34.7592 	 35.332
| 18> H 	 -21.9528 	 33.5502 	 35.6292
| 19> C 	 -21.0933 	 34.5336 	 37.3891
| 20> H 	 -20.2603 	 35.2134 	 37.6515
| 21> H 	 -21.999 	 35.2304 	 37.4403
| 22> H 	 -21.2715 	 33.7905 	 38.1447
| 23> S 	 -15.7753 	 36.2417 	 33.7794
| 24> C 	 -14.4984 	 37.3336 	 34.2641
| 25> C 	 -14.1716 	 37.1795 	 35.5805
| 26> C 	 -14.9912 	 36.1628 	 36.2259
| 27> C 	 -15.7989 	 35.5004 	 35.3216
| 28> H 	 -13.5377 	 37.8659 	 36.08
| 29> C 	 -14.9053 	 35.7924 	 37.6985
| 30> H 	 -13.9941 	 36.2136 	 38.1728
| 31> H 	 -14.8168 	 34.7731 	 37.7869
| 32> C 	 -16.1961 	 36.2274 	 38.4412
| 33> H 	 -16.3439 	 35.5242 	 39.2557
| 34> H 	 -17.0335 	 36.1064 	 37.747
| 35> C 	 -16.2325 	 37.652 	 38.9397
| 36> H 	 -17.2835 	 37.9665 	 39.1179
| 37> H 	 -15.878 	 38.3478 	 38.2289
| 38> H 	 -15.7637 	 37.6875 	 39.8758
| 39> H 	 -17.8384 	 31.1349 	 36.4291
| 40> H 	 -14.131 	 38.1508 	 33.6995
| 41> *
| 42>
| 43>                          ****END OF INPUT****

CARTESIAN COORDINATES (ANGSTROEM)
---------------------------------
  S    -15.924100   32.851400   35.655900
  C    -17.534900   32.175200   36.116800
  C    -18.567700   33.102500   35.955500
  C    -18.008200   34.390800   35.718200
  C    -16.650300   34.410600   35.560500
  H    -18.467100   35.279900   35.565100
  C    -20.016100   32.815200   35.965100
  H    -20.266800   32.077400   36.675500
  H    -20.022700   32.318800   35.045400
  C    -21.032600   33.936200   35.986700
  H    -20.735800   34.759200   35.332000
  H    -21.952800   33.550200   35.629200
  C    -21.093300   34.533600   37.389100
  H    -20.260300   35.213400   37.651500
  H    -21.999000   35.230400   37.440300
  H    -21.271500   33.790500   38.144700
  S    -15.775300   36.241700   33.779400
  C    -14.498400   37.333600   34.264100
  C    -14.171600   37.179500   35.580500
  C    -14.991200   36.162800   36.225900
  C    -15.798900   35.500400   35.321600
  H    -13.537700   37.865900   36.080000
  C    -14.905300   35.792400   37.698500
  H    -13.994100   36.213600   38.172800
  H    -14.816800   34.773100   37.786900
  C    -16.196100   36.227400   38.441200
  H    -16.343900   35.524200   39.255700
  H    -17.033500   36.106400   37.747000
  C    -16.232500   37.652000   38.939700
  H    -17.283500   37.966500   39.117900
  H    -15.878000   38.347800   38.228900
  H    -15.763700   37.687500   39.875800
  H    -17.838400   31.134900   36.429100
  H    -14.131000   38.150800   33.699500

 Total Charge           Charge          ....    0
 Multiplicity           Mult            ....    1
 Number of Electrons    NEL             ....  134
 Basis Dimension        Dim             ....  322

ORBITAL ENERGIES
----------------

  NO   OCC          E(Eh)            E(eV)
   0   2.0000     -88.967619     -2420.9320
   1   2.0000     -88.963516     -2420.8203
   2   2.0000     -10.317289      -280.7477
   3   2.0000     -10.316169      -280.7172
   4   2.0000     -10.312821      -280.6261
   5   2.0000     -10.311789      -280.5980
   6   2.0000     -10.302149      -280.3357
   7   2.0000     -10.300355      -280.2869
   8   2.0000     -10.290613      -280.0218
   9   2.0000     -10.287720      -279.9431
  10   2.0000     -10.283128      -279.8181
  11   2.0000     -10.283073      -279.8166
  12   2.0000     -10.282088      -279.7898
  13   2.0000     -10.281535      -279.7748
  14   2.0000     -10.276270      -279.6315
  15   2.0000     -10.264966      -279.3239
  16   2.0000      -8.081479      -219.9082
  17   2.0000      -8.079058      -219.8424
  18   2.0000      -6.040095      -164.3593
  19   2.0000      -6.037473      -164.2880
  20   2.0000      -6.036174      -164.2526
  21   2.0000      -6.033498      -164.1798
  22   2.0000      -6.032103      -164.1419
  23   2.0000      -6.029823      -164.0798
  24   2.0000      -1.012452       -27.5502
  25   2.0000      -0.983239       -26.7553
  26   2.0000      -0.925126       -25.1740
  27   2.0000      -0.906148       -24.6576
  28   2.0000      -0.874814       -23.8049
  29   2.0000      -0.849782       -23.1238
  30   2.0000      -0.844320       -22.9751
  31   2.0000      -0.820647       -22.3310
  32   2.0000      -0.789292       -21.4777
  33   2.0000      -0.772114       -21.0103
  34   2.0000      -0.716755       -19.5039
  35   2.0000      -0.697628       -18.9834
  36   2.0000      -0.684988       -18.6395
  37   2.0000      -0.665244       -18.1022
  38   2.0000      -0.643060       -17.4986
  39   2.0000      -0.626343       -17.0437
  40   2.0000      -0.597098       -16.2479
  41   2.0000      -0.574140       -15.6232
  42   2.0000      -0.561552       -15.2806
  43   2.0000      -0.551860       -15.0169
  44   2.0000      -0.545506       -14.8440
  45   2.0000      -0.542220       -14.7546
  46   2.0000      -0.518909       -14.1202
  47   2.0000      -0.513647       -13.9771
  48   2.0000      -0.499323       -13.5873
  49   2.0000      -0.494549       -13.4574
  50   2.0000      -0.487471       -13.2647
  51   2.0000      -0.481007       -13.0889
  52   2.0000      -0.474210       -12.9039
  53   2.0000      -0.471716       -12.8360
  54   2.0000      -0.458349       -12.4723
  55   2.0000      -0.448485       -12.2039
  56   2.0000      -0.442713       -12.0468
  57   2.0000      -0.436132       -11.8678
  58   2.0000      -0.431820       -11.7504
  59   2.0000      -0.429514       -11.6877
  60   2.0000      -0.423059       -11.5120
  61   2.0000      -0.415681       -11.3112
  62   2.0000      -0.413777       -11.2594
  63   2.0000      -0.334534        -9.1031
  64   2.0000      -0.330467        -8.9925
  65   2.0000      -0.316656        -8.6166
  66   2.0000      -0.303214        -8.2509
  67   0.0000       0.039918         1.0862
  68   0.0000       0.062039         1.6882
  69   0.0000       0.107155         2.9158
  70   0.0000       0.121428         3.3042
  71   0.0000       0.129172         3.5149

MULLIKEN ATOMIC CHARGES
-----------------------
   0 S :    0.128842
   1 C :   -0.153005
   2 C :   -0.084373
   3 C :    0.088902
   4 C :   -0.197400
   5 H :   -0.045026
   6 C :    0.088498
   7 H :    0.013640
   8 H :    0.030999
   9 C :   -0.020093
  10 H :    0.028830
  11 H :    0.023234
  12 C :   -0.082758
  13 H :    0.049547
  14 H :    0.033078
  15 H :    0.030285
  16 S :    0.122918
  17 C :   -0.076029
  18 C :   -0.013047
  19 C :   -0.058161
  20 C :   -0.186843
  21 H :    0.007060
  22 C :    0.139737
  23 H :    0.017782
  24 H :   -0.000163
  25 C :   -0.094530
  26 H :    0.023269
  27 H :    0.028961
  28 C :   -0.003346
  29 H :    0.022956
  30 H :    0.020567
  31 H :    0.021108
  32 H :    0.050940
  33 H :    0.043619
Sum of atomic charges:    0.0000000

LOEWDIN ATOMIC CHARGES
----------------------
   0 S :    0.408948
   1 C :   -0.207529
   2 C :   -0.046822
   3 C :   -0.055156
   4 C :   -0.198210
   5 H :    0.010022
   6 C :   -0.033689
   7 H :    0.027633
   8 H :    0.038342
   9 C :   -0.033824
  10 H :    0.027706
  11 H :    0.024307
  12 C :   -0.069089
  13 H :    0.030656
  14 H :    0.031848
  15 H :    0.019971
  16 S :    0.422972
  17 C :   -0.180831
  18 C :   -0.066744
  19 C :   -0.044934
  20 C :   -0.231437
  21 H :    0.025599
  22 C :   -0.024626
  23 H :    0.030944
  24 H :    0.015932
  25 C :   -0.035917
  26 H :    0.022749
  27 H :    0.023805
  28 C :   -0.059208
  29 H :    0.030423
  30 H :    0.018941
  31 H :    0.017646
  32 H :    0.035961
  33 H :    0.023612

  Mayer bond orders larger than 0.100000
B(  0-S ,  1-C ) :   1.1187 B(  0-S ,  4-C ) :   1.1522 B(  1-C ,  2-C ) :   1.6332
B(  1-C ,  4-C ) :   0.1035 B(  1-C , 32-H ) :   0.9617 B(  2-C ,  3-C ) :   1.2117
B(  2-C ,  6-C ) :   0.9889 B(  3-C ,  4-C ) :   1.6024 B(  3-C ,  5-H ) :   1.0022
B(  4-C , 20-C ) :   1.0238 B(  6-C ,  7-H ) :   0.9318 B(  6-C ,  8-H ) :   0.9178
B(  6-C ,  9-C ) :   1.1016 B(  9-C , 10-H ) :   0.9452 B(  9-C , 11-H ) :   0.9483
B(  9-C , 12-C ) :   1.0769 B( 12-C , 13-H ) :   0.9756 B( 12-C , 14-H ) :   0.9735
B( 12-C , 15-H ) :   0.9765 B( 16-S , 17-C ) :   1.1516 B( 16-S , 20-C ) :   1.1456
B( 17-C , 18-C ) :   1.6182 B( 17-C , 33-H ) :   0.9692 B( 18-C , 19-C ) :   1.2395
B( 18-C , 21-H ) :   0.9921 B( 19-C , 20-C ) :   1.5918 B( 19-C , 22-C ) :   1.0534
B( 22-C , 23-H ) :   0.9381 B( 22-C , 24-H ) :   0.9164 B( 22-C , 25-C ) :   1.0585
B( 25-C , 26-H ) :   0.9562 B( 25-C , 27-H ) :   0.9618 B( 25-C , 28-C ) :   1.0836
B( 28-C , 29-H ) :   0.9716 B( 28-C , 30-H ) :   0.9738 B( 28-C , 31-H ) :   0.9757

Dispersion correction           -0.015623506
FINAL SINGLE POINT ENERGY     -1339.861784279288

DIPOLE MOMENT
-------------
                                X             Y             Z
Electronic contribution:     16.73122      -6.06398     -18.44127
Nuclear contribution   :    -17.22936       6.21610      18.73411
                        -----------------------------------------
Total Dipole Moment    :     -0.49814       0.15212       0.29284
                        -----------------------------------------
Magnitude (a.u.)       :      0.59753
Magnitude (Debye)      :      1.51879

Rotational constants in cm-1:     0.018511     0.009495     0.008323
Rotational constants in MHz :   554.958815   284.655896   249.515748

                             ****ORCA TERMINATED NORMALLY****
TOTAL RUN TIME: 0 days 0 hours 0 minutes 36 seconds 545 msec
