                         Program Version 4.2.1 -  RELEASE  -
|  1> ! wB97X-D3 SP def2-SVP
|  2> %pal
|  3> nprocs 16
|  4> end
|  5>
|  6> * xyz 0 1
|  7> S 	 -116.299 	 56.252 	 109.693
|  8> C 	 -115.301 	 54.8902 	 109.32
|  9> C 	 -114.662 	 54.4093 	 110.501
| 10> C 	 -114.841 	 55.3144 	 111.578
| 11> C 	 -115.598 	 56.4167 	 111.266
| 12> H 	 -114.522 	 55.3153 	 112.604
| 13> C 	 -113.644 	 53.284 	 110.771
| 14> H 	 -114.226 	 52.3843 	 110.742
| 15> H 	 -113.373 	 53.2009 	 111.779
| 16> C 	 -112.471 	 53.0617 	 109.774
| 17> H 	 -112.069 	 52.017 	 109.893
| 18> H 	 -112.996 	 53.0071 	 108.829
| 19> C 	 -111.239 	 53.9179 	 109.853
| 20> H 	 -110.752 	 53.757 	 110.794
| 21> H 	 -110.508 	 53.7175 	 109.089
| 22> H 	 -111.583 	 54.8991 	 109.797
| 23> S 	 -115.521 	 59.1507 	 111.474
| 24> C 	 -116.12 	 59.9202 	 112.962
| 25> C 	 -116.532 	 58.9609 	 113.846
| 26> C 	 -116.494 	 57.6199 	 113.337
| 27> C 	 -115.855 	 57.5672 	 112.095
| 28> H 	 -116.839 	 59.2286 	 114.846
| 29> C 	 -116.881 	 56.4605 	 114.22
| 30> H 	 -117.13 	 55.6169 	 113.537
| 31> H 	 -117.776 	 56.682 	 114.729
| 32> C 	 -115.819 	 56.048 	 115.2
| 33> H 	 -114.935 	 55.7671 	 114.576
| 34> H 	 -116.141 	 55.0662 	 115.642
| 35> C 	 -115.363 	 56.9628 	 116.431
| 36> H 	 -114.35 	 56.686 	 116.902
| 37> H 	 -116.129 	 57.1645 	 117.179
| 38> H 	 -115.082 	 57.976 	 116.039
| 39> H 	 -115.153 	 54.3122 	 108.461
| 40> H 	 -116.05 	 61.0436 	 113.203
| 41> *
| 42>
| 43>                          ****END OF INPUT****

CARTESIAN COORDINATES (ANGSTROEM)
---------------------------------
  S    -116.299000   56.252000  109.693000
  C    -115.301000   54.890200  109.320000
  C    -114.662000   54.409300  110.501000
  C    -114.841000   55.314400  111.578000
  C    -115.598000   56.416700  111.266000
  H    -114.522000   55.315300  112.604000
  C    -113.644000   53.284000  110.771000
  H    -114.226000   52.384300  110.742000
  H    -113.373000   53.200900  111.779000
  C    -112.471000   53.061700  109.774000
  H    -112.069000   52.017000  109.893000
  H    -112.996000   53.007100  108.829000
  C    -111.239000   53.917900  109.853000
  H    -110.752000   53.757000  110.794000
  H    -110.508000   53.717500  109.089000
  H    -111.583000   54.899100  109.797000
  S    -115.521000   59.150700  111.474000
  C    -116.120000   59.920200  112.962000
  C    -116.532000   58.960900  113.846000
  C    -116.494000   57.619900  113.337000
  C    -115.855000   57.567200  112.095000
  H    -116.839000   59.228600  114.846000
  C    -116.881000   56.460500  114.220000
  H    -117.130000   55.616900  113.537000
  H    -117.776000   56.682000  114.729000
  C    -115.819000   56.048000  115.200000
  H    -114.935000   55.767100  114.576000
  H    -116.141000   55.066200  115.642000
  C    -115.363000   56.962800  116.431000
  H    -114.350000   56.686000  116.902000
  H    -116.129000   57.164500  117.179000
  H    -115.082000   57.976000  116.039000
  H    -115.153000   54.312200  108.461000
  H    -116.050000   61.043600  113.203000

 Total Charge           Charge          ....    0
 Multiplicity           Mult            ....    1
 Number of Electrons    NEL             ....  134
 Basis Dimension        Dim             ....  322

ORBITAL ENERGIES
----------------

  NO   OCC          E(Eh)            E(eV)
   0   2.0000     -88.970196     -2421.0021
   1   2.0000     -88.966215     -2420.8938
   2   2.0000     -10.325153      -280.9617
   3   2.0000     -10.324687      -280.9490
   4   2.0000     -10.321465      -280.8614
   5   2.0000     -10.314074      -280.6602
   6   2.0000     -10.306165      -280.4450
   7   2.0000     -10.302315      -280.3402
   8   2.0000     -10.299080      -280.2522
   9   2.0000     -10.294091      -280.1165
  10   2.0000     -10.293001      -280.0868
  11   2.0000     -10.290369      -280.0152
  12   2.0000     -10.288237      -279.9572
  13   2.0000     -10.287885      -279.9476
  14   2.0000     -10.287739      -279.9436
  15   2.0000     -10.265824      -279.3473
  16   2.0000      -8.085042      -220.0052
  17   2.0000      -8.080769      -219.8889
  18   2.0000      -6.043540      -164.4531
  19   2.0000      -6.039467      -164.3423
  20   2.0000      -6.039376      -164.3398
  21   2.0000      -6.035865      -164.2442
  22   2.0000      -6.035215      -164.2265
  23   2.0000      -6.031512      -164.1258
  24   2.0000      -1.010143       -27.4874
  25   2.0000      -0.984749       -26.7964
  26   2.0000      -0.910301       -24.7705
  27   2.0000      -0.908505       -24.7217
  28   2.0000      -0.871118       -23.7043
  29   2.0000      -0.854353       -23.2481
  30   2.0000      -0.839703       -22.8495
  31   2.0000      -0.815381       -22.1876
  32   2.0000      -0.790072       -21.4989
  33   2.0000      -0.776936       -21.1415
  34   2.0000      -0.711141       -19.3511
  35   2.0000      -0.701791       -19.0967
  36   2.0000      -0.688227       -18.7276
  37   2.0000      -0.662596       -18.0302
  38   2.0000      -0.645172       -17.5560
  39   2.0000      -0.608160       -16.5489
  40   2.0000      -0.594429       -16.1752
  41   2.0000      -0.576097       -15.6764
  42   2.0000      -0.553108       -15.0508
  43   2.0000      -0.551792       -15.0150
  44   2.0000      -0.542934       -14.7740
  45   2.0000      -0.536324       -14.5941
  46   2.0000      -0.516336       -14.0502
  47   2.0000      -0.510659       -13.8957
  48   2.0000      -0.502145       -13.6641
  49   2.0000      -0.499131       -13.5820
  50   2.0000      -0.488972       -13.3056
  51   2.0000      -0.483258       -13.1501
  52   2.0000      -0.472420       -12.8552
  53   2.0000      -0.471635       -12.8339
  54   2.0000      -0.460392       -12.5279
  55   2.0000      -0.448320       -12.1994
  56   2.0000      -0.445424       -12.1206
  57   2.0000      -0.438723       -11.9383
  58   2.0000      -0.433825       -11.8050
  59   2.0000      -0.422645       -11.5008
  60   2.0000      -0.419195       -11.4069
  61   2.0000      -0.409695       -11.1484
  62   2.0000      -0.404944       -11.0191
  63   2.0000      -0.344147        -9.3647
  64   2.0000      -0.330012        -8.9801
  65   2.0000      -0.329347        -8.9620
  66   2.0000      -0.295180        -8.0323
  67   0.0000       0.029676         0.8075
  68   0.0000       0.067665         1.8413
  69   0.0000       0.114505         3.1158
  70   0.0000       0.119815         3.2603
  71   0.0000       0.130256         3.5444

MULLIKEN ATOMIC CHARGES
-----------------------
   0 S :    0.144252
   1 C :   -0.089407
   2 C :   -0.087326
   3 C :    0.029779
   4 C :   -0.167426
   5 H :   -0.017382
   6 C :    0.100965
   7 H :    0.017734
   8 H :   -0.004497
   9 C :   -0.098973
  10 H :    0.020765
  11 H :    0.016247
  12 C :    0.021426
  13 H :    0.019928
  14 H :    0.033311
  15 H :    0.022826
  16 S :    0.112515
  17 C :   -0.124000
  18 C :   -0.025928
  19 C :   -0.042483
  20 C :   -0.180285
  21 H :    0.017042
  22 C :    0.101552
  23 H :    0.038588
  24 H :    0.010948
  25 C :   -0.085197
  26 H :    0.029037
  27 H :    0.036922
  28 C :   -0.088263
  29 H :    0.051646
  30 H :    0.043217
  31 H :    0.032350
  32 H :    0.021802
  33 H :    0.088317
Sum of atomic charges:    0.0000000

LOEWDIN ATOMIC CHARGES
----------------------
   0 S :    0.434549
   1 C :   -0.208092
   2 C :   -0.055533
   3 C :   -0.064375
   4 C :   -0.204785
   5 H :    0.026675
   6 C :   -0.031666
   7 H :    0.036638
   8 H :    0.020899
   9 C :   -0.041790
  10 H :    0.027007
  11 H :    0.019044
  12 C :   -0.056200
  13 H :    0.024766
  14 H :    0.028242
  15 H :    0.019475
  16 S :    0.404300
  17 C :   -0.191920
  18 C :   -0.072091
  19 C :   -0.053095
  20 C :   -0.210197
  21 H :    0.028907
  22 C :   -0.034247
  23 H :    0.041947
  24 H :    0.024021
  25 C :   -0.043947
  26 H :    0.024572
  27 H :    0.028960
  28 C :   -0.083485
  29 H :    0.041453
  30 H :    0.023562
  31 H :    0.027254
  32 H :    0.018758
  33 H :    0.050391

  Mayer bond orders larger than 0.100000
B(  0-S ,  1-C ) :   1.1489 B(  0-S ,  4-C ) :   1.1596 B(  1-C ,  2-C ) :   1.5814
B(  1-C ,  4-C ) :   0.1021 B(  1-C , 32-H ) :   0.9734 B(  2-C ,  3-C ) :   1.2360
B(  2-C ,  6-C ) :   1.0156 B(  3-C ,  4-C ) :   1.5746 B(  3-C ,  5-H ) :   1.0001
B(  4-C , 20-C ) :   1.0409 B(  6-C ,  7-H ) :   0.9181 B(  6-C ,  8-H ) :   0.9448
B(  6-C ,  9-C ) :   1.0750 B(  9-C , 10-H ) :   0.9531 B(  9-C , 11-H ) :   0.9569
B(  9-C , 12-C ) :   1.0760 B( 12-C , 13-H ) :   0.9698 B( 12-C , 14-H ) :   0.9715
B( 12-C , 15-H ) :   0.9771 B( 16-S , 17-C ) :   1.1408 B( 16-S , 20-C ) :   1.1484
B( 17-C , 18-C ) :   1.6195 B( 17-C , 33-H ) :   0.9558 B( 18-C , 19-C ) :   1.2336
B( 18-C , 21-H ) :   0.9854 B( 19-C , 20-C ) :   1.5765 B( 19-C , 22-C ) :   1.0598
B( 22-C , 23-H ) :   0.9197 B( 22-C , 24-H ) :   0.9263 B( 22-C , 25-C ) :   1.0791
B( 25-C , 26-H ) :   0.9481 B( 25-C , 27-H ) :   0.9533 B( 25-C , 28-C ) :   1.0642
B( 28-C , 29-H ) :   0.9732 B( 28-C , 30-H ) :   0.9767 B( 28-C , 31-H ) :   0.9695

Dispersion correction           -0.014765307
FINAL SINGLE POINT ENERGY     -1339.856259552503

DIPOLE MOMENT
-------------
                                X             Y             Z
Electronic contribution:    -13.50522      16.60007     -14.09698
Nuclear contribution   :     13.67626     -16.94535      14.64321
                        -----------------------------------------
Total Dipole Moment    :      0.17104      -0.34527       0.54623
                        -----------------------------------------
Magnitude (a.u.)       :      0.66846
Magnitude (Debye)      :      1.69908

Rotational constants in cm-1:     0.019396     0.008369     0.006958
Rotational constants in MHz :   581.487720   250.902576   208.593519

                             ****ORCA TERMINATED NORMALLY****
TOTAL RUN TIME: 0 days 0 hours 0 minutes 33 seconds 897 msec
