                         Program Version 4.2.1 -  RELEASE  -
|  1> ! wB97X-D3 SP def2-SVP
|  2> %pal
|  3> nprocs 16
|  4> end
|  5>
|  6> * xyz 0 1
|  7> S 	 -37.8657 	 21.8482 	 79.0006
|  8> C 	 -39.2023 	 22.5549 	 78.0774
|  9> C 	 -39.0903 	 22.1386 	 76.7644
| 10> C 	 -38.0373 	 21.2097 	 76.5205
| 11> C 	 -37.2808 	 20.8868 	 77.6321
| 12> H 	 -37.6471 	 20.7238 	 75.6325
| 13> C 	 -40.0304 	 22.5128 	 75.6914
| 14> H 	 -39.6349 	 22.0593 	 74.7668
| 15> H 	 -39.9203 	 23.6304 	 75.4589
| 16> C 	 -41.5106 	 22.0148 	 75.8157
| 17> H 	 -41.9357 	 22.0147 	 74.8255
| 18> H 	 -41.5592 	 20.9131 	 76.1121
| 19> C 	 -42.3264 	 22.9508 	 76.6055
| 20> H 	 -43.3492 	 22.7528 	 76.4273
| 21> H 	 -42.167 	 22.7658 	 77.598
| 22> H 	 -42.0353 	 24.0281 	 76.4147
| 23> S 	 -34.8207 	 20.615 	 78.7249
| 24> C 	 -33.97 	 19.1702 	 78.4931
| 25> C 	 -34.6686 	 18.1655 	 77.8218
| 26> C 	 -35.9641 	 18.6636 	 77.3831
| 27> C 	 -36.1701 	 19.9506 	 77.807
| 28> H 	 -34.3875 	 17.1509 	 77.6394
| 29> C 	 -36.9543 	 17.8008 	 76.673
| 30> H 	 -36.4422 	 17.0292 	 76.1301
| 31> H 	 -37.582 	 18.3419 	 75.9437
| 32> C 	 -37.9644 	 17.1383 	 77.7011
| 33> H 	 -38.638 	 17.913 	 78.0351
| 34> H 	 -37.4176 	 16.686 	 78.5558
| 35> C 	 -38.7527 	 16.0012 	 76.9754
| 36> H 	 -39.4967 	 15.4941 	 77.5961
| 37> H 	 -38.1367 	 15.1464 	 76.7102
| 38> H 	 -39.3282 	 16.4245 	 76.1487
| 39> H 	 -39.9454 	 23.2348 	 78.4724
| 40> H 	 -33.0557 	 18.8871 	 78.9963
| 41> *
| 42>
| 43>                          ****END OF INPUT****

CARTESIAN COORDINATES (ANGSTROEM)
---------------------------------
  S    -37.865700   21.848200   79.000600
  C    -39.202300   22.554900   78.077400
  C    -39.090300   22.138600   76.764400
  C    -38.037300   21.209700   76.520500
  C    -37.280800   20.886800   77.632100
  H    -37.647100   20.723800   75.632500
  C    -40.030400   22.512800   75.691400
  H    -39.634900   22.059300   74.766800
  H    -39.920300   23.630400   75.458900
  C    -41.510600   22.014800   75.815700
  H    -41.935700   22.014700   74.825500
  H    -41.559200   20.913100   76.112100
  C    -42.326400   22.950800   76.605500
  H    -43.349200   22.752800   76.427300
  H    -42.167000   22.765800   77.598000
  H    -42.035300   24.028100   76.414700
  S    -34.820700   20.615000   78.724900
  C    -33.970000   19.170200   78.493100
  C    -34.668600   18.165500   77.821800
  C    -35.964100   18.663600   77.383100
  C    -36.170100   19.950600   77.807000
  H    -34.387500   17.150900   77.639400
  C    -36.954300   17.800800   76.673000
  H    -36.442200   17.029200   76.130100
  H    -37.582000   18.341900   75.943700
  C    -37.964400   17.138300   77.701100
  H    -38.638000   17.913000   78.035100
  H    -37.417600   16.686000   78.555800
  C    -38.752700   16.001200   76.975400
  H    -39.496700   15.494100   77.596100
  H    -38.136700   15.146400   76.710200
  H    -39.328200   16.424500   76.148700
  H    -39.945400   23.234800   78.472400
  H    -33.055700   18.887100   78.996300

 Total Charge           Charge          ....    0
 Multiplicity           Mult            ....    1
 Number of Electrons    NEL             ....  134
 Basis Dimension        Dim             ....  322

ORBITAL ENERGIES
----------------

  NO   OCC          E(Eh)            E(eV)
   0   2.0000     -88.968915     -2420.9673
   1   2.0000     -88.961671     -2420.7701
   2   2.0000     -10.329585      -281.0823
   3   2.0000     -10.324679      -280.9488
   4   2.0000     -10.315862      -280.7089
   5   2.0000     -10.314782      -280.6795
   6   2.0000     -10.303607      -280.3754
   7   2.0000     -10.299508      -280.2639
   8   2.0000     -10.296410      -280.1796
   9   2.0000     -10.293730      -280.1066
  10   2.0000     -10.292388      -280.0701
  11   2.0000     -10.292102      -280.0623
  12   2.0000     -10.291332      -280.0414
  13   2.0000     -10.287648      -279.9411
  14   2.0000     -10.278715      -279.6981
  15   2.0000     -10.267887      -279.4034
  16   2.0000      -8.084487      -219.9901
  17   2.0000      -8.075860      -219.7553
  18   2.0000      -6.042906      -164.4358
  19   2.0000      -6.038966      -164.3286
  20   2.0000      -6.035197      -164.2261
  21   2.0000      -6.034421      -164.2049
  22   2.0000      -6.030343      -164.0940
  23   2.0000      -6.026692      -163.9946
  24   2.0000      -1.008130       -27.4326
  25   2.0000      -0.983792       -26.7703
  26   2.0000      -0.914327       -24.8801
  27   2.0000      -0.907610       -24.6973
  28   2.0000      -0.870463       -23.6865
  29   2.0000      -0.853456       -23.2237
  30   2.0000      -0.847015       -23.0484
  31   2.0000      -0.814067       -22.1519
  32   2.0000      -0.782066       -21.2811
  33   2.0000      -0.771253       -20.9869
  34   2.0000      -0.705779       -19.2052
  35   2.0000      -0.699272       -19.0282
  36   2.0000      -0.692226       -18.8364
  37   2.0000      -0.669268       -18.2117
  38   2.0000      -0.644046       -17.5254
  39   2.0000      -0.612041       -16.6545
  40   2.0000      -0.597827       -16.2677
  41   2.0000      -0.572456       -15.5773
  42   2.0000      -0.566360       -15.4114
  43   2.0000      -0.547412       -14.8958
  44   2.0000      -0.539197       -14.6723
  45   2.0000      -0.524277       -14.2663
  46   2.0000      -0.515535       -14.0284
  47   2.0000      -0.512872       -13.9560
  48   2.0000      -0.507992       -13.8232
  49   2.0000      -0.500362       -13.6155
  50   2.0000      -0.489131       -13.3099
  51   2.0000      -0.483563       -13.1584
  52   2.0000      -0.476155       -12.9568
  53   2.0000      -0.463766       -12.6197
  54   2.0000      -0.459356       -12.4997
  55   2.0000      -0.453078       -12.3289
  56   2.0000      -0.443833       -12.0773
  57   2.0000      -0.434119       -11.8130
  58   2.0000      -0.429220       -11.6797
  59   2.0000      -0.425676       -11.5832
  60   2.0000      -0.424545       -11.5525
  61   2.0000      -0.417465       -11.3598
  62   2.0000      -0.404556       -11.0085
  63   2.0000      -0.349080        -9.4989
  64   2.0000      -0.331711        -9.0263
  65   2.0000      -0.327983        -8.9249
  66   2.0000      -0.289665        -7.8822
  67   0.0000       0.029113         0.7922
  68   0.0000       0.068763         1.8711
  69   0.0000       0.108595         2.9550
  70   0.0000       0.119525         3.2524
  71   0.0000       0.130457         3.5499

MULLIKEN ATOMIC CHARGES
-----------------------
   0 S :    0.085796
   1 C :   -0.124289
   2 C :   -0.058550
   3 C :    0.024198
   4 C :   -0.152333
   5 H :    0.014861
   6 C :    0.012850
   7 H :    0.012346
   8 H :    0.048796
   9 C :   -0.073642
  10 H :    0.020186
  11 H :    0.042325
  12 C :    0.002768
  13 H :    0.023884
  14 H :    0.006899
  15 H :    0.035296
  16 S :    0.127283
  17 C :   -0.062366
  18 C :   -0.034895
  19 C :   -0.041285
  20 C :   -0.167662
  21 H :    0.008622
  22 C :    0.065567
  23 H :    0.013056
  24 H :    0.022572
  25 C :   -0.080949
  26 H :    0.045820
  27 H :    0.038292
  28 C :   -0.056091
  29 H :    0.027167
  30 H :    0.031492
  31 H :    0.032999
  32 H :    0.053019
  33 H :    0.055967
Sum of atomic charges:    0.0000000

LOEWDIN ATOMIC CHARGES
----------------------
   0 S :    0.379830
   1 C :   -0.191895
   2 C :   -0.069142
   3 C :   -0.074417
   4 C :   -0.182713
   5 H :    0.034089
   6 C :   -0.042253
   7 H :    0.029277
   8 H :    0.040632
   9 C :   -0.040180
  10 H :    0.020630
  11 H :    0.035534
  12 C :   -0.060907
  13 H :    0.023570
  14 H :    0.010372
  15 H :    0.034105
  16 S :    0.430344
  17 C :   -0.199691
  18 C :   -0.065101
  19 C :   -0.051261
  20 C :   -0.200052
  21 H :    0.027320
  22 C :   -0.030080
  23 H :    0.024915
  24 H :    0.030792
  25 C :   -0.027966
  26 H :    0.026492
  27 H :    0.026639
  28 C :   -0.073519
  29 H :    0.025646
  30 H :    0.024288
  31 H :    0.025144
  32 H :    0.030411
  33 H :    0.029149

  Mayer bond orders larger than 0.100000
B(  0-S ,  1-C ) :   1.1246 B(  0-S ,  4-C ) :   1.1473 B(  1-C ,  2-C ) :   1.5984
B(  1-C ,  4-C ) :   0.1035 B(  1-C , 32-H ) :   0.9725 B(  2-C ,  3-C ) :   1.2222
B(  2-C ,  6-C ) :   1.0345 B(  3-C ,  4-C ) :   1.5965 B(  3-C ,  5-H ) :   0.9924
B(  4-C , 20-C ) :   1.0263 B(  6-C ,  7-H ) :   0.9387 B(  6-C ,  8-H ) :   0.9356
B(  6-C ,  9-C ) :   1.0670 B(  9-C , 10-H ) :   0.9564 B(  9-C , 11-H ) :   0.9518
B(  9-C , 12-C ) :   1.0826 B( 12-C , 13-H ) :   0.9664 B( 12-C , 14-H ) :   0.9686
B( 12-C , 15-H ) :   0.9718 B( 16-S , 17-C ) :   1.1697 B( 16-S , 20-C ) :   1.1348
B( 17-C , 18-C ) :   1.5994 B( 17-C , 33-H ) :   0.9624 B( 18-C , 19-C ) :   1.2358
B( 18-C , 21-H ) :   0.9914 B( 19-C , 20-C ) :   1.6129 B( 19-C , 22-C ) :   1.0647
B( 22-C , 23-H ) :   0.9338 B( 22-C , 24-H ) :   0.9329 B( 22-C , 25-C ) :   1.0479
B( 25-C , 26-H ) :   0.9586 B( 25-C , 27-H ) :   0.9608 B( 25-C , 28-C ) :   1.0797
B( 28-C , 29-H ) :   0.9739 B( 28-C , 30-H ) :   0.9760 B( 28-C , 31-H ) :   0.9741

Dispersion correction           -0.014288253
FINAL SINGLE POINT ENERGY     -1339.876900183441

DIPOLE MOMENT
-------------
                                X             Y             Z
Electronic contribution:     23.20363      10.05970      13.27768
Nuclear contribution   :    -23.55665     -10.49535     -13.66671
                        -----------------------------------------
Total Dipole Moment    :     -0.35302      -0.43565      -0.38903
                        -----------------------------------------
Magnitude (a.u.)       :      0.68246
Magnitude (Debye)      :      1.73469

Rotational constants in cm-1:     0.019559     0.008618     0.006600
Rotational constants in MHz :   586.373443   258.374003   197.868322

                             ****ORCA TERMINATED NORMALLY****
TOTAL RUN TIME: 0 days 0 hours 0 minutes 30 seconds 510 msec
