                         Program Version 4.2.1 -  RELEASE  -
|  1> ! wB97X-D3 SP def2-SVP
|  2> %pal
|  3> nprocs 16
|  4> end
|  5>
|  6> * xyz 0 1
|  7> S 	 13.6254 	 23.4113 	 51.0551
|  8> C 	 13.3695 	 22.6149 	 52.6085
|  9> C 	 12.1309 	 21.9487 	 52.608
| 10> C 	 11.5267 	 22.0158 	 51.3108
| 11> C 	 12.2764 	 22.6102 	 50.2918
| 12> H 	 10.625 	 21.5709 	 51.077
| 13> C 	 11.4982 	 21.1362 	 53.6615
| 14> H 	 10.7281 	 20.4958 	 53.1657
| 15> H 	 10.9309 	 21.9042 	 54.1082
| 16> C 	 12.3842 	 20.4193 	 54.6957
| 17> H 	 13.1182 	 19.8384 	 54.1009
| 18> H 	 12.9509 	 21.112 	 55.2756
| 19> C 	 11.5367 	 19.6515 	 55.6946
| 20> H 	 11.121 	 18.7207 	 55.2744
| 21> H 	 12.0498 	 19.326 	 56.5784
| 22> H 	 10.691 	 20.2019 	 56.0016
| 23> S 	 10.338 	 22.3756 	 48.4993
| 24> C 	 10.5113 	 22.9149 	 46.8353
| 25> C 	 11.8502 	 23.2732 	 46.6022
| 26> C 	 12.6744 	 23.3185 	 47.7801
| 27> C 	 11.9771 	 22.8007 	 48.8695
| 28> H 	 12.2391 	 23.4273 	 45.604
| 29> C 	 14.0649 	 23.8368 	 47.6746
| 30> H 	 14.5669 	 23.2957 	 46.8692
| 31> H 	 14.5386 	 23.5843 	 48.6489
| 32> C 	 14.2424 	 25.2981 	 47.3094
| 33> H 	 13.6796 	 26.0552 	 47.9927
| 34> H 	 13.7786 	 25.5094 	 46.3609
| 35> C 	 15.675 	 25.7531 	 47.1841
| 36> H 	 16.3136 	 25.71 	 48.0953
| 37> H 	 15.6649 	 26.7938 	 46.9432
| 38> H 	 16.1843 	 25.1975 	 46.4384
| 39> H 	 14.0244 	 22.6792 	 53.4209
| 40> H 	 9.81614 	 22.7326 	 45.9427
| 41> *
| 42>
| 43>                          ****END OF INPUT****

CARTESIAN COORDINATES (ANGSTROEM)
---------------------------------
  S     13.625400   23.411300   51.055100
  C     13.369500   22.614900   52.608500
  C     12.130900   21.948700   52.608000
  C     11.526700   22.015800   51.310800
  C     12.276400   22.610200   50.291800
  H     10.625000   21.570900   51.077000
  C     11.498200   21.136200   53.661500
  H     10.728100   20.495800   53.165700
  H     10.930900   21.904200   54.108200
  C     12.384200   20.419300   54.695700
  H     13.118200   19.838400   54.100900
  H     12.950900   21.112000   55.275600
  C     11.536700   19.651500   55.694600
  H     11.121000   18.720700   55.274400
  H     12.049800   19.326000   56.578400
  H     10.691000   20.201900   56.001600
  S     10.338000   22.375600   48.499300
  C     10.511300   22.914900   46.835300
  C     11.850200   23.273200   46.602200
  C     12.674400   23.318500   47.780100
  C     11.977100   22.800700   48.869500
  H     12.239100   23.427300   45.604000
  C     14.064900   23.836800   47.674600
  H     14.566900   23.295700   46.869200
  H     14.538600   23.584300   48.648900
  C     14.242400   25.298100   47.309400
  H     13.679600   26.055200   47.992700
  H     13.778600   25.509400   46.360900
  C     15.675000   25.753100   47.184100
  H     16.313600   25.710000   48.095300
  H     15.664900   26.793800   46.943200
  H     16.184300   25.197500   46.438400
  H     14.024400   22.679200   53.420900
  H      9.816140   22.732600   45.942700

 Total Charge           Charge          ....    0
 Multiplicity           Mult            ....    1
 Number of Electrons    NEL             ....  134
 Basis Dimension        Dim             ....  322

ORBITAL ENERGIES
----------------

  NO   OCC          E(Eh)            E(eV)
   0   2.0000     -88.968086     -2420.9447
   1   2.0000     -88.962803     -2420.8009
   2   2.0000     -10.332717      -281.1675
   3   2.0000     -10.332110      -281.1510
   4   2.0000     -10.326101      -280.9875
   5   2.0000     -10.309971      -280.5486
   6   2.0000     -10.305374      -280.4235
   7   2.0000     -10.302206      -280.3373
   8   2.0000     -10.296635      -280.1857
   9   2.0000     -10.292073      -280.0616
  10   2.0000     -10.290758      -280.0258
  11   2.0000     -10.289332      -279.9870
  12   2.0000     -10.289062      -279.9796
  13   2.0000     -10.287155      -279.9277
  14   2.0000     -10.274936      -279.5952
  15   2.0000     -10.272177      -279.5201
  16   2.0000      -8.082733      -219.9423
  17   2.0000      -8.076954      -219.7851
  18   2.0000      -6.041431      -164.3957
  19   2.0000      -6.037253      -164.2820
  20   2.0000      -6.035612      -164.2373
  21   2.0000      -6.033312      -164.1748
  22   2.0000      -6.031465      -164.1245
  23   2.0000      -6.027690      -164.0218
  24   2.0000      -1.007027       -27.4026
  25   2.0000      -0.982033       -26.7225
  26   2.0000      -0.917783       -24.9741
  27   2.0000      -0.914802       -24.8930
  28   2.0000      -0.868949       -23.6453
  29   2.0000      -0.859485       -23.3878
  30   2.0000      -0.848812       -23.0974
  31   2.0000      -0.810479       -22.0543
  32   2.0000      -0.785914       -21.3858
  33   2.0000      -0.771771       -21.0009
  34   2.0000      -0.718486       -19.5510
  35   2.0000      -0.701867       -19.0988
  36   2.0000      -0.689790       -18.7701
  37   2.0000      -0.669032       -18.2053
  38   2.0000      -0.639242       -17.3946
  39   2.0000      -0.611674       -16.6445
  40   2.0000      -0.595800       -16.2125
  41   2.0000      -0.573511       -15.6060
  42   2.0000      -0.566599       -15.4179
  43   2.0000      -0.563901       -15.3445
  44   2.0000      -0.527844       -14.3634
  45   2.0000      -0.526885       -14.3373
  46   2.0000      -0.523311       -14.2400
  47   2.0000      -0.518636       -14.1128
  48   2.0000      -0.509411       -13.8618
  49   2.0000      -0.501939       -13.6585
  50   2.0000      -0.491760       -13.3815
  51   2.0000      -0.478803       -13.0289
  52   2.0000      -0.472297       -12.8519
  53   2.0000      -0.470707       -12.8086
  54   2.0000      -0.457448       -12.4478
  55   2.0000      -0.450760       -12.2658
  56   2.0000      -0.444163       -12.0863
  57   2.0000      -0.437764       -11.9122
  58   2.0000      -0.434946       -11.8355
  59   2.0000      -0.425931       -11.5902
  60   2.0000      -0.422594       -11.4994
  61   2.0000      -0.420061       -11.4304
  62   2.0000      -0.405071       -11.0225
  63   2.0000      -0.357797        -9.7362
  64   2.0000      -0.330668        -8.9979
  65   2.0000      -0.321960        -8.7610
  66   2.0000      -0.280437        -7.6311
  67   0.0000       0.017457         0.4750
  68   0.0000       0.083207         2.2642
  69   0.0000       0.108508         2.9526
  70   0.0000       0.121709         3.3119
  71   0.0000       0.131691         3.5835

MULLIKEN ATOMIC CHARGES
-----------------------
   0 S :    0.083289
   1 C :   -0.109664
   2 C :   -0.070703
   3 C :   -0.003916
   4 C :   -0.104013
   5 H :   -0.017086
   6 C :    0.055933
   7 H :    0.032839
   8 H :    0.028826
   9 C :   -0.053829
  10 H :    0.041312
  11 H :    0.022628
  12 C :   -0.020820
  13 H :    0.026510
  14 H :    0.027859
  15 H :    0.017269
  16 S :    0.085518
  17 C :   -0.100927
  18 C :   -0.049882
  19 C :   -0.059118
  20 C :   -0.106121
  21 H :    0.020590
  22 C :    0.071806
  23 H :    0.026807
  24 H :    0.028533
  25 C :   -0.099542
  26 H :    0.039202
  27 H :    0.018142
  28 C :   -0.019187
  29 H :    0.033779
  30 H :    0.026807
  31 H :    0.017625
  32 H :    0.022703
  33 H :    0.086831
Sum of atomic charges:   -0.0000000

LOEWDIN ATOMIC CHARGES
----------------------
   0 S :    0.408822
   1 C :   -0.198727
   2 C :   -0.049553
   3 C :   -0.074688
   4 C :   -0.184630
   5 H :    0.006812
   6 C :   -0.037255
   7 H :    0.037375
   8 H :    0.035387
   9 C :   -0.034832
  10 H :    0.030269
  11 H :    0.021295
  12 C :   -0.060821
  13 H :    0.028205
  14 H :    0.024539
  15 H :    0.021233
  16 S :    0.419647
  17 C :   -0.203673
  18 C :   -0.065619
  19 C :   -0.059539
  20 C :   -0.193495
  21 H :    0.028761
  22 C :   -0.040336
  23 H :    0.036727
  24 H :    0.021254
  25 C :   -0.045474
  26 H :    0.033641
  27 H :    0.019972
  28 C :   -0.062227
  29 H :    0.029191
  30 H :    0.026442
  31 H :    0.017623
  32 H :    0.013895
  33 H :    0.049781

  Mayer bond orders larger than 0.100000
B(  0-S ,  1-C ) :   1.1272 B(  0-S ,  4-C ) :   1.1491 B(  1-C ,  2-C ) :   1.5796
B(  1-C , 32-H ) :   0.9800 B(  2-C ,  3-C ) :   1.2692 B(  2-C ,  6-C ) :   1.0095
B(  3-C ,  4-C ) :   1.5462 B(  3-C ,  5-H ) :   0.9888 B(  4-C , 20-C ) :   1.0811
B(  6-C ,  7-H ) :   0.9499 B(  6-C ,  8-H ) :   0.9084 B(  6-C ,  9-C ) :   1.0675
B(  9-C , 10-H ) :   0.9630 B(  9-C , 11-H ) :   0.9457 B(  9-C , 12-C ) :   1.0856
B( 12-C , 13-H ) :   0.9736 B( 12-C , 14-H ) :   0.9746 B( 12-C , 15-H ) :   0.9719
B( 16-S , 17-C ) :   1.1449 B( 16-S , 20-C ) :   1.1408 B( 17-C , 18-C ) :   1.6159
B( 17-C , 33-H ) :   0.9551 B( 18-C , 19-C ) :   1.2391 B( 18-C , 21-H ) :   0.9830
B( 19-C , 20-C ) :   1.5659 B( 19-C , 22-C ) :   1.0548 B( 22-C , 23-H ) :   0.9212
B( 22-C , 24-H ) :   0.9254 B( 22-C , 25-C ) :   1.0659 B( 25-C , 26-H ) :   0.9516
B( 25-C , 27-H ) :   0.9476 B( 25-C , 28-C ) :   1.0958 B( 28-C , 29-H ) :   0.9739
B( 28-C , 30-H ) :   0.9708 B( 28-C , 31-H ) :   0.9706

Dispersion correction           -0.013232688
FINAL SINGLE POINT ENERGY     -1339.870809343103

DIPOLE MOMENT
-------------
                                X             Y             Z
Electronic contribution:     -8.62666       0.93613      -8.77514
Nuclear contribution   :      8.66575      -1.06426       8.80603
                        -----------------------------------------
Total Dipole Moment    :      0.03909      -0.12813       0.03089
                        -----------------------------------------
Magnitude (a.u.)       :      0.13747
Magnitude (Debye)      :      0.34943

Rotational constants in cm-1:     0.024172     0.006978     0.005535
Rotational constants in MHz :   724.657342   209.207813   165.940915

                             ****ORCA TERMINATED NORMALLY****
TOTAL RUN TIME: 0 days 0 hours 0 minutes 32 seconds 956 msec
