                         Program Version 4.2.1 -  RELEASE  -
|  1> ! wB97X-D3 SP def2-SVP
|  2> %pal
|  3> nprocs 16
|  4> end
|  5>
|  6> * xyz 0 1
|  7> S 	 -87.5702 	 50.1945 	 132.373
|  8> C 	 -87.0634 	 48.7174 	 133.159
|  9> C 	 -85.6748 	 48.5698 	 133.074
| 10> C 	 -84.9757 	 49.783 	 132.604
| 11> C 	 -85.8907 	 50.806 	 132.245
| 12> H 	 -83.8255 	 49.8408 	 132.46
| 13> C 	 -84.8833 	 47.4145 	 133.589
| 14> H 	 -83.8383 	 47.7807 	 133.538
| 15> H 	 -84.96 	 46.5433 	 132.941
| 16> C 	 -85.2382 	 46.9002 	 134.957
| 17> H 	 -86.2915 	 46.6337 	 134.986
| 18> H 	 -84.6222 	 45.9696 	 135.142
| 19> C 	 -84.9445 	 47.9752 	 136.035
| 20> H 	 -83.9774 	 47.6685 	 136.472
| 21> H 	 -84.6831 	 48.9649 	 135.656
| 22> H 	 -85.7956 	 48.0071 	 136.777
| 23> S 	 -84.2901 	 53.0274 	 132.631
| 24> C 	 -84.7288 	 54.5548 	 131.713
| 25> C 	 -85.8287 	 54.2929 	 130.966
| 26> C 	 -86.1284 	 52.8736 	 130.786
| 27> C 	 -85.6198 	 52.1797 	 131.847
| 28> H 	 -86.1795 	 55.0925 	 130.397
| 29> C 	 -87.2617 	 52.4476 	 129.834
| 30> H 	 -87.2475 	 51.3506 	 129.81
| 31> H 	 -87.0761 	 52.5813 	 128.725
| 32> C 	 -88.6585 	 52.9482 	 130.175
| 33> H 	 -88.5605 	 54.0045 	 130.343
| 34> H 	 -88.9063 	 52.6975 	 131.141
| 35> C 	 -89.7465 	 52.4902 	 129.211
| 36> H 	 -90.7857 	 52.6994 	 129.55
| 37> H 	 -89.5869 	 51.4552 	 129.035
| 38> H 	 -89.8208 	 52.9151 	 128.236
| 39> H 	 -87.7753 	 48.0335 	 133.722
| 40> H 	 -84.2928 	 55.5222 	 132.069
| 41> *
| 42>
| 43>                          ****END OF INPUT****

CARTESIAN COORDINATES (ANGSTROEM)
---------------------------------
  S    -87.570200   50.194500  132.373000
  C    -87.063400   48.717400  133.159000
  C    -85.674800   48.569800  133.074000
  C    -84.975700   49.783000  132.604000
  C    -85.890700   50.806000  132.245000
  H    -83.825500   49.840800  132.460000
  C    -84.883300   47.414500  133.589000
  H    -83.838300   47.780700  133.538000
  H    -84.960000   46.543300  132.941000
  C    -85.238200   46.900200  134.957000
  H    -86.291500   46.633700  134.986000
  H    -84.622200   45.969600  135.142000
  C    -84.944500   47.975200  136.035000
  H    -83.977400   47.668500  136.472000
  H    -84.683100   48.964900  135.656000
  H    -85.795600   48.007100  136.777000
  S    -84.290100   53.027400  132.631000
  C    -84.728800   54.554800  131.713000
  C    -85.828700   54.292900  130.966000
  C    -86.128400   52.873600  130.786000
  C    -85.619800   52.179700  131.847000
  H    -86.179500   55.092500  130.397000
  C    -87.261700   52.447600  129.834000
  H    -87.247500   51.350600  129.810000
  H    -87.076100   52.581300  128.725000
  C    -88.658500   52.948200  130.175000
  H    -88.560500   54.004500  130.343000
  H    -88.906300   52.697500  131.141000
  C    -89.746500   52.490200  129.211000
  H    -90.785700   52.699400  129.550000
  H    -89.586900   51.455200  129.035000
  H    -89.820800   52.915100  128.236000
  H    -87.775300   48.033500  133.722000
  H    -84.292800   55.522200  132.069000

 Total Charge           Charge          ....    0
 Multiplicity           Mult            ....    1
 Number of Electrons    NEL             ....  134
 Basis Dimension        Dim             ....  322

ORBITAL ENERGIES
----------------

  NO   OCC          E(Eh)            E(eV)
   0   2.0000     -88.970244     -2421.0034
   1   2.0000     -88.961254     -2420.7588
   2   2.0000     -10.339022      -281.3391
   3   2.0000     -10.331384      -281.1313
   4   2.0000     -10.324412      -280.9415
   5   2.0000     -10.323052      -280.9045
   6   2.0000     -10.312719      -280.6233
   7   2.0000     -10.306949      -280.4663
   8   2.0000     -10.306914      -280.4654
   9   2.0000     -10.295202      -280.1467
  10   2.0000     -10.293857      -280.1101
  11   2.0000     -10.289321      -279.9866
  12   2.0000     -10.288084      -279.9530
  13   2.0000     -10.278751      -279.6990
  14   2.0000     -10.276199      -279.6296
  15   2.0000     -10.273949      -279.5684
  16   2.0000      -8.083623      -219.9666
  17   2.0000      -8.075192      -219.7371
  18   2.0000      -6.042324      -164.4200
  19   2.0000      -6.038266      -164.3096
  20   2.0000      -6.034322      -164.2023
  21   2.0000      -6.033982      -164.1930
  22   2.0000      -6.029978      -164.0840
  23   2.0000      -6.025520      -163.9627
  24   2.0000      -1.000891       -27.2356
  25   2.0000      -0.976911       -26.5831
  26   2.0000      -0.915130       -24.9019
  27   2.0000      -0.907611       -24.6973
  28   2.0000      -0.869057       -23.6482
  29   2.0000      -0.846878       -23.0447
  30   2.0000      -0.839402       -22.8413
  31   2.0000      -0.810752       -22.0617
  32   2.0000      -0.780662       -21.2429
  33   2.0000      -0.770318       -20.9614
  34   2.0000      -0.712847       -19.3976
  35   2.0000      -0.703418       -19.1410
  36   2.0000      -0.695401       -18.9228
  37   2.0000      -0.660851       -17.9827
  38   2.0000      -0.630911       -17.1680
  39   2.0000      -0.606542       -16.5049
  40   2.0000      -0.597550       -16.2602
  41   2.0000      -0.573507       -15.6059
  42   2.0000      -0.555467       -15.1150
  43   2.0000      -0.550284       -14.9740
  44   2.0000      -0.535295       -14.5661
  45   2.0000      -0.531107       -14.4522
  46   2.0000      -0.514827       -14.0092
  47   2.0000      -0.514143       -13.9905
  48   2.0000      -0.509305       -13.8589
  49   2.0000      -0.495875       -13.4934
  50   2.0000      -0.489923       -13.3315
  51   2.0000      -0.477242       -12.9864
  52   2.0000      -0.464512       -12.6400
  53   2.0000      -0.460499       -12.5308
  54   2.0000      -0.452202       -12.3050
  55   2.0000      -0.447155       -12.1677
  56   2.0000      -0.440449       -11.9852
  57   2.0000      -0.438104       -11.9214
  58   2.0000      -0.431162       -11.7325
  59   2.0000      -0.421830       -11.4786
  60   2.0000      -0.417346       -11.3566
  61   2.0000      -0.411978       -11.2105
  62   2.0000      -0.404097       -10.9960
  63   2.0000      -0.353836        -9.6284
  64   2.0000      -0.329411        -8.9637
  65   2.0000      -0.326852        -8.8941
  66   2.0000      -0.289531        -7.8785
  67   0.0000       0.019140         0.5208
  68   0.0000       0.063234         1.7207
  69   0.0000       0.097491         2.6529
  70   0.0000       0.111886         3.0446
  71   0.0000       0.123496         3.3605

MULLIKEN ATOMIC CHARGES
-----------------------
   0 S :    0.103059
   1 C :   -0.147555
   2 C :   -0.103098
   3 C :   -0.013724
   4 C :   -0.157396
   5 H :    0.066057
   6 C :    0.061815
   7 H :    0.018123
   8 H :    0.037716
   9 C :   -0.094636
  10 H :    0.026462
  11 H :    0.042419
  12 C :   -0.065658
  13 H :    0.028512
  14 H :    0.040838
  15 H :    0.048498
  16 S :    0.073080
  17 C :   -0.118877
  18 C :    0.015398
  19 C :   -0.051317
  20 C :   -0.099784
  21 H :    0.012955
  22 C :   -0.009253
  23 H :    0.018418
  24 H :    0.036986
  25 C :    0.007456
  26 H :    0.005852
  27 H :   -0.003291
  28 C :   -0.025083
  29 H :    0.034084
  30 H :    0.024054
  31 H :    0.019327
  32 H :    0.083168
  33 H :    0.085392
Sum of atomic charges:    0.0000000

LOEWDIN ATOMIC CHARGES
----------------------
   0 S :    0.406245
   1 C :   -0.211738
   2 C :   -0.063390
   3 C :   -0.076042
   4 C :   -0.177300
   5 H :    0.051021
   6 C :   -0.040855
   7 H :    0.029654
   8 H :    0.033751
   9 C :   -0.043684
  10 H :    0.018406
  11 H :    0.032042
  12 C :   -0.074231
  13 H :    0.029249
  14 H :    0.026520
  15 H :    0.033585
  16 S :    0.351680
  17 C :   -0.161943
  18 C :   -0.055755
  19 C :   -0.058506
  20 C :   -0.180781
  21 H :    0.023661
  22 C :   -0.046105
  23 H :    0.019779
  24 H :    0.038526
  25 C :   -0.038418
  26 H :    0.021417
  27 H :    0.011382
  28 C :   -0.063072
  29 H :    0.034129
  30 H :    0.023970
  31 H :    0.021568
  32 H :    0.044842
  33 H :    0.040393

  Mayer bond orders larger than 0.100000
B(  0-S ,  1-C ) :   1.1337 B(  0-S ,  4-C ) :   1.1470 B(  1-C ,  2-C ) :   1.6028
B(  1-C , 32-H ) :   0.9597 B(  2-C ,  3-C ) :   1.2361 B(  2-C ,  6-C ) :   1.0277
B(  3-C ,  4-C ) :   1.5668 B(  3-C ,  5-H ) :   0.9671 B(  4-C , 20-C ) :   1.0551
B(  6-C ,  7-H ) :   0.9453 B(  6-C ,  8-H ) :   0.9247 B(  6-C ,  9-C ) :   1.0907
B(  9-C , 10-H ) :   0.9582 B(  9-C , 11-H ) :   0.9600 B(  9-C , 12-C ) :   1.0459
B( 12-C , 13-H ) :   0.9762 B( 12-C , 14-H ) :   0.9827 B( 12-C , 15-H ) :   0.9784
B( 16-S , 17-C ) :   1.0930 B( 16-S , 20-C ) :   1.1298 B( 17-C , 18-C ) :   1.6938
B( 17-C , 33-H ) :   0.9596 B( 18-C , 19-C ) :   1.1558 B( 18-C , 21-H ) :   0.9833
B( 19-C , 20-C ) :   1.6198 B( 19-C , 22-C ) :   1.0673 B( 22-C , 23-H ) :   0.9282
B( 22-C , 24-H ) :   0.9363 B( 22-C , 25-C ) :   1.0506 B( 25-C , 26-H ) :   0.9491
B( 25-C , 27-H ) :   0.9446 B( 25-C , 28-C ) :   1.0696 B( 28-C , 29-H ) :   0.9731
B( 28-C , 30-H ) :   0.9746 B( 28-C , 31-H ) :   0.9744

Dispersion correction           -0.014567696
FINAL SINGLE POINT ENERGY     -1339.846443711478

DIPOLE MOMENT
-------------
                                X             Y             Z
Electronic contribution:      6.97553       9.75982      -0.44205
Nuclear contribution   :     -7.07181      -9.92871       0.38811
                        -----------------------------------------
Total Dipole Moment    :     -0.09627      -0.16889      -0.05394
                        -----------------------------------------
Magnitude (a.u.)       :      0.20175
Magnitude (Debye)      :      0.51280

Rotational constants in cm-1:     0.021249     0.008397     0.006403
Rotational constants in MHz :   637.023306   251.736146   191.958941

                             ****ORCA TERMINATED NORMALLY****
TOTAL RUN TIME: 0 days 0 hours 0 minutes 33 seconds 942 msec
