                         Program Version 4.2.1 -  RELEASE  -
|  1> ! wB97X-D3 SP def2-SVP
|  2> %pal
|  3> nprocs 16
|  4> end
|  5>
|  6> * xyz 0 1
|  7> S 	 -31.4497 	 31.4941 	 44.9833
|  8> C 	 -30.7595 	 30.0827 	 45.8248
|  9> C 	 -31.7301 	 29.3275 	 46.4422
| 10> C 	 -33.03 	 29.9148 	 46.2937
| 11> C 	 -33.0054 	 31.125 	 45.6168
| 12> H 	 -33.9284 	 29.6724 	 46.8356
| 13> C 	 -31.3902 	 28.1908 	 47.4189
| 14> H 	 -30.362 	 28.1077 	 47.4084
| 15> H 	 -31.8541 	 27.32 	 47.0341
| 16> C 	 -31.8141 	 28.368 	 48.9223
| 17> H 	 -32.9088 	 28.5985 	 49.112
| 18> H 	 -31.482 	 27.4025 	 49.4455
| 19> C 	 -31.0794 	 29.6135 	 49.5213
| 20> H 	 -30.0333 	 29.6079 	 49.1548
| 21> H 	 -31.4149 	 30.6226 	 49.3177
| 22> H 	 -31.1482 	 29.5837 	 50.6113
| 23> S 	 -33.5246 	 33.817 	 45.9422
| 24> C 	 -35.1647 	 34.4273 	 45.7508
| 25> C 	 -36.0074 	 33.379 	 45.442
| 26> C 	 -35.4108 	 32.1034 	 45.3455
| 27> C 	 -34.052 	 32.1384 	 45.6052
| 28> H 	 -37.1001 	 33.6203 	 45.2731
| 29> C 	 -36.2549 	 30.8886 	 45.0558
| 30> H 	 -37.2979 	 31.1408 	 45.0599
| 31> H 	 -36.2029 	 30.2761 	 45.95
| 32> C 	 -35.8459 	 30.119 	 43.8217
| 33> H 	 -34.764 	 29.9862 	 43.9153
| 34> H 	 -36.0629 	 30.7598 	 42.9901
| 35> C 	 -36.5116 	 28.7694 	 43.7602
| 36> H 	 -36.1472 	 28.368 	 42.8494
| 37> H 	 -37.6284 	 28.8367 	 43.7112
| 38> H 	 -36.2221 	 28.2366 	 44.6151
| 39> H 	 -29.6329 	 29.9615 	 45.8108
| 40> H 	 -35.5012 	 35.4278 	 45.7264
| 41> *
| 42>
| 43>                          ****END OF INPUT****

CARTESIAN COORDINATES (ANGSTROEM)
---------------------------------
  S    -31.449700   31.494100   44.983300
  C    -30.759500   30.082700   45.824800
  C    -31.730100   29.327500   46.442200
  C    -33.030000   29.914800   46.293700
  C    -33.005400   31.125000   45.616800
  H    -33.928400   29.672400   46.835600
  C    -31.390200   28.190800   47.418900
  H    -30.362000   28.107700   47.408400
  H    -31.854100   27.320000   47.034100
  C    -31.814100   28.368000   48.922300
  H    -32.908800   28.598500   49.112000
  H    -31.482000   27.402500   49.445500
  C    -31.079400   29.613500   49.521300
  H    -30.033300   29.607900   49.154800
  H    -31.414900   30.622600   49.317700
  H    -31.148200   29.583700   50.611300
  S    -33.524600   33.817000   45.942200
  C    -35.164700   34.427300   45.750800
  C    -36.007400   33.379000   45.442000
  C    -35.410800   32.103400   45.345500
  C    -34.052000   32.138400   45.605200
  H    -37.100100   33.620300   45.273100
  C    -36.254900   30.888600   45.055800
  H    -37.297900   31.140800   45.059900
  H    -36.202900   30.276100   45.950000
  C    -35.845900   30.119000   43.821700
  H    -34.764000   29.986200   43.915300
  H    -36.062900   30.759800   42.990100
  C    -36.511600   28.769400   43.760200
  H    -36.147200   28.368000   42.849400
  H    -37.628400   28.836700   43.711200
  H    -36.222100   28.236600   44.615100
  H    -29.632900   29.961500   45.810800
  H    -35.501200   35.427800   45.726400

 Total Charge           Charge          ....    0
 Multiplicity           Mult            ....    1
 Number of Electrons    NEL             ....  134
 Basis Dimension        Dim             ....  322

ORBITAL ENERGIES
----------------

  NO   OCC          E(Eh)            E(eV)
   0   2.0000     -88.966079     -2420.8901
   1   2.0000     -88.965796     -2420.8824
   2   2.0000     -10.329814      -281.0885
   3   2.0000     -10.328776      -281.0603
   4   2.0000     -10.320550      -280.8364
   5   2.0000     -10.313890      -280.6552
   6   2.0000     -10.306480      -280.4536
   7   2.0000     -10.304542      -280.4008
   8   2.0000     -10.300155      -280.2815
   9   2.0000     -10.295477      -280.1542
  10   2.0000     -10.293996      -280.1139
  11   2.0000     -10.289354      -279.9876
  12   2.0000     -10.283098      -279.8173
  13   2.0000     -10.277013      -279.6517
  14   2.0000     -10.274745      -279.5900
  15   2.0000     -10.269880      -279.4576
  16   2.0000      -8.081080      -219.8974
  17   2.0000      -8.079526      -219.8551
  18   2.0000      -6.039511      -164.3435
  19   2.0000      -6.038173      -164.3070
  20   2.0000      -6.035552      -164.2357
  21   2.0000      -6.034122      -164.1968
  22   2.0000      -6.031895      -164.1362
  23   2.0000      -6.030239      -164.0911
  24   2.0000      -1.007272       -27.4093
  25   2.0000      -0.982186       -26.7266
  26   2.0000      -0.915468       -24.9111
  27   2.0000      -0.908383       -24.7184
  28   2.0000      -0.865396       -23.5486
  29   2.0000      -0.854049       -23.2399
  30   2.0000      -0.841996       -22.9119
  31   2.0000      -0.813265       -22.1301
  32   2.0000      -0.783985       -21.3333
  33   2.0000      -0.773938       -21.0599
  34   2.0000      -0.710353       -19.3297
  35   2.0000      -0.696818       -18.9614
  36   2.0000      -0.687708       -18.7135
  37   2.0000      -0.659367       -17.9423
  38   2.0000      -0.641557       -17.4577
  39   2.0000      -0.620861       -16.8945
  40   2.0000      -0.594999       -16.1908
  41   2.0000      -0.571529       -15.5521
  42   2.0000      -0.558859       -15.2073
  43   2.0000      -0.558312       -15.1924
  44   2.0000      -0.532768       -14.4973
  45   2.0000      -0.530786       -14.4434
  46   2.0000      -0.518300       -14.1037
  47   2.0000      -0.514483       -13.9998
  48   2.0000      -0.499148       -13.5825
  49   2.0000      -0.497031       -13.5249
  50   2.0000      -0.491691       -13.3796
  51   2.0000      -0.485249       -13.2043
  52   2.0000      -0.468894       -12.7593
  53   2.0000      -0.462994       -12.5987
  54   2.0000      -0.460998       -12.5444
  55   2.0000      -0.449711       -12.2373
  56   2.0000      -0.441116       -12.0034
  57   2.0000      -0.436133       -11.8678
  58   2.0000      -0.433995       -11.8096
  59   2.0000      -0.421174       -11.4607
  60   2.0000      -0.418440       -11.3863
  61   2.0000      -0.415169       -11.2973
  62   2.0000      -0.412882       -11.2351
  63   2.0000      -0.347754        -9.4629
  64   2.0000      -0.334221        -9.0946
  65   2.0000      -0.330642        -8.9972
  66   2.0000      -0.289214        -7.8699
  67   0.0000       0.023277         0.6334
  68   0.0000       0.072801         1.9810
  69   0.0000       0.112039         3.0487
  70   0.0000       0.120347         3.2748
  71   0.0000       0.129308         3.5186

MULLIKEN ATOMIC CHARGES
-----------------------
   0 S :    0.104536
   1 C :   -0.174829
   2 C :   -0.073910
   3 C :    0.031703
   4 C :   -0.160211
   5 H :    0.009406
   6 C :    0.131668
   7 H :   -0.000708
   8 H :    0.026846
   9 C :   -0.119347
  10 H :    0.050829
  11 H :    0.054374
  12 C :   -0.070189
  13 H :    0.023584
  14 H :    0.041984
  15 H :    0.033404
  16 S :    0.098678
  17 C :   -0.073299
  18 C :   -0.076641
  19 C :   -0.012911
  20 C :   -0.158321
  21 H :    0.036801
  22 C :    0.079030
  23 H :   -0.000265
  24 H :    0.013446
  25 C :   -0.090905
  26 H :    0.044607
  27 H :    0.025768
  28 C :    0.009917
  29 H :    0.028288
  30 H :    0.030040
  31 H :    0.018665
  32 H :    0.075707
  33 H :    0.042254
Sum of atomic charges:    0.0000000

LOEWDIN ATOMIC CHARGES
----------------------
   0 S :    0.401161
   1 C :   -0.197975
   2 C :   -0.058711
   3 C :   -0.066175
   4 C :   -0.197741
   5 H :    0.029043
   6 C :   -0.018604
   7 H :    0.018382
   8 H :    0.027384
   9 C :   -0.043473
  10 H :    0.030473
  11 H :    0.036992
  12 C :   -0.075570
  13 H :    0.023470
  14 H :    0.027603
  15 H :    0.025840
  16 S :    0.386921
  17 C :   -0.181748
  18 C :   -0.078922
  19 C :   -0.057996
  20 C :   -0.185173
  21 H :    0.040087
  22 C :   -0.032015
  23 H :    0.023867
  24 H :    0.026476
  25 C :   -0.036711
  26 H :    0.028698
  27 H :    0.022076
  28 C :   -0.052721
  29 H :    0.024754
  30 H :    0.028258
  31 H :    0.018127
  32 H :    0.038708
  33 H :    0.025214

  Mayer bond orders larger than 0.100000
B(  0-S ,  1-C ) :   1.1229 B(  0-S ,  4-C ) :   1.1599 B(  1-C ,  2-C ) :   1.6190
B(  1-C , 32-H ) :   0.9606 B(  2-C ,  3-C ) :   1.2282 B(  2-C ,  6-C ) :   1.0229
B(  3-C ,  4-C ) :   1.5692 B(  3-C ,  5-H ) :   0.9911 B(  4-C , 20-C ) :   1.0555
B(  6-C ,  7-H ) :   0.9424 B(  6-C ,  8-H ) :   0.9314 B(  6-C ,  9-C ) :   1.0679
B(  9-C , 10-H ) :   0.9571 B(  9-C , 11-H ) :   0.9560 B(  9-C , 12-C ) :   1.0570
B( 12-C , 13-H ) :   0.9783 B( 12-C , 14-H ) :   0.9759 B( 12-C , 15-H ) :   0.9756
B( 16-S , 17-C ) :   1.1442 B( 16-S , 20-C ) :   1.1286 B( 17-C , 18-C ) :   1.6153
B( 17-C , 20-C ) :   0.1032 B( 17-C , 33-H ) :   0.9705 B( 18-C , 19-C ) :   1.2588
B( 18-C , 21-H ) :   0.9767 B( 19-C , 20-C ) :   1.5826 B( 19-C , 22-C ) :   1.0326
B( 22-C , 23-H ) :   0.9259 B( 22-C , 24-H ) :   0.9293 B( 22-C , 25-C ) :   1.0587
B( 25-C , 26-H ) :   0.9540 B( 25-C , 27-H ) :   0.9528 B( 25-C , 28-C ) :   1.0863
B( 28-C , 29-H ) :   0.9718 B( 28-C , 30-H ) :   0.9723 B( 28-C , 31-H ) :   0.9730

Dispersion correction           -0.014899851
FINAL SINGLE POINT ENERGY     -1339.876568836992

DIPOLE MOMENT
-------------
                                X             Y             Z
Electronic contribution:      7.48907      20.20566      -7.36750
Nuclear contribution   :     -7.78073     -20.56643       7.62031
                        -----------------------------------------
Total Dipole Moment    :     -0.29166      -0.36076       0.25281
                        -----------------------------------------
Magnitude (a.u.)       :      0.52833
Magnitude (Debye)      :      1.34290

Rotational constants in cm-1:     0.017336     0.009523     0.007761
Rotational constants in MHz :   519.725781   285.485563   232.679808

                             ****ORCA TERMINATED NORMALLY****
TOTAL RUN TIME: 0 days 0 hours 0 minutes 33 seconds 360 msec
