                         Program Version 4.2.1 -  RELEASE  -
|  1> ! wB97X-D3 SP def2-SVP
|  2> %pal
|  3> nprocs 16
|  4> end
|  5>
|  6> * xyz 0 1
|  7> S 	 -11.5055 	 -12.675 	 84.2493
|  8> C 	 -12.3907 	 -14.0455 	 84.9138
|  9> C 	 -13.0298 	 -13.7294 	 86.0899
| 10> C 	 -12.8748 	 -12.3435 	 86.4803
| 11> C 	 -12.1486 	 -11.6164 	 85.5337
| 12> H 	 -13.357 	 -11.8483 	 87.3301
| 13> C 	 -13.8493 	 -14.6104 	 86.963
| 14> H 	 -13.4688 	 -14.4072 	 87.9737
| 15> H 	 -13.5209 	 -15.6181 	 86.7362
| 16> C 	 -15.3724 	 -14.2959 	 86.9041
| 17> H 	 -15.4611 	 -13.2778 	 87.222
| 18> H 	 -15.6939 	 -14.4343 	 85.9162
| 19> C 	 -16.1754 	 -15.1818 	 87.8192
| 20> H 	 -16.091 	 -16.2208 	 87.4618
| 21> H 	 -15.7958 	 -15.2024 	 88.8002
| 22> H 	 -17.2236 	 -14.8763 	 87.7329
| 23> S 	 -9.96807 	 -10.018 	 85.5371
| 24> C 	 -10.084 	 -8.37234 	 86.0959
| 25> C 	 -11.3948 	 -7.98628 	 86.1441
| 26> C 	 -12.3009 	 -9.09367 	 86.0686
| 27> C 	 -11.6533 	 -10.2701 	 85.7243
| 28> H 	 -11.6109 	 -6.94874 	 86.3674
| 29> C 	 -13.8013 	 -8.93067 	 86.2176
| 30> H 	 -14.1699 	 -8.59461 	 87.2377
| 31> H 	 -14.1932 	 -9.92718 	 86.0251
| 32> C 	 -14.4313 	 -8.00262 	 85.1827
| 33> H 	 -14.0171 	 -8.23052 	 84.1992
| 34> H 	 -14.1664 	 -6.94517 	 85.3052
| 35> C 	 -15.9453 	 -8.00998 	 85.1468
| 36> H 	 -16.2602 	 -7.85442 	 86.1743
| 37> H 	 -16.3476 	 -8.9409 	 84.8601
| 38> H 	 -16.2701 	 -7.10313 	 84.5627
| 39> H 	 -12.4526 	 -15.0326 	 84.517
| 40> H 	 -9.37215 	 -7.62076 	 86.0816
| 41> *
| 42>
| 43>                          ****END OF INPUT****

CARTESIAN COORDINATES (ANGSTROEM)
---------------------------------
  S    -11.505500  -12.675000   84.249300
  C    -12.390700  -14.045500   84.913800
  C    -13.029800  -13.729400   86.089900
  C    -12.874800  -12.343500   86.480300
  C    -12.148600  -11.616400   85.533700
  H    -13.357000  -11.848300   87.330100
  C    -13.849300  -14.610400   86.963000
  H    -13.468800  -14.407200   87.973700
  H    -13.520900  -15.618100   86.736200
  C    -15.372400  -14.295900   86.904100
  H    -15.461100  -13.277800   87.222000
  H    -15.693900  -14.434300   85.916200
  C    -16.175400  -15.181800   87.819200
  H    -16.091000  -16.220800   87.461800
  H    -15.795800  -15.202400   88.800200
  H    -17.223600  -14.876300   87.732900
  S     -9.968070  -10.018000   85.537100
  C    -10.084000   -8.372340   86.095900
  C    -11.394800   -7.986280   86.144100
  C    -12.300900   -9.093670   86.068600
  C    -11.653300  -10.270100   85.724300
  H    -11.610900   -6.948740   86.367400
  C    -13.801300   -8.930670   86.217600
  H    -14.169900   -8.594610   87.237700
  H    -14.193200   -9.927180   86.025100
  C    -14.431300   -8.002620   85.182700
  H    -14.017100   -8.230520   84.199200
  H    -14.166400   -6.945170   85.305200
  C    -15.945300   -8.009980   85.146800
  H    -16.260200   -7.854420   86.174300
  H    -16.347600   -8.940900   84.860100
  H    -16.270100   -7.103130   84.562700
  H    -12.452600  -15.032600   84.517000
  H     -9.372150   -7.620760   86.081600

 Total Charge           Charge          ....    0
 Multiplicity           Mult            ....    1
 Number of Electrons    NEL             ....  134
 Basis Dimension        Dim             ....  322

ORBITAL ENERGIES
----------------

  NO   OCC          E(Eh)            E(eV)
   0   2.0000     -88.969463     -2420.9822
   1   2.0000     -88.964223     -2420.8396
   2   2.0000     -10.333814      -281.1974
   3   2.0000     -10.323831      -280.9257
   4   2.0000     -10.313395      -280.6417
   5   2.0000     -10.307182      -280.4727
   6   2.0000     -10.301684      -280.3231
   7   2.0000     -10.298949      -280.2487
   8   2.0000     -10.298173      -280.2275
   9   2.0000     -10.293431      -280.0985
  10   2.0000     -10.290736      -280.0252
  11   2.0000     -10.289823      -280.0003
  12   2.0000     -10.282488      -279.8007
  13   2.0000     -10.280354      -279.7427
  14   2.0000     -10.275264      -279.6042
  15   2.0000     -10.274948      -279.5955
  16   2.0000      -8.083290      -219.9575
  17   2.0000      -8.079775      -219.8619
  18   2.0000      -6.042011      -164.4115
  19   2.0000      -6.038321      -164.3111
  20   2.0000      -6.038006      -164.3025
  21   2.0000      -6.034192      -164.1987
  22   2.0000      -6.033808      -164.1883
  23   2.0000      -6.030400      -164.0955
  24   2.0000      -1.010260       -27.4906
  25   2.0000      -0.983478       -26.7618
  26   2.0000      -0.917122       -24.9562
  27   2.0000      -0.910580       -24.7782
  28   2.0000      -0.875624       -23.8269
  29   2.0000      -0.854926       -23.2637
  30   2.0000      -0.848509       -23.0891
  31   2.0000      -0.818323       -22.2677
  32   2.0000      -0.779669       -21.2159
  33   2.0000      -0.770646       -20.9703
  34   2.0000      -0.711418       -19.3587
  35   2.0000      -0.703422       -19.1411
  36   2.0000      -0.695776       -18.9330
  37   2.0000      -0.659254       -17.9392
  38   2.0000      -0.638689       -17.3796
  39   2.0000      -0.620527       -16.8854
  40   2.0000      -0.595402       -16.2017
  41   2.0000      -0.576667       -15.6919
  42   2.0000      -0.567911       -15.4536
  43   2.0000      -0.562236       -15.2992
  44   2.0000      -0.534497       -14.5444
  45   2.0000      -0.529096       -14.3974
  46   2.0000      -0.517482       -14.0814
  47   2.0000      -0.510646       -13.8954
  48   2.0000      -0.509178       -13.8554
  49   2.0000      -0.503497       -13.7008
  50   2.0000      -0.488631       -13.2963
  51   2.0000      -0.482230       -13.1222
  52   2.0000      -0.471627       -12.8336
  53   2.0000      -0.464803       -12.6479
  54   2.0000      -0.459797       -12.5117
  55   2.0000      -0.450496       -12.2586
  56   2.0000      -0.448326       -12.1996
  57   2.0000      -0.435396       -11.8477
  58   2.0000      -0.429571       -11.6892
  59   2.0000      -0.428493       -11.6599
  60   2.0000      -0.423130       -11.5139
  61   2.0000      -0.419484       -11.4147
  62   2.0000      -0.413875       -11.2621
  63   2.0000      -0.353764        -9.6264
  64   2.0000      -0.330101        -8.9825
  65   2.0000      -0.326986        -8.8977
  66   2.0000      -0.291033        -7.9194
  67   0.0000       0.029672         0.8074
  68   0.0000       0.070519         1.9189
  69   0.0000       0.109170         2.9707
  70   0.0000       0.120939         3.2909
  71   0.0000       0.129293         3.5183

MULLIKEN ATOMIC CHARGES
-----------------------
   0 S :    0.102920
   1 C :   -0.103402
   2 C :   -0.101181
   3 C :    0.015872
   4 C :   -0.148960
   5 H :    0.033168
   6 C :    0.057550
   7 H :    0.025115
   8 H :    0.008976
   9 C :   -0.038730
  10 H :    0.019974
  11 H :    0.021306
  12 C :   -0.011625
  13 H :    0.022932
  14 H :    0.019209
  15 H :    0.040915
  16 S :    0.109157
  17 C :   -0.051177
  18 C :   -0.050413
  19 C :   -0.045798
  20 C :   -0.138309
  21 H :    0.021452
  22 C :    0.070854
  23 H :    0.036910
  24 H :    0.013280
  25 C :   -0.107139
  26 H :    0.027519
  27 H :    0.020532
  28 C :   -0.013837
  29 H :    0.011371
  30 H :    0.027018
  31 H :    0.044973
  32 H :    0.032130
  33 H :    0.027437
Sum of atomic charges:   -0.0000000

LOEWDIN ATOMIC CHARGES
----------------------
   0 S :    0.384120
   1 C :   -0.195360
   2 C :   -0.060789
   3 C :   -0.057905
   4 C :   -0.179619
   5 H :    0.035234
   6 C :   -0.033400
   7 H :    0.033233
   8 H :    0.024177
   9 C :   -0.025959
  10 H :    0.020987
  11 H :    0.019728
  12 C :   -0.058921
  13 H :    0.027204
  14 H :    0.017440
  15 H :    0.030409
  16 S :    0.422792
  17 C :   -0.182602
  18 C :   -0.062962
  19 C :   -0.060804
  20 C :   -0.207800
  21 H :    0.031569
  22 C :   -0.036616
  23 H :    0.033809
  24 H :    0.026989
  25 C :   -0.046502
  26 H :    0.022791
  27 H :    0.020503
  28 C :   -0.059029
  29 H :    0.021528
  30 H :    0.016742
  31 H :    0.037139
  32 H :    0.025197
  33 H :    0.016679

  Mayer bond orders larger than 0.100000
B(  0-S ,  1-C ) :   1.1103 B(  0-S ,  4-C ) :   1.1364 B(  1-C ,  2-C ) :   1.6451
B(  1-C , 32-H ) :   0.9683 B(  2-C ,  3-C ) :   1.2143 B(  2-C ,  6-C ) :   1.0307
B(  3-C ,  4-C ) :   1.5788 B(  3-C ,  5-H ) :   0.9839 B(  4-C , 20-C ) :   1.0460
B(  6-C ,  7-H ) :   0.9335 B(  6-C ,  8-H ) :   0.9391 B(  6-C ,  9-C ) :   1.0568
B(  9-C , 10-H ) :   0.9525 B(  9-C , 11-H ) :   0.9562 B(  9-C , 12-C ) :   1.0953
B( 12-C , 13-H ) :   0.9725 B( 12-C , 14-H ) :   0.9727 B( 12-C , 15-H ) :   0.9729
B( 16-S , 17-C ) :   1.1456 B( 16-S , 20-C ) :   1.1465 B( 17-C , 18-C ) :   1.6376
B( 17-C , 33-H ) :   0.9680 B( 18-C , 19-C ) :   1.2298 B( 18-C , 21-H ) :   0.9877
B( 19-C , 20-C ) :   1.5924 B( 19-C , 22-C ) :   1.0518 B( 22-C , 23-H ) :   0.9296
B( 22-C , 24-H ) :   0.9292 B( 22-C , 25-C ) :   1.0672 B( 25-C , 26-H ) :   0.9536
B( 25-C , 27-H ) :   0.9520 B( 25-C , 28-C ) :   1.0905 B( 28-C , 29-H ) :   0.9688
B( 28-C , 30-H ) :   0.9762 B( 28-C , 31-H ) :   0.9734

Dispersion correction           -0.013593861
FINAL SINGLE POINT ENERGY     -1339.881604923838

DIPOLE MOMENT
-------------
                                X             Y             Z
Electronic contribution:     28.69488       0.94828      -9.13649
Nuclear contribution   :    -29.26916      -0.90267       9.45781
                        -----------------------------------------
Total Dipole Moment    :     -0.57428       0.04561       0.32132
                        -----------------------------------------
Magnitude (a.u.)       :      0.65964
Magnitude (Debye)      :      1.67667

Rotational constants in cm-1:     0.016891     0.008829     0.006567
Rotational constants in MHz :   506.393020   264.689791   196.879474

                             ****ORCA TERMINATED NORMALLY****
TOTAL RUN TIME: 0 days 0 hours 0 minutes 33 seconds 828 msec
