                         Program Version 4.2.1 -  RELEASE  -
|  1> ! wB97X-D3 SP def2-SVP
|  2> %pal
|  3> nprocs 16
|  4> end
|  5>
|  6> * xyz 0 1
|  7> S 	 -56.9819 	 53.9443 	 135.002
|  8> C 	 -55.8969 	 54.9708 	 135.963
|  9> C 	 -56.2051 	 54.9887 	 137.312
| 10> C 	 -57.3385 	 54.1713 	 137.534
| 11> C 	 -57.9182 	 53.5845 	 136.45
| 12> H 	 -57.8341 	 54.0731 	 138.487
| 13> C 	 -55.3497 	 55.6308 	 138.377
| 14> H 	 -56.0446 	 56.1954 	 138.97
| 15> H 	 -54.6264 	 56.3232 	 137.903
| 16> C 	 -54.6489 	 54.6178 	 139.332
| 17> H 	 -55.4421 	 53.9383 	 139.613
| 18> H 	 -54.0167 	 53.9268 	 138.716
| 19> C 	 -53.9073 	 55.2442 	 140.546
| 20> H 	 -53.0767 	 55.8267 	 140.088
| 21> H 	 -54.6056 	 55.8462 	 141.119
| 22> H 	 -53.5992 	 54.4441 	 141.22
| 23> S 	 -58.8703 	 51.178 	 136.01
| 24> C 	 -60.4816 	 50.6208 	 136.673
| 25> C 	 -61.1276 	 51.7429 	 137.153
| 26> C 	 -60.3241 	 52.9235 	 137.192
| 27> C 	 -59.0978 	 52.7494 	 136.475
| 28> H 	 -62.1135 	 51.7402 	 137.594
| 29> C 	 -60.8122 	 54.2382 	 137.818
| 30> H 	 -61.8882 	 54.2506 	 137.729
| 31> H 	 -60.4399 	 55.0843 	 137.262
| 32> C 	 -60.5795 	 54.337 	 139.354
| 33> H 	 -61.0309 	 55.3027 	 139.533
| 34> H 	 -59.5355 	 54.3842 	 139.65
| 35> C 	 -61.2895 	 53.2299 	 140.168
| 36> H 	 -60.5852 	 52.3792 	 140.201
| 37> H 	 -62.2236 	 52.9197 	 139.668
| 38> H 	 -61.4852 	 53.6199 	 141.175
| 39> H 	 -55.0548 	 55.4715 	 135.513
| 40> H 	 -60.8461 	 49.603 	 136.63
| 41> *
| 42>
| 43>                          ****END OF INPUT****

CARTESIAN COORDINATES (ANGSTROEM)
---------------------------------
  S    -56.981900   53.944300  135.002000
  C    -55.896900   54.970800  135.963000
  C    -56.205100   54.988700  137.312000
  C    -57.338500   54.171300  137.534000
  C    -57.918200   53.584500  136.450000
  H    -57.834100   54.073100  138.487000
  C    -55.349700   55.630800  138.377000
  H    -56.044600   56.195400  138.970000
  H    -54.626400   56.323200  137.903000
  C    -54.648900   54.617800  139.332000
  H    -55.442100   53.938300  139.613000
  H    -54.016700   53.926800  138.716000
  C    -53.907300   55.244200  140.546000
  H    -53.076700   55.826700  140.088000
  H    -54.605600   55.846200  141.119000
  H    -53.599200   54.444100  141.220000
  S    -58.870300   51.178000  136.010000
  C    -60.481600   50.620800  136.673000
  C    -61.127600   51.742900  137.153000
  C    -60.324100   52.923500  137.192000
  C    -59.097800   52.749400  136.475000
  H    -62.113500   51.740200  137.594000
  C    -60.812200   54.238200  137.818000
  H    -61.888200   54.250600  137.729000
  H    -60.439900   55.084300  137.262000
  C    -60.579500   54.337000  139.354000
  H    -61.030900   55.302700  139.533000
  H    -59.535500   54.384200  139.650000
  C    -61.289500   53.229900  140.168000
  H    -60.585200   52.379200  140.201000
  H    -62.223600   52.919700  139.668000
  H    -61.485200   53.619900  141.175000
  H    -55.054800   55.471500  135.513000
  H    -60.846100   49.603000  136.630000

 Total Charge           Charge          ....    0
 Multiplicity           Mult            ....    1
 Number of Electrons    NEL             ....  134
 Basis Dimension        Dim             ....  322

ORBITAL ENERGIES
----------------

  NO   OCC          E(Eh)            E(eV)
   0   2.0000     -88.965753     -2420.8812
   1   2.0000     -88.964318     -2420.8422
   2   2.0000     -10.326275      -280.9922
   3   2.0000     -10.323263      -280.9103
   4   2.0000     -10.322272      -280.8833
   5   2.0000     -10.314898      -280.6826
   6   2.0000     -10.303769      -280.3798
   7   2.0000     -10.300275      -280.2847
   8   2.0000     -10.297252      -280.2025
   9   2.0000     -10.295506      -280.1550
  10   2.0000     -10.291595      -280.0485
  11   2.0000     -10.290630      -280.0223
  12   2.0000     -10.288753      -279.9712
  13   2.0000     -10.287166      -279.9280
  14   2.0000     -10.286639      -279.9137
  15   2.0000     -10.283891      -279.8389
  16   2.0000      -8.080021      -219.8686
  17   2.0000      -8.079835      -219.8635
  18   2.0000      -6.038552      -164.3174
  19   2.0000      -6.038303      -164.3106
  20   2.0000      -6.034646      -164.2111
  21   2.0000      -6.033998      -164.1934
  22   2.0000      -6.030787      -164.1060
  23   2.0000      -6.030745      -164.1049
  24   2.0000      -1.009634       -27.4735
  25   2.0000      -0.982709       -26.7409
  26   2.0000      -0.910943       -24.7880
  27   2.0000      -0.906524       -24.6678
  28   2.0000      -0.872788       -23.7498
  29   2.0000      -0.847449       -23.0603
  30   2.0000      -0.843210       -22.9449
  31   2.0000      -0.816195       -22.2098
  32   2.0000      -0.782471       -21.2921
  33   2.0000      -0.770291       -20.9607
  34   2.0000      -0.707935       -19.2639
  35   2.0000      -0.697653       -18.9841
  36   2.0000      -0.689298       -18.7567
  37   2.0000      -0.666984       -18.1496
  38   2.0000      -0.642854       -17.4929
  39   2.0000      -0.620774       -16.8921
  40   2.0000      -0.594239       -16.1701
  41   2.0000      -0.565723       -15.3941
  42   2.0000      -0.561682       -15.2841
  43   2.0000      -0.556620       -15.1464
  44   2.0000      -0.544664       -14.8211
  45   2.0000      -0.525936       -14.3115
  46   2.0000      -0.516613       -14.0578
  47   2.0000      -0.511467       -13.9177
  48   2.0000      -0.503127       -13.6908
  49   2.0000      -0.500654       -13.6235
  50   2.0000      -0.489254       -13.3133
  51   2.0000      -0.483938       -13.1686
  52   2.0000      -0.472135       -12.8475
  53   2.0000      -0.466266       -12.6878
  54   2.0000      -0.460185       -12.5223
  55   2.0000      -0.444690       -12.1006
  56   2.0000      -0.441736       -12.0202
  57   2.0000      -0.437558       -11.9066
  58   2.0000      -0.432810       -11.7774
  59   2.0000      -0.427747       -11.6396
  60   2.0000      -0.424366       -11.5476
  61   2.0000      -0.420113       -11.4319
  62   2.0000      -0.411161       -11.1882
  63   2.0000      -0.353483        -9.6188
  64   2.0000      -0.332535        -9.0487
  65   2.0000      -0.321263        -8.7420
  66   2.0000      -0.291002        -7.9186
  67   0.0000       0.031834         0.8662
  68   0.0000       0.068967         1.8767
  69   0.0000       0.106134         2.8881
  70   0.0000       0.119572         3.2537
  71   0.0000       0.125968         3.4278

MULLIKEN ATOMIC CHARGES
-----------------------
   0 S :    0.103546
   1 C :   -0.133325
   2 C :   -0.069274
   3 C :    0.029432
   4 C :   -0.146317
   5 H :   -0.018862
   6 C :    0.093464
   7 H :    0.016935
   8 H :    0.022957
   9 C :   -0.113229
  10 H :    0.017418
  11 H :    0.031886
  12 C :   -0.023384
  13 H :    0.049032
  14 H :    0.030363
  15 H :    0.043809
  16 S :    0.101494
  17 C :   -0.111606
  18 C :   -0.001540
  19 C :   -0.083390
  20 C :   -0.123417
  21 H :    0.017912
  22 C :    0.065109
  23 H :    0.014226
  24 H :    0.037788
  25 C :   -0.077735
  26 H :    0.025498
  27 H :    0.033260
  28 C :   -0.058281
  29 H :    0.049565
  30 H :    0.026355
  31 H :    0.043780
  32 H :    0.043679
  33 H :    0.062852
Sum of atomic charges:   -0.0000000

LOEWDIN ATOMIC CHARGES
----------------------
   0 S :    0.384609
   1 C :   -0.181358
   2 C :   -0.063207
   3 C :   -0.062168
   4 C :   -0.194022
   5 H :    0.025067
   6 C :   -0.027459
   7 H :    0.026830
   8 H :    0.029947
   9 C :   -0.045860
  10 H :    0.018490
  11 H :    0.027132
  12 C :   -0.062537
  13 H :    0.033820
  14 H :    0.024461
  15 H :    0.031301
  16 S :    0.429193
  17 C :   -0.172846
  18 C :   -0.064779
  19 C :   -0.062588
  20 C :   -0.230941
  21 H :    0.030021
  22 C :   -0.028104
  23 H :    0.028284
  24 H :    0.032118
  25 C :   -0.037069
  26 H :    0.021885
  27 H :    0.016894
  28 C :   -0.064775
  29 H :    0.031847
  30 H :    0.021659
  31 H :    0.029930
  32 H :    0.023311
  33 H :    0.030914

  Mayer bond orders larger than 0.100000
B(  0-S ,  1-C ) :   1.1369 B(  0-S ,  4-C ) :   1.1316 B(  1-C ,  2-C ) :   1.6145
B(  1-C , 32-H ) :   0.9674 B(  2-C ,  3-C ) :   1.2327 B(  2-C ,  6-C ) :   1.0323
B(  3-C ,  4-C ) :   1.6040 B(  3-C ,  5-H ) :   0.9912 B(  4-C , 20-C ) :   1.0078
B(  6-C ,  7-H ) :   0.9276 B(  6-C ,  8-H ) :   0.9415 B(  6-C ,  9-C ) :   1.0556
B(  9-C , 10-H ) :   0.9558 B(  9-C , 11-H ) :   0.9554 B(  9-C , 12-C ) :   1.0720
B( 12-C , 13-H ) :   0.9764 B( 12-C , 14-H ) :   0.9747 B( 12-C , 15-H ) :   0.9737
B( 16-S , 17-C ) :   1.1481 B( 16-S , 20-C ) :   1.1923 B( 17-C , 18-C ) :   1.5650
B( 17-C , 20-C ) :   0.1071 B( 17-C , 33-H ) :   0.9751 B( 18-C , 19-C ) :   1.2873
B( 18-C , 21-H ) :   0.9815 B( 19-C , 20-C ) :   1.5383 B( 19-C , 22-C ) :   1.0381
B( 22-C , 23-H ) :   0.9372 B( 22-C , 24-H ) :   0.9425 B( 22-C , 25-C ) :   1.0651
B( 25-C , 26-H ) :   0.9565 B( 25-C , 27-H ) :   0.9538 B( 25-C , 28-C ) :   1.0707
B( 28-C , 29-H ) :   0.9730 B( 28-C , 30-H ) :   0.9757 B( 28-C , 31-H ) :   0.9734

Dispersion correction           -0.014735081
FINAL SINGLE POINT ENERGY     -1339.884179671837

DIPOLE MOMENT
-------------
                                X             Y             Z
Electronic contribution:     -1.80541     -11.29997     -26.35361
Nuclear contribution   :      1.69000      11.56271      27.08494
                        -----------------------------------------
Total Dipole Moment    :     -0.11541       0.26274       0.73133
                        -----------------------------------------
Magnitude (a.u.)       :      0.78562
Magnitude (Debye)      :      1.99688

Rotational constants in cm-1:     0.017632     0.009030     0.007018
Rotational constants in MHz :   528.600726   270.702072   210.382499

                             ****ORCA TERMINATED NORMALLY****
TOTAL RUN TIME: 0 days 0 hours 0 minutes 35 seconds 904 msec
