                         Program Version 4.2.1 -  RELEASE  -
|  1> ! wB97X-D3 SP def2-SVP
|  2> %pal
|  3> nprocs 16
|  4> end
|  5>
|  6> * xyz 0 1
|  7> S 	 -36.3843 	 70.8371 	 109.853
|  8> C 	 -36.721 	 70.1011 	 108.294
|  9> C 	 -35.5665 	 69.5175 	 107.779
| 10> C 	 -34.4007 	 69.6417 	 108.608
| 11> C 	 -34.7509 	 70.1749 	 109.837
| 12> H 	 -33.4484 	 69.2167 	 108.349
| 13> C 	 -35.5136 	 68.7308 	 106.495
| 14> H 	 -35.4617 	 69.4511 	 105.649
| 15> H 	 -36.4978 	 68.2865 	 106.498
| 16> C 	 -34.3717 	 67.6658 	 106.344
| 17> H 	 -33.4473 	 68.2544 	 106.453
| 18> H 	 -34.3531 	 67.0605 	 107.251
| 19> C 	 -34.5188 	 66.904 	 104.985
| 20> H 	 -34.9819 	 67.5434 	 104.308
| 21> H 	 -33.5658 	 66.4385 	 104.599
| 22> H 	 -35.2483 	 66.0923 	 105.032
| 23> S 	 -34.5387 	 70.3055 	 112.568
| 24> C 	 -33.0197 	 70.4198 	 113.242
| 25> C 	 -32.0667 	 70.7665 	 112.348
| 26> C 	 -32.5695 	 70.749 	 110.986
| 27> C 	 -33.8846 	 70.4001 	 110.971
| 28> H 	 -31.0016 	 70.9028 	 112.676
| 29> C 	 -31.6617 	 71.0881 	 109.833
| 30> H 	 -32.0023 	 70.6667 	 108.873
| 31> H 	 -30.6466 	 70.7307 	 109.973
| 32> C 	 -31.6226 	 72.6302 	 109.566
| 33> H 	 -30.9768 	 72.8138 	 108.743
| 34> H 	 -31.4404 	 73.2323 	 110.47
| 35> C 	 -33.0031 	 73.1689 	 109.134
| 36> H 	 -33.7379 	 73.0629 	 109.895
| 37> H 	 -33.5045 	 72.6246 	 108.305
| 38> H 	 -32.9162 	 74.214 	 108.799
| 39> H 	 -37.7178 	 70.0999 	 107.891
| 40> H 	 -32.8296 	 70.4981 	 114.322
| 41> *
| 42>
| 43>                          ****END OF INPUT****

CARTESIAN COORDINATES (ANGSTROEM)
---------------------------------
  S    -36.384300   70.837100  109.853000
  C    -36.721000   70.101100  108.294000
  C    -35.566500   69.517500  107.779000
  C    -34.400700   69.641700  108.608000
  C    -34.750900   70.174900  109.837000
  H    -33.448400   69.216700  108.349000
  C    -35.513600   68.730800  106.495000
  H    -35.461700   69.451100  105.649000
  H    -36.497800   68.286500  106.498000
  C    -34.371700   67.665800  106.344000
  H    -33.447300   68.254400  106.453000
  H    -34.353100   67.060500  107.251000
  C    -34.518800   66.904000  104.985000
  H    -34.981900   67.543400  104.308000
  H    -33.565800   66.438500  104.599000
  H    -35.248300   66.092300  105.032000
  S    -34.538700   70.305500  112.568000
  C    -33.019700   70.419800  113.242000
  C    -32.066700   70.766500  112.348000
  C    -32.569500   70.749000  110.986000
  C    -33.884600   70.400100  110.971000
  H    -31.001600   70.902800  112.676000
  C    -31.661700   71.088100  109.833000
  H    -32.002300   70.666700  108.873000
  H    -30.646600   70.730700  109.973000
  C    -31.622600   72.630200  109.566000
  H    -30.976800   72.813800  108.743000
  H    -31.440400   73.232300  110.470000
  C    -33.003100   73.168900  109.134000
  H    -33.737900   73.062900  109.895000
  H    -33.504500   72.624600  108.305000
  H    -32.916200   74.214000  108.799000
  H    -37.717800   70.099900  107.891000
  H    -32.829600   70.498100  114.322000

 Total Charge           Charge          ....    0
 Multiplicity           Mult            ....    1
 Number of Electrons    NEL             ....  134
 Basis Dimension        Dim             ....  322

ORBITAL ENERGIES
----------------

  NO   OCC          E(Eh)            E(eV)
   0   2.0000     -88.965668     -2420.8789
   1   2.0000     -88.963361     -2420.8161
   2   2.0000     -10.330311      -281.1021
   3   2.0000     -10.319151      -280.7984
   4   2.0000     -10.311491      -280.5899
   5   2.0000     -10.308790      -280.5164
   6   2.0000     -10.301751      -280.3249
   7   2.0000     -10.301495      -280.3179
   8   2.0000     -10.295434      -280.1530
   9   2.0000     -10.293271      -280.0942
  10   2.0000     -10.293245      -280.0934
  11   2.0000     -10.292949      -280.0854
  12   2.0000     -10.291732      -280.0523
  13   2.0000     -10.284149      -279.8459
  14   2.0000     -10.283746      -279.8350
  15   2.0000     -10.265512      -279.3388
  16   2.0000      -8.080515      -219.8820
  17   2.0000      -8.080078      -219.8701
  18   2.0000      -6.038918      -164.3273
  19   2.0000      -6.038617      -164.3191
  20   2.0000      -6.034813      -164.2156
  21   2.0000      -6.034692      -164.2123
  22   2.0000      -6.031100      -164.1146
  23   2.0000      -6.030789      -164.1061
  24   2.0000      -1.017671       -27.6922
  25   2.0000      -0.987253       -26.8645
  26   2.0000      -0.909942       -24.7608
  27   2.0000      -0.907930       -24.7060
  28   2.0000      -0.870492       -23.6873
  29   2.0000      -0.850910       -23.1544
  30   2.0000      -0.843138       -22.9430
  31   2.0000      -0.815572       -22.1928
  32   2.0000      -0.782589       -21.2953
  33   2.0000      -0.769589       -20.9416
  34   2.0000      -0.718189       -19.5429
  35   2.0000      -0.695279       -18.9195
  36   2.0000      -0.690292       -18.7838
  37   2.0000      -0.657995       -17.9050
  38   2.0000      -0.636755       -17.3270
  39   2.0000      -0.626465       -17.0470
  40   2.0000      -0.602450       -16.3935
  41   2.0000      -0.567990       -15.4558
  42   2.0000      -0.555307       -15.1107
  43   2.0000      -0.550679       -14.9847
  44   2.0000      -0.542439       -14.7605
  45   2.0000      -0.523224       -14.2376
  46   2.0000      -0.514824       -14.0091
  47   2.0000      -0.509120       -13.8538
  48   2.0000      -0.502290       -13.6680
  49   2.0000      -0.497366       -13.5340
  50   2.0000      -0.491733       -13.3807
  51   2.0000      -0.481025       -13.0893
  52   2.0000      -0.479223       -13.0403
  53   2.0000      -0.463790       -12.6204
  54   2.0000      -0.456647       -12.4260
  55   2.0000      -0.450320       -12.2538
  56   2.0000      -0.445705       -12.1282
  57   2.0000      -0.433329       -11.7915
  58   2.0000      -0.427296       -11.6273
  59   2.0000      -0.423005       -11.5106
  60   2.0000      -0.421546       -11.4708
  61   2.0000      -0.418973       -11.4008
  62   2.0000      -0.415067       -11.2946
  63   2.0000      -0.355234        -9.6664
  64   2.0000      -0.331236        -9.0134
  65   2.0000      -0.328458        -8.9378
  66   2.0000      -0.286301        -7.7906
  67   0.0000       0.026240         0.7140
  68   0.0000       0.078397         2.1333
  69   0.0000       0.108893         2.9631
  70   0.0000       0.121023         3.2932
  71   0.0000       0.140243         3.8162

MULLIKEN ATOMIC CHARGES
-----------------------
   0 S :    0.096161
   1 C :   -0.130590
   2 C :   -0.089484
   3 C :   -0.004421
   4 C :   -0.114089
   5 H :    0.021006
   6 C :    0.037689
   7 H :    0.047129
   8 H :    0.024889
   9 C :   -0.104343
  10 H :    0.035759
  11 H :    0.037504
  12 C :   -0.010101
  13 H :    0.014744
  14 H :    0.049628
  15 H :    0.028924
  16 S :    0.122643
  17 C :   -0.077768
  18 C :   -0.064009
  19 C :   -0.051809
  20 C :   -0.159328
  21 H :    0.035591
  22 C :    0.081970
  23 H :    0.010573
  24 H :    0.026376
  25 C :   -0.052777
  26 H :    0.028313
  27 H :    0.038470
  28 C :   -0.076762
  29 H :    0.029779
  30 H :    0.025375
  31 H :    0.035617
  32 H :    0.044915
  33 H :    0.062426
Sum of atomic charges:    0.0000000

LOEWDIN ATOMIC CHARGES
----------------------
   0 S :    0.392676
   1 C :   -0.204295
   2 C :   -0.055913
   3 C :   -0.069922
   4 C :   -0.170621
   5 H :    0.028208
   6 C :   -0.038068
   7 H :    0.035900
   8 H :    0.029221
   9 C :   -0.041658
  10 H :    0.022118
  11 H :    0.024674
  12 C :   -0.062227
  13 H :    0.017116
  14 H :    0.035862
  15 H :    0.029380
  16 S :    0.440893
  17 C :   -0.212633
  18 C :   -0.078427
  19 C :   -0.052791
  20 C :   -0.212798
  21 H :    0.039705
  22 C :   -0.029721
  23 H :    0.029159
  24 H :    0.028949
  25 C :   -0.030409
  26 H :    0.019698
  27 H :    0.028597
  28 C :   -0.071787
  29 H :    0.017028
  30 H :    0.024587
  31 H :    0.026756
  32 H :    0.024844
  33 H :    0.035897

  Mayer bond orders larger than 0.100000
B(  0-S ,  1-C ) :   1.1138 B(  0-S ,  4-C ) :   1.1635 B(  1-C ,  2-C ) :   1.6107
B(  1-C ,  4-C ) :   0.1019 B(  1-C , 32-H ) :   0.9776 B(  2-C ,  3-C ) :   1.2431
B(  2-C ,  6-C ) :   1.0078 B(  3-C ,  4-C ) :   1.5625 B(  3-C ,  5-H ) :   0.9854
B(  4-C , 20-C ) :   1.0608 B(  6-C ,  7-H ) :   0.9255 B(  6-C ,  8-H ) :   0.9465
B(  6-C ,  9-C ) :   1.0756 B(  9-C , 10-H ) :   0.9480 B(  9-C , 11-H ) :   0.9634
B(  9-C , 12-C ) :   1.0624 B( 12-C , 13-H ) :   0.9734 B( 12-C , 14-H ) :   0.9758
B( 12-C , 15-H ) :   0.9734 B( 16-S , 17-C ) :   1.1667 B( 16-S , 20-C ) :   1.1358
B( 17-C , 18-C ) :   1.6280 B( 17-C , 33-H ) :   0.9596 B( 18-C , 19-C ) :   1.2239
B( 18-C , 21-H ) :   0.9837 B( 19-C , 20-C ) :   1.6037 B( 19-C , 22-C ) :   1.0501
B( 22-C , 23-H ) :   0.9329 B( 22-C , 24-H ) :   0.9340 B( 22-C , 25-C ) :   1.0726
B( 25-C , 26-H ) :   0.9578 B( 25-C , 27-H ) :   0.9579 B( 25-C , 28-C ) :   1.0709
B( 28-C , 29-H ) :   0.9738 B( 28-C , 30-H ) :   0.9725 B( 28-C , 31-H ) :   0.9740

Dispersion correction           -0.015411507
FINAL SINGLE POINT ENERGY     -1339.882204986359

DIPOLE MOMENT
-------------
                                X             Y             Z
Electronic contribution:    -11.25895       2.91056      23.31916
Nuclear contribution   :     11.65930      -3.04060     -23.71965
                        -----------------------------------------
Total Dipole Moment    :      0.40035      -0.13004      -0.40049
                        -----------------------------------------
Magnitude (a.u.)       :      0.58102
Magnitude (Debye)      :      1.47683

Rotational constants in cm-1:     0.020082     0.008594     0.007660
Rotational constants in MHz :   602.042200   257.645477   229.642460

                             ****ORCA TERMINATED NORMALLY****
TOTAL RUN TIME: 0 days 0 hours 0 minutes 29 seconds 716 msec
