                         Program Version 4.2.1 -  RELEASE  -
|  1> ! wB97X-D3 SP def2-SVP
|  2> %pal
|  3> nprocs 16
|  4> end
|  5>
|  6> * xyz 0 1
|  7> S 	 -47.6131 	 63.6544 	 144.05
|  8> C 	 -46.4486 	 62.5129 	 144.606
|  9> C 	 -45.9375 	 61.7281 	 143.531
| 10> C 	 -46.523 	 62.1896 	 142.305
| 11> C 	 -47.3786 	 63.2826 	 142.381
| 12> H 	 -46.1897 	 61.7928 	 141.351
| 13> C 	 -44.867 	 60.617 	 143.634
| 14> H 	 -44.4236 	 60.5033 	 142.619
| 15> H 	 -45.3978 	 59.7236 	 144.058
| 16> C 	 -43.8049 	 60.9623 	 144.715
| 17> H 	 -43.434 	 62.0007 	 144.712
| 18> H 	 -44.2571 	 60.7479 	 145.743
| 19> C 	 -42.6953 	 59.8407 	 144.66
| 20> H 	 -42.0607 	 59.9746 	 145.569
| 21> H 	 -43.1677 	 58.8309 	 144.601
| 22> H 	 -42.041 	 59.8618 	 143.764
| 23> S 	 -49.7583 	 64.3352 	 141.571
| 24> C 	 -50.0435 	 64.9058 	 139.911
| 25> C 	 -48.881 	 64.6257 	 139.2
| 26> C 	 -47.7842 	 64.1431 	 139.997
| 27> C 	 -48.0855 	 63.97 	 141.312
| 28> H 	 -48.8213 	 64.7448 	 138.151
| 29> C 	 -46.3954 	 63.9371 	 139.349
| 30> H 	 -45.6294 	 63.7986 	 140.144
| 31> H 	 -46.0658 	 64.7903 	 138.755
| 32> C 	 -46.419 	 62.7902 	 138.346
| 33> H 	 -47.0385 	 63.0548 	 137.496
| 34> H 	 -46.8573 	 61.9399 	 138.852
| 35> C 	 -44.993 	 62.4682 	 137.765
| 36> H 	 -44.8764 	 63.0767 	 136.86
| 37> H 	 -44.8066 	 61.5005 	 137.426
| 38> H 	 -44.2768 	 62.6598 	 138.581
| 39> H 	 -46.1444 	 62.2327 	 145.629
| 40> H 	 -50.9087 	 65.2528 	 139.465
| 41> *
| 42>
| 43>                          ****END OF INPUT****

CARTESIAN COORDINATES (ANGSTROEM)
---------------------------------
  S    -47.613100   63.654400  144.050000
  C    -46.448600   62.512900  144.606000
  C    -45.937500   61.728100  143.531000
  C    -46.523000   62.189600  142.305000
  C    -47.378600   63.282600  142.381000
  H    -46.189700   61.792800  141.351000
  C    -44.867000   60.617000  143.634000
  H    -44.423600   60.503300  142.619000
  H    -45.397800   59.723600  144.058000
  C    -43.804900   60.962300  144.715000
  H    -43.434000   62.000700  144.712000
  H    -44.257100   60.747900  145.743000
  C    -42.695300   59.840700  144.660000
  H    -42.060700   59.974600  145.569000
  H    -43.167700   58.830900  144.601000
  H    -42.041000   59.861800  143.764000
  S    -49.758300   64.335200  141.571000
  C    -50.043500   64.905800  139.911000
  C    -48.881000   64.625700  139.200000
  C    -47.784200   64.143100  139.997000
  C    -48.085500   63.970000  141.312000
  H    -48.821300   64.744800  138.151000
  C    -46.395400   63.937100  139.349000
  H    -45.629400   63.798600  140.144000
  H    -46.065800   64.790300  138.755000
  C    -46.419000   62.790200  138.346000
  H    -47.038500   63.054800  137.496000
  H    -46.857300   61.939900  138.852000
  C    -44.993000   62.468200  137.765000
  H    -44.876400   63.076700  136.860000
  H    -44.806600   61.500500  137.426000
  H    -44.276800   62.659800  138.581000
  H    -46.144400   62.232700  145.629000
  H    -50.908700   65.252800  139.465000

 Total Charge           Charge          ....    0
 Multiplicity           Mult            ....    1
 Number of Electrons    NEL             ....  134
 Basis Dimension        Dim             ....  322

ORBITAL ENERGIES
----------------

  NO   OCC          E(Eh)            E(eV)
   0   2.0000     -88.970171     -2421.0014
   1   2.0000     -88.963227     -2420.8125
   2   2.0000     -10.330865      -281.1171
   3   2.0000     -10.327093      -281.0145
   4   2.0000     -10.318624      -280.7840
   5   2.0000     -10.317301      -280.7480
   6   2.0000     -10.307360      -280.4775
   7   2.0000     -10.305277      -280.4208
   8   2.0000     -10.302109      -280.3346
   9   2.0000     -10.301660      -280.3224
  10   2.0000     -10.295311      -280.1497
  11   2.0000     -10.294197      -280.1193
  12   2.0000     -10.293609      -280.1033
  13   2.0000     -10.290647      -280.0227
  14   2.0000     -10.285835      -279.8918
  15   2.0000     -10.277994      -279.6784
  16   2.0000      -8.085181      -220.0090
  17   2.0000      -8.078024      -219.8142
  18   2.0000      -6.043720      -164.4580
  19   2.0000      -6.039435      -164.3414
  20   2.0000      -6.036722      -164.2675
  21   2.0000      -6.036104      -164.2507
  22   2.0000      -6.032441      -164.1511
  23   2.0000      -6.028621      -164.0471
  24   2.0000      -1.010692       -27.5023
  25   2.0000      -0.985535       -26.8178
  26   2.0000      -0.909429       -24.7468
  27   2.0000      -0.907323       -24.6895
  28   2.0000      -0.870102       -23.6767
  29   2.0000      -0.849717       -23.1220
  30   2.0000      -0.841321       -22.8935
  31   2.0000      -0.813860       -22.1463
  32   2.0000      -0.778716       -21.1899
  33   2.0000      -0.771036       -20.9810
  34   2.0000      -0.707759       -19.2591
  35   2.0000      -0.699398       -19.0316
  36   2.0000      -0.694728       -18.9045
  37   2.0000      -0.668761       -18.1979
  38   2.0000      -0.634705       -17.2712
  39   2.0000      -0.618623       -16.8336
  40   2.0000      -0.597722       -16.2648
  41   2.0000      -0.571897       -15.5621
  42   2.0000      -0.569844       -15.5062
  43   2.0000      -0.567742       -15.4491
  44   2.0000      -0.527854       -14.3636
  45   2.0000      -0.524828       -14.2813
  46   2.0000      -0.519416       -14.1340
  47   2.0000      -0.512300       -13.9404
  48   2.0000      -0.512093       -13.9347
  49   2.0000      -0.495391       -13.4803
  50   2.0000      -0.488050       -13.2805
  51   2.0000      -0.478376       -13.0173
  52   2.0000      -0.474880       -12.9221
  53   2.0000      -0.466671       -12.6988
  54   2.0000      -0.461621       -12.5614
  55   2.0000      -0.449392       -12.2286
  56   2.0000      -0.444931       -12.1072
  57   2.0000      -0.434890       -11.8340
  58   2.0000      -0.428750       -11.6669
  59   2.0000      -0.424005       -11.5378
  60   2.0000      -0.421057       -11.4575
  61   2.0000      -0.418796       -11.3960
  62   2.0000      -0.410959       -11.1828
  63   2.0000      -0.355651        -9.6778
  64   2.0000      -0.331071        -9.0089
  65   2.0000      -0.326689        -8.8897
  66   2.0000      -0.289768        -7.8850
  67   0.0000       0.025455         0.6927
  68   0.0000       0.076441         2.0801
  69   0.0000       0.109225         2.9722
  70   0.0000       0.122415         3.3311
  71   0.0000       0.127787         3.4773

MULLIKEN ATOMIC CHARGES
-----------------------
   0 S :    0.131816
   1 C :   -0.114016
   2 C :   -0.134678
   3 C :    0.029194
   4 C :   -0.155446
   5 H :   -0.005607
   6 C :    0.069821
   7 H :    0.042270
   8 H :    0.056612
   9 C :   -0.143644
  10 H :    0.055485
  11 H :    0.042007
  12 C :   -0.068744
  13 H :    0.046693
  14 H :    0.034343
  15 H :    0.036762
  16 S :    0.085611
  17 C :   -0.054232
  18 C :   -0.020638
  19 C :   -0.056340
  20 C :   -0.089897
  21 H :    0.005890
  22 C :    0.045054
  23 H :    0.032266
  24 H :    0.027506
  25 C :   -0.109519
  26 H :    0.030737
  27 H :    0.032792
  28 C :   -0.021108
  29 H :    0.033928
  30 H :    0.019532
  31 H :    0.030740
  32 H :    0.051943
  33 H :    0.032866
Sum of atomic charges:   -0.0000000

LOEWDIN ATOMIC CHARGES
----------------------
   0 S :    0.439671
   1 C :   -0.220651
   2 C :   -0.066437
   3 C :   -0.067584
   4 C :   -0.206513
   5 H :    0.024801
   6 C :   -0.033687
   7 H :    0.034561
   8 H :    0.045920
   9 C :   -0.047089
  10 H :    0.027435
  11 H :    0.030905
  12 C :   -0.074333
  13 H :    0.030126
  14 H :    0.028739
  15 H :    0.023175
  16 S :    0.399412
  17 C :   -0.164461
  18 C :   -0.058340
  19 C :   -0.060985
  20 C :   -0.198507
  21 H :    0.022504
  22 C :   -0.031544
  23 H :    0.029047
  24 H :    0.029961
  25 C :   -0.040172
  26 H :    0.021493
  27 H :    0.018065
  28 C :   -0.062346
  29 H :    0.029467
  30 H :    0.016584
  31 H :    0.027464
  32 H :    0.034425
  33 H :    0.018896

  Mayer bond orders larger than 0.100000
B(  0-S ,  1-C ) :   1.1620 B(  0-S ,  4-C ) :   1.1651 B(  1-C ,  2-C ) :   1.5671
B(  1-C ,  4-C ) :   0.1062 B(  1-C , 32-H ) :   0.9624 B(  2-C ,  3-C ) :   1.3044
B(  2-C ,  6-C ) :   1.0106 B(  3-C ,  4-C ) :   1.5276 B(  3-C ,  5-H ) :   0.9886
B(  4-C , 20-C ) :   1.0351 B(  6-C ,  7-H ) :   0.9540 B(  6-C ,  8-H ) :   0.9269
B(  6-C ,  9-C ) :   1.0633 B(  9-C , 10-H ) :   0.9652 B(  9-C , 11-H ) :   0.9496
B(  9-C , 12-C ) :   1.0665 B( 12-C , 13-H ) :   0.9768 B( 12-C , 14-H ) :   0.9714
B( 12-C , 15-H ) :   0.9784 B( 16-S , 17-C ) :   1.1402 B( 16-S , 20-C ) :   1.1336
B( 17-C , 18-C ) :   1.6018 B( 17-C , 33-H ) :   0.9818 B( 18-C , 19-C ) :   1.2424
B( 18-C , 21-H ) :   0.9927 B( 19-C , 20-C ) :   1.6219 B( 19-C , 22-C ) :   1.0354
B( 22-C , 23-H ) :   0.9403 B( 22-C , 24-H ) :   0.9412 B( 22-C , 25-C ) :   1.0525
B( 25-C , 26-H ) :   0.9602 B( 25-C , 27-H ) :   0.9597 B( 25-C , 28-C ) :   1.0692
B( 28-C , 29-H ) :   0.9772 B( 28-C , 30-H ) :   0.9772 B( 28-C , 31-H ) :   0.9770

Dispersion correction           -0.013683476
FINAL SINGLE POINT ENERGY     -1339.873604912143

DIPOLE MOMENT
-------------
                                X             Y             Z
Electronic contribution:    -26.35523      15.89705       8.70690
Nuclear contribution   :     26.87867     -16.33837      -9.10404
                        -----------------------------------------
Total Dipole Moment    :      0.52344      -0.44132      -0.39714
                        -----------------------------------------
Magnitude (a.u.)       :      0.79150
Magnitude (Debye)      :      2.01184

Rotational constants in cm-1:     0.018700     0.008323     0.005954
Rotational constants in MHz :   560.624629   249.512080   178.490475

                             ****ORCA TERMINATED NORMALLY****
TOTAL RUN TIME: 0 days 0 hours 0 minutes 34 seconds 196 msec
