                         Program Version 4.2.1 -  RELEASE  -
|  1> ! wB97X-D3 SP def2-SVP
|  2> %pal
|  3> nprocs 16
|  4> end
|  5>
|  6> * xyz 0 1
|  7> S 	 4.07407 	 8.3287 	 82.5063
|  8> C 	 5.28275 	 8.34419 	 81.2593
|  9> C 	 6.17202 	 9.41163 	 81.3688
| 10> C 	 5.89336 	 10.1798 	 82.5602
| 11> C 	 4.91863 	 9.61666 	 83.3583
| 12> H 	 6.44089 	 11.0376 	 82.8696
| 13> C 	 7.29833 	 9.81993 	 80.4734
| 14> H 	 7.40034 	 10.8941 	 80.5288
| 15> H 	 7.00424 	 9.69335 	 79.4038
| 16> C 	 8.62936 	 9.08821 	 80.9109
| 17> H 	 8.84044 	 9.39392 	 81.9382
| 18> H 	 8.48062 	 8.02772 	 80.6806
| 19> C 	 9.8456 	 9.61829 	 80.1613
| 20> H 	 10.0052 	 10.5828 	 80.403
| 21> H 	 10.7057 	 9.09272 	 80.4474
| 22> H 	 9.61761 	 9.59666 	 79.0567
| 23> S 	 2.85714 	 10.774 	 84.7115
| 24> C 	 3.05341 	 11.1051 	 86.3763
| 25> C 	 4.32124 	 10.8335 	 86.8794
| 26> C 	 5.1501 	 10.3007 	 85.8702
| 27> C 	 4.49097 	 10.1901 	 84.6601
| 28> H 	 4.44902 	 10.9792 	 87.9556
| 29> C 	 6.55516 	 9.77888 	 86.1459
| 30> H 	 6.98508 	 9.29873 	 85.2818
| 31> H 	 6.42759 	 8.9295 	 86.8933
| 32> C 	 7.56725 	 10.8262 	 86.669
| 33> H 	 8.36639 	 10.3835 	 87.2932
| 34> H 	 7.08609 	 11.536 	 87.3279
| 35> C 	 8.40389 	 11.6234 	 85.628
| 36> H 	 8.84413 	 10.911 	 84.923
| 37> H 	 9.0935 	 12.2436 	 86.1799
| 38> H 	 7.69146 	 12.1838 	 84.9803
| 39> H 	 5.21389 	 7.70986 	 80.4363
| 40> H 	 2.27591 	 11.526 	 86.9733
| 41> *
| 42>
| 43>                          ****END OF INPUT****

CARTESIAN COORDINATES (ANGSTROEM)
---------------------------------
  S      4.074070    8.328700   82.506300
  C      5.282750    8.344190   81.259300
  C      6.172020    9.411630   81.368800
  C      5.893360   10.179800   82.560200
  C      4.918630    9.616660   83.358300
  H      6.440890   11.037600   82.869600
  C      7.298330    9.819930   80.473400
  H      7.400340   10.894100   80.528800
  H      7.004240    9.693350   79.403800
  C      8.629360    9.088210   80.910900
  H      8.840440    9.393920   81.938200
  H      8.480620    8.027720   80.680600
  C      9.845600    9.618290   80.161300
  H     10.005200   10.582800   80.403000
  H     10.705700    9.092720   80.447400
  H      9.617610    9.596660   79.056700
  S      2.857140   10.774000   84.711500
  C      3.053410   11.105100   86.376300
  C      4.321240   10.833500   86.879400
  C      5.150100   10.300700   85.870200
  C      4.490970   10.190100   84.660100
  H      4.449020   10.979200   87.955600
  C      6.555160    9.778880   86.145900
  H      6.985080    9.298730   85.281800
  H      6.427590    8.929500   86.893300
  C      7.567250   10.826200   86.669000
  H      8.366390   10.383500   87.293200
  H      7.086090   11.536000   87.327900
  C      8.403890   11.623400   85.628000
  H      8.844130   10.911000   84.923000
  H      9.093500   12.243600   86.179900
  H      7.691460   12.183800   84.980300
  H      5.213890    7.709860   80.436300
  H      2.275910   11.526000   86.973300

 Total Charge           Charge          ....    0
 Multiplicity           Mult            ....    1
 Number of Electrons    NEL             ....  134
 Basis Dimension        Dim             ....  322

ORBITAL ENERGIES
----------------

  NO   OCC          E(Eh)            E(eV)
   0   2.0000     -88.966028     -2420.8887
   1   2.0000     -88.965420     -2420.8722
   2   2.0000     -10.327070      -281.0139
   3   2.0000     -10.322152      -280.8800
   4   2.0000     -10.311059      -280.5782
   5   2.0000     -10.309111      -280.5252
   6   2.0000     -10.303366      -280.3689
   7   2.0000     -10.300121      -280.2805
   8   2.0000     -10.295073      -280.1432
   9   2.0000     -10.294209      -280.1197
  10   2.0000     -10.293207      -280.0924
  11   2.0000     -10.290701      -280.0242
  12   2.0000     -10.289498      -279.9915
  13   2.0000     -10.286402      -279.9072
  14   2.0000     -10.281321      -279.7690
  15   2.0000     -10.267490      -279.3926
  16   2.0000      -8.081353      -219.9048
  17   2.0000      -8.080762      -219.8887
  18   2.0000      -6.039564      -164.3449
  19   2.0000      -6.039251      -164.3364
  20   2.0000      -6.035754      -164.2412
  21   2.0000      -6.035316      -164.2293
  22   2.0000      -6.032307      -164.1474
  23   2.0000      -6.031521      -164.1260
  24   2.0000      -1.008056       -27.4306
  25   2.0000      -0.985364       -26.8131
  26   2.0000      -0.910659       -24.7803
  27   2.0000      -0.904264       -24.6063
  28   2.0000      -0.866455       -23.5774
  29   2.0000      -0.853865       -23.2348
  30   2.0000      -0.851193       -23.1621
  31   2.0000      -0.813022       -22.1235
  32   2.0000      -0.782065       -21.2811
  33   2.0000      -0.770916       -20.9777
  34   2.0000      -0.700906       -19.0726
  35   2.0000      -0.699268       -19.0281
  36   2.0000      -0.692568       -18.8457
  37   2.0000      -0.656924       -17.8758
  38   2.0000      -0.645869       -17.5750
  39   2.0000      -0.619582       -16.8597
  40   2.0000      -0.598572       -16.2880
  41   2.0000      -0.572164       -15.5694
  42   2.0000      -0.563350       -15.3295
  43   2.0000      -0.553365       -15.0578
  44   2.0000      -0.532516       -14.4905
  45   2.0000      -0.530461       -14.4346
  46   2.0000      -0.522447       -14.2165
  47   2.0000      -0.510131       -13.8814
  48   2.0000      -0.503942       -13.7130
  49   2.0000      -0.497996       -13.5512
  50   2.0000      -0.491378       -13.3711
  51   2.0000      -0.474866       -12.9218
  52   2.0000      -0.469535       -12.7767
  53   2.0000      -0.463822       -12.6212
  54   2.0000      -0.457327       -12.4445
  55   2.0000      -0.450743       -12.2654
  56   2.0000      -0.449001       -12.2179
  57   2.0000      -0.439441       -11.9578
  58   2.0000      -0.432013       -11.7557
  59   2.0000      -0.426873       -11.6158
  60   2.0000      -0.425132       -11.5684
  61   2.0000      -0.420891       -11.4530
  62   2.0000      -0.407372       -11.0851
  63   2.0000      -0.339336        -9.2338
  64   2.0000      -0.333559        -9.0766
  65   2.0000      -0.325359        -8.8535
  66   2.0000      -0.295734        -8.0473
  67   0.0000       0.038672         1.0523
  68   0.0000       0.066502         1.8096
  69   0.0000       0.113137         3.0786
  70   0.0000       0.118974         3.2374
  71   0.0000       0.129635         3.5275

MULLIKEN ATOMIC CHARGES
-----------------------
   0 S :    0.115634
   1 C :   -0.099518
   2 C :   -0.076666
   3 C :    0.047262
   4 C :   -0.157237
   5 H :   -0.003494
   6 C :    0.035891
   7 H :    0.015786
   8 H :    0.030013
   9 C :   -0.080776
  10 H :    0.033381
  11 H :    0.043255
  12 C :    0.015087
  13 H :   -0.001997
  14 H :    0.026759
  15 H :    0.029830
  16 S :    0.125596
  17 C :   -0.094353
  18 C :   -0.051150
  19 C :   -0.006998
  20 C :   -0.190279
  21 H :    0.028612
  22 C :    0.074057
  23 H :    0.019380
  24 H :    0.048477
  25 C :   -0.100306
  26 H :    0.026805
  27 H :    0.024238
  28 C :   -0.050565
  29 H :    0.027799
  30 H :    0.045451
  31 H :    0.034897
  32 H :    0.021044
  33 H :    0.044084
Sum of atomic charges:   -0.0000000

LOEWDIN ATOMIC CHARGES
----------------------
   0 S :    0.404794
   1 C :   -0.192364
   2 C :   -0.058491
   3 C :   -0.055121
   4 C :   -0.196207
   5 H :    0.024502
   6 C :   -0.038215
   7 H :    0.026785
   8 H :    0.032183
   9 C :   -0.028308
  10 H :    0.027455
  11 H :    0.027939
  12 C :   -0.055504
  13 H :    0.007458
  14 H :    0.021200
  15 H :    0.030597
  16 S :    0.430839
  17 C :   -0.190641
  18 C :   -0.075035
  19 C :   -0.057235
  20 C :   -0.206082
  21 H :    0.038071
  22 C :   -0.031011
  23 H :    0.026204
  24 H :    0.044416
  25 C :   -0.045643
  26 H :    0.025368
  27 H :    0.018476
  28 C :   -0.062926
  29 H :    0.022104
  30 H :    0.027556
  31 H :    0.024010
  32 H :    0.012308
  33 H :    0.020519

  Mayer bond orders larger than 0.100000
B(  0-S ,  1-C ) :   1.1390 B(  0-S ,  4-C ) :   1.1515 B(  1-C ,  2-C ) :   1.6046
B(  1-C , 32-H ) :   0.9775 B(  2-C ,  3-C ) :   1.2368 B(  2-C ,  6-C ) :   1.0356
B(  3-C ,  4-C ) :   1.5780 B(  3-C ,  5-H ) :   0.9969 B(  4-C , 20-C ) :   1.0108
B(  6-C ,  7-H ) :   0.9410 B(  6-C ,  8-H ) :   0.9378 B(  6-C ,  9-C ) :   1.0543
B(  9-C , 10-H ) :   0.9576 B(  9-C , 11-H ) :   0.9595 B(  9-C , 12-C ) :   1.0881
B( 12-C , 13-H ) :   0.9717 B( 12-C , 14-H ) :   0.9716 B( 12-C , 15-H ) :   0.9720
B( 16-S , 17-C ) :   1.1740 B( 16-S , 20-C ) :   1.1610 B( 17-C , 18-C ) :   1.6091
B( 17-C , 33-H ) :   0.9679 B( 18-C , 19-C ) :   1.2302 B( 18-C , 21-H ) :   0.9923
B( 19-C , 20-C ) :   1.6059 B( 19-C , 22-C ) :   1.0433 B( 22-C , 23-H ) :   0.9380
B( 22-C , 24-H ) :   0.9384 B( 22-C , 25-C ) :   1.0489 B( 25-C , 26-H ) :   0.9577
B( 25-C , 27-H ) :   0.9621 B( 25-C , 28-C ) :   1.0777 B( 28-C , 29-H ) :   0.9753
B( 28-C , 30-H ) :   0.9736 B( 28-C , 31-H ) :   0.9754

Dispersion correction           -0.014585888
FINAL SINGLE POINT ENERGY     -1339.879071726587

DIPOLE MOMENT
-------------
                                X             Y             Z
Electronic contribution:    -31.07130      -4.68605       2.74155
Nuclear contribution   :     31.61557       4.86391      -2.65786
                        -----------------------------------------
Total Dipole Moment    :      0.54428       0.17785       0.08369
                        -----------------------------------------
Magnitude (a.u.)       :      0.57868
Magnitude (Debye)      :      1.47090

Rotational constants in cm-1:     0.018151     0.009349     0.006710
Rotational constants in MHz :   544.140194   280.280167   201.170928

                             ****ORCA TERMINATED NORMALLY****
TOTAL RUN TIME: 0 days 0 hours 0 minutes 35 seconds 379 msec
