                         Program Version 4.2.1 -  RELEASE  -
|  1> ! wB97X-D3 SP def2-SVP
|  2> %pal
|  3> nprocs 16
|  4> end
|  5>
|  6> * xyz 0 1
|  7> S 	 10.2617 	 22.9286 	 60.8006
|  8> C 	 10.8745 	 21.2803 	 60.646
|  9> C 	 10.2052 	 20.437 	 61.5052
| 10> C 	 9.20566 	 21.1413 	 62.2846
| 11> C 	 9.07186 	 22.449 	 61.9788
| 12> H 	 8.60567 	 20.6332 	 63.0396
| 13> C 	 10.5772 	 18.976 	 61.7225
| 14> H 	 10.9632 	 18.5464 	 60.8048
| 15> H 	 9.60343 	 18.3917 	 61.862
| 16> C 	 11.566 	 18.7444 	 62.8738
| 17> H 	 11.8139 	 17.7083 	 62.7349
| 18> H 	 12.4947 	 19.3122 	 62.7589
| 19> C 	 11.0397 	 19.0159 	 64.3212
| 20> H 	 10.1096 	 18.4579 	 64.544
| 21> H 	 11.7996 	 18.8629 	 65.1442
| 22> H 	 10.7258 	 20.0036 	 64.4831
| 23> S 	 8.87733 	 24.7957 	 63.2811
| 24> C 	 7.39004 	 25.2027 	 64.0889
| 25> C 	 6.34801 	 24.3654 	 63.6552
| 26> C 	 6.79516 	 23.4044 	 62.6926
| 27> C 	 8.13402 	 23.3578 	 62.5818
| 28> H 	 5.32262 	 24.4782 	 64.1024
| 29> C 	 5.92667 	 22.3429 	 62.154
| 30> H 	 4.90441 	 22.3701 	 62.5892
| 31> H 	 6.26466 	 21.3365 	 62.3972
| 32> C 	 5.71762 	 22.4395 	 60.7022
| 33> H 	 6.70423 	 22.2711 	 60.281
| 34> H 	 5.41943 	 23.4582 	 60.5025
| 35> C 	 4.73386 	 21.4536 	 60.1032
| 36> H 	 4.76275 	 21.584 	 58.987
| 37> H 	 3.76082 	 21.5938 	 60.4655
| 38> H 	 5.08552 	 20.4333 	 60.2543
| 39> H 	 11.6527 	 20.9305 	 59.9826
| 40> H 	 7.16162 	 26.0562 	 64.7722
| 41> *
| 42>
| 43>                          ****END OF INPUT****

CARTESIAN COORDINATES (ANGSTROEM)
---------------------------------
  S     10.261700   22.928600   60.800600
  C     10.874500   21.280300   60.646000
  C     10.205200   20.437000   61.505200
  C      9.205660   21.141300   62.284600
  C      9.071860   22.449000   61.978800
  H      8.605670   20.633200   63.039600
  C     10.577200   18.976000   61.722500
  H     10.963200   18.546400   60.804800
  H      9.603430   18.391700   61.862000
  C     11.566000   18.744400   62.873800
  H     11.813900   17.708300   62.734900
  H     12.494700   19.312200   62.758900
  C     11.039700   19.015900   64.321200
  H     10.109600   18.457900   64.544000
  H     11.799600   18.862900   65.144200
  H     10.725800   20.003600   64.483100
  S      8.877330   24.795700   63.281100
  C      7.390040   25.202700   64.088900
  C      6.348010   24.365400   63.655200
  C      6.795160   23.404400   62.692600
  C      8.134020   23.357800   62.581800
  H      5.322620   24.478200   64.102400
  C      5.926670   22.342900   62.154000
  H      4.904410   22.370100   62.589200
  H      6.264660   21.336500   62.397200
  C      5.717620   22.439500   60.702200
  H      6.704230   22.271100   60.281000
  H      5.419430   23.458200   60.502500
  C      4.733860   21.453600   60.103200
  H      4.762750   21.584000   58.987000
  H      3.760820   21.593800   60.465500
  H      5.085520   20.433300   60.254300
  H     11.652700   20.930500   59.982600
  H      7.161620   26.056200   64.772200

 Total Charge           Charge          ....    0
 Multiplicity           Mult            ....    1
 Number of Electrons    NEL             ....  134
 Basis Dimension        Dim             ....  322

ORBITAL ENERGIES
----------------

  NO   OCC          E(Eh)            E(eV)
   0   2.0000     -88.966504     -2420.9017
   1   2.0000     -88.964083     -2420.8358
   2   2.0000     -10.326734      -281.0047
   3   2.0000     -10.321708      -280.8679
   4   2.0000     -10.321622      -280.8656
   5   2.0000     -10.315171      -280.6901
   6   2.0000     -10.301185      -280.3095
   7   2.0000     -10.300397      -280.2880
   8   2.0000     -10.300184      -280.2823
   9   2.0000     -10.298307      -280.2312
  10   2.0000     -10.293450      -280.0990
  11   2.0000     -10.290671      -280.0234
  12   2.0000     -10.280475      -279.7459
  13   2.0000     -10.280334      -279.7421
  14   2.0000     -10.273423      -279.5541
  15   2.0000     -10.271042      -279.4893
  16   2.0000      -8.081142      -219.8991
  17   2.0000      -8.079013      -219.8411
  18   2.0000      -6.039746      -164.3498
  19   2.0000      -6.037515      -164.2891
  20   2.0000      -6.035714      -164.2401
  21   2.0000      -6.033536      -164.1809
  22   2.0000      -6.031734      -164.1318
  23   2.0000      -6.029706      -164.0767
  24   2.0000      -1.012947       -27.5637
  25   2.0000      -0.986375       -26.8406
  26   2.0000      -0.920798       -25.0562
  27   2.0000      -0.909568       -24.7506
  28   2.0000      -0.870051       -23.6753
  29   2.0000      -0.853656       -23.2292
  30   2.0000      -0.840884       -22.8816
  31   2.0000      -0.815822       -22.1996
  32   2.0000      -0.784631       -21.3509
  33   2.0000      -0.775376       -21.0991
  34   2.0000      -0.706502       -19.2249
  35   2.0000      -0.704387       -19.1674
  36   2.0000      -0.687774       -18.7153
  37   2.0000      -0.664123       -18.0717
  38   2.0000      -0.640347       -17.4247
  39   2.0000      -0.620174       -16.8758
  40   2.0000      -0.598747       -16.2927
  41   2.0000      -0.574617       -15.6361
  42   2.0000      -0.569178       -15.4881
  43   2.0000      -0.542010       -14.7488
  44   2.0000      -0.538011       -14.6400
  45   2.0000      -0.523439       -14.2435
  46   2.0000      -0.515160       -14.0182
  47   2.0000      -0.511299       -13.9132
  48   2.0000      -0.507243       -13.8028
  49   2.0000      -0.503722       -13.7070
  50   2.0000      -0.492515       -13.4020
  51   2.0000      -0.479487       -13.0475
  52   2.0000      -0.475172       -12.9301
  53   2.0000      -0.464458       -12.6385
  54   2.0000      -0.461236       -12.5509
  55   2.0000      -0.447024       -12.1641
  56   2.0000      -0.443819       -12.0769
  57   2.0000      -0.437754       -11.9119
  58   2.0000      -0.429081       -11.6759
  59   2.0000      -0.425555       -11.5800
  60   2.0000      -0.420978       -11.4554
  61   2.0000      -0.412733       -11.2310
  62   2.0000      -0.408979       -11.1289
  63   2.0000      -0.345670        -9.4062
  64   2.0000      -0.331683        -9.0255
  65   2.0000      -0.329936        -8.9780
  66   2.0000      -0.297229        -8.0880
  67   0.0000       0.033752         0.9184
  68   0.0000       0.064010         1.7418
  69   0.0000       0.108215         2.9447
  70   0.0000       0.119431         3.2499
  71   0.0000       0.135680         3.6920

MULLIKEN ATOMIC CHARGES
-----------------------
   0 S :    0.112562
   1 C :   -0.118750
   2 C :   -0.093119
   3 C :    0.022448
   4 C :   -0.126335
   5 H :    0.017351
   6 C :    0.031653
   7 H :    0.019618
   8 H :    0.035894
   9 C :   -0.030565
  10 H :    0.028831
  11 H :    0.032688
  12 C :   -0.068455
  13 H :    0.025233
  14 H :    0.045461
  15 H :    0.025349
  16 S :    0.104363
  17 C :   -0.097062
  18 C :   -0.077951
  19 C :    0.015944
  20 C :   -0.174666
  21 H :    0.041867
  22 C :    0.065618
  23 H :    0.000426
  24 H :    0.013299
  25 C :   -0.093536
  26 H :    0.029485
  27 H :    0.019264
  28 C :   -0.007822
  29 H :    0.039215
  30 H :    0.022341
  31 H :    0.023155
  32 H :    0.045327
  33 H :    0.070871
Sum of atomic charges:    0.0000000

LOEWDIN ATOMIC CHARGES
----------------------
   0 S :    0.397187
   1 C :   -0.191456
   2 C :   -0.063939
   3 C :   -0.063830
   4 C :   -0.200084
   5 H :    0.031713
   6 C :   -0.036076
   7 H :    0.029009
   8 H :    0.037388
   9 C :   -0.034725
  10 H :    0.023450
  11 H :    0.027970
  12 C :   -0.072849
  13 H :    0.025144
  14 H :    0.036006
  15 H :    0.017174
  16 S :    0.401832
  17 C :   -0.196759
  18 C :   -0.076306
  19 C :   -0.056911
  20 C :   -0.183528
  21 H :    0.041396
  22 C :   -0.036885
  23 H :    0.026398
  24 H :    0.025735
  25 C :   -0.041649
  26 H :    0.023994
  27 H :    0.021686
  28 C :   -0.058016
  29 H :    0.035902
  30 H :    0.015001
  31 H :    0.024789
  32 H :    0.030066
  33 H :    0.041175

  Mayer bond orders larger than 0.100000
B(  0-S ,  1-C ) :   1.1214 B(  0-S ,  4-C ) :   1.1324 B(  1-C ,  2-C ) :   1.6363
B(  1-C , 32-H ) :   0.9691 B(  2-C ,  3-C ) :   1.2227 B(  2-C ,  6-C ) :   1.0263
B(  3-C ,  4-C ) :   1.5985 B(  3-C ,  5-H ) :   0.9918 B(  4-C , 20-C ) :   1.0313
B(  6-C ,  7-H ) :   0.9395 B(  6-C ,  8-H ) :   0.9408 B(  6-C ,  9-C ) :   1.0692
B(  9-C , 10-H ) :   0.9559 B(  9-C , 11-H ) :   0.9546 B(  9-C , 12-C ) :   1.0720
B( 12-C , 13-H ) :   0.9749 B( 12-C , 14-H ) :   0.9738 B( 12-C , 15-H ) :   0.9725
B( 16-S , 17-C ) :   1.1541 B( 16-S , 20-C ) :   1.1191 B( 17-C , 18-C ) :   1.6239
B( 17-C , 20-C ) :   0.1031 B( 17-C , 33-H ) :   0.9613 B( 18-C , 19-C ) :   1.2112
B( 18-C , 21-H ) :   0.9826 B( 19-C , 20-C ) :   1.6267 B( 19-C , 22-C ) :   1.0554
B( 22-C , 23-H ) :   0.9270 B( 22-C , 24-H ) :   0.9323 B( 22-C , 25-C ) :   1.0641
B( 25-C , 26-H ) :   0.9537 B( 25-C , 27-H ) :   0.9499 B( 25-C , 28-C ) :   1.0953
B( 28-C , 29-H ) :   0.9721 B( 28-C , 30-H ) :   0.9728 B( 28-C , 31-H ) :   0.9695

Dispersion correction           -0.014793832
FINAL SINGLE POINT ENERGY     -1339.883092100025

DIPOLE MOMENT
-------------
                                X             Y             Z
Electronic contribution:      8.37253      21.87348      -0.23780
Nuclear contribution   :     -8.61685     -22.43195       0.37509
                        -----------------------------------------
Total Dipole Moment    :     -0.24432      -0.55847       0.13730
                        -----------------------------------------
Magnitude (a.u.)       :      0.62484
Magnitude (Debye)      :      1.58822

Rotational constants in cm-1:     0.017492     0.009156     0.007855
Rotational constants in MHz :   524.383946   274.489065   235.492162

                             ****ORCA TERMINATED NORMALLY****
TOTAL RUN TIME: 0 days 0 hours 0 minutes 35 seconds 513 msec
