                         Program Version 4.2.1 -  RELEASE  -
|  1> ! wB97X-D3 SP def2-SVP
|  2> %pal
|  3> nprocs 16
|  4> end
|  5>
|  6> * xyz 0 1
|  7> S 	 13.6146 	 22.6617 	 40.3678
|  8> C 	 15.3523 	 22.991 	 40.0365
|  9> C 	 15.9265 	 21.7552 	 39.7385
| 10> C 	 15.0905 	 20.6252 	 39.7511
| 11> C 	 13.7327 	 20.9428 	 39.9736
| 12> H 	 15.4038 	 19.6313 	 39.6161
| 13> C 	 17.3943 	 21.6214 	 39.4154
| 14> H 	 17.7669 	 20.6698 	 39.8912
| 15> H 	 18.0103 	 22.3649 	 39.979
| 16> C 	 17.706 	 21.5865 	 37.9193
| 17> H 	 16.938 	 21.0836 	 37.3063
| 18> H 	 17.6761 	 22.6546 	 37.5925
| 19> C 	 19.066 	 20.981 	 37.5922
| 20> H 	 19.2692 	 21.2329 	 36.4806
| 21> H 	 19.8687 	 21.4234 	 38.1878
| 22> H 	 19.0683 	 19.8939 	 37.754
| 23> S 	 11.6226 	 19.8194 	 38.7072
| 24> C 	 10.5647 	 18.6998 	 39.5533
| 25> C 	 11.0113 	 18.3961 	 40.8325
| 26> C 	 12.1698 	 19.1704 	 41.1231
| 27> C 	 12.6227 	 20.044 	 40.1079
| 28> H 	 10.4619 	 17.7138 	 41.458
| 29> C 	 12.9568 	 18.8924 	 42.4211
| 30> H 	 14.008 	 19.0825 	 42.2781
| 31> H 	 13.0181 	 17.8505 	 42.6392
| 32> C 	 12.5326 	 19.6617 	 43.668
| 33> H 	 11.4254 	 19.5412 	 43.659
| 34> H 	 12.6618 	 20.7422 	 43.5129
| 35> C 	 13.2208 	 19.2443 	 44.966
| 36> H 	 12.7382 	 19.645 	 45.8684
| 37> H 	 14.1827 	 19.7423 	 45.0239
| 38> H 	 13.2774 	 18.1592 	 44.986
| 39> H 	 15.7804 	 23.9356 	 40.3147
| 40> H 	 9.59657 	 18.2645 	 39.2568
| 41> *
| 42>
| 43>                          ****END OF INPUT****

CARTESIAN COORDINATES (ANGSTROEM)
---------------------------------
  S     13.614600   22.661700   40.367800
  C     15.352300   22.991000   40.036500
  C     15.926500   21.755200   39.738500
  C     15.090500   20.625200   39.751100
  C     13.732700   20.942800   39.973600
  H     15.403800   19.631300   39.616100
  C     17.394300   21.621400   39.415400
  H     17.766900   20.669800   39.891200
  H     18.010300   22.364900   39.979000
  C     17.706000   21.586500   37.919300
  H     16.938000   21.083600   37.306300
  H     17.676100   22.654600   37.592500
  C     19.066000   20.981000   37.592200
  H     19.269200   21.232900   36.480600
  H     19.868700   21.423400   38.187800
  H     19.068300   19.893900   37.754000
  S     11.622600   19.819400   38.707200
  C     10.564700   18.699800   39.553300
  C     11.011300   18.396100   40.832500
  C     12.169800   19.170400   41.123100
  C     12.622700   20.044000   40.107900
  H     10.461900   17.713800   41.458000
  C     12.956800   18.892400   42.421100
  H     14.008000   19.082500   42.278100
  H     13.018100   17.850500   42.639200
  C     12.532600   19.661700   43.668000
  H     11.425400   19.541200   43.659000
  H     12.661800   20.742200   43.512900
  C     13.220800   19.244300   44.966000
  H     12.738200   19.645000   45.868400
  H     14.182700   19.742300   45.023900
  H     13.277400   18.159200   44.986000
  H     15.780400   23.935600   40.314700
  H      9.596570   18.264500   39.256800

 Total Charge           Charge          ....    0
 Multiplicity           Mult            ....    1
 Number of Electrons    NEL             ....  134
 Basis Dimension        Dim             ....  322

ORBITAL ENERGIES
----------------

  NO   OCC          E(Eh)            E(eV)
   0   2.0000     -88.968607     -2420.9589
   1   2.0000     -88.964955     -2420.8595
   2   2.0000     -10.334945      -281.2282
   3   2.0000     -10.327324      -281.0208
   4   2.0000     -10.322027      -280.8766
   5   2.0000     -10.320820      -280.8438
   6   2.0000     -10.309207      -280.5278
   7   2.0000     -10.303911      -280.3837
   8   2.0000     -10.296117      -280.1716
   9   2.0000     -10.295281      -280.1488
  10   2.0000     -10.295209      -280.1469
  11   2.0000     -10.288614      -279.9674
  12   2.0000     -10.285888      -279.8932
  13   2.0000     -10.281755      -279.7808
  14   2.0000     -10.281048      -279.7616
  15   2.0000     -10.276637      -279.6415
  16   2.0000      -8.083230      -219.9559
  17   2.0000      -8.078662      -219.8316
  18   2.0000      -6.041764      -164.4048
  19   2.0000      -6.037558      -164.2903
  20   2.0000      -6.037152      -164.2792
  21   2.0000      -6.034146      -164.1975
  22   2.0000      -6.033128      -164.1697
  23   2.0000      -6.029653      -164.0752
  24   2.0000      -1.004422       -27.3317
  25   2.0000      -0.981334       -26.7034
  26   2.0000      -0.910236       -24.7688
  27   2.0000      -0.904288       -24.6069
  28   2.0000      -0.872502       -23.7420
  29   2.0000      -0.847147       -23.0520
  30   2.0000      -0.845742       -23.0138
  31   2.0000      -0.815865       -22.2008
  32   2.0000      -0.779763       -21.2184
  33   2.0000      -0.765614       -20.8334
  34   2.0000      -0.708450       -19.2779
  35   2.0000      -0.693873       -18.8812
  36   2.0000      -0.690184       -18.7808
  37   2.0000      -0.660716       -17.9790
  38   2.0000      -0.649660       -17.6782
  39   2.0000      -0.622408       -16.9366
  40   2.0000      -0.594622       -16.1805
  41   2.0000      -0.571049       -15.5390
  42   2.0000      -0.559159       -15.2155
  43   2.0000      -0.556376       -15.1398
  44   2.0000      -0.527375       -14.3506
  45   2.0000      -0.526204       -14.3187
  46   2.0000      -0.518460       -14.1080
  47   2.0000      -0.512548       -13.9471
  48   2.0000      -0.507175       -13.8009
  49   2.0000      -0.501813       -13.6550
  50   2.0000      -0.495471       -13.4824
  51   2.0000      -0.474502       -12.9118
  52   2.0000      -0.468735       -12.7549
  53   2.0000      -0.465012       -12.6536
  54   2.0000      -0.459401       -12.5009
  55   2.0000      -0.447352       -12.1731
  56   2.0000      -0.443617       -12.0714
  57   2.0000      -0.436770       -11.8851
  58   2.0000      -0.430760       -11.7216
  59   2.0000      -0.421412       -11.4672
  60   2.0000      -0.414357       -11.2752
  61   2.0000      -0.407503       -11.0887
  62   2.0000      -0.401430       -10.9235
  63   2.0000      -0.338508        -9.2113
  64   2.0000      -0.330245        -8.9864
  65   2.0000      -0.319023        -8.6811
  66   2.0000      -0.310435        -8.4474
  67   0.0000       0.035412         0.9636
  68   0.0000       0.046223         1.2578
  69   0.0000       0.112171         3.0523
  70   0.0000       0.115984         3.1561
  71   0.0000       0.133586         3.6351

MULLIKEN ATOMIC CHARGES
-----------------------
   0 S :    0.097596
   1 C :   -0.124835
   2 C :   -0.069753
   3 C :    0.083600
   4 C :   -0.159787
   5 H :   -0.002246
   6 C :    0.023141
   7 H :    0.019425
   8 H :    0.028236
   9 C :   -0.071669
  10 H :    0.039676
  11 H :    0.030754
  12 C :   -0.072247
  13 H :    0.048182
  14 H :    0.033133
  15 H :    0.042046
  16 S :    0.125474
  17 C :   -0.094057
  18 C :   -0.040609
  19 C :   -0.005547
  20 C :   -0.184028
  21 H :    0.023676
  22 C :    0.069307
  23 H :    0.002543
  24 H :    0.007771
  25 C :   -0.091058
  26 H :    0.018711
  27 H :    0.027915
  28 C :   -0.023135
  29 H :    0.034488
  30 H :    0.031733
  31 H :    0.031449
  32 H :    0.059217
  33 H :    0.060900
Sum of atomic charges:    0.0000000

LOEWDIN ATOMIC CHARGES
----------------------
   0 S :    0.389437
   1 C :   -0.180620
   2 C :   -0.064311
   3 C :   -0.047566
   4 C :   -0.194813
   5 H :    0.026671
   6 C :   -0.041925
   7 H :    0.028717
   8 H :    0.031474
   9 C :   -0.048711
  10 H :    0.028394
  11 H :    0.028247
  12 C :   -0.071092
  13 H :    0.038261
  14 H :    0.022937
  15 H :    0.025173
  16 S :    0.425604
  17 C :   -0.187522
  18 C :   -0.071476
  19 C :   -0.044109
  20 C :   -0.218938
  21 H :    0.034437
  22 C :   -0.035766
  23 H :    0.023559
  24 H :    0.023028
  25 C :   -0.047244
  26 H :    0.020237
  27 H :    0.024263
  28 C :   -0.064878
  29 H :    0.030945
  30 H :    0.028099
  31 H :    0.023599
  32 H :    0.029365
  33 H :    0.036522

  Mayer bond orders larger than 0.100000
B(  0-S ,  1-C ) :   1.1375 B(  0-S ,  4-C ) :   1.1673 B(  1-C ,  2-C ) :   1.5616
B(  1-C ,  4-C ) :   0.1136 B(  1-C , 32-H ) :   0.9802 B(  2-C ,  3-C ) :   1.2676
B(  2-C ,  6-C ) :   1.0271 B(  3-C ,  4-C ) :   1.5345 B(  3-C ,  5-H ) :   1.0059
B(  4-C , 20-C ) :   1.0304 B(  6-C ,  7-H ) :   0.9475 B(  6-C ,  8-H ) :   0.9411
B(  6-C ,  9-C ) :   1.0464 B(  9-C , 10-H ) :   0.9601 B(  9-C , 11-H ) :   0.9517
B(  9-C , 12-C ) :   1.0804 B( 12-C , 13-H ) :   0.9734 B( 12-C , 14-H ) :   0.9739
B( 12-C , 15-H ) :   0.9755 B( 16-S , 17-C ) :   1.1702 B( 16-S , 20-C ) :   1.1480
B( 17-C , 18-C ) :   1.5980 B( 17-C , 20-C ) :   0.1066 B( 17-C , 33-H ) :   0.9604
B( 18-C , 19-C ) :   1.2555 B( 18-C , 21-H ) :   0.9938 B( 19-C , 20-C ) :   1.5815
B( 19-C , 22-C ) :   1.0361 B( 22-C , 23-H ) :   0.9320 B( 22-C , 24-H ) :   0.9401
B( 22-C , 25-C ) :   1.0585 B( 25-C , 26-H ) :   0.9592 B( 25-C , 27-H ) :   0.9529
B( 25-C , 28-C ) :   1.0782 B( 28-C , 29-H ) :   0.9718 B( 28-C , 30-H ) :   0.9733
B( 28-C , 31-H ) :   0.9758

Dispersion correction           -0.013890509
FINAL SINGLE POINT ENERGY     -1339.877441790733

DIPOLE MOMENT
-------------
                                X             Y             Z
Electronic contribution:    -19.58301       5.68075      -9.76019
Nuclear contribution   :     20.00133      -5.97947      10.04666
                        -----------------------------------------
Total Dipole Moment    :      0.41833      -0.29872       0.28647
                        -----------------------------------------
Magnitude (a.u.)       :      0.58847
Magnitude (Debye)      :      1.49578

Rotational constants in cm-1:     0.018147     0.007729     0.006648
Rotational constants in MHz :   544.025535   231.704037   199.288989

                             ****ORCA TERMINATED NORMALLY****
TOTAL RUN TIME: 0 days 0 hours 0 minutes 33 seconds 671 msec
