                         Program Version 4.2.1 -  RELEASE  -
|  1> ! wB97X-D3 SP def2-SVP
|  2> %pal
|  3> nprocs 16
|  4> end
|  5>
|  6> * xyz 0 1
|  7> S 	 -92.5483 	 53.4302 	 122.51
|  8> C 	 -91.9623 	 52.2677 	 121.371
|  9> C 	 -92.69 	 51.0962 	 121.384
| 10> C 	 -93.8125 	 51.1731 	 122.266
| 11> C 	 -93.8369 	 52.3922 	 122.965
| 12> H 	 -94.5197 	 50.3018 	 122.414
| 13> C 	 -92.3723 	 49.8226 	 120.646
| 14> H 	 -92.5934 	 48.896 	 121.187
| 15> H 	 -91.246 	 49.806 	 120.455
| 16> C 	 -92.9821 	 49.7187 	 119.273
| 17> H 	 -94.0492 	 49.6703 	 119.283
| 18> H 	 -92.7517 	 50.7055 	 118.884
| 19> C 	 -92.4415 	 48.6786 	 118.316
| 20> H 	 -91.4069 	 48.7628 	 118.244
| 21> H 	 -92.6195 	 47.6933 	 118.74
| 22> H 	 -93.0455 	 48.6791 	 117.379
| 23> S 	 -95.6594 	 54.4125 	 123.446
| 24> C 	 -96.5544 	 54.4476 	 124.927
| 25> C 	 -96.3462 	 53.1835 	 125.525
| 26> C 	 -95.4514 	 52.2672 	 124.926
| 27> C 	 -94.8908 	 52.8549 	 123.77
| 28> H 	 -96.8318 	 53.0322 	 126.424
| 29> C 	 -95.2227 	 50.8301 	 125.408
| 30> H 	 -95.249 	 50.7502 	 126.498
| 31> H 	 -94.1764 	 50.5871 	 125.139
| 32> C 	 -96.2444 	 49.7897 	 124.861
| 33> H 	 -96.1759 	 49.8195 	 123.741
| 34> H 	 -97.2535 	 50.1003 	 125.125
| 35> C 	 -95.9695 	 48.3251 	 125.192
| 36> H 	 -96.6253 	 47.693 	 124.491
| 37> H 	 -96.0966 	 48.0719 	 126.254
| 38> H 	 -94.9905 	 47.9057 	 124.94
| 39> H 	 -91.0267 	 52.2934 	 120.736
| 40> H 	 -97.2336 	 55.2618 	 125.201
| 41> *
| 42>
| 43>                          ****END OF INPUT****

CARTESIAN COORDINATES (ANGSTROEM)
---------------------------------
  S    -92.548300   53.430200  122.510000
  C    -91.962300   52.267700  121.371000
  C    -92.690000   51.096200  121.384000
  C    -93.812500   51.173100  122.266000
  C    -93.836900   52.392200  122.965000
  H    -94.519700   50.301800  122.414000
  C    -92.372300   49.822600  120.646000
  H    -92.593400   48.896000  121.187000
  H    -91.246000   49.806000  120.455000
  C    -92.982100   49.718700  119.273000
  H    -94.049200   49.670300  119.283000
  H    -92.751700   50.705500  118.884000
  C    -92.441500   48.678600  118.316000
  H    -91.406900   48.762800  118.244000
  H    -92.619500   47.693300  118.740000
  H    -93.045500   48.679100  117.379000
  S    -95.659400   54.412500  123.446000
  C    -96.554400   54.447600  124.927000
  C    -96.346200   53.183500  125.525000
  C    -95.451400   52.267200  124.926000
  C    -94.890800   52.854900  123.770000
  H    -96.831800   53.032200  126.424000
  C    -95.222700   50.830100  125.408000
  H    -95.249000   50.750200  126.498000
  H    -94.176400   50.587100  125.139000
  C    -96.244400   49.789700  124.861000
  H    -96.175900   49.819500  123.741000
  H    -97.253500   50.100300  125.125000
  C    -95.969500   48.325100  125.192000
  H    -96.625300   47.693000  124.491000
  H    -96.096600   48.071900  126.254000
  H    -94.990500   47.905700  124.940000
  H    -91.026700   52.293400  120.736000
  H    -97.233600   55.261800  125.201000

 Total Charge           Charge          ....    0
 Multiplicity           Mult            ....    1
 Number of Electrons    NEL             ....  134
 Basis Dimension        Dim             ....  322

ORBITAL ENERGIES
----------------

  NO   OCC          E(Eh)            E(eV)
   0   2.0000     -88.973169     -2421.0830
   1   2.0000     -88.963723     -2420.8260
   2   2.0000     -10.325583      -280.9734
   3   2.0000     -10.324518      -280.9444
   4   2.0000     -10.319798      -280.8160
   5   2.0000     -10.317249      -280.7466
   6   2.0000     -10.304630      -280.4033
   7   2.0000     -10.300776      -280.2984
   8   2.0000     -10.300005      -280.2774
   9   2.0000     -10.297392      -280.2063
  10   2.0000     -10.295902      -280.1657
  11   2.0000     -10.294951      -280.1399
  12   2.0000     -10.289007      -279.9781
  13   2.0000     -10.288053      -279.9522
  14   2.0000     -10.276789      -279.6457
  15   2.0000     -10.275624      -279.6140
  16   2.0000      -8.088402      -220.0966
  17   2.0000      -8.078436      -219.8254
  18   2.0000      -6.046871      -164.5437
  19   2.0000      -6.042765      -164.4320
  20   2.0000      -6.039220      -164.3355
  21   2.0000      -6.036849      -164.2710
  22   2.0000      -6.032733      -164.1590
  23   2.0000      -6.029500      -164.0710
  24   2.0000      -1.012118       -27.5411
  25   2.0000      -0.984312       -26.7845
  26   2.0000      -0.919571       -25.0228
  27   2.0000      -0.904958       -24.6252
  28   2.0000      -0.874079       -23.7849
  29   2.0000      -0.855334       -23.2748
  30   2.0000      -0.847329       -23.0570
  31   2.0000      -0.808572       -22.0024
  32   2.0000      -0.785338       -21.3701
  33   2.0000      -0.773352       -21.0440
  34   2.0000      -0.706637       -19.2286
  35   2.0000      -0.697598       -18.9826
  36   2.0000      -0.696735       -18.9591
  37   2.0000      -0.663077       -18.0432
  38   2.0000      -0.634289       -17.2599
  39   2.0000      -0.620831       -16.8937
  40   2.0000      -0.594532       -16.1780
  41   2.0000      -0.576245       -15.6804
  42   2.0000      -0.566119       -15.4049
  43   2.0000      -0.561794       -15.2872
  44   2.0000      -0.527257       -14.3474
  45   2.0000      -0.524202       -14.2643
  46   2.0000      -0.518226       -14.1017
  47   2.0000      -0.512316       -13.9408
  48   2.0000      -0.509234       -13.8570
  49   2.0000      -0.500714       -13.6251
  50   2.0000      -0.495281       -13.4773
  51   2.0000      -0.481639       -13.1061
  52   2.0000      -0.473798       -12.8927
  53   2.0000      -0.468335       -12.7440
  54   2.0000      -0.457395       -12.4464
  55   2.0000      -0.452656       -12.3174
  56   2.0000      -0.440890       -11.9972
  57   2.0000      -0.436703       -11.8833
  58   2.0000      -0.429237       -11.6801
  59   2.0000      -0.425792       -11.5864
  60   2.0000      -0.421754       -11.4765
  61   2.0000      -0.414316       -11.2741
  62   2.0000      -0.409912       -11.1543
  63   2.0000      -0.346049        -9.4165
  64   2.0000      -0.335828        -9.1384
  65   2.0000      -0.327218        -8.9041
  66   2.0000      -0.287231        -7.8160
  67   0.0000       0.024523         0.6673
  68   0.0000       0.070302         1.9130
  69   0.0000       0.109061         2.9677
  70   0.0000       0.121368         3.3026
  71   0.0000       0.132237         3.5983

MULLIKEN ATOMIC CHARGES
-----------------------
   0 S :    0.146331
   1 C :   -0.131842
   2 C :   -0.087077
   3 C :    0.013020
   4 C :   -0.164998
   5 H :    0.032099
   6 C :    0.033542
   7 H :    0.026222
   8 H :    0.021370
   9 C :   -0.075335
  10 H :    0.017653
  11 H :    0.012923
  12 C :   -0.000541
  13 H :    0.017462
  14 H :    0.013228
  15 H :    0.046701
  16 S :    0.110983
  17 C :   -0.118692
  18 C :   -0.019360
  19 C :   -0.004012
  20 C :   -0.170901
  21 H :   -0.013109
  22 C :    0.068432
  23 H :    0.021645
  24 H :    0.031214
  25 C :   -0.066515
  26 H :    0.026157
  27 H :    0.033330
  28 C :   -0.066237
  29 H :    0.042170
  30 H :    0.039600
  31 H :    0.026454
  32 H :    0.062649
  33 H :    0.075433
Sum of atomic charges:   -0.0000000

LOEWDIN ATOMIC CHARGES
----------------------
   0 S :    0.446733
   1 C :   -0.217473
   2 C :   -0.067946
   3 C :   -0.059889
   4 C :   -0.212303
   5 H :    0.040408
   6 C :   -0.035679
   7 H :    0.026696
   8 H :    0.034794
   9 C :   -0.046167
  10 H :    0.017854
  11 H :    0.021380
  12 C :   -0.057904
  13 H :    0.015070
  14 H :    0.022328
  15 H :    0.037786
  16 S :    0.411594
  17 C :   -0.203294
  18 C :   -0.065944
  19 C :   -0.053567
  20 C :   -0.199025
  21 H :    0.014211
  22 C :   -0.032933
  23 H :    0.028661
  24 H :    0.033292
  25 C :   -0.040893
  26 H :    0.024680
  27 H :    0.026567
  28 C :   -0.076145
  29 H :    0.038297
  30 H :    0.024375
  31 H :    0.024181
  32 H :    0.042419
  33 H :    0.037833

  Mayer bond orders larger than 0.100000
B(  0-S ,  1-C ) :   1.1431 B(  0-S ,  4-C ) :   1.1697 B(  1-C ,  2-C ) :   1.6040
B(  1-C , 32-H ) :   0.9513 B(  2-C ,  3-C ) :   1.2776 B(  2-C ,  6-C ) :   1.0312
B(  3-C ,  4-C ) :   1.5143 B(  3-C ,  5-H ) :   0.9794 B(  4-C , 20-C ) :   1.0852
B(  6-C ,  7-H ) :   0.9418 B(  6-C ,  8-H ) :   0.9381 B(  6-C ,  9-C ) :   1.0605
B(  9-C , 10-H ) :   0.9527 B(  9-C , 11-H ) :   0.9518 B(  9-C , 12-C ) :   1.0925
B( 12-C , 13-H ) :   0.9723 B( 12-C , 14-H ) :   0.9703 B( 12-C , 15-H ) :   0.9709
B( 16-S , 17-C ) :   1.1625 B( 16-S , 20-C ) :   1.1675 B( 17-C , 18-C ) :   1.5424
B( 17-C , 20-C ) :   0.1141 B( 17-C , 33-H ) :   0.9724 B( 18-C , 19-C ) :   1.2868
B( 18-C , 21-H ) :   1.0006 B( 19-C , 20-C ) :   1.5160 B( 19-C , 22-C ) :   1.0556
B( 22-C , 23-H ) :   0.9347 B( 22-C , 24-H ) :   0.9261 B( 22-C , 25-C ) :   1.0577
B( 25-C , 26-H ) :   0.9538 B( 25-C , 27-H ) :   0.9523 B( 25-C , 28-C ) :   1.0783
B( 28-C , 29-H ) :   0.9734 B( 28-C , 30-H ) :   0.9750 B( 28-C , 31-H ) :   0.9734

Dispersion correction           -0.014038391
FINAL SINGLE POINT ENERGY     -1339.875780139876

DIPOLE MOMENT
-------------
                                X             Y             Z
Electronic contribution:      0.74589      30.06710       6.69321
Nuclear contribution   :     -0.81841     -30.69777      -6.67590
                        -----------------------------------------
Total Dipole Moment    :     -0.07252      -0.63066       0.01730
                        -----------------------------------------
Magnitude (a.u.)       :      0.63505
Magnitude (Debye)      :      1.61418

Rotational constants in cm-1:     0.017717     0.008679     0.006468
Rotational constants in MHz :   531.151451   260.178231   193.905540

                             ****ORCA TERMINATED NORMALLY****
TOTAL RUN TIME: 0 days 0 hours 0 minutes 33 seconds 362 msec
