                         Program Version 4.2.1 -  RELEASE  -
|  1> ! wB97X-D3 SP def2-SVP
|  2> %pal
|  3> nprocs 16
|  4> end
|  5>
|  6> * xyz 0 1
|  7> S 	 -31.4693 	 62.8392 	 115.2
|  8> C 	 -30.5099 	 61.8385 	 114.217
|  9> C 	 -31.2656 	 60.7743 	 113.762
| 10> C 	 -32.6702 	 60.9984 	 113.96
| 11> C 	 -32.9831 	 62.0756 	 114.757
| 12> H 	 -33.5088 	 60.3855 	 113.602
| 13> C 	 -30.7552 	 59.5549 	 112.988
| 14> H 	 -30.2952 	 59.9506 	 112.046
| 15> H 	 -31.5994 	 59.0031 	 112.578
| 16> C 	 -29.7893 	 58.6152 	 113.69
| 17> H 	 -29.008 	 59.2336 	 114.093
| 18> H 	 -30.2566 	 58.2672 	 114.604
| 19> C 	 -29.2541 	 57.409 	 112.953
| 20> H 	 -28.2793 	 57.5258 	 112.602
| 21> H 	 -29.1185 	 56.5582 	 113.619
| 22> H 	 -29.9004 	 57.196 	 112.074
| 23> S 	 -34.3949 	 62.5416 	 117.031
| 24> C 	 -36.0671 	 62.9549 	 116.841
| 25> C 	 -36.5487 	 62.7667 	 115.605
| 26> C 	 -35.5471 	 62.4403 	 114.664
| 27> C 	 -34.3058 	 62.3453 	 115.302
| 28> H 	 -37.6443 	 62.8677 	 115.459
| 29> C 	 -35.7434 	 62.3709 	 113.163
| 30> H 	 -34.9421 	 61.8986 	 112.608
| 31> H 	 -35.7484 	 63.3763 	 112.823
| 32> C 	 -37.0407 	 61.6752 	 112.732
| 33> H 	 -37.9181 	 62.0474 	 113.313
| 34> H 	 -36.9339 	 60.6648 	 113.115
| 35> C 	 -37.369 	 61.6724 	 111.243
| 36> H 	 -37.0523 	 62.6044 	 110.683
| 37> H 	 -38.4133 	 61.3843 	 111.007
| 38> H 	 -36.8038 	 60.9753 	 110.71
| 39> H 	 -29.418 	 61.8419 	 114.229
| 40> H 	 -36.7528 	 63.0902 	 117.689
| 41> *
| 42>
| 43>                          ****END OF INPUT****

CARTESIAN COORDINATES (ANGSTROEM)
---------------------------------
  S    -31.469300   62.839200  115.200000
  C    -30.509900   61.838500  114.217000
  C    -31.265600   60.774300  113.762000
  C    -32.670200   60.998400  113.960000
  C    -32.983100   62.075600  114.757000
  H    -33.508800   60.385500  113.602000
  C    -30.755200   59.554900  112.988000
  H    -30.295200   59.950600  112.046000
  H    -31.599400   59.003100  112.578000
  C    -29.789300   58.615200  113.690000
  H    -29.008000   59.233600  114.093000
  H    -30.256600   58.267200  114.604000
  C    -29.254100   57.409000  112.953000
  H    -28.279300   57.525800  112.602000
  H    -29.118500   56.558200  113.619000
  H    -29.900400   57.196000  112.074000
  S    -34.394900   62.541600  117.031000
  C    -36.067100   62.954900  116.841000
  C    -36.548700   62.766700  115.605000
  C    -35.547100   62.440300  114.664000
  C    -34.305800   62.345300  115.302000
  H    -37.644300   62.867700  115.459000
  C    -35.743400   62.370900  113.163000
  H    -34.942100   61.898600  112.608000
  H    -35.748400   63.376300  112.823000
  C    -37.040700   61.675200  112.732000
  H    -37.918100   62.047400  113.313000
  H    -36.933900   60.664800  113.115000
  C    -37.369000   61.672400  111.243000
  H    -37.052300   62.604400  110.683000
  H    -38.413300   61.384300  111.007000
  H    -36.803800   60.975300  110.710000
  H    -29.418000   61.841900  114.229000
  H    -36.752800   63.090200  117.689000

 Total Charge           Charge          ....    0
 Multiplicity           Mult            ....    1
 Number of Electrons    NEL             ....  134
 Basis Dimension        Dim             ....  322

ORBITAL ENERGIES
----------------

  NO   OCC          E(Eh)            E(eV)
   0   2.0000     -88.966438     -2420.8998
   1   2.0000     -88.964305     -2420.8418
   2   2.0000     -10.326468      -280.9975
   3   2.0000     -10.325579      -280.9733
   4   2.0000     -10.312674      -280.6221
   5   2.0000     -10.310487      -280.5626
   6   2.0000     -10.304528      -280.4004
   7   2.0000     -10.303001      -280.3589
   8   2.0000     -10.293312      -280.0953
   9   2.0000     -10.292096      -280.0622
  10   2.0000     -10.291563      -280.0477
  11   2.0000     -10.288718      -279.9703
  12   2.0000     -10.288573      -279.9663
  13   2.0000     -10.280703      -279.7521
  14   2.0000     -10.280231      -279.7393
  15   2.0000     -10.275372      -279.6071
  16   2.0000      -8.081867      -219.9188
  17   2.0000      -8.079807      -219.8627
  18   2.0000      -6.040233      -164.3631
  19   2.0000      -6.038300      -164.3105
  20   2.0000      -6.036487      -164.2612
  21   2.0000      -6.034058      -164.1951
  22   2.0000      -6.032529      -164.1535
  23   2.0000      -6.030671      -164.1029
  24   2.0000      -1.012835       -27.5606
  25   2.0000      -0.991988       -26.9934
  26   2.0000      -0.911791       -24.8111
  27   2.0000      -0.910541       -24.7771
  28   2.0000      -0.875130       -23.8135
  29   2.0000      -0.854807       -23.2605
  30   2.0000      -0.848477       -23.0882
  31   2.0000      -0.817788       -22.2531
  32   2.0000      -0.786009       -21.3884
  33   2.0000      -0.774196       -21.0670
  34   2.0000      -0.706160       -19.2156
  35   2.0000      -0.705789       -19.2055
  36   2.0000      -0.697299       -18.9745
  37   2.0000      -0.656719       -17.8702
  38   2.0000      -0.639665       -17.4062
  39   2.0000      -0.616711       -16.7816
  40   2.0000      -0.600711       -16.3462
  41   2.0000      -0.573997       -15.6192
  42   2.0000      -0.564660       -15.3652
  43   2.0000      -0.553746       -15.0682
  44   2.0000      -0.526779       -14.3344
  45   2.0000      -0.525517       -14.3000
  46   2.0000      -0.518166       -14.1000
  47   2.0000      -0.513715       -13.9789
  48   2.0000      -0.506268       -13.7762
  49   2.0000      -0.498976       -13.5778
  50   2.0000      -0.490070       -13.3355
  51   2.0000      -0.484927       -13.1955
  52   2.0000      -0.473451       -12.8832
  53   2.0000      -0.470738       -12.8094
  54   2.0000      -0.461896       -12.5688
  55   2.0000      -0.459086       -12.4924
  56   2.0000      -0.444215       -12.0877
  57   2.0000      -0.436803       -11.8860
  58   2.0000      -0.435378       -11.8472
  59   2.0000      -0.429254       -11.6806
  60   2.0000      -0.419504       -11.4153
  61   2.0000      -0.412832       -11.2337
  62   2.0000      -0.404898       -11.0178
  63   2.0000      -0.354022        -9.6334
  64   2.0000      -0.335653        -9.1336
  65   2.0000      -0.325808        -8.8657
  66   2.0000      -0.289374        -7.8743
  67   0.0000       0.031060         0.8452
  68   0.0000       0.072840         1.9821
  69   0.0000       0.111848         3.0435
  70   0.0000       0.127083         3.4581
  71   0.0000       0.133721         3.6387

MULLIKEN ATOMIC CHARGES
-----------------------
   0 S :    0.115475
   1 C :   -0.111518
   2 C :   -0.098729
   3 C :    0.011233
   4 C :   -0.150992
   5 H :    0.022069
   6 C :    0.054739
   7 H :    0.036033
   8 H :    0.010023
   9 C :   -0.066266
  10 H :    0.010782
  11 H :    0.022691
  12 C :   -0.010981
  13 H :    0.014387
  14 H :    0.030701
  15 H :    0.034927
  16 S :    0.118393
  17 C :   -0.088851
  18 C :   -0.063580
  19 C :   -0.017694
  20 C :   -0.177415
  21 H :    0.034595
  22 C :    0.111021
  23 H :    0.017220
  24 H :    0.028558
  25 C :   -0.120873
  26 H :    0.032483
  27 H :    0.025327
  28 C :   -0.023416
  29 H :    0.032605
  30 H :    0.040855
  31 H :    0.009046
  32 H :    0.061482
  33 H :    0.055670
Sum of atomic charges:    0.0000000

LOEWDIN ATOMIC CHARGES
----------------------
   0 S :    0.425128
   1 C :   -0.214186
   2 C :   -0.063912
   3 C :   -0.066415
   4 C :   -0.203792
   5 H :    0.032862
   6 C :   -0.036523
   7 H :    0.035217
   8 H :    0.024438
   9 C :   -0.048127
  10 H :    0.019363
  11 H :    0.025491
  12 C :   -0.062214
  13 H :    0.018190
  14 H :    0.031708
  15 H :    0.031806
  16 S :    0.414831
  17 C :   -0.191874
  18 C :   -0.076965
  19 C :   -0.053396
  20 C :   -0.192695
  21 H :    0.040581
  22 C :   -0.025977
  23 H :    0.028494
  24 H :    0.030313
  25 C :   -0.046709
  26 H :    0.023647
  27 H :    0.024185
  28 C :   -0.071623
  29 H :    0.033608
  30 H :    0.033692
  31 H :    0.015946
  32 H :    0.033324
  33 H :    0.031582

  Mayer bond orders larger than 0.100000
B(  0-S ,  1-C ) :   1.1559 B(  0-S ,  4-C ) :   1.1546 B(  1-C ,  2-C ) :   1.5830
B(  1-C , 32-H ) :   0.9665 B(  2-C ,  3-C ) :   1.2690 B(  2-C ,  6-C ) :   1.0182
B(  3-C ,  4-C ) :   1.5559 B(  3-C ,  5-H ) :   0.9857 B(  4-C , 20-C ) :   1.0564
B(  6-C ,  7-H ) :   0.9415 B(  6-C ,  8-H ) :   0.9392 B(  6-C ,  9-C ) :   1.0646
B(  9-C , 10-H ) :   0.9553 B(  9-C , 11-H ) :   0.9579 B(  9-C , 12-C ) :   1.0757
B( 12-C , 13-H ) :   0.9718 B( 12-C , 14-H ) :   0.9746 B( 12-C , 15-H ) :   0.9763
B( 16-S , 17-C ) :   1.1431 B( 16-S , 20-C ) :   1.1552 B( 17-C , 18-C ) :   1.6540
B( 17-C , 33-H ) :   0.9568 B( 18-C , 19-C ) :   1.2281 B( 18-C , 21-H ) :   0.9809
B( 19-C , 20-C ) :   1.5910 B( 19-C , 22-C ) :   1.0425 B( 22-C , 23-H ) :   0.9350
B( 22-C , 24-H ) :   0.9231 B( 22-C , 25-C ) :   1.0537 B( 25-C , 26-H ) :   0.9571
B( 25-C , 27-H ) :   0.9578 B( 25-C , 28-C ) :   1.0790 B( 28-C , 29-H ) :   0.9729
B( 28-C , 30-H ) :   0.9736 B( 28-C , 31-H ) :   0.9699

Dispersion correction           -0.013301115
FINAL SINGLE POINT ENERGY     -1339.877191270159

DIPOLE MOMENT
-------------
                                X             Y             Z
Electronic contribution:      2.15363      17.65873      21.93152
Nuclear contribution   :     -2.31093     -18.14677     -22.32284
                        -----------------------------------------
Total Dipole Moment    :     -0.15730      -0.48804      -0.39132
                        -----------------------------------------
Magnitude (a.u.)       :      0.64503
Magnitude (Debye)      :      1.63953

Rotational constants in cm-1:     0.017628     0.007760     0.006040
Rotational constants in MHz :   528.484852   232.651917   181.063338

                             ****ORCA TERMINATED NORMALLY****
TOTAL RUN TIME: 0 days 0 hours 0 minutes 28 seconds 749 msec
