                         Program Version 4.2.1 -  RELEASE  -
|  1> ! wB97X-D3 SP def2-SVP
|  2> %pal
|  3> nprocs 16
|  4> end
|  5>
|  6> * xyz 0 1
|  7> S 	 -46.071 	 59.8682 	 133.018
|  8> C 	 -46.1426 	 58.5924 	 134.328
|  9> C 	 -47.4148 	 58.0847 	 134.562
| 10> C 	 -48.3947 	 58.7861 	 133.745
| 11> C 	 -47.8737 	 59.8476 	 132.973
| 12> H 	 -49.4029 	 58.4461 	 133.732
| 13> C 	 -47.734 	 56.855 	 135.424
| 14> H 	 -48.8166 	 56.7093 	 135.526
| 15> H 	 -47.3946 	 57.1421 	 136.403
| 16> C 	 -47.0807 	 55.4937 	 134.901
| 17> H 	 -47.6204 	 55.1494 	 134.032
| 18> H 	 -46.101 	 55.6006 	 134.642
| 19> C 	 -47.1995 	 54.3794 	 135.906
| 20> H 	 -46.8349 	 54.6071 	 136.894
| 21> H 	 -48.2418 	 54.026 	 136.086
| 22> H 	 -46.5685 	 53.4654 	 135.653
| 23> S 	 -48.1702 	 60.8268 	 130.455
| 24> C 	 -49.4564 	 61.8334 	 130.093
| 25> C 	 -50.2642 	 62.0448 	 131.208
| 26> C 	 -49.7935 	 61.4291 	 132.4
| 27> C 	 -48.6308 	 60.7183 	 132.121
| 28> H 	 -51.1131 	 62.665 	 131.081
| 29> C 	 -50.518 	 61.6617 	 133.7
| 30> H 	 -51.0203 	 60.7113 	 133.918
| 31> H 	 -51.3409 	 62.3188 	 133.477
| 32> C 	 -49.7619 	 62.4149 	 134.702
| 33> H 	 -49.4485 	 63.3788 	 134.309
| 34> H 	 -48.9144 	 61.8151 	 135.018
| 35> C 	 -50.5087 	 62.6068 	 136.118
| 36> H 	 -49.8027 	 63.0949 	 136.791
| 37> H 	 -50.8838 	 61.7107 	 136.545
| 38> H 	 -51.3633 	 63.2455 	 135.898
| 39> H 	 -45.2462 	 58.2376 	 134.731
| 40> H 	 -49.6314 	 62.1206 	 129.051
| 41> *
| 42>
| 43>                          ****END OF INPUT****

CARTESIAN COORDINATES (ANGSTROEM)
---------------------------------
  S    -46.071000   59.868200  133.018000
  C    -46.142600   58.592400  134.328000
  C    -47.414800   58.084700  134.562000
  C    -48.394700   58.786100  133.745000
  C    -47.873700   59.847600  132.973000
  H    -49.402900   58.446100  133.732000
  C    -47.734000   56.855000  135.424000
  H    -48.816600   56.709300  135.526000
  H    -47.394600   57.142100  136.403000
  C    -47.080700   55.493700  134.901000
  H    -47.620400   55.149400  134.032000
  H    -46.101000   55.600600  134.642000
  C    -47.199500   54.379400  135.906000
  H    -46.834900   54.607100  136.894000
  H    -48.241800   54.026000  136.086000
  H    -46.568500   53.465400  135.653000
  S    -48.170200   60.826800  130.455000
  C    -49.456400   61.833400  130.093000
  C    -50.264200   62.044800  131.208000
  C    -49.793500   61.429100  132.400000
  C    -48.630800   60.718300  132.121000
  H    -51.113100   62.665000  131.081000
  C    -50.518000   61.661700  133.700000
  H    -51.020300   60.711300  133.918000
  H    -51.340900   62.318800  133.477000
  C    -49.761900   62.414900  134.702000
  H    -49.448500   63.378800  134.309000
  H    -48.914400   61.815100  135.018000
  C    -50.508700   62.606800  136.118000
  H    -49.802700   63.094900  136.791000
  H    -50.883800   61.710700  136.545000
  H    -51.363300   63.245500  135.898000
  H    -45.246200   58.237600  134.731000
  H    -49.631400   62.120600  129.051000

 Total Charge           Charge          ....    0
 Multiplicity           Mult            ....    1
 Number of Electrons    NEL             ....  134
 Basis Dimension        Dim             ....  322

ORBITAL ENERGIES
----------------

  NO   OCC          E(Eh)            E(eV)
   0   2.0000     -88.966135     -2420.8916
   1   2.0000     -88.964101     -2420.8363
   2   2.0000     -10.333710      -281.1946
   3   2.0000     -10.319848      -280.8174
   4   2.0000     -10.314963      -280.6844
   5   2.0000     -10.311351      -280.5861
   6   2.0000     -10.306393      -280.4512
   7   2.0000     -10.300849      -280.3004
   8   2.0000     -10.300394      -280.2880
   9   2.0000     -10.296578      -280.1841
  10   2.0000     -10.288146      -279.9547
  11   2.0000     -10.285327      -279.8780
  12   2.0000     -10.284396      -279.8526
  13   2.0000     -10.281960      -279.7864
  14   2.0000     -10.280857      -279.7564
  15   2.0000     -10.275834      -279.6196
  16   2.0000      -8.080839      -219.8908
  17   2.0000      -8.078919      -219.8386
  18   2.0000      -6.039022      -164.3302
  19   2.0000      -6.037561      -164.2904
  20   2.0000      -6.034957      -164.2195
  21   2.0000      -6.033942      -164.1919
  22   2.0000      -6.031937      -164.1374
  23   2.0000      -6.029437      -164.0693
  24   2.0000      -1.009473       -27.4692
  25   2.0000      -0.971309       -26.4307
  26   2.0000      -0.916212       -24.9314
  27   2.0000      -0.906688       -24.6722
  28   2.0000      -0.867995       -23.6193
  29   2.0000      -0.851432       -23.1687
  30   2.0000      -0.842037       -22.9130
  31   2.0000      -0.806563       -21.9477
  32   2.0000      -0.785155       -21.3651
  33   2.0000      -0.770124       -20.9561
  34   2.0000      -0.710371       -19.3302
  35   2.0000      -0.706787       -19.2327
  36   2.0000      -0.690643       -18.7934
  37   2.0000      -0.666086       -18.1251
  38   2.0000      -0.637424       -17.3452
  39   2.0000      -0.616238       -16.7687
  40   2.0000      -0.595907       -16.2155
  41   2.0000      -0.573824       -15.6146
  42   2.0000      -0.570892       -15.5348
  43   2.0000      -0.549583       -14.9549
  44   2.0000      -0.529389       -14.4054
  45   2.0000      -0.519191       -14.1279
  46   2.0000      -0.516643       -14.0586
  47   2.0000      -0.510847       -13.9009
  48   2.0000      -0.508541       -13.8381
  49   2.0000      -0.496558       -13.5120
  50   2.0000      -0.491228       -13.3670
  51   2.0000      -0.485533       -13.2120
  52   2.0000      -0.473843       -12.8939
  53   2.0000      -0.461202       -12.5499
  54   2.0000      -0.456126       -12.4118
  55   2.0000      -0.452067       -12.3014
  56   2.0000      -0.447007       -12.1637
  57   2.0000      -0.438377       -11.9289
  58   2.0000      -0.431258       -11.7351
  59   2.0000      -0.427352       -11.6288
  60   2.0000      -0.423094       -11.5130
  61   2.0000      -0.414633       -11.2827
  62   2.0000      -0.401253       -10.9187
  63   2.0000      -0.342489        -9.3196
  64   2.0000      -0.333664        -9.0795
  65   2.0000      -0.329228        -8.9588
  66   2.0000      -0.285172        -7.7599
  67   0.0000       0.026252         0.7143
  68   0.0000       0.067894         1.8475
  69   0.0000       0.100968         2.7475
  70   0.0000       0.126718         3.4482
  71   0.0000       0.136204         3.7063

MULLIKEN ATOMIC CHARGES
-----------------------
   0 S :    0.084726
   1 C :   -0.114037
   2 C :   -0.081074
   3 C :    0.035289
   4 C :   -0.143718
   5 H :    0.001846
   6 C :    0.061675
   7 H :    0.022075
   8 H :    0.031292
   9 C :   -0.003727
  10 H :    0.032313
  11 H :    0.010111
  12 C :   -0.083891
  13 H :    0.017561
  14 H :    0.032753
  15 H :    0.040169
  16 S :    0.126758
  17 C :   -0.104874
  18 C :   -0.038625
  19 C :   -0.041272
  20 C :   -0.173179
  21 H :    0.003553
  22 C :    0.130322
  23 H :    0.030969
  24 H :   -0.006894
  25 C :   -0.088414
  26 H :    0.035593
  27 H :    0.040754
  28 C :   -0.040281
  29 H :    0.042532
  30 H :    0.026035
  31 H :    0.022543
  32 H :    0.025979
  33 H :    0.065139
Sum of atomic charges:   -0.0000000

LOEWDIN ATOMIC CHARGES
----------------------
   0 S :    0.347026
   1 C :   -0.162610
   2 C :   -0.056551
   3 C :   -0.057522
   4 C :   -0.174220
   5 H :    0.024568
   6 C :   -0.025009
   7 H :    0.030367
   8 H :    0.031053
   9 C :   -0.025359
  10 H :    0.030005
  11 H :    0.011475
  12 C :   -0.075135
  13 H :    0.017408
  14 H :    0.026499
  15 H :    0.034667
  16 S :    0.451456
  17 C :   -0.212845
  18 C :   -0.072539
  19 C :   -0.048217
  20 C :   -0.214631
  21 H :    0.023497
  22 C :   -0.035877
  23 H :    0.034942
  24 H :    0.027535
  25 C :   -0.033893
  26 H :    0.028547
  27 H :    0.024666
  28 C :   -0.057465
  29 H :    0.028463
  30 H :    0.018325
  31 H :    0.019895
  32 H :    0.009797
  33 H :    0.031683

  Mayer bond orders larger than 0.100000
B(  0-S ,  1-C ) :   1.1133 B(  0-S ,  4-C ) :   1.1257 B(  1-C ,  2-C ) :   1.6313
B(  1-C , 32-H ) :   0.9771 B(  2-C ,  3-C ) :   1.2305 B(  2-C ,  6-C ) :   1.0156
B(  3-C ,  4-C ) :   1.5711 B(  3-C ,  5-H ) :   0.9946 B(  4-C , 20-C ) :   1.0702
B(  6-C ,  7-H ) :   0.9458 B(  6-C ,  8-H ) :   0.9400 B(  6-C ,  9-C ) :   1.0529
B(  9-C , 10-H ) :   0.9547 B(  9-C , 11-H ) :   0.9599 B(  9-C , 12-C ) :   1.0851
B( 12-C , 13-H ) :   0.9747 B( 12-C , 14-H ) :   0.9753 B( 12-C , 15-H ) :   0.9725
B( 16-S , 17-C ) :   1.1933 B( 16-S , 20-C ) :   1.1691 B( 17-C , 18-C ) :   1.5549
B( 17-C , 33-H ) :   0.9677 B( 18-C , 19-C ) :   1.2779 B( 18-C , 21-H ) :   0.9991
B( 19-C , 20-C ) :   1.5474 B( 19-C , 22-C ) :   1.0375 B( 22-C , 23-H ) :   0.9197
B( 22-C , 24-H ) :   0.9217 B( 22-C , 25-C ) :   1.0725 B( 25-C , 26-H ) :   0.9521
B( 25-C , 27-H ) :   0.9590 B( 25-C , 28-C ) :   1.0751 B( 28-C , 29-H ) :   0.9779
B( 28-C , 30-H ) :   0.9780 B( 28-C , 31-H ) :   0.9776

Dispersion correction           -0.013872553
FINAL SINGLE POINT ENERGY     -1339.867615523935

DIPOLE MOMENT
-------------
                                X             Y             Z
Electronic contribution:     10.02309      10.52602     -22.92834
Nuclear contribution   :    -10.46371     -10.81829      23.22734
                        -----------------------------------------
Total Dipole Moment    :     -0.44062      -0.29227       0.29900
                        -----------------------------------------
Magnitude (a.u.)       :      0.60743
Magnitude (Debye)      :      1.54396

Rotational constants in cm-1:     0.018710     0.007838     0.006451
Rotational constants in MHz :   560.917401   234.988379   193.403180

                             ****ORCA TERMINATED NORMALLY****
TOTAL RUN TIME: 0 days 0 hours 0 minutes 32 seconds 816 msec
