                         Program Version 4.2.1 -  RELEASE  -
|  1> ! wB97X-D3 SP def2-SVP
|  2> %pal
|  3> nprocs 16
|  4> end
|  5>
|  6> * xyz 0 1
|  7> S 	 11.1846 	 -10.0237 	 91.2667
|  8> C 	 11.7495 	 -9.14232 	 92.5874
|  9> C 	 11.3864 	 -7.8001 	 92.4857
| 10> C 	 10.8339 	 -7.46164 	 91.2102
| 11> C 	 10.5276 	 -8.57022 	 90.5025
| 12> H 	 10.5139 	 -6.49085 	 90.9422
| 13> C 	 11.4697 	 -6.75302 	 93.5724
| 14> H 	 11.4156 	 -7.2237 	 94.5506
| 15> H 	 10.5805 	 -6.07059 	 93.5907
| 16> C 	 12.7742 	 -5.99153 	 93.5995
| 17> H 	 13.5229 	 -6.8041 	 93.8006
| 18> H 	 13.0239 	 -5.51437 	 92.6232
| 19> C 	 12.8351 	 -4.89123 	 94.7363
| 20> H 	 13.5097 	 -4.10892 	 94.6115
| 21> H 	 11.8582 	 -4.52467 	 94.976
| 22> H 	 13.253 	 -5.27539 	 95.6383
| 23> S 	 11.0521 	 -9.1574 	 87.863
| 24> C 	 9.98256 	 -8.48716 	 86.6556
| 25> C 	 8.84559 	 -8.01025 	 87.2124
| 26> C 	 8.88361 	 -7.98862 	 88.639
| 27> C 	 10.0046 	 -8.61438 	 89.189
| 28> H 	 8.09498 	 -7.53043 	 86.5401
| 29> C 	 7.79211 	 -7.25128 	 89.3851
| 30> H 	 8.05561 	 -6.2211 	 89.3721
| 31> H 	 7.82455 	 -7.56804 	 90.4117
| 32> C 	 6.3503 	 -7.446 	 88.9329
| 33> H 	 6.03622 	 -8.50443 	 88.7587
| 34> H 	 6.25318 	 -6.90559 	 87.98
| 35> C 	 5.36919 	 -6.89207 	 90.0074
| 36> H 	 5.70766 	 -5.88177 	 90.2366
| 37> H 	 5.18932 	 -7.57744 	 90.7713
| 38> H 	 4.37202 	 -6.76742 	 89.4797
| 39> H 	 12.3325 	 -9.36216 	 93.4597
| 40> H 	 10.0643 	 -8.48461 	 85.5617
| 41> *
| 42>
| 43>                          ****END OF INPUT****

CARTESIAN COORDINATES (ANGSTROEM)
---------------------------------
  S     11.184600  -10.023700   91.266700
  C     11.749500   -9.142320   92.587400
  C     11.386400   -7.800100   92.485700
  C     10.833900   -7.461640   91.210200
  C     10.527600   -8.570220   90.502500
  H     10.513900   -6.490850   90.942200
  C     11.469700   -6.753020   93.572400
  H     11.415600   -7.223700   94.550600
  H     10.580500   -6.070590   93.590700
  C     12.774200   -5.991530   93.599500
  H     13.522900   -6.804100   93.800600
  H     13.023900   -5.514370   92.623200
  C     12.835100   -4.891230   94.736300
  H     13.509700   -4.108920   94.611500
  H     11.858200   -4.524670   94.976000
  H     13.253000   -5.275390   95.638300
  S     11.052100   -9.157400   87.863000
  C      9.982560   -8.487160   86.655600
  C      8.845590   -8.010250   87.212400
  C      8.883610   -7.988620   88.639000
  C     10.004600   -8.614380   89.189000
  H      8.094980   -7.530430   86.540100
  C      7.792110   -7.251280   89.385100
  H      8.055610   -6.221100   89.372100
  H      7.824550   -7.568040   90.411700
  C      6.350300   -7.446000   88.932900
  H      6.036220   -8.504430   88.758700
  H      6.253180   -6.905590   87.980000
  C      5.369190   -6.892070   90.007400
  H      5.707660   -5.881770   90.236600
  H      5.189320   -7.577440   90.771300
  H      4.372020   -6.767420   89.479700
  H     12.332500   -9.362160   93.459700
  H     10.064300   -8.484610   85.561700

 Total Charge           Charge          ....    0
 Multiplicity           Mult            ....    1
 Number of Electrons    NEL             ....  134
 Basis Dimension        Dim             ....  322

ORBITAL ENERGIES
----------------

  NO   OCC          E(Eh)            E(eV)
   0   2.0000     -88.967526     -2420.9295
   1   2.0000     -88.962531     -2420.7935
   2   2.0000     -10.322903      -280.9005
   3   2.0000     -10.322138      -280.8797
   4   2.0000     -10.315223      -280.6915
   5   2.0000     -10.309204      -280.5277
   6   2.0000     -10.302675      -280.3500
   7   2.0000     -10.296598      -280.1847
   8   2.0000     -10.292983      -280.0863
   9   2.0000     -10.291714      -280.0518
  10   2.0000     -10.290034      -280.0061
  11   2.0000     -10.289567      -279.9933
  12   2.0000     -10.288225      -279.9568
  13   2.0000     -10.284140      -279.8457
  14   2.0000     -10.280086      -279.7354
  15   2.0000     -10.270939      -279.4865
  16   2.0000      -8.082933      -219.9478
  17   2.0000      -8.077060      -219.7880
  18   2.0000      -6.041424      -164.3955
  19   2.0000      -6.037335      -164.2842
  20   2.0000      -6.035770      -164.2417
  21   2.0000      -6.033666      -164.1844
  22   2.0000      -6.031546      -164.1267
  23   2.0000      -6.027645      -164.0206
  24   2.0000      -1.011974       -27.5372
  25   2.0000      -0.986845       -26.8534
  26   2.0000      -0.911424       -24.8011
  27   2.0000      -0.909713       -24.7545
  28   2.0000      -0.877331       -23.8734
  29   2.0000      -0.852152       -23.1882
  30   2.0000      -0.845497       -23.0071
  31   2.0000      -0.817700       -22.2508
  32   2.0000      -0.783989       -21.3334
  33   2.0000      -0.770867       -20.9763
  34   2.0000      -0.709345       -19.3022
  35   2.0000      -0.699664       -19.0388
  36   2.0000      -0.696939       -18.9647
  37   2.0000      -0.652853       -17.7650
  38   2.0000      -0.640995       -17.4424
  39   2.0000      -0.624902       -17.0044
  40   2.0000      -0.596227       -16.2242
  41   2.0000      -0.575076       -15.6486
  42   2.0000      -0.572474       -15.5778
  43   2.0000      -0.556171       -15.1342
  44   2.0000      -0.528648       -14.3852
  45   2.0000      -0.527948       -14.3662
  46   2.0000      -0.516170       -14.0457
  47   2.0000      -0.510462       -13.8904
  48   2.0000      -0.508529       -13.8378
  49   2.0000      -0.498215       -13.5571
  50   2.0000      -0.493325       -13.4241
  51   2.0000      -0.481790       -13.1102
  52   2.0000      -0.471896       -12.8409
  53   2.0000      -0.466232       -12.6868
  54   2.0000      -0.457811       -12.4577
  55   2.0000      -0.450273       -12.2525
  56   2.0000      -0.445744       -12.1293
  57   2.0000      -0.437730       -11.9112
  58   2.0000      -0.434212       -11.8155
  59   2.0000      -0.423111       -11.5134
  60   2.0000      -0.419573       -11.4172
  61   2.0000      -0.412825       -11.2335
  62   2.0000      -0.409646       -11.1470
  63   2.0000      -0.351553        -9.5662
  64   2.0000      -0.328616        -8.9421
  65   2.0000      -0.323375        -8.7995
  66   2.0000      -0.294320        -8.0089
  67   0.0000       0.035146         0.9564
  68   0.0000       0.067036         1.8241
  69   0.0000       0.113794         3.0965
  70   0.0000       0.125842         3.4243
  71   0.0000       0.131117         3.5679

MULLIKEN ATOMIC CHARGES
-----------------------
   0 S :    0.128122
   1 C :   -0.069971
   2 C :   -0.129988
   3 C :    0.067838
   4 C :   -0.174602
   5 H :   -0.001995
   6 C :    0.039840
   7 H :    0.015018
   8 H :    0.032997
   9 C :   -0.100100
  10 H :    0.030421
  11 H :    0.038637
  12 C :    0.006080
  13 H :    0.015894
  14 H :    0.021987
  15 H :    0.012189
  16 S :    0.103655
  17 C :   -0.085100
  18 C :   -0.061649
  19 C :   -0.047839
  20 C :   -0.123189
  21 H :    0.035838
  22 C :    0.083841
  23 H :    0.030682
  24 H :    0.018058
  25 C :   -0.117414
  26 H :    0.041300
  27 H :    0.030224
  28 C :   -0.032629
  29 H :    0.031688
  30 H :    0.038830
  31 H :    0.031776
  32 H :    0.032324
  33 H :    0.057237
Sum of atomic charges:    0.0000000

LOEWDIN ATOMIC CHARGES
----------------------
   0 S :    0.427711
   1 C :   -0.218828
   2 C :   -0.063072
   3 C :   -0.042861
   4 C :   -0.192447
   5 H :    0.027295
   6 C :   -0.041335
   7 H :    0.028248
   8 H :    0.030934
   9 C :   -0.040569
  10 H :    0.027890
  11 H :    0.024231
  12 C :   -0.064051
  13 H :    0.019980
  14 H :    0.021732
  15 H :    0.024333
  16 S :    0.394945
  17 C :   -0.183372
  18 C :   -0.085882
  19 C :   -0.046707
  20 C :   -0.203444
  21 H :    0.039250
  22 C :   -0.034838
  23 H :    0.029403
  24 H :    0.027316
  25 C :   -0.042101
  26 H :    0.029669
  27 H :    0.019673
  28 C :   -0.058412
  29 H :    0.024867
  30 H :    0.018358
  31 H :    0.033956
  32 H :    0.030998
  33 H :    0.037130

  Mayer bond orders larger than 0.100000
B(  0-S ,  1-C ) :   1.1443 B(  0-S ,  4-C ) :   1.1339 B(  1-C ,  2-C ) :   1.6133
B(  1-C , 32-H ) :   0.9619 B(  2-C ,  3-C ) :   1.2436 B(  2-C ,  6-C ) :   1.0261
B(  3-C ,  4-C ) :   1.5842 B(  3-C ,  5-H ) :   0.9972 B(  4-C , 20-C ) :   1.0466
B(  6-C ,  7-H ) :   0.9423 B(  6-C ,  8-H ) :   0.9446 B(  6-C ,  9-C ) :   1.0526
B(  9-C , 10-H ) :   0.9598 B(  9-C , 11-H ) :   0.9653 B(  9-C , 12-C ) :   1.0603
B( 12-C , 13-H ) :   0.9750 B( 12-C , 14-H ) :   0.9775 B( 12-C , 15-H ) :   0.9719
B( 16-S , 17-C ) :   1.1542 B( 16-S , 20-C ) :   1.1141 B( 17-C , 18-C ) :   1.6424
B( 17-C , 33-H ) :   0.9575 B( 18-C , 19-C ) :   1.2253 B( 18-C , 21-H ) :   0.9815
B( 19-C , 20-C ) :   1.6124 B( 19-C , 22-C ) :   1.0434 B( 22-C , 23-H ) :   0.9216
B( 22-C , 24-H ) :   0.9353 B( 22-C , 25-C ) :   1.0658 B( 25-C , 26-H ) :   0.9617
B( 25-C , 27-H ) :   0.9489 B( 25-C , 28-C ) :   1.0875 B( 28-C , 29-H ) :   0.9726
B( 28-C , 30-H ) :   0.9772 B( 28-C , 31-H ) :   0.9739

Dispersion correction           -0.013458951
FINAL SINGLE POINT ENERGY     -1339.864771728372

DIPOLE MOMENT
-------------
                                X             Y             Z
Electronic contribution:     10.89879     -21.02923     -14.94954
Nuclear contribution   :    -11.22344      21.71819      15.15050
                        -----------------------------------------
Total Dipole Moment    :     -0.32465       0.68896       0.20095
                        -----------------------------------------
Magnitude (a.u.)       :      0.78768
Magnitude (Debye)      :      2.00213

Rotational constants in cm-1:     0.017324     0.007852     0.006355
Rotational constants in MHz :   519.363901   235.393657   190.522186

                             ****ORCA TERMINATED NORMALLY****
TOTAL RUN TIME: 0 days 0 hours 0 minutes 32 seconds 579 msec
