                         Program Version 4.2.1 -  RELEASE  -
|  1> ! wB97X-D3 SP def2-SVP
|  2> %pal
|  3> nprocs 16
|  4> end
|  5>
|  6> * xyz 0 1
|  7> S 	 -88.9463 	 47.1767 	 127.158
|  8> C 	 -89.8276 	 48.589 	 126.671
|  9> C 	 -89.0215 	 49.67 	 126.655
| 10> C 	 -87.6855 	 49.3858 	 127.191
| 11> C 	 -87.4595 	 48.0576 	 127.438
| 12> H 	 -86.9051 	 50.0798 	 127.447
| 13> C 	 -89.508 	 51.0226 	 126.115
| 14> H 	 -90.5738 	 50.9289 	 126.119
| 15> H 	 -89.218 	 51.1657 	 125.127
| 16> C 	 -89.2919 	 52.285 	 126.997
| 17> H 	 -89.8641 	 52.2801 	 127.889
| 18> H 	 -88.2237 	 52.3417 	 127.384
| 19> C 	 -89.5329 	 53.6301 	 126.352
| 20> H 	 -88.7999 	 53.7206 	 125.543
| 21> H 	 -90.5279 	 53.7325 	 125.998
| 22> H 	 -89.3026 	 54.4446 	 127.096
| 23> S 	 -85.9135 	 45.9673 	 126.852
| 24> C 	 -84.2233 	 45.8992 	 127.309
| 25> C 	 -83.8951 	 46.9239 	 128.13
| 26> C 	 -84.9923 	 47.8349 	 128.291
| 27> C 	 -86.1775 	 47.475 	 127.672
| 28> H 	 -82.9636 	 46.8474 	 128.614
| 29> C 	 -84.8179 	 49.0998 	 129.04
| 30> H 	 -85.7537 	 49.6606 	 129.21
| 31> H 	 -84.2454 	 49.7074 	 128.399
| 32> C 	 -83.9246 	 48.9226 	 130.29
| 33> H 	 -83.6087 	 49.8723 	 130.782
| 34> H 	 -83.0215 	 48.3627 	 130.05
| 35> C 	 -84.6497 	 48.0218 	 131.365
| 36> H 	 -85.7566 	 48.273 	 131.663
| 37> H 	 -84.0471 	 47.9496 	 132.285
| 38> H 	 -84.647 	 46.9635 	 131.017
| 39> H 	 -90.8295 	 48.459 	 126.158
| 40> H 	 -83.5907 	 45.0292 	 127.019
| 41> *
| 42>
| 43>                          ****END OF INPUT****

CARTESIAN COORDINATES (ANGSTROEM)
---------------------------------
  S    -88.946300   47.176700  127.158000
  C    -89.827600   48.589000  126.671000
  C    -89.021500   49.670000  126.655000
  C    -87.685500   49.385800  127.191000
  C    -87.459500   48.057600  127.438000
  H    -86.905100   50.079800  127.447000
  C    -89.508000   51.022600  126.115000
  H    -90.573800   50.928900  126.119000
  H    -89.218000   51.165700  125.127000
  C    -89.291900   52.285000  126.997000
  H    -89.864100   52.280100  127.889000
  H    -88.223700   52.341700  127.384000
  C    -89.532900   53.630100  126.352000
  H    -88.799900   53.720600  125.543000
  H    -90.527900   53.732500  125.998000
  H    -89.302600   54.444600  127.096000
  S    -85.913500   45.967300  126.852000
  C    -84.223300   45.899200  127.309000
  C    -83.895100   46.923900  128.130000
  C    -84.992300   47.834900  128.291000
  C    -86.177500   47.475000  127.672000
  H    -82.963600   46.847400  128.614000
  C    -84.817900   49.099800  129.040000
  H    -85.753700   49.660600  129.210000
  H    -84.245400   49.707400  128.399000
  C    -83.924600   48.922600  130.290000
  H    -83.608700   49.872300  130.782000
  H    -83.021500   48.362700  130.050000
  C    -84.649700   48.021800  131.365000
  H    -85.756600   48.273000  131.663000
  H    -84.047100   47.949600  132.285000
  H    -84.647000   46.963500  131.017000
  H    -90.829500   48.459000  126.158000
  H    -83.590700   45.029200  127.019000

 Total Charge           Charge          ....    0
 Multiplicity           Mult            ....    1
 Number of Electrons    NEL             ....  134
 Basis Dimension        Dim             ....  322

ORBITAL ENERGIES
----------------

  NO   OCC          E(Eh)            E(eV)
   0   2.0000     -88.962659     -2420.7970
   1   2.0000     -88.958818     -2420.6925
   2   2.0000     -10.329781      -281.0876
   3   2.0000     -10.324731      -280.9502
   4   2.0000     -10.319251      -280.8011
   5   2.0000     -10.315597      -280.7017
   6   2.0000     -10.305267      -280.4206
   7   2.0000     -10.304761      -280.4068
   8   2.0000     -10.294998      -280.1411
   9   2.0000     -10.294947      -280.1397
  10   2.0000     -10.292279      -280.0672
  11   2.0000     -10.289020      -279.9785
  12   2.0000     -10.288117      -279.9539
  13   2.0000     -10.286185      -279.9013
  14   2.0000     -10.285008      -279.8693
  15   2.0000     -10.279038      -279.7068
  16   2.0000      -8.078022      -219.8142
  17   2.0000      -8.074456      -219.7171
  18   2.0000      -6.036727      -164.2677
  19   2.0000      -6.032983      -164.1658
  20   2.0000      -6.032407      -164.1501
  21   2.0000      -6.028822      -164.0526
  22   2.0000      -6.028556      -164.0453
  23   2.0000      -6.025135      -163.9523
  24   2.0000      -1.014081       -27.5945
  25   2.0000      -0.989552       -26.9271
  26   2.0000      -0.912842       -24.8397
  27   2.0000      -0.909418       -24.7465
  28   2.0000      -0.882001       -24.0005
  29   2.0000      -0.848656       -23.0931
  30   2.0000      -0.838486       -22.8164
  31   2.0000      -0.823208       -22.4006
  32   2.0000      -0.782924       -21.3045
  33   2.0000      -0.771516       -20.9940
  34   2.0000      -0.711897       -19.3717
  35   2.0000      -0.696752       -18.9596
  36   2.0000      -0.691122       -18.8064
  37   2.0000      -0.662068       -18.0158
  38   2.0000      -0.641628       -17.4596
  39   2.0000      -0.622027       -16.9262
  40   2.0000      -0.601617       -16.3708
  41   2.0000      -0.574739       -15.6394
  42   2.0000      -0.568103       -15.4589
  43   2.0000      -0.553111       -15.0509
  44   2.0000      -0.537544       -14.6273
  45   2.0000      -0.524889       -14.2830
  46   2.0000      -0.521506       -14.1909
  47   2.0000      -0.510716       -13.8973
  48   2.0000      -0.506895       -13.7933
  49   2.0000      -0.503447       -13.6995
  50   2.0000      -0.496289       -13.5047
  51   2.0000      -0.482012       -13.1162
  52   2.0000      -0.471402       -12.8275
  53   2.0000      -0.466324       -12.6893
  54   2.0000      -0.460273       -12.5247
  55   2.0000      -0.447843       -12.1864
  56   2.0000      -0.439687       -11.9645
  57   2.0000      -0.431813       -11.7502
  58   2.0000      -0.428492       -11.6599
  59   2.0000      -0.426055       -11.5935
  60   2.0000      -0.419506       -11.4153
  61   2.0000      -0.411844       -11.2068
  62   2.0000      -0.408996       -11.1294
  63   2.0000      -0.364742        -9.9251
  64   2.0000      -0.329611        -8.9692
  65   2.0000      -0.324802        -8.8383
  66   2.0000      -0.290278        -7.8989
  67   0.0000       0.027950         0.7606
  68   0.0000       0.080029         2.1777
  69   0.0000       0.118493         3.2244
  70   0.0000       0.121685         3.3112
  71   0.0000       0.131389         3.5753

MULLIKEN ATOMIC CHARGES
-----------------------
   0 S :    0.099451
   1 C :   -0.147540
   2 C :   -0.087070
   3 C :    0.009003
   4 C :   -0.119540
   5 H :    0.007041
   6 C :    0.129481
   7 H :    0.009835
   8 H :    0.025089
   9 C :   -0.115907
  10 H :    0.022839
  11 H :    0.027141
  12 C :   -0.048205
  13 H :    0.030150
  14 H :    0.029050
  15 H :    0.042078
  16 S :    0.078605
  17 C :   -0.111157
  18 C :   -0.019275
  19 C :   -0.058692
  20 C :   -0.124447
  21 H :    0.012015
  22 C :    0.089583
  23 H :    0.037114
  24 H :    0.025921
  25 C :   -0.085547
  26 H :    0.039146
  27 H :    0.029693
  28 C :   -0.111313
  29 H :    0.054905
  30 H :    0.033753
  31 H :    0.040711
  32 H :    0.082331
  33 H :    0.073758
Sum of atomic charges:    0.0000000

LOEWDIN ATOMIC CHARGES
----------------------
   0 S :    0.398889
   1 C :   -0.208876
   2 C :   -0.060495
   3 C :   -0.063529
   4 C :   -0.190210
   5 H :    0.025987
   6 C :   -0.022173
   7 H :    0.030356
   8 H :    0.023088
   9 C :   -0.045629
  10 H :    0.018031
  11 H :    0.024399
  12 C :   -0.062146
  13 H :    0.024243
  14 H :    0.016697
  15 H :    0.035624
  16 S :    0.401514
  17 C :   -0.176360
  18 C :   -0.075119
  19 C :   -0.053639
  20 C :   -0.195808
  21 H :    0.029452
  22 C :   -0.034443
  23 H :    0.032659
  24 H :    0.029345
  25 C :   -0.037368
  26 H :    0.027392
  27 H :    0.023362
  28 C :   -0.085646
  29 H :    0.036234
  30 H :    0.023106
  31 H :    0.026935
  32 H :    0.046082
  33 H :    0.038050

  Mayer bond orders larger than 0.100000
B(  0-S ,  1-C ) :   1.1199 B(  0-S ,  4-C ) :   1.1370 B(  1-C ,  2-C ) :   1.6585
B(  1-C , 32-H ) :   0.9551 B(  2-C ,  3-C ) :   1.2041 B(  2-C ,  6-C ) :   1.0163
B(  3-C ,  4-C ) :   1.5845 B(  3-C ,  5-H ) :   0.9946 B(  4-C , 20-C ) :   1.0762
B(  6-C ,  7-H ) :   0.9380 B(  6-C ,  8-H ) :   0.9403 B(  6-C ,  9-C ) :   1.0493
B(  9-C , 10-H ) :   0.9585 B(  9-C , 11-H ) :   0.9588 B(  9-C , 12-C ) :   1.0896
B( 12-C , 13-H ) :   0.9766 B( 12-C , 14-H ) :   0.9759 B( 12-C , 15-H ) :   0.9720
B( 16-S , 17-C ) :   1.1639 B( 16-S , 20-C ) :   1.1208 B( 17-C , 18-C ) :   1.6224
B( 17-C , 33-H ) :   0.9599 B( 18-C , 19-C ) :   1.2035 B( 18-C , 21-H ) :   1.0002
B( 19-C , 20-C ) :   1.5983 B( 19-C , 22-C ) :   1.0465 B( 22-C , 23-H ) :   0.9364
B( 22-C , 24-H ) :   0.9205 B( 22-C , 25-C ) :   1.0675 B( 25-C , 26-H ) :   0.9592
B( 25-C , 27-H ) :   0.9498 B( 25-C , 28-C ) :   1.0665 B( 28-C , 29-H ) :   0.9763
B( 28-C , 30-H ) :   0.9759 B( 28-C , 31-H ) :   0.9726

Dispersion correction           -0.013723296
FINAL SINGLE POINT ENERGY     -1339.869931403166

DIPOLE MOMENT
-------------
                                X             Y             Z
Electronic contribution:     -2.74966     -24.91430      -9.63823
Nuclear contribution   :      3.04885      25.45343       9.65796
                        -----------------------------------------
Total Dipole Moment    :      0.29919       0.53913       0.01973
                        -----------------------------------------
Magnitude (a.u.)       :      0.61691
Magnitude (Debye)      :      1.56805

Rotational constants in cm-1:     0.019271     0.008059     0.006386
Rotational constants in MHz :   577.725520   241.611087   191.439891

                             ****ORCA TERMINATED NORMALLY****
TOTAL RUN TIME: 0 days 0 hours 0 minutes 33 seconds 422 msec
