                         Program Version 4.2.1 -  RELEASE  -
|  1> ! wB97X-D3 SP def2-SVP
|  2> %pal
|  3> nprocs 16
|  4> end
|  5>
|  6> * xyz 0 1
|  7> S 	 12.1972 	 -7.38247 	 95.3969
|  8> C 	 11.4784 	 -6.02273 	 96.2288
|  9> C 	 10.5688 	 -5.43819 	 95.3766
| 10> C 	 10.5151 	 -6.05246 	 94.1064
| 11> C 	 11.2824 	 -7.17487 	 93.9865
| 12> H 	 9.90012 	 -5.71881 	 93.2336
| 13> C 	 9.74107 	 -4.15117 	 95.5175
| 14> H 	 9.6938 	 -3.71222 	 94.5126
| 15> H 	 10.3392 	 -3.43849 	 96.2005
| 16> C 	 8.37231 	 -4.43092 	 96.0879
| 17> H 	 7.71478 	 -3.5799 	 95.906
| 18> H 	 7.95027 	 -5.23957 	 95.5331
| 19> C 	 8.4515 	 -4.53079 	 97.5888
| 20> H 	 9.16704 	 -5.19382 	 97.96
| 21> H 	 8.71521 	 -3.57183 	 97.9904
| 22> H 	 7.51608 	 -4.80285 	 98.0169
| 23> S 	 13.2641 	 -8.3267 	 92.4711
| 24> C 	 12.924 	 -9.24472 	 90.9787
| 25> C 	 11.5974 	 -9.11894 	 90.6881
| 26> C 	 10.7811 	 -8.35841 	 91.6612
| 27> C 	 11.5699 	 -7.89924 	 92.7293
| 28> H 	 11.2148 	 -9.67435 	 89.7565
| 29> C 	 9.32024 	 -8.30263 	 91.5597
| 30> H 	 8.96495 	 -7.32721 	 91.2625
| 31> H 	 8.8828 	 -8.26899 	 92.5266
| 32> C 	 8.61564 	 -9.33153 	 90.7048
| 33> H 	 8.84851 	 -10.2698 	 91.0986
| 34> H 	 8.98642 	 -9.28395 	 89.7185
| 35> C 	 7.08131 	 -9.34529 	 90.6329
| 36> H 	 6.5929 	 -10.1401 	 89.9695
| 37> H 	 6.59367 	 -8.38369 	 90.5031
| 38> H 	 6.66307 	 -9.54576 	 91.6133
| 39> H 	 11.4793 	 -5.77846 	 97.2566
| 40> H 	 13.6804 	 -9.80686 	 90.2997
| 41> *
| 42>
| 43>                          ****END OF INPUT****

CARTESIAN COORDINATES (ANGSTROEM)
---------------------------------
  S     12.197200   -7.382470   95.396900
  C     11.478400   -6.022730   96.228800
  C     10.568800   -5.438190   95.376600
  C     10.515100   -6.052460   94.106400
  C     11.282400   -7.174870   93.986500
  H      9.900120   -5.718810   93.233600
  C      9.741070   -4.151170   95.517500
  H      9.693800   -3.712220   94.512600
  H     10.339200   -3.438490   96.200500
  C      8.372310   -4.430920   96.087900
  H      7.714780   -3.579900   95.906000
  H      7.950270   -5.239570   95.533100
  C      8.451500   -4.530790   97.588800
  H      9.167040   -5.193820   97.960000
  H      8.715210   -3.571830   97.990400
  H      7.516080   -4.802850   98.016900
  S     13.264100   -8.326700   92.471100
  C     12.924000   -9.244720   90.978700
  C     11.597400   -9.118940   90.688100
  C     10.781100   -8.358410   91.661200
  C     11.569900   -7.899240   92.729300
  H     11.214800   -9.674350   89.756500
  C      9.320240   -8.302630   91.559700
  H      8.964950   -7.327210   91.262500
  H      8.882800   -8.268990   92.526600
  C      8.615640   -9.331530   90.704800
  H      8.848510  -10.269800   91.098600
  H      8.986420   -9.283950   89.718500
  C      7.081310   -9.345290   90.632900
  H      6.592900  -10.140100   89.969500
  H      6.593670   -8.383690   90.503100
  H      6.663070   -9.545760   91.613300
  H     11.479300   -5.778460   97.256600
  H     13.680400   -9.806860   90.299700

 Total Charge           Charge          ....    0
 Multiplicity           Mult            ....    1
 Number of Electrons    NEL             ....  134
 Basis Dimension        Dim             ....  322

ORBITAL ENERGIES
----------------

  NO   OCC          E(Eh)            E(eV)
   0   2.0000     -88.968463     -2420.9550
   1   2.0000     -88.963243     -2420.8129
   2   2.0000     -10.335525      -281.2439
   3   2.0000     -10.328537      -281.0538
   4   2.0000     -10.326131      -280.9883
   5   2.0000     -10.313628      -280.6481
   6   2.0000     -10.311863      -280.6001
   7   2.0000     -10.303339      -280.3681
   8   2.0000     -10.299432      -280.2618
   9   2.0000     -10.297299      -280.2038
  10   2.0000     -10.292042      -280.0607
  11   2.0000     -10.286061      -279.8979
  12   2.0000     -10.283957      -279.8407
  13   2.0000     -10.282064      -279.7892
  14   2.0000     -10.280019      -279.7335
  15   2.0000     -10.268758      -279.4271
  16   2.0000      -8.084009      -219.9771
  17   2.0000      -8.077260      -219.7934
  18   2.0000      -6.042581      -164.4270
  19   2.0000      -6.038193      -164.3076
  20   2.0000      -6.036006      -164.2481
  21   2.0000      -6.034813      -164.2156
  22   2.0000      -6.031834      -164.1345
  23   2.0000      -6.027819      -164.0253
  24   2.0000      -1.014721       -27.6120
  25   2.0000      -0.983293       -26.7568
  26   2.0000      -0.921184       -25.0667
  27   2.0000      -0.916382       -24.9360
  28   2.0000      -0.872164       -23.7328
  29   2.0000      -0.854741       -23.2587
  30   2.0000      -0.844768       -22.9873
  31   2.0000      -0.816792       -22.2260
  32   2.0000      -0.784900       -21.3582
  33   2.0000      -0.777587       -21.1592
  34   2.0000      -0.716070       -19.4853
  35   2.0000      -0.704643       -19.1743
  36   2.0000      -0.701368       -19.0852
  37   2.0000      -0.649081       -17.6624
  38   2.0000      -0.636967       -17.3327
  39   2.0000      -0.622110       -16.9285
  40   2.0000      -0.600752       -16.3473
  41   2.0000      -0.576249       -15.6805
  42   2.0000      -0.571078       -15.5398
  43   2.0000      -0.553521       -15.0621
  44   2.0000      -0.543901       -14.8003
  45   2.0000      -0.528102       -14.3704
  46   2.0000      -0.522361       -14.2142
  47   2.0000      -0.511700       -13.9241
  48   2.0000      -0.508496       -13.8369
  49   2.0000      -0.496374       -13.5070
  50   2.0000      -0.488069       -13.2810
  51   2.0000      -0.480514       -13.0755
  52   2.0000      -0.475221       -12.9314
  53   2.0000      -0.469712       -12.7815
  54   2.0000      -0.460271       -12.5246
  55   2.0000      -0.453454       -12.3391
  56   2.0000      -0.446981       -12.1630
  57   2.0000      -0.438478       -11.9316
  58   2.0000      -0.431597       -11.7444
  59   2.0000      -0.426433       -11.6038
  60   2.0000      -0.418765       -11.3952
  61   2.0000      -0.417292       -11.3551
  62   2.0000      -0.409009       -11.1297
  63   2.0000      -0.357785        -9.7358
  64   2.0000      -0.333124        -9.0648
  65   2.0000      -0.325713        -8.8631
  66   2.0000      -0.292902        -7.9703
  67   0.0000       0.025399         0.6912
  68   0.0000       0.077887         2.1194
  69   0.0000       0.110361         3.0031
  70   0.0000       0.124282         3.3819
  71   0.0000       0.130589         3.5535

MULLIKEN ATOMIC CHARGES
-----------------------
   0 S :    0.112839
   1 C :   -0.096245
   2 C :   -0.095130
   3 C :   -0.022324
   4 C :   -0.113484
   5 H :    0.027298
   6 C :    0.009946
   7 H :    0.032595
   8 H :    0.035529
   9 C :   -0.019927
  10 H :    0.024564
  11 H :    0.020004
  12 C :    0.000533
  13 H :    0.005202
  14 H :    0.016085
  15 H :    0.023524
  16 S :    0.082992
  17 C :   -0.123441
  18 C :   -0.071092
  19 C :   -0.031599
  20 C :   -0.136507
  21 H :    0.051604
  22 C :    0.088539
  23 H :    0.014582
  24 H :    0.002668
  25 C :   -0.045075
  26 H :    0.019475
  27 H :    0.028014
  28 C :   -0.055130
  29 H :    0.052579
  30 H :    0.018390
  31 H :    0.011216
  32 H :    0.038244
  33 H :    0.093531
Sum of atomic charges:    0.0000000

LOEWDIN ATOMIC CHARGES
----------------------
   0 S :    0.437094
   1 C :   -0.200015
   2 C :   -0.062351
   3 C :   -0.075394
   4 C :   -0.212797
   5 H :    0.037282
   6 C :   -0.030035
   7 H :    0.031247
   8 H :    0.034535
   9 C :   -0.038453
  10 H :    0.025844
  11 H :    0.020317
  12 C :   -0.051970
  13 H :    0.012917
  14 H :    0.024875
  15 H :    0.023546
  16 S :    0.377150
  17 C :   -0.197029
  18 C :   -0.085030
  19 C :   -0.055691
  20 C :   -0.180889
  21 H :    0.045790
  22 C :   -0.039013
  23 H :    0.030622
  24 H :    0.029659
  25 C :   -0.033001
  26 H :    0.021300
  27 H :    0.017636
  28 C :   -0.073112
  29 H :    0.040219
  30 H :    0.021014
  31 H :    0.022121
  32 H :    0.024692
  33 H :    0.056920

  Mayer bond orders larger than 0.100000
B(  0-S ,  1-C ) :   1.1346 B(  0-S ,  4-C ) :   1.1731 B(  1-C ,  2-C ) :   1.6001
B(  1-C , 32-H ) :   0.9707 B(  2-C ,  3-C ) :   1.2740 B(  2-C ,  6-C ) :   1.0052
B(  3-C ,  4-C ) :   1.5452 B(  3-C ,  5-H ) :   0.9852 B(  4-C , 20-C ) :   1.0326
B(  6-C ,  7-H ) :   0.9433 B(  6-C ,  8-H ) :   0.9489 B(  6-C ,  9-C ) :   1.0689
B(  9-C , 10-H ) :   0.9523 B(  9-C , 11-H ) :   0.9527 B(  9-C , 12-C ) :   1.0778
B( 12-C , 13-H ) :   0.9770 B( 12-C , 14-H ) :   0.9706 B( 12-C , 15-H ) :   0.9695
B( 16-S , 17-C ) :   1.1230 B( 16-S , 20-C ) :   1.1327 B( 17-C , 18-C ) :   1.6587
B( 17-C , 33-H ) :   0.9517 B( 18-C , 19-C ) :   1.2119 B( 18-C , 21-H ) :   0.9674
B( 19-C , 20-C ) :   1.6051 B( 19-C , 22-C ) :   1.0663 B( 22-C , 23-H ) :   0.9032
B( 22-C , 24-H ) :   0.9189 B( 22-C , 25-C ) :   1.0795 B( 25-C , 26-H ) :   0.9540
B( 25-C , 27-H ) :   0.9442 B( 25-C , 28-C ) :   1.0837 B( 28-C , 29-H ) :   0.9743
B( 28-C , 30-H ) :   0.9730 B( 28-C , 31-H ) :   0.9691

Dispersion correction           -0.013596214
FINAL SINGLE POINT ENERGY     -1339.862083938960

DIPOLE MOMENT
-------------
                                X             Y             Z
Electronic contribution:     27.95608      -6.64536       0.50049
Nuclear contribution   :    -28.66234       6.83372      -0.65316
                        -----------------------------------------
Total Dipole Moment    :     -0.70626       0.18836      -0.15266
                        -----------------------------------------
Magnitude (a.u.)       :      0.74672
Magnitude (Debye)      :      1.89801

Rotational constants in cm-1:     0.018108     0.008412     0.006103
Rotational constants in MHz :   542.852385   252.196829   182.959840

                             ****ORCA TERMINATED NORMALLY****
TOTAL RUN TIME: 0 days 0 hours 0 minutes 32 seconds 707 msec
