                         Program Version 4.2.1 -  RELEASE  -
|  1> ! wB97X-D3 SP def2-SVP
|  2> %pal
|  3> nprocs 16
|  4> end
|  5>
|  6> * xyz 0 1
|  7> S 	 -102.169 	 45.1931 	 123.974
|  8> C 	 -103.501 	 44.4327 	 124.761
|  9> C 	 -104.631 	 44.4871 	 123.949
| 10> C 	 -104.336 	 44.8758 	 122.599
| 11> C 	 -102.996 	 45.1859 	 122.396
| 12> H 	 -105.21 	 44.9519 	 121.886
| 13> C 	 -106.015 	 44.3324 	 124.473
| 14> H 	 -106.046 	 43.8494 	 125.425
| 15> H 	 -106.57 	 43.5712 	 123.941
| 16> C 	 -106.728 	 45.6707 	 124.688
| 17> H 	 -106.073 	 46.3114 	 125.152
| 18> H 	 -106.874 	 46.2168 	 123.737
| 19> C 	 -108.035 	 45.4982 	 125.526
| 20> H 	 -108.639 	 46.38 	 125.653
| 21> H 	 -108.654 	 44.7888 	 124.994
| 22> H 	 -107.79 	 45.0622 	 126.513
| 23> S 	 -101.412 	 47.1111 	 121.241
| 24> C 	 -100.967 	 47.0303 	 119.542
| 25> C 	 -101.611 	 45.978 	 118.991
| 26> C 	 -102.37 	 45.0844 	 119.88
| 27> C 	 -102.326 	 45.6172 	 121.152
| 28> H 	 -101.546 	 45.8613 	 117.94
| 29> C 	 -102.983 	 43.7836 	 119.495
| 30> H 	 -103.608 	 43.3713 	 120.308
| 31> H 	 -102.139 	 43.1205 	 119.261
| 32> C 	 -103.853 	 43.7859 	 118.255
| 33> H 	 -104.289 	 42.7824 	 118.213
| 34> H 	 -103.226 	 43.9871 	 117.351
| 35> C 	 -104.899 	 44.9123 	 118.355
| 36> H 	 -105.501 	 44.774 	 119.177
| 37> H 	 -105.586 	 45.118 	 117.486
| 38> H 	 -104.37 	 45.8498 	 118.639
| 39> H 	 -103.442 	 43.9161 	 125.673
| 40> H 	 -100.45 	 47.799 	 119.057
| 41> *
| 42>
| 43>                          ****END OF INPUT****

CARTESIAN COORDINATES (ANGSTROEM)
---------------------------------
  S    -102.169000   45.193100  123.974000
  C    -103.501000   44.432700  124.761000
  C    -104.631000   44.487100  123.949000
  C    -104.336000   44.875800  122.599000
  C    -102.996000   45.185900  122.396000
  H    -105.210000   44.951900  121.886000
  C    -106.015000   44.332400  124.473000
  H    -106.046000   43.849400  125.425000
  H    -106.570000   43.571200  123.941000
  C    -106.728000   45.670700  124.688000
  H    -106.073000   46.311400  125.152000
  H    -106.874000   46.216800  123.737000
  C    -108.035000   45.498200  125.526000
  H    -108.639000   46.380000  125.653000
  H    -108.654000   44.788800  124.994000
  H    -107.790000   45.062200  126.513000
  S    -101.412000   47.111100  121.241000
  C    -100.967000   47.030300  119.542000
  C    -101.611000   45.978000  118.991000
  C    -102.370000   45.084400  119.880000
  C    -102.326000   45.617200  121.152000
  H    -101.546000   45.861300  117.940000
  C    -102.983000   43.783600  119.495000
  H    -103.608000   43.371300  120.308000
  H    -102.139000   43.120500  119.261000
  C    -103.853000   43.785900  118.255000
  H    -104.289000   42.782400  118.213000
  H    -103.226000   43.987100  117.351000
  C    -104.899000   44.912300  118.355000
  H    -105.501000   44.774000  119.177000
  H    -105.586000   45.118000  117.486000
  H    -104.370000   45.849800  118.639000
  H    -103.442000   43.916100  125.673000
  H    -100.450000   47.799000  119.057000

 Total Charge           Charge          ....    0
 Multiplicity           Mult            ....    1
 Number of Electrons    NEL             ....  134
 Basis Dimension        Dim             ....  322

ORBITAL ENERGIES
----------------

  NO   OCC          E(Eh)            E(eV)
   0   2.0000     -88.965710     -2420.8800
   1   2.0000     -88.959792     -2420.7190
   2   2.0000     -10.336519      -281.2710
   3   2.0000     -10.328940      -281.0648
   4   2.0000     -10.313541      -280.6457
   5   2.0000     -10.310551      -280.5643
   6   2.0000     -10.305792      -280.4348
   7   2.0000     -10.302765      -280.3525
   8   2.0000     -10.299610      -280.2666
   9   2.0000     -10.293675      -280.1051
  10   2.0000     -10.291483      -280.0455
  11   2.0000     -10.290185      -280.0102
  12   2.0000     -10.286266      -279.9035
  13   2.0000     -10.283258      -279.8217
  14   2.0000     -10.281402      -279.7712
  15   2.0000     -10.273158      -279.5469
  16   2.0000      -8.080500      -219.8816
  17   2.0000      -8.074936      -219.7302
  18   2.0000      -6.039106      -164.3324
  19   2.0000      -6.035013      -164.2211
  20   2.0000      -6.033564      -164.1816
  21   2.0000      -6.031126      -164.1153
  22   2.0000      -6.029454      -164.0698
  23   2.0000      -6.025469      -163.9613
  24   2.0000      -1.005490       -27.3608
  25   2.0000      -0.985196       -26.8085
  26   2.0000      -0.916911       -24.9504
  27   2.0000      -0.913648       -24.8616
  28   2.0000      -0.870291       -23.6818
  29   2.0000      -0.848125       -23.0787
  30   2.0000      -0.840410       -22.8687
  31   2.0000      -0.818189       -22.2641
  32   2.0000      -0.783460       -21.3190
  33   2.0000      -0.773042       -21.0355
  34   2.0000      -0.714536       -19.4435
  35   2.0000      -0.703927       -19.1548
  36   2.0000      -0.697722       -18.9860
  37   2.0000      -0.657675       -17.8963
  38   2.0000      -0.642648       -17.4874
  39   2.0000      -0.625503       -17.0208
  40   2.0000      -0.604410       -16.4468
  41   2.0000      -0.568274       -15.4635
  42   2.0000      -0.560522       -15.2526
  43   2.0000      -0.554952       -15.1010
  44   2.0000      -0.542313       -14.7571
  45   2.0000      -0.525889       -14.3102
  46   2.0000      -0.522002       -14.2044
  47   2.0000      -0.519890       -14.1469
  48   2.0000      -0.504480       -13.7276
  49   2.0000      -0.497840       -13.5469
  50   2.0000      -0.490176       -13.3384
  51   2.0000      -0.481777       -13.1098
  52   2.0000      -0.469335       -12.7713
  53   2.0000      -0.461415       -12.5557
  54   2.0000      -0.455566       -12.3966
  55   2.0000      -0.452410       -12.3107
  56   2.0000      -0.441504       -12.0139
  57   2.0000      -0.438045       -11.9198
  58   2.0000      -0.434887       -11.8339
  59   2.0000      -0.427862       -11.6427
  60   2.0000      -0.420488       -11.4421
  61   2.0000      -0.418829       -11.3969
  62   2.0000      -0.410977       -11.1833
  63   2.0000      -0.353311        -9.6141
  64   2.0000      -0.328877        -8.9492
  65   2.0000      -0.324808        -8.8385
  66   2.0000      -0.290367        -7.9013
  67   0.0000       0.029169         0.7937
  68   0.0000       0.066242         1.8025
  69   0.0000       0.106428         2.8961
  70   0.0000       0.125433         3.4132
  71   0.0000       0.129231         3.5166

MULLIKEN ATOMIC CHARGES
-----------------------
   0 S :    0.110164
   1 C :   -0.096669
   2 C :   -0.123920
   3 C :    0.028248
   4 C :   -0.149968
   5 H :    0.038858
   6 C :    0.073585
   7 H :   -0.009658
   8 H :    0.016618
   9 C :   -0.034056
  10 H :    0.008052
  11 H :    0.024418
  12 C :   -0.046720
  13 H :    0.038060
  14 H :    0.025038
  15 H :    0.037088
  16 S :    0.081108
  17 C :   -0.063679
  18 C :   -0.018435
  19 C :   -0.068478
  20 C :   -0.139059
  21 H :    0.003952
  22 C :    0.070727
  23 H :    0.034139
  24 H :    0.046709
  25 C :   -0.078873
  26 H :    0.037671
  27 H :    0.035364
  28 C :   -0.051267
  29 H :   -0.002056
  30 H :    0.046305
  31 H :    0.043493
  32 H :    0.040223
  33 H :    0.043017
Sum of atomic charges:   -0.0000000

LOEWDIN ATOMIC CHARGES
----------------------
   0 S :    0.405163
   1 C :   -0.194937
   2 C :   -0.064154
   3 C :   -0.067778
   4 C :   -0.183794
   5 H :    0.042193
   6 C :   -0.037343
   7 H :    0.025782
   8 H :    0.026068
   9 C :   -0.030457
  10 H :    0.013671
  11 H :    0.025090
  12 C :   -0.061657
  13 H :    0.025429
  14 H :    0.023345
  15 H :    0.028194
  16 S :    0.384175
  17 C :   -0.169139
  18 C :   -0.063633
  19 C :   -0.060905
  20 C :   -0.189128
  21 H :    0.022439
  22 C :   -0.033839
  23 H :    0.035825
  24 H :    0.041709
  25 C :   -0.039601
  26 H :    0.027570
  27 H :    0.024114
  28 C :   -0.073244
  29 H :    0.008702
  30 H :    0.031885
  31 H :    0.034145
  32 H :    0.021831
  33 H :    0.022278

  Mayer bond orders larger than 0.100000
B(  0-S ,  1-C ) :   1.1459 B(  0-S ,  4-C ) :   1.1551 B(  1-C ,  2-C ) :   1.5834
B(  1-C ,  4-C ) :   0.1032 B(  1-C , 32-H ) :   0.9755 B(  2-C ,  3-C ) :   1.2659
B(  2-C ,  6-C ) :   1.0507 B(  3-C ,  4-C ) :   1.5370 B(  3-C ,  5-H ) :   0.9840
B(  4-C , 20-C ) :   1.0234 B(  6-C ,  7-H ) :   0.9337 B(  6-C ,  8-H ) :   0.9308
B(  6-C ,  9-C ) :   1.0452 B(  9-C , 10-H ) :   0.9532 B(  9-C , 11-H ) :   0.9543
B(  9-C , 12-C ) :   1.0748 B( 12-C , 13-H ) :   0.9761 B( 12-C , 14-H ) :   0.9771
B( 12-C , 15-H ) :   0.9755 B( 16-S , 17-C ) :   1.1202 B( 16-S , 20-C ) :   1.1448
B( 17-C , 18-C ) :   1.6522 B( 17-C , 33-H ) :   0.9783 B( 18-C , 19-C ) :   1.1803
B( 18-C , 21-H ) :   0.9918 B( 19-C , 20-C ) :   1.6244 B( 19-C , 22-C ) :   1.0523
B( 22-C , 23-H ) :   0.9334 B( 22-C , 24-H ) :   0.9269 B( 22-C , 25-C ) :   1.0726
B( 25-C , 26-H ) :   0.9577 B( 25-C , 27-H ) :   0.9523 B( 25-C , 28-C ) :   1.0703
B( 28-C , 29-H ) :   0.9722 B( 28-C , 30-H ) :   0.9744 B( 28-C , 31-H ) :   0.9652

Dispersion correction           -0.014641055
FINAL SINGLE POINT ENERGY     -1339.872591840535

DIPOLE MOMENT
-------------
                                X             Y             Z
Electronic contribution:     25.37366       7.32235       4.14879
Nuclear contribution   :    -25.93275      -7.56800      -4.34346
                        -----------------------------------------
Total Dipole Moment    :     -0.55909      -0.24565      -0.19468
                        -----------------------------------------
Magnitude (a.u.)       :      0.64096
Magnitude (Debye)      :      1.62918

Rotational constants in cm-1:     0.019764     0.008257     0.006737
Rotational constants in MHz :   592.505478   247.529083   201.980765

                             ****ORCA TERMINATED NORMALLY****
TOTAL RUN TIME: 0 days 0 hours 0 minutes 33 seconds 507 msec
