                         Program Version 4.2.1 -  RELEASE  -
|  1> ! wB97X-D3 SP def2-SVP
|  2> %pal
|  3> nprocs 16
|  4> end
|  5>
|  6> * xyz 0 1
|  7> S 	 -34.4132 	 65.9448 	 141.748
|  8> C 	 -34.6764 	 64.463 	 140.933
|  9> C 	 -33.8293 	 63.4533 	 141.355
| 10> C 	 -32.9816 	 63.9267 	 142.398
| 11> C 	 -33.2656 	 65.1944 	 142.882
| 12> H 	 -32.1868 	 63.3602 	 142.932
| 13> C 	 -33.7049 	 62.0184 	 140.874
| 14> H 	 -32.7223 	 61.5642 	 141.031
| 15> H 	 -33.6565 	 62.0529 	 139.75
| 16> C 	 -34.8838 	 61.0122 	 141.095
| 17> H 	 -35.7563 	 61.2129 	 140.635
| 18> H 	 -34.716 	 59.9719 	 140.695
| 19> C 	 -35.2303 	 60.9257 	 142.584
| 20> H 	 -35.865 	 60.1172 	 142.835
| 21> H 	 -34.2212 	 60.7386 	 143.054
| 22> H 	 -35.6717 	 61.878 	 142.935
| 23> S 	 -31.9517 	 67.5698 	 143.735
| 24> C 	 -31.3441 	 67.6725 	 145.403
| 25> C 	 -31.6344 	 66.5718 	 146.062
| 26> C 	 -32.5176 	 65.6472 	 145.349
| 27> C 	 -32.6764 	 65.9314 	 144.025
| 28> H 	 -31.316 	 66.3899 	 147.041
| 29> C 	 -33.1442 	 64.3963 	 145.973
| 30> H 	 -32.6765 	 64.1302 	 146.969
| 31> H 	 -32.8914 	 63.569 	 145.292
| 32> C 	 -34.647 	 64.5556 	 146.173
| 33> H 	 -35.1113 	 63.5942 	 146.398
| 34> H 	 -35.1472 	 64.9567 	 145.292
| 35> C 	 -35.0043 	 65.353 	 147.493
| 36> H 	 -34.8919 	 64.7277 	 148.438
| 37> H 	 -35.9678 	 65.8332 	 147.593
| 38> H 	 -34.2777 	 66.1565 	 147.664
| 39> H 	 -35.4308 	 64.3321 	 140.192
| 40> H 	 -30.8532 	 68.5766 	 145.748
| 41> *
| 42>
| 43>                          ****END OF INPUT****

CARTESIAN COORDINATES (ANGSTROEM)
---------------------------------
  S    -34.413200   65.944800  141.748000
  C    -34.676400   64.463000  140.933000
  C    -33.829300   63.453300  141.355000
  C    -32.981600   63.926700  142.398000
  C    -33.265600   65.194400  142.882000
  H    -32.186800   63.360200  142.932000
  C    -33.704900   62.018400  140.874000
  H    -32.722300   61.564200  141.031000
  H    -33.656500   62.052900  139.750000
  C    -34.883800   61.012200  141.095000
  H    -35.756300   61.212900  140.635000
  H    -34.716000   59.971900  140.695000
  C    -35.230300   60.925700  142.584000
  H    -35.865000   60.117200  142.835000
  H    -34.221200   60.738600  143.054000
  H    -35.671700   61.878000  142.935000
  S    -31.951700   67.569800  143.735000
  C    -31.344100   67.672500  145.403000
  C    -31.634400   66.571800  146.062000
  C    -32.517600   65.647200  145.349000
  C    -32.676400   65.931400  144.025000
  H    -31.316000   66.389900  147.041000
  C    -33.144200   64.396300  145.973000
  H    -32.676500   64.130200  146.969000
  H    -32.891400   63.569000  145.292000
  C    -34.647000   64.555600  146.173000
  H    -35.111300   63.594200  146.398000
  H    -35.147200   64.956700  145.292000
  C    -35.004300   65.353000  147.493000
  H    -34.891900   64.727700  148.438000
  H    -35.967800   65.833200  147.593000
  H    -34.277700   66.156500  147.664000
  H    -35.430800   64.332100  140.192000
  H    -30.853200   68.576600  145.748000

 Total Charge           Charge          ....    0
 Multiplicity           Mult            ....    1
 Number of Electrons    NEL             ....  134
 Basis Dimension        Dim             ....  322

ORBITAL ENERGIES
----------------

  NO   OCC          E(Eh)            E(eV)
   0   2.0000     -88.969270     -2420.9769
   1   2.0000     -88.956181     -2420.6207
   2   2.0000     -10.336228      -281.2631
   3   2.0000     -10.332286      -281.1558
   4   2.0000     -10.317388      -280.7504
   5   2.0000     -10.316465      -280.7253
   6   2.0000     -10.307670      -280.4860
   7   2.0000     -10.305948      -280.4391
   8   2.0000     -10.302139      -280.3354
   9   2.0000     -10.300814      -280.2994
  10   2.0000     -10.297151      -280.1997
  11   2.0000     -10.289788      -279.9994
  12   2.0000     -10.286889      -279.9205
  13   2.0000     -10.284863      -279.8653
  14   2.0000     -10.279488      -279.7191
  15   2.0000     -10.274294      -279.5778
  16   2.0000      -8.084186      -219.9819
  17   2.0000      -8.070446      -219.6080
  18   2.0000      -6.042651      -164.4289
  19   2.0000      -6.038593      -164.3185
  20   2.0000      -6.035051      -164.2221
  21   2.0000      -6.029213      -164.0632
  22   2.0000      -6.025134      -163.9522
  23   2.0000      -6.020838      -163.8353
  24   2.0000      -1.005604       -27.3639
  25   2.0000      -0.985766       -26.8240
  26   2.0000      -0.909452       -24.7474
  27   2.0000      -0.902902       -24.5692
  28   2.0000      -0.871522       -23.7153
  29   2.0000      -0.851639       -23.1743
  30   2.0000      -0.834797       -22.7160
  31   2.0000      -0.819469       -22.2989
  32   2.0000      -0.780443       -21.2369
  33   2.0000      -0.770469       -20.9655
  34   2.0000      -0.708352       -19.2752
  35   2.0000      -0.705505       -19.1978
  36   2.0000      -0.689288       -18.7565
  37   2.0000      -0.664457       -18.0808
  38   2.0000      -0.647185       -17.6108
  39   2.0000      -0.613718       -16.7001
  40   2.0000      -0.595351       -16.2003
  41   2.0000      -0.576451       -15.6860
  42   2.0000      -0.555159       -15.1067
  43   2.0000      -0.552433       -15.0325
  44   2.0000      -0.548914       -14.9367
  45   2.0000      -0.538581       -14.6555
  46   2.0000      -0.511223       -13.9111
  47   2.0000      -0.508959       -13.8495
  48   2.0000      -0.503242       -13.6939
  49   2.0000      -0.492531       -13.4025
  50   2.0000      -0.483780       -13.1643
  51   2.0000      -0.475584       -12.9413
  52   2.0000      -0.470705       -12.8085
  53   2.0000      -0.465437       -12.6652
  54   2.0000      -0.458699       -12.4818
  55   2.0000      -0.445324       -12.1179
  56   2.0000      -0.439190       -11.9510
  57   2.0000      -0.438628       -11.9357
  58   2.0000      -0.431076       -11.7302
  59   2.0000      -0.425154       -11.5690
  60   2.0000      -0.417509       -11.3610
  61   2.0000      -0.413813       -11.2604
  62   2.0000      -0.404067       -10.9952
  63   2.0000      -0.351158        -9.5555
  64   2.0000      -0.332300        -9.0423
  65   2.0000      -0.326086        -8.8733
  66   2.0000      -0.298346        -8.1184
  67   0.0000       0.027210         0.7404
  68   0.0000       0.065228         1.7750
  69   0.0000       0.106467         2.8971
  70   0.0000       0.121474         3.3055
  71   0.0000       0.126412         3.4398

MULLIKEN ATOMIC CHARGES
-----------------------
   0 S :    0.120192
   1 C :   -0.100381
   2 C :   -0.066084
   3 C :    0.027886
   4 C :   -0.176185
   5 H :    0.031048
   6 C :    0.032061
   7 H :    0.034266
   8 H :    0.033017
   9 C :   -0.033927
  10 H :   -0.003214
  11 H :    0.028225
  12 C :   -0.071532
  13 H :    0.027447
  14 H :    0.026175
  15 H :    0.051232
  16 S :    0.058515
  17 C :   -0.080930
  18 C :    0.023323
  19 C :   -0.073629
  20 C :   -0.134609
  21 H :   -0.002636
  22 C :    0.053814
  23 H :    0.025219
  24 H :    0.031594
  25 C :   -0.044808
  26 H :    0.032734
  27 H :    0.045489
  28 C :   -0.088652
  29 H :    0.030328
  30 H :    0.037693
  31 H :    0.021624
  32 H :    0.039206
  33 H :    0.065496
Sum of atomic charges:    0.0000000

LOEWDIN ATOMIC CHARGES
----------------------
   0 S :    0.416047
   1 C :   -0.192967
   2 C :   -0.069305
   3 C :   -0.057406
   4 C :   -0.191014
   5 H :    0.037627
   6 C :   -0.038953
   7 H :    0.035150
   8 H :    0.040692
   9 C :   -0.038165
  10 H :    0.003876
  11 H :    0.032679
  12 C :   -0.066736
  13 H :    0.016676
  14 H :    0.027225
  15 H :    0.029052
  16 S :    0.343763
  17 C :   -0.157887
  18 C :   -0.068895
  19 C :   -0.052164
  20 C :   -0.176043
  21 H :    0.023248
  22 C :   -0.033903
  23 H :    0.033302
  24 H :    0.032701
  25 C :   -0.036673
  26 H :    0.026332
  27 H :    0.026953
  28 C :   -0.076947
  29 H :    0.028574
  30 H :    0.024525
  31 H :    0.020169
  32 H :    0.024211
  33 H :    0.034254

  Mayer bond orders larger than 0.100000
B(  0-S ,  1-C ) :   1.1644 B(  0-S ,  4-C ) :   1.1413 B(  1-C ,  2-C ) :   1.5890
B(  1-C ,  4-C ) :   0.1029 B(  1-C , 32-H ) :   0.9722 B(  2-C ,  3-C ) :   1.2442
B(  2-C ,  6-C ) :   1.0139 B(  3-C ,  4-C ) :   1.5855 B(  3-C ,  5-H ) :   0.9835
B(  4-C , 20-C ) :   1.0314 B(  6-C ,  7-H ) :   0.9509 B(  6-C ,  8-H ) :   0.9350
B(  6-C ,  9-C ) :   1.0666 B(  9-C , 10-H ) :   0.9563 B(  9-C , 11-H ) :   0.9536
B(  9-C , 12-C ) :   1.0748 B( 12-C , 13-H ) :   0.9756 B( 12-C , 14-H ) :   0.9797
B( 12-C , 15-H ) :   0.9732 B( 16-S , 17-C ) :   1.1264 B( 16-S , 20-C ) :   1.0969
B( 17-C , 18-C ) :   1.6462 B( 17-C , 33-H ) :   0.9685 B( 18-C , 19-C ) :   1.1961
B( 18-C , 21-H ) :   1.0000 B( 19-C , 20-C ) :   1.6686 B( 19-C , 22-C ) :   1.0315
B( 22-C , 23-H ) :   0.9409 B( 22-C , 24-H ) :   0.9356 B( 22-C , 25-C ) :   1.0667
B( 25-C , 26-H ) :   0.9590 B( 25-C , 27-H ) :   0.9624 B( 25-C , 28-C ) :   1.0501
B( 28-C , 29-H ) :   0.9773 B( 28-C , 30-H ) :   0.9776 B( 28-C , 31-H ) :   0.9809

Dispersion correction           -0.015150272
FINAL SINGLE POINT ENERGY     -1339.865111200466

DIPOLE MOMENT
-------------
                                X             Y             Z
Electronic contribution:      9.90610      23.21882     -10.21586
Nuclear contribution   :     -9.96831     -23.86826      10.41209
                        -----------------------------------------
Total Dipole Moment    :     -0.06221      -0.64944       0.19622
                        -----------------------------------------
Magnitude (a.u.)       :      0.68128
Magnitude (Debye)      :      1.73169

Rotational constants in cm-1:     0.019982     0.008943     0.007154
Rotational constants in MHz :   599.058556   268.103734   214.475853

                             ****ORCA TERMINATED NORMALLY****
TOTAL RUN TIME: 0 days 0 hours 0 minutes 35 seconds 916 msec
