                         Program Version 4.2.1 -  RELEASE  -
|  1> ! wB97X-D3 SP def2-SVP
|  2> %pal
|  3> nprocs 16
|  4> end
|  5>
|  6> * xyz 0 1
|  7> S 	 -48.959 	 12.3454 	 78.6086
|  8> C 	 -47.3254 	 11.7732 	 78.8828
|  9> C 	 -46.9411 	 11.9353 	 80.1934
| 10> C 	 -47.9939 	 12.5574 	 80.9958
| 11> C 	 -49.123 	 12.8243 	 80.2552
| 12> H 	 -47.8216 	 12.9211 	 81.9963
| 13> C 	 -45.7136 	 11.3293 	 80.766
| 14> H 	 -45.3269 	 11.8304 	 81.5715
| 15> H 	 -44.8681 	 11.4344 	 80.0951
| 16> C 	 -45.8212 	 9.83221 	 81.1205
| 17> H 	 -44.9823 	 9.57751 	 81.81
| 18> H 	 -46.7586 	 9.66708 	 81.547
| 19> C 	 -45.6357 	 8.77097 	 79.9389
| 20> H 	 -44.6243 	 8.80501 	 79.6197
| 21> H 	 -46.0222 	 7.81009 	 80.3225
| 22> H 	 -46.3637 	 9.06568 	 79.1645
| 23> S 	 -51.2632 	 14.5766 	 79.5745
| 24> C 	 -52.6387 	 14.5059 	 80.618
| 25> C 	 -52.4224 	 13.841 	 81.7778
| 26> C 	 -51.1179 	 13.3818 	 81.8385
| 27> C 	 -50.3835 	 13.5544 	 80.6679
| 28> H 	 -53.2296 	 13.8259 	 82.5876
| 29> C 	 -50.6318 	 12.7352 	 83.1557
| 30> H 	 -50.9641 	 13.3089 	 84.0048
| 31> H 	 -49.5431 	 12.9564 	 83.3555
| 32> C 	 -50.9534 	 11.1978 	 83.292
| 33> H 	 -50.0429 	 10.5631 	 83.4336
| 34> H 	 -51.371 	 10.9458 	 82.2803
| 35> C 	 -52.0145 	 10.8999 	 84.3113
| 36> H 	 -52.2354 	 9.81889 	 84.3442
| 37> H 	 -52.9089 	 11.393 	 84.0085
| 38> H 	 -51.8096 	 11.2451 	 85.3027
| 39> H 	 -46.7334 	 11.2904 	 78.1271
| 40> H 	 -53.5903 	 14.9286 	 80.3571
| 41> *
| 42>
| 43>                          ****END OF INPUT****

CARTESIAN COORDINATES (ANGSTROEM)
---------------------------------
  S    -48.959000   12.345400   78.608600
  C    -47.325400   11.773200   78.882800
  C    -46.941100   11.935300   80.193400
  C    -47.993900   12.557400   80.995800
  C    -49.123000   12.824300   80.255200
  H    -47.821600   12.921100   81.996300
  C    -45.713600   11.329300   80.766000
  H    -45.326900   11.830400   81.571500
  H    -44.868100   11.434400   80.095100
  C    -45.821200    9.832210   81.120500
  H    -44.982300    9.577510   81.810000
  H    -46.758600    9.667080   81.547000
  C    -45.635700    8.770970   79.938900
  H    -44.624300    8.805010   79.619700
  H    -46.022200    7.810090   80.322500
  H    -46.363700    9.065680   79.164500
  S    -51.263200   14.576600   79.574500
  C    -52.638700   14.505900   80.618000
  C    -52.422400   13.841000   81.777800
  C    -51.117900   13.381800   81.838500
  C    -50.383500   13.554400   80.667900
  H    -53.229600   13.825900   82.587600
  C    -50.631800   12.735200   83.155700
  H    -50.964100   13.308900   84.004800
  H    -49.543100   12.956400   83.355500
  C    -50.953400   11.197800   83.292000
  H    -50.042900   10.563100   83.433600
  H    -51.371000   10.945800   82.280300
  C    -52.014500   10.899900   84.311300
  H    -52.235400    9.818890   84.344200
  H    -52.908900   11.393000   84.008500
  H    -51.809600   11.245100   85.302700
  H    -46.733400   11.290400   78.127100
  H    -53.590300   14.928600   80.357100

 Total Charge           Charge          ....    0
 Multiplicity           Mult            ....    1
 Number of Electrons    NEL             ....  134
 Basis Dimension        Dim             ....  322

ORBITAL ENERGIES
----------------

  NO   OCC          E(Eh)            E(eV)
   0   2.0000     -88.969668     -2420.9877
   1   2.0000     -88.965550     -2420.8757
   2   2.0000     -10.333324      -281.1840
   3   2.0000     -10.329242      -281.0730
   4   2.0000     -10.312287      -280.6116
   5   2.0000     -10.310785      -280.5707
   6   2.0000     -10.301007      -280.3047
   7   2.0000     -10.300858      -280.3006
   8   2.0000     -10.293847      -280.1098
   9   2.0000     -10.293789      -280.1082
  10   2.0000     -10.293703      -280.1059
  11   2.0000     -10.289138      -279.9817
  12   2.0000     -10.284697      -279.8608
  13   2.0000     -10.281307      -279.7686
  14   2.0000     -10.279456      -279.7182
  15   2.0000     -10.271531      -279.5026
  16   2.0000      -8.084967      -220.0031
  17   2.0000      -8.080815      -219.8901
  18   2.0000      -6.043282      -164.4461
  19   2.0000      -6.039443      -164.3416
  20   2.0000      -6.039325      -164.3384
  21   2.0000      -6.035855      -164.2440
  22   2.0000      -6.035242      -164.2273
  23   2.0000      -6.031552      -164.1269
  24   2.0000      -1.011841       -27.5336
  25   2.0000      -0.990164       -26.9437
  26   2.0000      -0.911312       -24.7981
  27   2.0000      -0.903486       -24.5851
  28   2.0000      -0.863790       -23.5049
  29   2.0000      -0.854467       -23.2512
  30   2.0000      -0.843008       -22.9394
  31   2.0000      -0.815594       -22.1934
  32   2.0000      -0.786495       -21.4016
  33   2.0000      -0.774218       -21.0676
  34   2.0000      -0.703446       -19.1417
  35   2.0000      -0.695513       -18.9259
  36   2.0000      -0.688898       -18.7459
  37   2.0000      -0.658961       -17.9312
  38   2.0000      -0.641546       -17.4573
  39   2.0000      -0.624008       -16.9801
  40   2.0000      -0.602837       -16.4040
  41   2.0000      -0.578320       -15.7369
  42   2.0000      -0.549991       -14.9660
  43   2.0000      -0.547205       -14.8902
  44   2.0000      -0.538945       -14.6654
  45   2.0000      -0.526400       -14.3241
  46   2.0000      -0.517669       -14.0865
  47   2.0000      -0.515941       -14.0395
  48   2.0000      -0.503144       -13.6912
  49   2.0000      -0.495116       -13.4728
  50   2.0000      -0.491590       -13.3769
  51   2.0000      -0.477366       -12.9898
  52   2.0000      -0.471459       -12.8290
  53   2.0000      -0.467734       -12.7277
  54   2.0000      -0.462417       -12.5830
  55   2.0000      -0.450718       -12.2647
  56   2.0000      -0.443608       -12.0712
  57   2.0000      -0.439285       -11.9535
  58   2.0000      -0.430074       -11.7029
  59   2.0000      -0.426063       -11.5938
  60   2.0000      -0.421563       -11.4713
  61   2.0000      -0.407487       -11.0883
  62   2.0000      -0.404361       -11.0032
  63   2.0000      -0.352822        -9.6008
  64   2.0000      -0.338138        -9.2012
  65   2.0000      -0.328637        -8.9427
  66   2.0000      -0.288911        -7.8617
  67   0.0000       0.027784         0.7560
  68   0.0000       0.078171         2.1272
  69   0.0000       0.110764         3.0140
  70   0.0000       0.121017         3.2930
  71   0.0000       0.129976         3.5368

MULLIKEN ATOMIC CHARGES
-----------------------
   0 S :    0.104174
   1 C :   -0.124742
   2 C :   -0.090545
   3 C :    0.009099
   4 C :   -0.108800
   5 H :    0.012792
   6 C :    0.115376
   7 H :   -0.007958
   8 H :    0.007106
   9 C :   -0.083982
  10 H :    0.033178
  11 H :    0.020295
  12 C :   -0.057301
  13 H :    0.037811
  14 H :    0.040801
  15 H :    0.029170
  16 S :    0.121657
  17 C :   -0.094703
  18 C :   -0.043200
  19 C :   -0.047418
  20 C :   -0.142619
  21 H :    0.049297
  22 C :    0.030523
  23 H :    0.017798
  24 H :    0.017892
  25 C :   -0.072484
  26 H :    0.041817
  27 H :    0.046194
  28 C :   -0.030729
  29 H :    0.035789
  30 H :    0.014790
  31 H :    0.024545
  32 H :    0.047528
  33 H :    0.046849
Sum of atomic charges:    0.0000000

LOEWDIN ATOMIC CHARGES
----------------------
   0 S :    0.411891
   1 C :   -0.195407
   2 C :   -0.056550
   3 C :   -0.069795
   4 C :   -0.185963
   5 H :    0.028644
   6 C :   -0.034965
   7 H :    0.019351
   8 H :    0.030992
   9 C :   -0.028033
  10 H :    0.026893
  11 H :    0.013296
  12 C :   -0.063073
  13 H :    0.018310
  14 H :    0.031506
  15 H :    0.023789
  16 S :    0.422865
  17 C :   -0.185107
  18 C :   -0.082609
  19 C :   -0.059141
  20 C :   -0.208219
  21 H :    0.049118
  22 C :   -0.038492
  23 H :    0.026999
  24 H :    0.032819
  25 C :   -0.043141
  26 H :    0.027491
  27 H :    0.033484
  28 C :   -0.063978
  29 H :    0.030256
  30 H :    0.019552
  31 H :    0.018245
  32 H :    0.024508
  33 H :    0.024467

  Mayer bond orders larger than 0.100000
B(  0-S ,  1-C ) :   1.1247 B(  0-S ,  4-C ) :   1.1628 B(  1-C ,  2-C ) :   1.6206
B(  1-C , 32-H ) :   0.9681 B(  2-C ,  3-C ) :   1.2275 B(  2-C ,  6-C ) :   1.0520
B(  3-C ,  4-C ) :   1.5802 B(  3-C ,  5-H ) :   0.9945 B(  4-C , 20-C ) :   1.0193
B(  6-C ,  7-H ) :   0.9276 B(  6-C ,  8-H ) :   0.9321 B(  6-C ,  9-C ) :   1.0556
B(  9-C , 10-H ) :   0.9591 B(  9-C , 11-H ) :   0.9603 B(  9-C , 12-C ) :   1.0772
B( 12-C , 13-H ) :   0.9790 B( 12-C , 14-H ) :   0.9749 B( 12-C , 15-H ) :   0.9745
B( 16-S , 17-C ) :   1.1703 B( 16-S , 20-C ) :   1.1483 B( 17-C , 18-C ) :   1.5928
B( 17-C , 33-H ) :   0.9654 B( 18-C , 19-C ) :   1.2815 B( 18-C , 21-H ) :   0.9795
B( 19-C , 20-C ) :   1.5750 B( 19-C , 22-C ) :   1.0391 B( 22-C , 23-H ) :   0.9458
B( 22-C , 24-H ) :   0.9417 B( 22-C , 25-C ) :   1.0138 B( 25-C , 26-H ) :   0.9595
B( 25-C , 27-H ) :   0.9667 B( 25-C , 28-C ) :   1.0825 B( 28-C , 29-H ) :   0.9709
B( 28-C , 30-H ) :   0.9728 B( 28-C , 31-H ) :   0.9766

Dispersion correction           -0.014554624
FINAL SINGLE POINT ENERGY     -1339.868965549806

DIPOLE MOMENT
-------------
                                X             Y             Z
Electronic contribution:     -9.39710      19.81191     -18.57055
Nuclear contribution   :      9.48537     -20.01876      19.12012
                        -----------------------------------------
Total Dipole Moment    :      0.08827      -0.20685       0.54957
                        -----------------------------------------
Magnitude (a.u.)       :      0.59381
Magnitude (Debye)      :      1.50934

Rotational constants in cm-1:     0.019274     0.008837     0.006597
Rotational constants in MHz :   577.820229   264.916021   197.768619

                             ****ORCA TERMINATED NORMALLY****
TOTAL RUN TIME: 0 days 0 hours 0 minutes 30 seconds 337 msec
