                         Program Version 4.2.1 -  RELEASE  -
|  1> ! wB97X-D3 SP def2-SVP
|  2> %pal
|  3> nprocs 16
|  4> end
|  5>
|  6> * xyz 0 1
|  7> S 	 -98.1176 	 51.2181 	 126.475
|  8> C 	 -96.9563 	 50.4286 	 125.391
|  9> C 	 -97.316 	 50.6291 	 124.093
| 10> C 	 -98.5834 	 51.3818 	 123.938
| 11> C 	 -99.1519 	 51.7756 	 125.145
| 12> H 	 -99.0277 	 51.5626 	 122.931
| 13> C 	 -96.473 	 50.2345 	 122.91
| 14> H 	 -95.7208 	 49.5413 	 123.381
| 15> H 	 -95.8598 	 50.9839 	 122.427
| 16> C 	 -97.2545 	 49.5474 	 121.783
| 17> H 	 -97.9416 	 48.7902 	 122.077
| 18> H 	 -97.8925 	 50.3466 	 121.335
| 19> C 	 -96.2775 	 48.8918 	 120.761
| 20> H 	 -95.4775 	 48.4147 	 121.281
| 21> H 	 -96.7472 	 48.228 	 120.05
| 22> H 	 -95.9447 	 49.7648 	 120.175
| 23> S 	 -100.643 	 53.7907 	 126.088
| 24> C 	 -102.37 	 53.6304 	 126.225
| 25> C 	 -102.837 	 52.4715 	 125.614
| 26> C 	 -101.796 	 51.6661 	 125.053
| 27> C 	 -100.534 	 52.2297 	 125.325
| 28> H 	 -103.915 	 52.3382 	 125.532
| 29> C 	 -102.067 	 50.3766 	 124.348
| 30> H 	 -102.575 	 49.7981 	 125.207
| 31> H 	 -101.159 	 49.7937 	 124.287
| 32> C 	 -102.802 	 50.5056 	 122.947
| 33> H 	 -102.089 	 50.9775 	 122.32
| 34> H 	 -103.63 	 51.2195 	 122.857
| 35> C 	 -103.193 	 49.1523 	 122.221
| 36> H 	 -103.991 	 48.7519 	 122.843
| 37> H 	 -102.29 	 48.503 	 122.263
| 38> H 	 -103.455 	 49.2405 	 121.144
| 39> H 	 -96.018 	 49.9027 	 125.569
| 40> H 	 -103.074 	 54.2217 	 126.738
| 41> *
| 42>
| 43>                          ****END OF INPUT****

CARTESIAN COORDINATES (ANGSTROEM)
---------------------------------
  S    -98.117600   51.218100  126.475000
  C    -96.956300   50.428600  125.391000
  C    -97.316000   50.629100  124.093000
  C    -98.583400   51.381800  123.938000
  C    -99.151900   51.775600  125.145000
  H    -99.027700   51.562600  122.931000
  C    -96.473000   50.234500  122.910000
  H    -95.720800   49.541300  123.381000
  H    -95.859800   50.983900  122.427000
  C    -97.254500   49.547400  121.783000
  H    -97.941600   48.790200  122.077000
  H    -97.892500   50.346600  121.335000
  C    -96.277500   48.891800  120.761000
  H    -95.477500   48.414700  121.281000
  H    -96.747200   48.228000  120.050000
  H    -95.944700   49.764800  120.175000
  S    -100.643000   53.790700  126.088000
  C    -102.370000   53.630400  126.225000
  C    -102.837000   52.471500  125.614000
  C    -101.796000   51.666100  125.053000
  C    -100.534000   52.229700  125.325000
  H    -103.915000   52.338200  125.532000
  C    -102.067000   50.376600  124.348000
  H    -102.575000   49.798100  125.207000
  H    -101.159000   49.793700  124.287000
  C    -102.802000   50.505600  122.947000
  H    -102.089000   50.977500  122.320000
  H    -103.630000   51.219500  122.857000
  C    -103.193000   49.152300  122.221000
  H    -103.991000   48.751900  122.843000
  H    -102.290000   48.503000  122.263000
  H    -103.455000   49.240500  121.144000
  H    -96.018000   49.902700  125.569000
  H    -103.074000   54.221700  126.738000

 Total Charge           Charge          ....    0
 Multiplicity           Mult            ....    1
 Number of Electrons    NEL             ....  134
 Basis Dimension        Dim             ....  322

ORBITAL ENERGIES
----------------

  NO   OCC          E(Eh)            E(eV)
   0   2.0000     -88.966673     -2420.9063
   1   2.0000     -88.966199     -2420.8934
   2   2.0000     -10.333482      -281.1884
   3   2.0000     -10.327009      -281.0122
   4   2.0000     -10.317097      -280.7425
   5   2.0000     -10.313051      -280.6324
   6   2.0000     -10.308244      -280.5016
   7   2.0000     -10.302356      -280.3414
   8   2.0000     -10.301442      -280.3165
   9   2.0000     -10.301157      -280.3087
  10   2.0000     -10.295942      -280.1668
  11   2.0000     -10.293897      -280.1112
  12   2.0000     -10.293444      -280.0989
  13   2.0000     -10.288419      -279.9621
  14   2.0000     -10.287521      -279.9377
  15   2.0000     -10.279478      -279.7188
  16   2.0000      -8.081166      -219.8997
  17   2.0000      -8.080413      -219.8792
  18   2.0000      -6.039620      -164.3464
  19   2.0000      -6.039240      -164.3361
  20   2.0000      -6.035591      -164.2368
  21   2.0000      -6.035007      -164.2209
  22   2.0000      -6.032018      -164.1395
  23   2.0000      -6.030899      -164.1091
  24   2.0000      -1.002796       -27.2875
  25   2.0000      -0.979908       -26.6647
  26   2.0000      -0.912495       -24.8303
  27   2.0000      -0.901369       -24.5275
  28   2.0000      -0.870590       -23.6900
  29   2.0000      -0.849524       -23.1167
  30   2.0000      -0.840456       -22.8700
  31   2.0000      -0.815194       -22.1826
  32   2.0000      -0.778550       -21.1854
  33   2.0000      -0.769337       -20.9347
  34   2.0000      -0.713459       -19.4142
  35   2.0000      -0.704010       -19.1571
  36   2.0000      -0.692587       -18.8463
  37   2.0000      -0.658373       -17.9152
  38   2.0000      -0.636266       -17.3137
  39   2.0000      -0.616964       -16.7884
  40   2.0000      -0.592349       -16.1186
  41   2.0000      -0.578760       -15.7489
  42   2.0000      -0.561575       -15.2812
  43   2.0000      -0.551940       -15.0191
  44   2.0000      -0.529027       -14.3956
  45   2.0000      -0.523775       -14.2526
  46   2.0000      -0.517360       -14.0781
  47   2.0000      -0.508645       -13.8409
  48   2.0000      -0.503437       -13.6992
  49   2.0000      -0.501162       -13.6373
  50   2.0000      -0.494363       -13.4523
  51   2.0000      -0.478635       -13.0243
  52   2.0000      -0.468003       -12.7350
  53   2.0000      -0.463315       -12.6074
  54   2.0000      -0.459163       -12.4945
  55   2.0000      -0.450907       -12.2698
  56   2.0000      -0.442483       -12.0406
  57   2.0000      -0.436442       -11.8762
  58   2.0000      -0.433873       -11.8063
  59   2.0000      -0.429183       -11.6787
  60   2.0000      -0.416819       -11.3422
  61   2.0000      -0.414513       -11.2795
  62   2.0000      -0.412088       -11.2135
  63   2.0000      -0.336565        -9.1584
  64   2.0000      -0.330647        -8.9974
  65   2.0000      -0.326185        -8.8759
  66   2.0000      -0.301925        -8.2158
  67   0.0000       0.034360         0.9350
  68   0.0000       0.061934         1.6853
  69   0.0000       0.115477         3.1423
  70   0.0000       0.116682         3.1751
  71   0.0000       0.124466         3.3869

MULLIKEN ATOMIC CHARGES
-----------------------
   0 S :    0.110262
   1 C :   -0.106708
   2 C :   -0.096808
   3 C :    0.023756
   4 C :   -0.123770
   5 H :    0.032379
   6 C :    0.046352
   7 H :    0.010978
   8 H :    0.041751
   9 C :   -0.117229
  10 H :    0.025348
  11 H :    0.035838
  12 C :   -0.029987
  13 H :    0.033435
  14 H :    0.036115
  15 H :    0.029856
  16 S :    0.119244
  17 C :   -0.063329
  18 C :   -0.063816
  19 C :   -0.012038
  20 C :   -0.202546
  21 H :    0.024920
  22 C :    0.051900
  23 H :    0.044190
  24 H :    0.023356
  25 C :   -0.063842
  26 H :    0.014196
  27 H :    0.032414
  28 C :   -0.069281
  29 H :    0.043111
  30 H :    0.035311
  31 H :    0.050391
  32 H :    0.047871
  33 H :    0.036382
Sum of atomic charges:    0.0000000

LOEWDIN ATOMIC CHARGES
----------------------
   0 S :    0.387199
   1 C :   -0.191865
   2 C :   -0.067876
   3 C :   -0.059774
   4 C :   -0.200830
   5 H :    0.035885
   6 C :   -0.035252
   7 H :    0.029406
   8 H :    0.032293
   9 C :   -0.042133
  10 H :    0.016313
  11 H :    0.024374
  12 C :   -0.059867
  13 H :    0.021688
  14 H :    0.024791
  15 H :    0.029537
  16 S :    0.421537
  17 C :   -0.184674
  18 C :   -0.071374
  19 C :   -0.050917
  20 C :   -0.208210
  21 H :    0.033841
  22 C :   -0.038734
  23 H :    0.044637
  24 H :    0.030262
  25 C :   -0.039417
  26 H :    0.018883
  27 H :    0.024666
  28 C :   -0.068449
  29 H :    0.025672
  30 H :    0.027711
  31 H :    0.032112
  32 H :    0.036715
  33 H :    0.021851

  Mayer bond orders larger than 0.100000
B(  0-S ,  1-C ) :   1.1139 B(  0-S ,  4-C ) :   1.1297 B(  1-C ,  2-C ) :   1.6679
B(  1-C , 32-H ) :   0.9575 B(  2-C ,  3-C ) :   1.1960 B(  2-C ,  6-C ) :   1.0266
B(  3-C ,  4-C ) :   1.5973 B(  3-C ,  5-H ) :   0.9896 B(  4-C , 20-C ) :   1.0131
B(  6-C ,  7-H ) :   0.9412 B(  6-C ,  8-H ) :   0.9431 B(  6-C ,  9-C ) :   1.0470
B(  9-C , 10-H ) :   0.9650 B(  9-C , 11-H ) :   0.9548 B(  9-C , 12-C ) :   1.0727
B( 12-C , 13-H ) :   0.9782 B( 12-C , 14-H ) :   0.9771 B( 12-C , 15-H ) :   0.9762
B( 16-S , 17-C ) :   1.1552 B( 16-S , 20-C ) :   1.1548 B( 17-C , 18-C ) :   1.6232
B( 17-C , 33-H ) :   0.9693 B( 18-C , 19-C ) :   1.2368 B( 18-C , 21-H ) :   0.9863
B( 19-C , 20-C ) :   1.5759 B( 19-C , 22-C ) :   1.0464 B( 22-C , 23-H ) :   0.9371
B( 22-C , 24-H ) :   0.9317 B( 22-C , 25-C ) :   1.0270 B( 25-C , 26-H ) :   0.9522
B( 25-C , 27-H ) :   0.9655 B( 25-C , 28-C ) :   1.0715 B( 28-C , 29-H ) :   0.9808
B( 28-C , 30-H ) :   0.9761 B( 28-C , 31-H ) :   0.9760

Dispersion correction           -0.013853250
FINAL SINGLE POINT ENERGY     -1339.864668398025

DIPOLE MOMENT
-------------
                                X             Y             Z
Electronic contribution:      1.70929      18.90916      26.17682
Nuclear contribution   :     -1.85558     -19.29599     -26.81060
                        -----------------------------------------
Total Dipole Moment    :     -0.14629      -0.38683      -0.63378
                        -----------------------------------------
Magnitude (a.u.)       :      0.75677
Magnitude (Debye)      :      1.92357

Rotational constants in cm-1:     0.016200     0.009135     0.006423
Rotational constants in MHz :   485.657675   273.849415   192.555432

                             ****ORCA TERMINATED NORMALLY****
TOTAL RUN TIME: 0 days 0 hours 0 minutes 33 seconds 493 msec
