                         Program Version 4.2.1 -  RELEASE  -
|  1> ! wB97X-D3 SP def2-SVP
|  2> %pal
|  3> nprocs 16
|  4> end
|  5>
|  6> * xyz 0 1
|  7> S 	 -52.7019 	 39.946 	 110.07
|  8> C 	 -52.2245 	 39.9754 	 108.384
|  9> C 	 -53.0381 	 39.1206 	 107.618
| 10> C 	 -53.9045 	 38.3083 	 108.496
| 11> C 	 -54.0042 	 38.8021 	 109.791
| 12> H 	 -54.5661 	 37.4471 	 108.251
| 13> C 	 -52.768 	 38.8043 	 106.172
| 14> H 	 -52.367 	 39.7222 	 105.663
| 15> H 	 -53.7163 	 38.6927 	 105.574
| 16> C 	 -51.9254 	 37.5973 	 105.998
| 17> H 	 -50.9416 	 37.7145 	 106.419
| 18> H 	 -52.3095 	 36.8498 	 106.713
| 19> C 	 -51.8259 	 36.9298 	 104.639
| 20> H 	 -52.7688 	 36.8173 	 104.137
| 21> H 	 -51.2171 	 37.43 	 103.896
| 22> H 	 -51.3105 	 35.9716 	 104.704
| 23> S 	 -54.076 	 37.7858 	 112.338
| 24> C 	 -55.65 	 37.5459 	 113.103
| 25> C 	 -56.6881 	 37.7456 	 112.248
| 26> C 	 -56.2352 	 38.1246 	 110.924
| 27> C 	 -54.8555 	 38.3352 	 110.891
| 28> H 	 -57.7389 	 37.6429 	 112.61
| 29> C 	 -57.1848 	 38.3453 	 109.767
| 30> H 	 -56.7875 	 38.8878 	 108.953
| 31> H 	 -57.8919 	 39.0774 	 110.112
| 32> C 	 -57.9823 	 37.1561 	 109.163
| 33> H 	 -58.5864 	 36.5827 	 109.897
| 34> H 	 -57.2781 	 36.4314 	 108.742
| 35> C 	 -58.915 	 37.6541 	 108.03
| 36> H 	 -59.5776 	 36.8432 	 107.852
| 37> H 	 -58.4576 	 37.7292 	 107.065
| 38> H 	 -59.4066 	 38.6165 	 108.084
| 39> H 	 -51.3765 	 40.474 	 107.985
| 40> H 	 -55.8342 	 37.152 	 114.103
| 41> *
| 42>
| 43>                          ****END OF INPUT****

CARTESIAN COORDINATES (ANGSTROEM)
---------------------------------
  S    -52.701900   39.946000  110.070000
  C    -52.224500   39.975400  108.384000
  C    -53.038100   39.120600  107.618000
  C    -53.904500   38.308300  108.496000
  C    -54.004200   38.802100  109.791000
  H    -54.566100   37.447100  108.251000
  C    -52.768000   38.804300  106.172000
  H    -52.367000   39.722200  105.663000
  H    -53.716300   38.692700  105.574000
  C    -51.925400   37.597300  105.998000
  H    -50.941600   37.714500  106.419000
  H    -52.309500   36.849800  106.713000
  C    -51.825900   36.929800  104.639000
  H    -52.768800   36.817300  104.137000
  H    -51.217100   37.430000  103.896000
  H    -51.310500   35.971600  104.704000
  S    -54.076000   37.785800  112.338000
  C    -55.650000   37.545900  113.103000
  C    -56.688100   37.745600  112.248000
  C    -56.235200   38.124600  110.924000
  C    -54.855500   38.335200  110.891000
  H    -57.738900   37.642900  112.610000
  C    -57.184800   38.345300  109.767000
  H    -56.787500   38.887800  108.953000
  H    -57.891900   39.077400  110.112000
  C    -57.982300   37.156100  109.163000
  H    -58.586400   36.582700  109.897000
  H    -57.278100   36.431400  108.742000
  C    -58.915000   37.654100  108.030000
  H    -59.577600   36.843200  107.852000
  H    -58.457600   37.729200  107.065000
  H    -59.406600   38.616500  108.084000
  H    -51.376500   40.474000  107.985000
  H    -55.834200   37.152000  114.103000

 Total Charge           Charge          ....    0
 Multiplicity           Mult            ....    1
 Number of Electrons    NEL             ....  134
 Basis Dimension        Dim             ....  322

ORBITAL ENERGIES
----------------

  NO   OCC          E(Eh)            E(eV)
   0   2.0000     -88.966582     -2420.9038
   1   2.0000     -88.964691     -2420.8523
   2   2.0000     -10.330682      -281.1121
   3   2.0000     -10.327306      -281.0203
   4   2.0000     -10.317205      -280.7454
   5   2.0000     -10.316672      -280.7309
   6   2.0000     -10.309501      -280.5358
   7   2.0000     -10.308021      -280.4955
   8   2.0000     -10.302514      -280.3457
   9   2.0000     -10.298250      -280.2296
  10   2.0000     -10.295944      -280.1669
  11   2.0000     -10.294882      -280.1380
  12   2.0000     -10.285079      -279.8712
  13   2.0000     -10.282077      -279.7895
  14   2.0000     -10.275127      -279.6004
  15   2.0000     -10.273673      -279.5609
  16   2.0000      -8.081379      -219.9055
  17   2.0000      -8.079266      -219.8480
  18   2.0000      -6.039920      -164.3546
  19   2.0000      -6.037828      -164.2976
  20   2.0000      -6.036007      -164.2481
  21   2.0000      -6.033758      -164.1869
  22   2.0000      -6.031963      -164.1381
  23   2.0000      -6.029998      -164.0846
  24   2.0000      -1.004736       -27.3402
  25   2.0000      -0.980900       -26.6916
  26   2.0000      -0.916630       -24.9428
  27   2.0000      -0.906125       -24.6569
  28   2.0000      -0.869932       -23.6721
  29   2.0000      -0.851451       -23.1692
  30   2.0000      -0.842805       -22.9339
  31   2.0000      -0.817675       -22.2501
  32   2.0000      -0.784255       -21.3407
  33   2.0000      -0.773193       -21.0397
  34   2.0000      -0.709682       -19.3114
  35   2.0000      -0.703778       -19.1508
  36   2.0000      -0.695871       -18.9356
  37   2.0000      -0.657650       -17.8956
  38   2.0000      -0.643777       -17.5181
  39   2.0000      -0.614677       -16.7262
  40   2.0000      -0.598883       -16.2964
  41   2.0000      -0.571254       -15.5446
  42   2.0000      -0.558572       -15.1995
  43   2.0000      -0.550906       -14.9909
  44   2.0000      -0.530768       -14.4429
  45   2.0000      -0.527726       -14.3602
  46   2.0000      -0.515819       -14.0362
  47   2.0000      -0.512792       -13.9538
  48   2.0000      -0.507091       -13.7986
  49   2.0000      -0.499508       -13.5923
  50   2.0000      -0.493478       -13.4282
  51   2.0000      -0.480860       -13.0849
  52   2.0000      -0.467813       -12.7298
  53   2.0000      -0.458502       -12.4765
  54   2.0000      -0.455981       -12.4079
  55   2.0000      -0.451945       -12.2980
  56   2.0000      -0.447556       -12.1786
  57   2.0000      -0.444537       -12.0965
  58   2.0000      -0.442842       -12.0503
  59   2.0000      -0.427619       -11.6361
  60   2.0000      -0.420182       -11.4337
  61   2.0000      -0.413047       -11.2396
  62   2.0000      -0.402237       -10.9454
  63   2.0000      -0.347798        -9.4641
  64   2.0000      -0.328900        -8.9498
  65   2.0000      -0.325651        -8.8614
  66   2.0000      -0.294683        -8.0187
  67   0.0000       0.030105         0.8192
  68   0.0000       0.072106         1.9621
  69   0.0000       0.111162         3.0249
  70   0.0000       0.121025         3.2932
  71   0.0000       0.123900         3.3715

MULLIKEN ATOMIC CHARGES
-----------------------
   0 S :    0.106247
   1 C :   -0.094767
   2 C :   -0.102423
   3 C :    0.021003
   4 C :   -0.166959
   5 H :    0.034329
   6 C :    0.047753
   7 H :    0.025522
   8 H :    0.025273
   9 C :   -0.056073
  10 H :    0.013659
  11 H :    0.021756
  12 C :   -0.019640
  13 H :    0.022250
  14 H :    0.019536
  15 H :    0.031954
  16 S :    0.112201
  17 C :   -0.093343
  18 C :   -0.040492
  19 C :   -0.015444
  20 C :   -0.151174
  21 H :    0.038112
  22 C :    0.065943
  23 H :    0.008833
  24 H :    0.016953
  25 C :   -0.074139
  26 H :    0.034584
  27 H :    0.029489
  28 C :   -0.036419
  29 H :    0.022530
  30 H :    0.016825
  31 H :    0.033983
  32 H :    0.044091
  33 H :    0.058044
Sum of atomic charges:   -0.0000000

LOEWDIN ATOMIC CHARGES
----------------------
   0 S :    0.400182
   1 C :   -0.189320
   2 C :   -0.058475
   3 C :   -0.065792
   4 C :   -0.195334
   5 H :    0.037842
   6 C :   -0.044387
   7 H :    0.032506
   8 H :    0.033892
   9 C :   -0.049613
  10 H :    0.024473
  11 H :    0.030552
  12 C :   -0.066077
  13 H :    0.021440
  14 H :    0.022359
  15 H :    0.031558
  16 S :    0.403404
  17 C :   -0.181772
  18 C :   -0.072293
  19 C :   -0.049459
  20 C :   -0.207112
  21 H :    0.042300
  22 C :   -0.038624
  23 H :    0.025528
  24 H :    0.031492
  25 C :   -0.032118
  26 H :    0.024029
  27 H :    0.024776
  28 C :   -0.069618
  29 H :    0.025827
  30 H :    0.023912
  31 H :    0.026531
  32 H :    0.024509
  33 H :    0.032885

  Mayer bond orders larger than 0.100000
B(  0-S ,  1-C ) :   1.1412 B(  0-S ,  4-C ) :   1.1419 B(  1-C ,  2-C ) :   1.6038
B(  1-C , 32-H ) :   0.9731 B(  2-C ,  3-C ) :   1.2087 B(  2-C ,  6-C ) :   1.0521
B(  3-C ,  4-C ) :   1.5966 B(  3-C ,  5-H ) :   0.9807 B(  4-C , 20-C ) :   1.0343
B(  6-C ,  7-H ) :   0.9359 B(  6-C ,  8-H ) :   0.9335 B(  6-C ,  9-C ) :   1.0617
B(  9-C , 10-H ) :   0.9453 B(  9-C , 11-H ) :   0.9516 B(  9-C , 12-C ) :   1.0846
B( 12-C , 13-H ) :   0.9729 B( 12-C , 14-H ) :   0.9724 B( 12-C , 15-H ) :   0.9704
B( 16-S , 17-C ) :   1.1353 B( 16-S , 20-C ) :   1.1409 B( 17-C , 18-C ) :   1.6485
B( 17-C , 33-H ) :   0.9634 B( 18-C , 19-C ) :   1.2133 B( 18-C , 21-H ) :   0.9837
B( 19-C , 20-C ) :   1.6080 B( 19-C , 22-C ) :   1.0492 B( 22-C , 23-H ) :   0.9340
B( 22-C , 24-H ) :   0.9288 B( 22-C , 25-C ) :   1.0580 B( 25-C , 26-H ) :   0.9625
B( 25-C , 27-H ) :   0.9527 B( 25-C , 28-C ) :   1.0715 B( 28-C , 29-H ) :   0.9729
B( 28-C , 30-H ) :   0.9718 B( 28-C , 31-H ) :   0.9779

Dispersion correction           -0.013719765
FINAL SINGLE POINT ENERGY     -1339.874842626233

DIPOLE MOMENT
-------------
                                X             Y             Z
Electronic contribution:     10.77427       8.83004      26.98837
Nuclear contribution   :    -11.15044      -9.16481     -27.48665
                        -----------------------------------------
Total Dipole Moment    :     -0.37617      -0.33477      -0.49828
                        -----------------------------------------
Magnitude (a.u.)       :      0.70842
Magnitude (Debye)      :      1.80066

Rotational constants in cm-1:     0.016573     0.008636     0.006422
Rotational constants in MHz :   496.855206   258.903915   192.526243

                             ****ORCA TERMINATED NORMALLY****
TOTAL RUN TIME: 0 days 0 hours 0 minutes 29 seconds 506 msec
