                         Program Version 4.2.1 -  RELEASE  -
|  1> ! wB97X-D3 SP def2-SVP
|  2> %pal
|  3> nprocs 16
|  4> end
|  5>
|  6> * xyz 0 1
|  7> S 	 -4.51294 	 -5.51886 	 79.0298
|  8> C 	 -4.75556 	 -6.41313 	 80.6087
|  9> C 	 -5.97408 	 -6.06612 	 81.1463
| 10> C 	 -6.63998 	 -5.16915 	 80.2916
| 11> C 	 -6.06696 	 -4.81917 	 79.1198
| 12> H 	 -7.59084 	 -4.59679 	 80.5937
| 13> C 	 -6.46191 	 -6.52404 	 82.4851
| 14> H 	 -6.15803 	 -7.5009 	 82.7174
| 15> H 	 -7.51049 	 -6.74872 	 82.3803
| 16> C 	 -6.12217 	 -5.59658 	 83.6167
| 17> H 	 -5.06348 	 -5.67083 	 83.9103
| 18> H 	 -6.43377 	 -4.53605 	 83.4541
| 19> C 	 -6.82922 	 -6.1047 	 84.8795
| 20> H 	 -7.86139 	 -5.71888 	 84.8932
| 21> H 	 -6.91999 	 -7.22709 	 84.932
| 22> H 	 -6.36279 	 -5.78935 	 85.8557
| 23> S 	 -5.45111 	 -2.82651 	 77.3291
| 24> C 	 -6.72296 	 -2.28887 	 76.2151
| 25> C 	 -7.87026 	 -2.93286 	 76.4406
| 26> C 	 -7.84298 	 -3.89129 	 77.4658
| 27> C 	 -6.60406 	 -3.9029 	 78.1025
| 28> H 	 -8.68369 	 -2.6995 	 75.8417
| 29> C 	 -9.06465 	 -4.6423 	 77.8634
| 30> H 	 -8.79223 	 -5.66885 	 78.2423
| 31> H 	 -9.54642 	 -4.83417 	 76.909
| 32> C 	 -10.0533 	 -3.94623 	 78.8081
| 33> H 	 -10.5484 	 -3.20177 	 78.1753
| 34> H 	 -9.59824 	 -3.55563 	 79.6728
| 35> C 	 -11.2012 	 -4.85894 	 79.3212
| 36> H 	 -11.7982 	 -5.16146 	 78.4955
| 37> H 	 -11.7818 	 -4.40278 	 80.0935
| 38> H 	 -10.7419 	 -5.69629 	 79.7969
| 39> H 	 -4.16725 	 -7.19344 	 81.019
| 40> H 	 -6.63874 	 -1.44351 	 75.4606
| 41> *
| 42>
| 43>                          ****END OF INPUT****

CARTESIAN COORDINATES (ANGSTROEM)
---------------------------------
  S     -4.512940   -5.518860   79.029800
  C     -4.755560   -6.413130   80.608700
  C     -5.974080   -6.066120   81.146300
  C     -6.639980   -5.169150   80.291600
  C     -6.066960   -4.819170   79.119800
  H     -7.590840   -4.596790   80.593700
  C     -6.461910   -6.524040   82.485100
  H     -6.158030   -7.500900   82.717400
  H     -7.510490   -6.748720   82.380300
  C     -6.122170   -5.596580   83.616700
  H     -5.063480   -5.670830   83.910300
  H     -6.433770   -4.536050   83.454100
  C     -6.829220   -6.104700   84.879500
  H     -7.861390   -5.718880   84.893200
  H     -6.919990   -7.227090   84.932000
  H     -6.362790   -5.789350   85.855700
  S     -5.451110   -2.826510   77.329100
  C     -6.722960   -2.288870   76.215100
  C     -7.870260   -2.932860   76.440600
  C     -7.842980   -3.891290   77.465800
  C     -6.604060   -3.902900   78.102500
  H     -8.683690   -2.699500   75.841700
  C     -9.064650   -4.642300   77.863400
  H     -8.792230   -5.668850   78.242300
  H     -9.546420   -4.834170   76.909000
  C    -10.053300   -3.946230   78.808100
  H    -10.548400   -3.201770   78.175300
  H     -9.598240   -3.555630   79.672800
  C    -11.201200   -4.858940   79.321200
  H    -11.798200   -5.161460   78.495500
  H    -11.781800   -4.402780   80.093500
  H    -10.741900   -5.696290   79.796900
  H     -4.167250   -7.193440   81.019000
  H     -6.638740   -1.443510   75.460600

 Total Charge           Charge          ....    0
 Multiplicity           Mult            ....    1
 Number of Electrons    NEL             ....  134
 Basis Dimension        Dim             ....  322

ORBITAL ENERGIES
----------------

  NO   OCC          E(Eh)            E(eV)
   0   2.0000     -88.965930     -2420.8860
   1   2.0000     -88.964223     -2420.8396
   2   2.0000     -10.329131      -281.0699
   3   2.0000     -10.324730      -280.9502
   4   2.0000     -10.318900      -280.7915
   5   2.0000     -10.314510      -280.6721
   6   2.0000     -10.300495      -280.2907
   7   2.0000     -10.297742      -280.2158
   8   2.0000     -10.292153      -280.0637
   9   2.0000     -10.291280      -280.0400
  10   2.0000     -10.290493      -280.0185
  11   2.0000     -10.287250      -279.9303
  12   2.0000     -10.285490      -279.8824
  13   2.0000     -10.285278      -279.8766
  14   2.0000     -10.283087      -279.8170
  15   2.0000     -10.272228      -279.5215
  16   2.0000      -8.080363      -219.8779
  17   2.0000      -8.078617      -219.8303
  18   2.0000      -6.038880      -164.3263
  19   2.0000      -6.037193      -164.2804
  20   2.0000      -6.035000      -164.2207
  21   2.0000      -6.033269      -164.1736
  22   2.0000      -6.031047      -164.1131
  23   2.0000      -6.029191      -164.0626
  24   2.0000      -1.010554       -27.4986
  25   2.0000      -0.988002       -26.8849
  26   2.0000      -0.922230       -25.0952
  27   2.0000      -0.911242       -24.7961
  28   2.0000      -0.873625       -23.7726
  29   2.0000      -0.855102       -23.2685
  30   2.0000      -0.843023       -22.9398
  31   2.0000      -0.817460       -22.2442
  32   2.0000      -0.784259       -21.3408
  33   2.0000      -0.773830       -21.0570
  34   2.0000      -0.709213       -19.2987
  35   2.0000      -0.701089       -19.0776
  36   2.0000      -0.695376       -18.9221
  37   2.0000      -0.664275       -18.0758
  38   2.0000      -0.645254       -17.5582
  39   2.0000      -0.615713       -16.7544
  40   2.0000      -0.595682       -16.2093
  41   2.0000      -0.577479       -15.7140
  42   2.0000      -0.570835       -15.5332
  43   2.0000      -0.563983       -15.3468
  44   2.0000      -0.531591       -14.4653
  45   2.0000      -0.530147       -14.4260
  46   2.0000      -0.518413       -14.1067
  47   2.0000      -0.516388       -14.0516
  48   2.0000      -0.504217       -13.7204
  49   2.0000      -0.501053       -13.6344
  50   2.0000      -0.492116       -13.3912
  51   2.0000      -0.479135       -13.0379
  52   2.0000      -0.469865       -12.7857
  53   2.0000      -0.459061       -12.4917
  54   2.0000      -0.454790       -12.3755
  55   2.0000      -0.451663       -12.2904
  56   2.0000      -0.443199       -12.0601
  57   2.0000      -0.442456       -12.0398
  58   2.0000      -0.439078       -11.9479
  59   2.0000      -0.425122       -11.5682
  60   2.0000      -0.421192       -11.4612
  61   2.0000      -0.417363       -11.3570
  62   2.0000      -0.408940       -11.1278
  63   2.0000      -0.353745        -9.6259
  64   2.0000      -0.334473        -9.1015
  65   2.0000      -0.330813        -9.0019
  66   2.0000      -0.291137        -7.9222
  67   0.0000       0.029480         0.8022
  68   0.0000       0.074668         2.0318
  69   0.0000       0.100762         2.7419
  70   0.0000       0.125262         3.4086
  71   0.0000       0.132390         3.6025

MULLIKEN ATOMIC CHARGES
-----------------------
   0 S :    0.094146
   1 C :   -0.113831
   2 C :   -0.073626
   3 C :   -0.033539
   4 C :   -0.105764
   5 H :    0.024475
   6 C :    0.097839
   7 H :   -0.004960
   8 H :    0.013686
   9 C :   -0.050025
  10 H :    0.038748
  11 H :    0.047755
  12 C :   -0.093686
  13 H :    0.032498
  14 H :    0.032642
  15 H :    0.040972
  16 S :    0.093699
  17 C :   -0.103268
  18 C :   -0.006407
  19 C :   -0.014761
  20 C :   -0.156335
  21 H :   -0.012084
  22 C :    0.038946
  23 H :    0.032739
  24 H :    0.015874
  25 C :   -0.049247
  26 H :    0.025742
  27 H :    0.025156
  28 C :   -0.021416
  29 H :    0.027785
  30 H :    0.031030
  31 H :    0.017263
  32 H :    0.032685
  33 H :    0.075267
Sum of atomic charges:   -0.0000000

LOEWDIN ATOMIC CHARGES
----------------------
   0 S :    0.388628
   1 C :   -0.167812
   2 C :   -0.060818
   3 C :   -0.085337
   4 C :   -0.204048
   5 H :    0.038272
   6 C :   -0.032312
   7 H :    0.025370
   8 H :    0.031251
   9 C :   -0.038510
  10 H :    0.030668
  11 H :    0.032988
  12 C :   -0.075787
  13 H :    0.023680
  14 H :    0.026117
  15 H :    0.028334
  16 S :    0.387564
  17 C :   -0.180233
  18 C :   -0.067935
  19 C :   -0.054832
  20 C :   -0.184660
  21 H :    0.022767
  22 C :   -0.037941
  23 H :    0.034098
  24 H :    0.030528
  25 C :   -0.029446
  26 H :    0.025715
  27 H :    0.014537
  28 C :   -0.054419
  29 H :    0.020883
  30 H :    0.024583
  31 H :    0.019840
  32 H :    0.022572
  33 H :    0.045695

  Mayer bond orders larger than 0.100000
B(  0-S ,  1-C ) :   1.1162 B(  0-S ,  4-C ) :   1.1442 B(  1-C ,  2-C ) :   1.6174
B(  1-C , 32-H ) :   0.9721 B(  2-C ,  3-C ) :   1.2477 B(  2-C ,  6-C ) :   1.0236
B(  3-C ,  4-C ) :   1.5925 B(  3-C ,  5-H ) :   0.9796 B(  4-C , 20-C ) :   1.0294
B(  6-C ,  7-H ) :   0.9225 B(  6-C ,  8-H ) :   0.9375 B(  6-C ,  9-C ) :   1.0682
B(  9-C , 10-H ) :   0.9553 B(  9-C , 11-H ) :   0.9595 B(  9-C , 12-C ) :   1.0648
B( 12-C , 13-H ) :   0.9775 B( 12-C , 14-H ) :   0.9721 B( 12-C , 15-H ) :   0.9766
B( 16-S , 17-C ) :   1.1307 B( 16-S , 20-C ) :   1.1373 B( 17-C , 18-C ) :   1.6425
B( 17-C , 33-H ) :   0.9552 B( 18-C , 19-C ) :   1.2293 B( 18-C , 21-H ) :   1.0001
B( 19-C , 20-C ) :   1.5890 B( 19-C , 22-C ) :   1.0599 B( 22-C , 23-H ) :   0.9269
B( 22-C , 24-H ) :   0.9254 B( 22-C , 25-C ) :   1.0623 B( 25-C , 26-H ) :   0.9534
B( 25-C , 27-H ) :   0.9582 B( 25-C , 28-C ) :   1.0864 B( 28-C , 29-H ) :   0.9772
B( 28-C , 30-H ) :   0.9751 B( 28-C , 31-H ) :   0.9742

Dispersion correction           -0.013873192
FINAL SINGLE POINT ENERGY     -1339.872518056982

DIPOLE MOMENT
-------------
                                X             Y             Z
Electronic contribution:     22.30247       7.23602     -21.39364
Nuclear contribution   :    -22.99563      -7.34112      21.71618
                        -----------------------------------------
Total Dipole Moment    :     -0.69316      -0.10510       0.32254
                        -----------------------------------------
Magnitude (a.u.)       :      0.77172
Magnitude (Debye)      :      1.96155

Rotational constants in cm-1:     0.017536     0.008888     0.006468
Rotational constants in MHz :   525.711192   266.469471   193.897779

                             ****ORCA TERMINATED NORMALLY****
TOTAL RUN TIME: 0 days 0 hours 0 minutes 33 seconds 427 msec
