                         Program Version 4.2.1 -  RELEASE  -
|  1> ! wB97X-D3 SP def2-SVP
|  2> %pal
|  3> nprocs 16
|  4> end
|  5>
|  6> * xyz 0 1
|  7> S 	 10.4203 	 -7.24727 	 73.4211
|  8> C 	 9.91514 	 -6.13797 	 74.6967
|  9> C 	 9.77145 	 -4.86532 	 74.2042
| 10> C 	 9.77711 	 -4.83862 	 72.7716
| 11> C 	 9.94819 	 -6.11216 	 72.2514
| 12> H 	 9.51088 	 -3.98311 	 72.1512
| 13> C 	 9.38586 	 -3.66322 	 75.0175
| 14> H 	 8.36066 	 -3.79753 	 75.2475
| 15> H 	 9.48635 	 -2.72807 	 74.5057
| 16> C 	 10.1907 	 -3.50718 	 76.327
| 17> H 	 9.94687 	 -4.34776 	 77.0495
| 18> H 	 11.2274 	 -3.67504 	 76.0884
| 19> C 	 10.0165 	 -2.17608 	 77.0701
| 20> H 	 10.766 	 -1.43211 	 76.7014
| 21> H 	 8.96638 	 -1.92321 	 77.0728
| 22> H 	 10.154 	 -2.36301 	 78.1313
| 23> S 	 11.5515 	 -7.17863 	 70.2858
| 24> C 	 11.0657 	 -7.07109 	 68.6326
| 25> C 	 9.84077 	 -6.37499 	 68.5064
| 26> C 	 9.26743 	 -6.03083 	 69.7885
| 27> C 	 10.0917 	 -6.3422 	 70.8297
| 28> H 	 9.40303 	 -6.16406 	 67.5002
| 29> C 	 7.8867 	 -5.47414 	 70.0002
| 30> H 	 7.51595 	 -5.13476 	 69.015
| 31> H 	 7.91123 	 -4.51141 	 70.511
| 32> C 	 6.8722 	 -6.46187 	 70.6191
| 33> H 	 7.09199 	 -6.68642 	 71.6911
| 34> H 	 6.884 	 -7.41581 	 70.1095
| 35> C 	 5.44012 	 -5.93168 	 70.5862
| 36> H 	 5.10203 	 -5.7876 	 69.5727
| 37> H 	 5.24409 	 -4.93311 	 71.0717
| 38> H 	 4.71143 	 -6.67709 	 70.9001
| 39> H 	 9.94941 	 -6.32122 	 75.7645
| 40> H 	 11.4959 	 -7.4953 	 67.7432
| 41> *
| 42>
| 43>                          ****END OF INPUT****

CARTESIAN COORDINATES (ANGSTROEM)
---------------------------------
  S     10.420300   -7.247270   73.421100
  C      9.915140   -6.137970   74.696700
  C      9.771450   -4.865320   74.204200
  C      9.777110   -4.838620   72.771600
  C      9.948190   -6.112160   72.251400
  H      9.510880   -3.983110   72.151200
  C      9.385860   -3.663220   75.017500
  H      8.360660   -3.797530   75.247500
  H      9.486350   -2.728070   74.505700
  C     10.190700   -3.507180   76.327000
  H      9.946870   -4.347760   77.049500
  H     11.227400   -3.675040   76.088400
  C     10.016500   -2.176080   77.070100
  H     10.766000   -1.432110   76.701400
  H      8.966380   -1.923210   77.072800
  H     10.154000   -2.363010   78.131300
  S     11.551500   -7.178630   70.285800
  C     11.065700   -7.071090   68.632600
  C      9.840770   -6.374990   68.506400
  C      9.267430   -6.030830   69.788500
  C     10.091700   -6.342200   70.829700
  H      9.403030   -6.164060   67.500200
  C      7.886700   -5.474140   70.000200
  H      7.515950   -5.134760   69.015000
  H      7.911230   -4.511410   70.511000
  C      6.872200   -6.461870   70.619100
  H      7.091990   -6.686420   71.691100
  H      6.884000   -7.415810   70.109500
  C      5.440120   -5.931680   70.586200
  H      5.102030   -5.787600   69.572700
  H      5.244090   -4.933110   71.071700
  H      4.711430   -6.677090   70.900100
  H      9.949410   -6.321220   75.764500
  H     11.495900   -7.495300   67.743200

 Total Charge           Charge          ....    0
 Multiplicity           Mult            ....    1
 Number of Electrons    NEL             ....  134
 Basis Dimension        Dim             ....  322

ORBITAL ENERGIES
----------------

  NO   OCC          E(Eh)            E(eV)
   0   2.0000     -88.968413     -2420.9536
   1   2.0000     -88.965573     -2420.8763
   2   2.0000     -10.323740      -280.9232
   3   2.0000     -10.320300      -280.8296
   4   2.0000     -10.315899      -280.7099
   5   2.0000     -10.311013      -280.5769
   6   2.0000     -10.299458      -280.2625
   7   2.0000     -10.299242      -280.2566
   8   2.0000     -10.298664      -280.2409
   9   2.0000     -10.292727      -280.0793
  10   2.0000     -10.291614      -280.0491
  11   2.0000     -10.287889      -279.9477
  12   2.0000     -10.286541      -279.9110
  13   2.0000     -10.285996      -279.8962
  14   2.0000     -10.281794      -279.7818
  15   2.0000     -10.275956      -279.6230
  16   2.0000      -8.083833      -219.9723
  17   2.0000      -8.080248      -219.8747
  18   2.0000      -6.042333      -164.4202
  19   2.0000      -6.038794      -164.3239
  20   2.0000      -6.038410      -164.3135
  21   2.0000      -6.034732      -164.2134
  22   2.0000      -6.034384      -164.2039
  23   2.0000      -6.031017      -164.1123
  24   2.0000      -1.012027       -27.5387
  25   2.0000      -0.984264       -26.7832
  26   2.0000      -0.914696       -24.8901
  27   2.0000      -0.905787       -24.6477
  28   2.0000      -0.867617       -23.6091
  29   2.0000      -0.854698       -23.2575
  30   2.0000      -0.845240       -23.0001
  31   2.0000      -0.810695       -22.0601
  32   2.0000      -0.783510       -21.3204
  33   2.0000      -0.771707       -20.9992
  34   2.0000      -0.708879       -19.2896
  35   2.0000      -0.700326       -19.0569
  36   2.0000      -0.688777       -18.7426
  37   2.0000      -0.662104       -18.0168
  38   2.0000      -0.637376       -17.3439
  39   2.0000      -0.615740       -16.7551
  40   2.0000      -0.592420       -16.1206
  41   2.0000      -0.575038       -15.6476
  42   2.0000      -0.562835       -15.3155
  43   2.0000      -0.554807       -15.0971
  44   2.0000      -0.525113       -14.2891
  45   2.0000      -0.523235       -14.2379
  46   2.0000      -0.515996       -14.0410
  47   2.0000      -0.512335       -13.9413
  48   2.0000      -0.508726       -13.8431
  49   2.0000      -0.499602       -13.5949
  50   2.0000      -0.494662       -13.4604
  51   2.0000      -0.478157       -13.0113
  52   2.0000      -0.477056       -12.9813
  53   2.0000      -0.461226       -12.5506
  54   2.0000      -0.452980       -12.3262
  55   2.0000      -0.450108       -12.2481
  56   2.0000      -0.443533       -12.0692
  57   2.0000      -0.438440       -11.9306
  58   2.0000      -0.431281       -11.7358
  59   2.0000      -0.429553       -11.6887
  60   2.0000      -0.421892       -11.4803
  61   2.0000      -0.413177       -11.2431
  62   2.0000      -0.409358       -11.1392
  63   2.0000      -0.344717        -9.3802
  64   2.0000      -0.331061        -9.0086
  65   2.0000      -0.329910        -8.9773
  66   2.0000      -0.289232        -7.8704
  67   0.0000       0.028866         0.7855
  68   0.0000       0.070080         1.9070
  69   0.0000       0.104588         2.8460
  70   0.0000       0.124068         3.3761
  71   0.0000       0.137098         3.7306

MULLIKEN ATOMIC CHARGES
-----------------------
   0 S :    0.117990
   1 C :   -0.119779
   2 C :   -0.080070
   3 C :    0.018699
   4 C :   -0.141133
   5 H :    0.020185
   6 C :    0.104474
   7 H :    0.035340
   8 H :    0.016166
   9 C :   -0.151709
  10 H :    0.029353
  11 H :    0.029500
  12 C :   -0.022648
  13 H :    0.057284
  14 H :    0.024247
  15 H :    0.024980
  16 S :    0.111788
  17 C :   -0.086045
  18 C :   -0.064679
  19 C :   -0.049524
  20 C :   -0.149923
  21 H :    0.033798
  22 C :    0.079285
  23 H :    0.002278
  24 H :    0.018848
  25 C :   -0.054402
  26 H :    0.049560
  27 H :    0.030542
  28 C :   -0.061961
  29 H :    0.010436
  30 H :    0.038263
  31 H :    0.032299
  32 H :    0.044199
  33 H :    0.052360
Sum of atomic charges:    0.0000000

LOEWDIN ATOMIC CHARGES
----------------------
   0 S :    0.423718
   1 C :   -0.197778
   2 C :   -0.056184
   3 C :   -0.057647
   4 C :   -0.208576
   5 H :    0.032860
   6 C :   -0.029481
   7 H :    0.032268
   8 H :    0.026933
   9 C :   -0.047578
  10 H :    0.023263
  11 H :    0.020566
  12 C :   -0.070477
  13 H :    0.035902
  14 H :    0.025304
  15 H :    0.029095
  16 S :    0.405110
  17 C :   -0.200102
  18 C :   -0.074314
  19 C :   -0.065614
  20 C :   -0.187494
  21 H :    0.037042
  22 C :   -0.034420
  23 H :    0.028980
  24 H :    0.028552
  25 C :   -0.036798
  26 H :    0.031898
  27 H :    0.027328
  28 C :   -0.075256
  29 H :    0.018234
  30 H :    0.029779
  31 H :    0.027875
  32 H :    0.026461
  33 H :    0.030552

  Mayer bond orders larger than 0.100000
B(  0-S ,  1-C ) :   1.1221 B(  0-S ,  4-C ) :   1.1625 B(  1-C ,  2-C ) :   1.6097
B(  1-C , 32-H ) :   0.9713 B(  2-C ,  3-C ) :   1.2447 B(  2-C ,  6-C ) :   1.0263
B(  3-C ,  4-C ) :   1.5391 B(  3-C ,  5-H ) :   0.9957 B(  4-C , 20-C ) :   1.0538
B(  6-C ,  7-H ) :   0.9295 B(  6-C ,  8-H ) :   0.9454 B(  6-C ,  9-C ) :   1.0549
B(  9-C , 10-H ) :   0.9531 B(  9-C , 11-H ) :   0.9667 B(  9-C , 12-C ) :   1.0868
B( 12-C , 13-H ) :   0.9746 B( 12-C , 14-H ) :   0.9700 B( 12-C , 15-H ) :   0.9723
B( 16-S , 17-C ) :   1.1568 B( 16-S , 20-C ) :   1.1270 B( 17-C , 18-C ) :   1.6112
B( 17-C , 33-H ) :   0.9669 B( 18-C , 19-C ) :   1.2427 B( 18-C , 21-H ) :   0.9807
B( 19-C , 20-C ) :   1.6167 B( 19-C , 22-C ) :   1.0558 B( 22-C , 23-H ) :   0.9276
B( 22-C , 24-H ) :   0.9250 B( 22-C , 25-C ) :   1.0579 B( 25-C , 26-H ) :   0.9529
B( 25-C , 27-H ) :   0.9525 B( 25-C , 28-C ) :   1.0906 B( 28-C , 29-H ) :   0.9710
B( 28-C , 30-H ) :   0.9739 B( 28-C , 31-H ) :   0.9724

Dispersion correction           -0.014107066
FINAL SINGLE POINT ENERGY     -1339.880855335766

DIPOLE MOMENT
-------------
                                X             Y             Z
Electronic contribution:     18.24394     -17.24753     -10.77967
Nuclear contribution   :    -18.67376      17.71422      10.88103
                        -----------------------------------------
Total Dipole Moment    :     -0.42982       0.46669       0.10136
                        -----------------------------------------
Magnitude (a.u.)       :      0.64251
Magnitude (Debye)      :      1.63313

Rotational constants in cm-1:     0.019810     0.007940     0.006540
Rotational constants in MHz :   593.883206   238.047992   196.061342

                             ****ORCA TERMINATED NORMALLY****
TOTAL RUN TIME: 0 days 0 hours 0 minutes 34 seconds 586 msec
