                         Program Version 4.2.1 -  RELEASE  -
|  1> ! wB97X-D3 SP def2-SVP
|  2> %pal
|  3> nprocs 16
|  4> end
|  5>
|  6> * xyz 0 1
|  7> S 	 68.7825 	 14.3803 	 77.9697
|  8> C 	 67.2871 	 13.7011 	 77.3249
|  9> C 	 66.7591 	 14.4829 	 76.3399
| 10> C 	 67.5386 	 15.6725 	 76.1348
| 11> C 	 68.6997 	 15.7575 	 76.9092
| 12> H 	 67.2024 	 16.5299 	 75.5173
| 13> C 	 65.4014 	 14.2773 	 75.678
| 14> H 	 65.0707 	 13.2476 	 75.955
| 15> H 	 65.5382 	 14.2369 	 74.5204
| 16> C 	 64.2425 	 15.2203 	 76.0955
| 17> H 	 64.4325 	 16.2636 	 76.0026
| 18> H 	 63.4277 	 15.0505 	 75.4482
| 19> C 	 63.8809 	 15.1512 	 77.6236
| 20> H 	 63.235 	 14.2649 	 77.9005
| 21> H 	 64.838 	 15.2171 	 78.1642
| 22> H 	 63.2471 	 16.0511 	 77.8316
| 23> S 	 71.3894 	 16.6594 	 76.6973
| 24> C 	 71.7318 	 18.2108 	 77.2922
| 25> C 	 70.6269 	 19.032 	 77.4014
| 26> C 	 69.424 	 18.252 	 77.2738
| 27> C 	 69.6505 	 16.8883 	 77.0702
| 28> H 	 70.6564 	 20.0591 	 77.7116
| 29> C 	 68.0221 	 18.8089 	 77.4151
| 30> H 	 67.3332 	 17.9879 	 77.621
| 31> H 	 67.7644 	 19.169 	 76.4319
| 32> C 	 67.7636 	 19.8624 	 78.5581
| 33> H 	 66.7796 	 20.2908 	 78.5773
| 34> H 	 68.2727 	 20.8338 	 78.3986
| 35> C 	 68.0542 	 19.3044 	 79.8965
| 36> H 	 69.1021 	 19.0442 	 80.1341
| 37> H 	 67.6024 	 18.4141 	 79.9317
| 38> H 	 67.7478 	 19.9522 	 80.697
| 39> H 	 66.9513 	 12.7224 	 77.6445
| 40> H 	 72.7349 	 18.5918 	 77.28
| 41> *
| 42>
| 43>                          ****END OF INPUT****

CARTESIAN COORDINATES (ANGSTROEM)
---------------------------------
  S     68.782500   14.380300   77.969700
  C     67.287100   13.701100   77.324900
  C     66.759100   14.482900   76.339900
  C     67.538600   15.672500   76.134800
  C     68.699700   15.757500   76.909200
  H     67.202400   16.529900   75.517300
  C     65.401400   14.277300   75.678000
  H     65.070700   13.247600   75.955000
  H     65.538200   14.236900   74.520400
  C     64.242500   15.220300   76.095500
  H     64.432500   16.263600   76.002600
  H     63.427700   15.050500   75.448200
  C     63.880900   15.151200   77.623600
  H     63.235000   14.264900   77.900500
  H     64.838000   15.217100   78.164200
  H     63.247100   16.051100   77.831600
  S     71.389400   16.659400   76.697300
  C     71.731800   18.210800   77.292200
  C     70.626900   19.032000   77.401400
  C     69.424000   18.252000   77.273800
  C     69.650500   16.888300   77.070200
  H     70.656400   20.059100   77.711600
  C     68.022100   18.808900   77.415100
  H     67.333200   17.987900   77.621000
  H     67.764400   19.169000   76.431900
  C     67.763600   19.862400   78.558100
  H     66.779600   20.290800   78.577300
  H     68.272700   20.833800   78.398600
  C     68.054200   19.304400   79.896500
  H     69.102100   19.044200   80.134100
  H     67.602400   18.414100   79.931700
  H     67.747800   19.952200   80.697000
  H     66.951300   12.722400   77.644500
  H     72.734900   18.591800   77.280000

 Total Charge           Charge          ....    0
 Multiplicity           Mult            ....    1
 Number of Electrons    NEL             ....  134
 Basis Dimension        Dim             ....  322

ORBITAL ENERGIES
----------------

  NO   OCC          E(Eh)            E(eV)
   0   2.0000     -88.964842     -2420.8564
   1   2.0000     -88.963981     -2420.8330
   2   2.0000     -10.333565      -281.1906
   3   2.0000     -10.328808      -281.0612
   4   2.0000     -10.317131      -280.7434
   5   2.0000     -10.314694      -280.6771
   6   2.0000     -10.307430      -280.4794
   7   2.0000     -10.306236      -280.4470
   8   2.0000     -10.303397      -280.3697
   9   2.0000     -10.299708      -280.2693
  10   2.0000     -10.294042      -280.1151
  11   2.0000     -10.292997      -280.0867
  12   2.0000     -10.286580      -279.9121
  13   2.0000     -10.285998      -279.8962
  14   2.0000     -10.284818      -279.8641
  15   2.0000     -10.259660      -279.1795
  16   2.0000      -8.079750      -219.8612
  17   2.0000      -8.079309      -219.8492
  18   2.0000      -6.038233      -164.3087
  19   2.0000      -6.037646      -164.2927
  20   2.0000      -6.034128      -164.1970
  21   2.0000      -6.033924      -164.1914
  22   2.0000      -6.030616      -164.1014
  23   2.0000      -6.030024      -164.0853
  24   2.0000      -1.004678       -27.3387
  25   2.0000      -0.986244       -26.8371
  26   2.0000      -0.911286       -24.7973
  27   2.0000      -0.906625       -24.6705
  28   2.0000      -0.867043       -23.5934
  29   2.0000      -0.853716       -23.2308
  30   2.0000      -0.841370       -22.8949
  31   2.0000      -0.812512       -22.1096
  32   2.0000      -0.783607       -21.3230
  33   2.0000      -0.771745       -21.0002
  34   2.0000      -0.711094       -19.3498
  35   2.0000      -0.701570       -19.0907
  36   2.0000      -0.692321       -18.8390
  37   2.0000      -0.655152       -17.8276
  38   2.0000      -0.640587       -17.4313
  39   2.0000      -0.619356       -16.8535
  40   2.0000      -0.597145       -16.2491
  41   2.0000      -0.568121       -15.4594
  42   2.0000      -0.564579       -15.3630
  43   2.0000      -0.551346       -15.0029
  44   2.0000      -0.536997       -14.6124
  45   2.0000      -0.533284       -14.5114
  46   2.0000      -0.517313       -14.0768
  47   2.0000      -0.511323       -13.9138
  48   2.0000      -0.499547       -13.5934
  49   2.0000      -0.494060       -13.4440
  50   2.0000      -0.488510       -13.2930
  51   2.0000      -0.473310       -12.8794
  52   2.0000      -0.469989       -12.7891
  53   2.0000      -0.466679       -12.6990
  54   2.0000      -0.459512       -12.5040
  55   2.0000      -0.455958       -12.4073
  56   2.0000      -0.447305       -12.1718
  57   2.0000      -0.436983       -11.8909
  58   2.0000      -0.434655       -11.8276
  59   2.0000      -0.424765       -11.5585
  60   2.0000      -0.419522       -11.4158
  61   2.0000      -0.414722       -11.2852
  62   2.0000      -0.405878       -11.0445
  63   2.0000      -0.339409        -9.2358
  64   2.0000      -0.333685        -9.0800
  65   2.0000      -0.327283        -8.9058
  66   2.0000      -0.300598        -8.1797
  67   0.0000       0.030584         0.8322
  68   0.0000       0.067253         1.8301
  69   0.0000       0.110537         3.0079
  70   0.0000       0.120836         3.2881
  71   0.0000       0.125181         3.4063

MULLIKEN ATOMIC CHARGES
-----------------------
   0 S :    0.106547
   1 C :   -0.128266
   2 C :   -0.084080
   3 C :    0.018368
   4 C :   -0.158869
   5 H :    0.027671
   6 C :    0.029551
   7 H :    0.020919
   8 H :    0.054165
   9 C :   -0.038604
  10 H :    0.018376
  11 H :    0.021907
  12 C :   -0.105839
  13 H :    0.044679
  14 H :    0.059622
  15 H :    0.039846
  16 S :    0.109066
  17 C :   -0.071538
  18 C :   -0.024380
  19 C :   -0.045400
  20 C :   -0.169553
  21 H :    0.019838
  22 C :    0.054229
  23 H :    0.037752
  24 H :    0.037108
  25 C :   -0.067281
  26 H :    0.015830
  27 H :    0.013099
  28 C :    0.006899
  29 H :    0.030469
  30 H :   -0.004634
  31 H :    0.027621
  32 H :    0.050528
  33 H :    0.054353
Sum of atomic charges:   -0.0000000

LOEWDIN ATOMIC CHARGES
----------------------
   0 S :    0.407220
   1 C :   -0.185665
   2 C :   -0.075009
   3 C :   -0.064799
   4 C :   -0.200470
   5 H :    0.035771
   6 C :   -0.037460
   7 H :    0.030967
   8 H :    0.042787
   9 C :   -0.039806
  10 H :    0.018991
  11 H :    0.019651
  12 C :   -0.072053
  13 H :    0.027717
  14 H :    0.031039
  15 H :    0.030062
  16 S :    0.408530
  17 C :   -0.186219
  18 C :   -0.072730
  19 C :   -0.044034
  20 C :   -0.201602
  21 H :    0.031648
  22 C :   -0.029167
  23 H :    0.032350
  24 H :    0.032031
  25 C :   -0.045802
  26 H :    0.025237
  27 H :    0.019660
  28 C :   -0.058071
  29 H :    0.030646
  30 H :    0.009772
  31 H :    0.026509
  32 H :    0.027255
  33 H :    0.025044

  Mayer bond orders larger than 0.100000
B(  0-S ,  1-C ) :   1.1427 B(  0-S ,  4-C ) :   1.1655 B(  1-C ,  2-C ) :   1.6069
B(  1-C , 32-H ) :   0.9685 B(  2-C ,  3-C ) :   1.2331 B(  2-C ,  6-C ) :   1.0265
B(  3-C ,  4-C ) :   1.5685 B(  3-C ,  5-H ) :   0.9934 B(  4-C , 20-C ) :   1.0179
B(  6-C ,  7-H ) :   0.9440 B(  6-C ,  8-H ) :   0.9408 B(  6-C ,  9-C ) :   1.0592
B(  9-C , 10-H ) :   0.9628 B(  9-C , 11-H ) :   0.9554 B(  9-C , 12-C ) :   1.0591
B( 12-C , 13-H ) :   0.9772 B( 12-C , 14-H ) :   0.9751 B( 12-C , 15-H ) :   0.9781
B( 16-S , 17-C ) :   1.1817 B( 16-S , 20-C ) :   1.1320 B( 17-C , 18-C ) :   1.5851
B( 17-C , 33-H ) :   0.9656 B( 18-C , 19-C ) :   1.2410 B( 18-C , 21-H ) :   0.9951
B( 19-C , 20-C ) :   1.5983 B( 19-C , 22-C ) :   1.0357 B( 22-C , 23-H ) :   0.9390
B( 22-C , 24-H ) :   0.9288 B( 22-C , 25-C ) :   1.0681 B( 25-C , 26-H ) :   0.9511
B( 25-C , 27-H ) :   0.9490 B( 25-C , 28-C ) :   1.0815 B( 28-C , 29-H ) :   0.9678
B( 28-C , 30-H ) :   0.9700 B( 28-C , 31-H ) :   0.9702

Dispersion correction           -0.015204803
FINAL SINGLE POINT ENERGY     -1339.874112497899

DIPOLE MOMENT
-------------
                                X             Y             Z
Electronic contribution:     25.35587     -10.43966      -4.69726
Nuclear contribution   :    -25.95932      10.86818       4.61330
                        -----------------------------------------
Total Dipole Moment    :     -0.60344       0.42852      -0.08396
                        -----------------------------------------
Magnitude (a.u.)       :      0.74486
Magnitude (Debye)      :      1.89329

Rotational constants in cm-1:     0.019250     0.009193     0.007199
Rotational constants in MHz :   577.098462   275.587647   215.817332

                             ****ORCA TERMINATED NORMALLY****
TOTAL RUN TIME: 0 days 0 hours 0 minutes 31 seconds 481 msec
