                         Program Version 4.2.1 -  RELEASE  -
|  1> ! wB97X-D3 SP def2-SVP
|  2> %pal
|  3> nprocs 16
|  4> end
|  5>
|  6> * xyz 0 1
|  7> S 	 -115.596 	 49.7824 	 129.966
|  8> C 	 -114.718 	 51.2563 	 130.128
|  9> C 	 -114.078 	 51.4361 	 131.351
| 10> C 	 -114.401 	 50.3974 	 132.279
| 11> C 	 -115.401 	 49.5914 	 131.673
| 12> H 	 -113.998 	 50.3496 	 133.316
| 13> C 	 -113.02 	 52.5442 	 131.612
| 14> H 	 -112.61 	 52.8034 	 130.635
| 15> H 	 -112.19 	 52.1963 	 132.292
| 16> C 	 -113.667 	 53.797 	 132.122
| 17> H 	 -114.556 	 54.1184 	 131.593
| 18> H 	 -114.024 	 53.6848 	 133.15
| 19> C 	 -112.717 	 55.0083 	 132.144
| 20> H 	 -113.226 	 55.7622 	 132.771
| 21> H 	 -111.782 	 54.8702 	 132.676
| 22> H 	 -112.603 	 55.4251 	 131.174
| 23> S 	 -115.681 	 46.7488 	 131.842
| 24> C 	 -116.223 	 46.0443 	 133.365
| 25> C 	 -116.69 	 47.0144 	 134.235
| 26> C 	 -116.614 	 48.3204 	 133.643
| 27> C 	 -115.995 	 48.4083 	 132.371
| 28> H 	 -117.24 	 46.8742 	 135.118
| 29> C 	 -117.062 	 49.6421 	 134.358
| 30> H 	 -118.165 	 49.6949 	 134.554
| 31> H 	 -116.86 	 50.4757 	 133.69
| 32> C 	 -116.198 	 49.8551 	 135.632
| 33> H 	 -115.141 	 49.9677 	 135.372
| 34> H 	 -116.258 	 48.9891 	 136.325
| 35> C 	 -116.622 	 51.1507 	 136.313
| 36> H 	 -117.669 	 51.1775 	 136.549
| 37> H 	 -116.485 	 52.0481 	 135.8
| 38> H 	 -115.912 	 51.1986 	 137.173
| 39> H 	 -114.375 	 51.9215 	 129.353
| 40> H 	 -116.353 	 44.9529 	 133.548
| 41> *
| 42>
| 43>                          ****END OF INPUT****

CARTESIAN COORDINATES (ANGSTROEM)
---------------------------------
  S    -115.596000   49.782400  129.966000
  C    -114.718000   51.256300  130.128000
  C    -114.078000   51.436100  131.351000
  C    -114.401000   50.397400  132.279000
  C    -115.401000   49.591400  131.673000
  H    -113.998000   50.349600  133.316000
  C    -113.020000   52.544200  131.612000
  H    -112.610000   52.803400  130.635000
  H    -112.190000   52.196300  132.292000
  C    -113.667000   53.797000  132.122000
  H    -114.556000   54.118400  131.593000
  H    -114.024000   53.684800  133.150000
  C    -112.717000   55.008300  132.144000
  H    -113.226000   55.762200  132.771000
  H    -111.782000   54.870200  132.676000
  H    -112.603000   55.425100  131.174000
  S    -115.681000   46.748800  131.842000
  C    -116.223000   46.044300  133.365000
  C    -116.690000   47.014400  134.235000
  C    -116.614000   48.320400  133.643000
  C    -115.995000   48.408300  132.371000
  H    -117.240000   46.874200  135.118000
  C    -117.062000   49.642100  134.358000
  H    -118.165000   49.694900  134.554000
  H    -116.860000   50.475700  133.690000
  C    -116.198000   49.855100  135.632000
  H    -115.141000   49.967700  135.372000
  H    -116.258000   48.989100  136.325000
  C    -116.622000   51.150700  136.313000
  H    -117.669000   51.177500  136.549000
  H    -116.485000   52.048100  135.800000
  H    -115.912000   51.198600  137.173000
  H    -114.375000   51.921500  129.353000
  H    -116.353000   44.952900  133.548000

 Total Charge           Charge          ....    0
 Multiplicity           Mult            ....    1
 Number of Electrons    NEL             ....  134
 Basis Dimension        Dim             ....  322

ORBITAL ENERGIES
----------------

  NO   OCC          E(Eh)            E(eV)
   0   2.0000     -88.977264     -2421.1945
   1   2.0000     -88.962635     -2420.7964
   2   2.0000     -10.336611      -281.2735
   3   2.0000     -10.326848      -281.0078
   4   2.0000     -10.323760      -280.9238
   5   2.0000     -10.309791      -280.5437
   6   2.0000     -10.305142      -280.4172
   7   2.0000     -10.303150      -280.3630
   8   2.0000     -10.302648      -280.3493
   9   2.0000     -10.299285      -280.2578
  10   2.0000     -10.292433      -280.0714
  11   2.0000     -10.290850      -280.0283
  12   2.0000     -10.287886      -279.9476
  13   2.0000     -10.283950      -279.8405
  14   2.0000     -10.275624      -279.6139
  15   2.0000     -10.270907      -279.4856
  16   2.0000      -8.092322      -220.2033
  17   2.0000      -8.076813      -219.7813
  18   2.0000      -6.050555      -164.6440
  19   2.0000      -6.047162      -164.5516
  20   2.0000      -6.042979      -164.4378
  21   2.0000      -6.035456      -164.2331
  22   2.0000      -6.031274      -164.1193
  23   2.0000      -6.027606      -164.0195
  24   2.0000      -1.005073       -27.3494
  25   2.0000      -0.979584       -26.6558
  26   2.0000      -0.915064       -24.9002
  27   2.0000      -0.902199       -24.5501
  28   2.0000      -0.863556       -23.4986
  29   2.0000      -0.855139       -23.2695
  30   2.0000      -0.842345       -22.9214
  31   2.0000      -0.811240       -22.0750
  32   2.0000      -0.781559       -21.2673
  33   2.0000      -0.763781       -20.7835
  34   2.0000      -0.699540       -19.0355
  35   2.0000      -0.696306       -18.9475
  36   2.0000      -0.694804       -18.9066
  37   2.0000      -0.658186       -17.9102
  38   2.0000      -0.634786       -17.2734
  39   2.0000      -0.619084       -16.8461
  40   2.0000      -0.590497       -16.0683
  41   2.0000      -0.575655       -15.6644
  42   2.0000      -0.562740       -15.3129
  43   2.0000      -0.558640       -15.2014
  44   2.0000      -0.527047       -14.3417
  45   2.0000      -0.521857       -14.2004
  46   2.0000      -0.516118       -14.0443
  47   2.0000      -0.506826       -13.7914
  48   2.0000      -0.502426       -13.6717
  49   2.0000      -0.496782       -13.5181
  50   2.0000      -0.484951       -13.1962
  51   2.0000      -0.482793       -13.1375
  52   2.0000      -0.473331       -12.8800
  53   2.0000      -0.465094       -12.6558
  54   2.0000      -0.458613       -12.4795
  55   2.0000      -0.455730       -12.4010
  56   2.0000      -0.443725       -12.0744
  57   2.0000      -0.440095       -11.9756
  58   2.0000      -0.435407       -11.8480
  59   2.0000      -0.424058       -11.5392
  60   2.0000      -0.421646       -11.4736
  61   2.0000      -0.419836       -11.4243
  62   2.0000      -0.398314       -10.8387
  63   2.0000      -0.342267        -9.3136
  64   2.0000      -0.336167        -9.1476
  65   2.0000      -0.323762        -8.8100
  66   2.0000      -0.290151        -7.8954
  67   0.0000       0.027170         0.7393
  68   0.0000       0.064405         1.7525
  69   0.0000       0.097322         2.6483
  70   0.0000       0.123481         3.3601
  71   0.0000       0.129508         3.5241

MULLIKEN ATOMIC CHARGES
-----------------------
   0 S :    0.147675
   1 C :   -0.081840
   2 C :   -0.123863
   3 C :    0.029753
   4 C :   -0.176639
   5 H :    0.038517
   6 C :    0.074375
   7 H :    0.014807
   8 H :    0.044280
   9 C :   -0.086297
  10 H :    0.027763
  11 H :    0.018268
  12 C :   -0.037625
  13 H :    0.025257
  14 H :    0.029379
  15 H :    0.031943
  16 S :    0.089224
  17 C :   -0.106187
  18 C :    0.010921
  19 C :   -0.081635
  20 C :   -0.126345
  21 H :    0.007884
  22 C :    0.039348
  23 H :    0.040385
  24 H :    0.029517
  25 C :   -0.104832
  26 H :    0.023302
  27 H :    0.036689
  28 C :   -0.012219
  29 H :    0.023403
  30 H :    0.013502
  31 H :    0.032848
  32 H :    0.031152
  33 H :    0.077291
Sum of atomic charges:   -0.0000000

LOEWDIN ATOMIC CHARGES
----------------------
   0 S :    0.442476
   1 C :   -0.216125
   2 C :   -0.057722
   3 C :   -0.053141
   4 C :   -0.198203
   5 H :    0.041835
   6 C :   -0.030474
   7 H :    0.027682
   8 H :    0.039202
   9 C :   -0.045158
  10 H :    0.025880
  11 H :    0.021331
  12 C :   -0.064676
  13 H :    0.030249
  14 H :    0.023051
  15 H :    0.018736
  16 S :    0.385719
  17 C :   -0.182631
  18 C :   -0.072566
  19 C :   -0.053789
  20 C :   -0.208007
  21 H :    0.025514
  22 C :   -0.034573
  23 H :    0.032421
  24 H :    0.027751
  25 C :   -0.039992
  26 H :    0.021835
  27 H :    0.024288
  28 C :   -0.063861
  29 H :    0.021847
  30 H :    0.015450
  31 H :    0.032596
  32 H :    0.023043
  33 H :    0.040009

  Mayer bond orders larger than 0.100000
B(  0-S ,  1-C ) :   1.1403 B(  0-S ,  4-C ) :   1.1845 B(  1-C ,  2-C ) :   1.6201
B(  1-C , 32-H ) :   0.9565 B(  2-C ,  3-C ) :   1.2693 B(  2-C ,  6-C ) :   1.0169
B(  3-C ,  4-C ) :   1.5187 B(  3-C ,  5-H ) :   0.9868 B(  4-C , 20-C ) :   1.0182
B(  6-C ,  7-H ) :   0.9394 B(  6-C ,  8-H ) :   0.9447 B(  6-C ,  9-C ) :   1.0661
B(  9-C , 10-H ) :   0.9551 B(  9-C , 11-H ) :   0.9548 B(  9-C , 12-C ) :   1.0879
B( 12-C , 13-H ) :   0.9733 B( 12-C , 14-H ) :   0.9733 B( 12-C , 15-H ) :   0.9772
B( 16-S , 17-C ) :   1.1693 B( 16-S , 20-C ) :   1.1221 B( 17-C , 18-C ) :   1.5728
B( 17-C , 33-H ) :   0.9599 B( 18-C , 19-C ) :   1.2753 B( 18-C , 21-H ) :   0.9923
B( 19-C , 20-C ) :   1.5963 B( 19-C , 22-C ) :   1.0349 B( 22-C , 23-H ) :   0.9444
B( 22-C , 24-H ) :   0.9393 B( 22-C , 25-C ) :   1.0546 B( 25-C , 26-H ) :   0.9524
B( 25-C , 27-H ) :   0.9586 B( 25-C , 28-C ) :   1.0822 B( 28-C , 29-H ) :   0.9725
B( 28-C , 30-H ) :   0.9738 B( 28-C , 31-H ) :   0.9730

Dispersion correction           -0.014231754
FINAL SINGLE POINT ENERGY     -1339.863596301966

DIPOLE MOMENT
-------------
                                X             Y             Z
Electronic contribution:     -5.83828     -26.55583     -19.00556
Nuclear contribution   :      6.01903      27.04468      19.43038
                        -----------------------------------------
Total Dipole Moment    :      0.18075       0.48886       0.42482
                        -----------------------------------------
Magnitude (a.u.)       :      0.67240
Magnitude (Debye)      :      1.70912

Rotational constants in cm-1:     0.018167     0.008861     0.006427
Rotational constants in MHz :   544.618822   265.659983   192.685359

                             ****ORCA TERMINATED NORMALLY****
TOTAL RUN TIME: 0 days 0 hours 0 minutes 34 seconds 297 msec
