                         Program Version 4.2.1 -  RELEASE  -
|  1> ! wB97X-D3 SP def2-SVP
|  2> %pal
|  3> nprocs 16
|  4> end
|  5>
|  6> * xyz 0 1
|  7> S 	 -31.5563 	 72.342 	 152.757
|  8> C 	 -30.2839 	 72.5698 	 151.562
|  9> C 	 -30.6235 	 71.9722 	 150.366
| 10> C 	 -31.8695 	 71.2469 	 150.476
| 11> C 	 -32.54 	 71.3824 	 151.701
| 12> H 	 -32.2258 	 70.5212 	 149.724
| 13> C 	 -29.8322 	 72.1225 	 149.028
| 14> H 	 -30.0792 	 71.2576 	 148.382
| 15> H 	 -28.7136 	 71.9031 	 149.207
| 16> C 	 -29.9759 	 73.4229 	 148.31
| 17> H 	 -31.0565 	 73.7568 	 148.432
| 18> H 	 -29.3125 	 74.1097 	 148.774
| 19> C 	 -29.4791 	 73.4014 	 146.915
| 20> H 	 -29.3602 	 74.4476 	 146.498
| 21> H 	 -28.4955 	 73.0225 	 146.929
| 22> H 	 -30.1873 	 72.9334 	 146.179
| 23> S 	 -35.1403 	 70.594 	 150.899
| 24> C 	 -36.1235 	 69.8157 	 152.07
| 25> C 	 -35.4215 	 69.4617 	 153.236
| 26> C 	 -34.1549 	 70.1058 	 153.295
| 27> C 	 -33.7989 	 70.6872 	 152.086
| 28> H 	 -35.8364 	 68.9569 	 154.078
| 29> C 	 -33.3642 	 69.9886 	 154.619
| 30> H 	 -32.3265 	 70.3244 	 154.55
| 31> H 	 -33.267 	 68.9041 	 154.862
| 32> C 	 -34.0486 	 70.5106 	 155.907
| 33> H 	 -33.2175 	 70.9463 	 156.462
| 34> H 	 -34.4144 	 69.6875 	 156.503
| 35> C 	 -34.9268 	 71.8287 	 155.731
| 36> H 	 -34.7762 	 72.3349 	 156.698
| 37> H 	 -35.9553 	 71.5246 	 155.522
| 38> H 	 -34.6472 	 72.4844 	 154.95
| 39> H 	 -29.3071 	 73.0069 	 151.63
| 40> H 	 -37.0918 	 69.4692 	 151.83
| 41> *
| 42>
| 43>                          ****END OF INPUT****

CARTESIAN COORDINATES (ANGSTROEM)
---------------------------------
  S    -31.556300   72.342000  152.757000
  C    -30.283900   72.569800  151.562000
  C    -30.623500   71.972200  150.366000
  C    -31.869500   71.246900  150.476000
  C    -32.540000   71.382400  151.701000
  H    -32.225800   70.521200  149.724000
  C    -29.832200   72.122500  149.028000
  H    -30.079200   71.257600  148.382000
  H    -28.713600   71.903100  149.207000
  C    -29.975900   73.422900  148.310000
  H    -31.056500   73.756800  148.432000
  H    -29.312500   74.109700  148.774000
  C    -29.479100   73.401400  146.915000
  H    -29.360200   74.447600  146.498000
  H    -28.495500   73.022500  146.929000
  H    -30.187300   72.933400  146.179000
  S    -35.140300   70.594000  150.899000
  C    -36.123500   69.815700  152.070000
  C    -35.421500   69.461700  153.236000
  C    -34.154900   70.105800  153.295000
  C    -33.798900   70.687200  152.086000
  H    -35.836400   68.956900  154.078000
  C    -33.364200   69.988600  154.619000
  H    -32.326500   70.324400  154.550000
  H    -33.267000   68.904100  154.862000
  C    -34.048600   70.510600  155.907000
  H    -33.217500   70.946300  156.462000
  H    -34.414400   69.687500  156.503000
  C    -34.926800   71.828700  155.731000
  H    -34.776200   72.334900  156.698000
  H    -35.955300   71.524600  155.522000
  H    -34.647200   72.484400  154.950000
  H    -29.307100   73.006900  151.630000
  H    -37.091800   69.469200  151.830000

 Total Charge           Charge          ....    0
 Multiplicity           Mult            ....    1
 Number of Electrons    NEL             ....  134
 Basis Dimension        Dim             ....  322

ORBITAL ENERGIES
----------------

  NO   OCC          E(Eh)            E(eV)
   0   2.0000     -88.970898     -2421.0212
   1   2.0000     -88.969687     -2420.9883
   2   2.0000     -10.333711      -281.1946
   3   2.0000     -10.333627      -281.1923
   4   2.0000     -10.319053      -280.7957
   5   2.0000     -10.312410      -280.6150
   6   2.0000     -10.306333      -280.4496
   7   2.0000     -10.303318      -280.3675
   8   2.0000     -10.299160      -280.2544
   9   2.0000     -10.295379      -280.1515
  10   2.0000     -10.294876      -280.1378
  11   2.0000     -10.293766      -280.1076
  12   2.0000     -10.287697      -279.9425
  13   2.0000     -10.281394      -279.7709
  14   2.0000     -10.279202      -279.7113
  15   2.0000     -10.276061      -279.6258
  16   2.0000      -8.085322      -220.0128
  17   2.0000      -8.083650      -219.9673
  18   2.0000      -6.043808      -164.4604
  19   2.0000      -6.042307      -164.4195
  20   2.0000      -6.039921      -164.3546
  21   2.0000      -6.038119      -164.3056
  22   2.0000      -6.036094      -164.2505
  23   2.0000      -6.034440      -164.2055
  24   2.0000      -1.002807       -27.2878
  25   2.0000      -0.983315       -26.7574
  26   2.0000      -0.917094       -24.9554
  27   2.0000      -0.902770       -24.5656
  28   2.0000      -0.867562       -23.6076
  29   2.0000      -0.848189       -23.0804
  30   2.0000      -0.842953       -22.9379
  31   2.0000      -0.807385       -21.9701
  32   2.0000      -0.785081       -21.3631
  33   2.0000      -0.774791       -21.0831
  34   2.0000      -0.704470       -19.1696
  35   2.0000      -0.692837       -18.8531
  36   2.0000      -0.689848       -18.7717
  37   2.0000      -0.666625       -18.1398
  38   2.0000      -0.631580       -17.1862
  39   2.0000      -0.610479       -16.6120
  40   2.0000      -0.594609       -16.1801
  41   2.0000      -0.571860       -15.5611
  42   2.0000      -0.569470       -15.4961
  43   2.0000      -0.555666       -15.1205
  44   2.0000      -0.538499       -14.6533
  45   2.0000      -0.523221       -14.2376
  46   2.0000      -0.517348       -14.0778
  47   2.0000      -0.508811       -13.8455
  48   2.0000      -0.501274       -13.6403
  49   2.0000      -0.496994       -13.5239
  50   2.0000      -0.489428       -13.3180
  51   2.0000      -0.479745       -13.0545
  52   2.0000      -0.469708       -12.7814
  53   2.0000      -0.464036       -12.6270
  54   2.0000      -0.460676       -12.5356
  55   2.0000      -0.454068       -12.3558
  56   2.0000      -0.449775       -12.2390
  57   2.0000      -0.432284       -11.7631
  58   2.0000      -0.425438       -11.5767
  59   2.0000      -0.419914       -11.4264
  60   2.0000      -0.416197       -11.3253
  61   2.0000      -0.408951       -11.1281
  62   2.0000      -0.403547       -10.9811
  63   2.0000      -0.350983        -9.5507
  64   2.0000      -0.333388        -9.0720
  65   2.0000      -0.329574        -8.9682
  66   2.0000      -0.287583        -7.8255
  67   0.0000       0.026737         0.7275
  68   0.0000       0.073477         1.9994
  69   0.0000       0.106471         2.8972
  70   0.0000       0.113021         3.0755
  71   0.0000       0.128591         3.4991

MULLIKEN ATOMIC CHARGES
-----------------------
   0 S :    0.111641
   1 C :   -0.107349
   2 C :   -0.092225
   3 C :   -0.016580
   4 C :   -0.121137
   5 H :    0.025100
   6 C :    0.013248
   7 H :    0.021477
   8 H :    0.029898
   9 C :   -0.037591
  10 H :    0.048046
  11 H :    0.015746
  12 C :   -0.056190
  13 H :    0.033804
  14 H :    0.021276
  15 H :    0.043912
  16 S :    0.119889
  17 C :   -0.078022
  18 C :   -0.015356
  19 C :   -0.055621
  20 C :   -0.147254
  21 H :    0.013877
  22 C :    0.051470
  23 H :    0.026659
  24 H :    0.035105
  25 C :   -0.113660
  26 H :    0.030704
  27 H :    0.035282
  28 C :   -0.033318
  29 H :    0.040885
  30 H :    0.035681
  31 H :    0.034642
  32 H :    0.038133
  33 H :    0.047828
Sum of atomic charges:   -0.0000000

LOEWDIN ATOMIC CHARGES
----------------------
   0 S :    0.419293
   1 C :   -0.200566
   2 C :   -0.061817
   3 C :   -0.079957
   4 C :   -0.195896
   5 H :    0.031818
   6 C :   -0.039993
   7 H :    0.028000
   8 H :    0.034050
   9 C :   -0.050839
  10 H :    0.035138
  11 H :    0.022278
  12 C :   -0.066622
  13 H :    0.033073
  14 H :    0.019794
  15 H :    0.029954
  16 S :    0.412453
  17 C :   -0.181376
  18 C :   -0.063302
  19 C :   -0.052060
  20 C :   -0.190246
  21 H :    0.027478
  22 C :   -0.042118
  23 H :    0.019285
  24 H :    0.040116
  25 C :   -0.047417
  26 H :    0.030759
  27 H :    0.022009
  28 C :   -0.061108
  29 H :    0.030619
  30 H :    0.024695
  31 H :    0.023178
  32 H :    0.030282
  33 H :    0.019048

  Mayer bond orders larger than 0.100000
B(  0-S ,  1-C ) :   1.1309 B(  0-S ,  4-C ) :   1.1504 B(  1-C ,  2-C ) :   1.6206
B(  1-C , 32-H ) :   0.9676 B(  2-C ,  3-C ) :   1.2617 B(  2-C ,  6-C ) :   1.0187
B(  3-C ,  4-C ) :   1.5538 B(  3-C ,  5-H ) :   0.9850 B(  4-C , 20-C ) :   1.0420
B(  6-C ,  7-H ) :   0.9475 B(  6-C ,  8-H ) :   0.9351 B(  6-C ,  9-C ) :   1.0629
B(  9-C , 10-H ) :   0.9544 B(  9-C , 11-H ) :   0.9457 B(  9-C , 12-C ) :   1.0955
B( 12-C , 13-H ) :   0.9725 B( 12-C , 14-H ) :   0.9677 B( 12-C , 15-H ) :   0.9728
B( 16-S , 17-C ) :   1.1756 B( 16-S , 20-C ) :   1.1307 B( 17-C , 18-C ) :   1.5784
B( 17-C , 33-H ) :   0.9711 B( 18-C , 19-C ) :   1.2522 B( 18-C , 21-H ) :   0.9900
B( 19-C , 20-C ) :   1.5918 B( 19-C , 22-C ) :   1.0417 B( 22-C , 23-H ) :   0.9388
B( 22-C , 24-H ) :   0.9419 B( 22-C , 25-C ) :   1.0530 B( 25-C , 26-H ) :   0.9659
B( 25-C , 27-H ) :   0.9632 B( 25-C , 28-C ) :   1.0629 B( 28-C , 29-H ) :   0.9833
B( 28-C , 30-H ) :   0.9750 B( 28-C , 31-H ) :   0.9739

Dispersion correction           -0.014300992
FINAL SINGLE POINT ENERGY     -1339.861952393811

DIPOLE MOMENT
-------------
                                X             Y             Z
Electronic contribution:     -8.81000      -4.58478       1.29327
Nuclear contribution   :      8.98612       4.39988      -1.24043
                        -----------------------------------------
Total Dipole Moment    :      0.17612      -0.18490       0.05284
                        -----------------------------------------
Magnitude (a.u.)       :      0.26076
Magnitude (Debye)      :      0.66280

Rotational constants in cm-1:     0.025794     0.007101     0.005918
Rotational constants in MHz :   773.288549   212.881233   177.407458

                             ****ORCA TERMINATED NORMALLY****
TOTAL RUN TIME: 0 days 0 hours 0 minutes 34 seconds 723 msec
