                         Program Version 4.2.1 -  RELEASE  -
|  1> ! wB97X-D3 SP def2-SVP
|  2> %pal
|  3> nprocs 16
|  4> end
|  5>
|  6> * xyz 0 1
|  7> S 	 -61.3912 	 57.0726 	 126.113
|  8> C 	 -63.0732 	 57.0198 	 126.772
|  9> C 	 -63.849 	 56.2027 	 126.026
| 10> C 	 -63.0833 	 55.612 	 124.956
| 11> C 	 -61.7008 	 55.8782 	 124.88
| 12> H 	 -63.5361 	 54.9713 	 124.193
| 13> C 	 -65.298 	 55.8486 	 126.267
| 14> H 	 -65.7608 	 55.3564 	 125.38
| 15> H 	 -65.6872 	 56.7997 	 126.238
| 16> C 	 -65.6955 	 55.1419 	 127.573
| 17> H 	 -65.1752 	 54.1989 	 127.821
| 18> H 	 -65.5347 	 55.7894 	 128.409
| 19> C 	 -67.1943 	 54.8198 	 127.511
| 20> H 	 -67.5092 	 54.4827 	 126.506
| 21> H 	 -67.6411 	 54.0614 	 128.213
| 22> H 	 -67.7452 	 55.7309 	 127.727
| 23> S 	 -60.2017 	 56.5582 	 122.831
| 24> C 	 -59.213 	 55.3716 	 121.916
| 25> C 	 -59.0788 	 54.2337 	 122.615
| 26> C 	 -60.0189 	 54.1459 	 123.673
| 27> C 	 -60.6976 	 55.3534 	 123.948
| 28> H 	 -58.4871 	 53.3974 	 122.27
| 29> C 	 -60.1793 	 52.835 	 124.357
| 30> H 	 -59.862 	 53.0844 	 125.356
| 31> H 	 -59.4724 	 52.0475 	 124.197
| 32> C 	 -61.5808 	 52.2198 	 124.341
| 33> H 	 -62.0516 	 52.3516 	 123.386
| 34> H 	 -62.2204 	 52.6657 	 125.104
| 35> C 	 -61.6349 	 50.6645 	 124.654
| 36> H 	 -60.9925 	 49.9877 	 124.093
| 37> H 	 -62.6824 	 50.3704 	 124.46
| 38> H 	 -61.464 	 50.493 	 125.71
| 39> H 	 -63.4525 	 57.431 	 127.661
| 40> H 	 -58.5783 	 55.6411 	 121.115
| 41> *
| 42>
| 43>                          ****END OF INPUT****

CARTESIAN COORDINATES (ANGSTROEM)
---------------------------------
  S    -61.391200   57.072600  126.113000
  C    -63.073200   57.019800  126.772000
  C    -63.849000   56.202700  126.026000
  C    -63.083300   55.612000  124.956000
  C    -61.700800   55.878200  124.880000
  H    -63.536100   54.971300  124.193000
  C    -65.298000   55.848600  126.267000
  H    -65.760800   55.356400  125.380000
  H    -65.687200   56.799700  126.238000
  C    -65.695500   55.141900  127.573000
  H    -65.175200   54.198900  127.821000
  H    -65.534700   55.789400  128.409000
  C    -67.194300   54.819800  127.511000
  H    -67.509200   54.482700  126.506000
  H    -67.641100   54.061400  128.213000
  H    -67.745200   55.730900  127.727000
  S    -60.201700   56.558200  122.831000
  C    -59.213000   55.371600  121.916000
  C    -59.078800   54.233700  122.615000
  C    -60.018900   54.145900  123.673000
  C    -60.697600   55.353400  123.948000
  H    -58.487100   53.397400  122.270000
  C    -60.179300   52.835000  124.357000
  H    -59.862000   53.084400  125.356000
  H    -59.472400   52.047500  124.197000
  C    -61.580800   52.219800  124.341000
  H    -62.051600   52.351600  123.386000
  H    -62.220400   52.665700  125.104000
  C    -61.634900   50.664500  124.654000
  H    -60.992500   49.987700  124.093000
  H    -62.682400   50.370400  124.460000
  H    -61.464000   50.493000  125.710000
  H    -63.452500   57.431000  127.661000
  H    -58.578300   55.641100  121.115000

 Total Charge           Charge          ....    0
 Multiplicity           Mult            ....    1
 Number of Electrons    NEL             ....  134
 Basis Dimension        Dim             ....  322

ORBITAL ENERGIES
----------------

  NO   OCC          E(Eh)            E(eV)
   0   2.0000     -88.965203     -2420.8662
   1   2.0000     -88.961921     -2420.7769
   2   2.0000     -10.335095      -281.2322
   3   2.0000     -10.329633      -281.0836
   4   2.0000     -10.313722      -280.6506
   5   2.0000     -10.312152      -280.6079
   6   2.0000     -10.307096      -280.4703
   7   2.0000     -10.299476      -280.2630
   8   2.0000     -10.295045      -280.1424
   9   2.0000     -10.292395      -280.0703
  10   2.0000     -10.292122      -280.0629
  11   2.0000     -10.290226      -280.0113
  12   2.0000     -10.284794      -279.8635
  13   2.0000     -10.283595      -279.8309
  14   2.0000     -10.281921      -279.7853
  15   2.0000     -10.279196      -279.7112
  16   2.0000      -8.079036      -219.8417
  17   2.0000      -8.076977      -219.7857
  18   2.0000      -6.037747      -164.2954
  19   2.0000      -6.035538      -164.2353
  20   2.0000      -6.033602      -164.1827
  21   2.0000      -6.031397      -164.1227
  22   2.0000      -6.029648      -164.0751
  23   2.0000      -6.027671      -164.0213
  24   2.0000      -1.006699       -27.3937
  25   2.0000      -0.983679       -26.7673
  26   2.0000      -0.917210       -24.9586
  27   2.0000      -0.905618       -24.6431
  28   2.0000      -0.877331       -23.8734
  29   2.0000      -0.847498       -23.0616
  30   2.0000      -0.841124       -22.8881
  31   2.0000      -0.815315       -22.1858
  32   2.0000      -0.781754       -21.2726
  33   2.0000      -0.771530       -20.9944
  34   2.0000      -0.713050       -19.4031
  35   2.0000      -0.708926       -19.2909
  36   2.0000      -0.696285       -18.9469
  37   2.0000      -0.666067       -18.1246
  38   2.0000      -0.638731       -17.3808
  39   2.0000      -0.614416       -16.7191
  40   2.0000      -0.599939       -16.3252
  41   2.0000      -0.577800       -15.7227
  42   2.0000      -0.566047       -15.4029
  43   2.0000      -0.560098       -15.2411
  44   2.0000      -0.528009       -14.3678
  45   2.0000      -0.521506       -14.1909
  46   2.0000      -0.519966       -14.1490
  47   2.0000      -0.515015       -14.0143
  48   2.0000      -0.509713       -13.8700
  49   2.0000      -0.502118       -13.6633
  50   2.0000      -0.496683       -13.5154
  51   2.0000      -0.477326       -12.9887
  52   2.0000      -0.465051       -12.6547
  53   2.0000      -0.461265       -12.5517
  54   2.0000      -0.455954       -12.4071
  55   2.0000      -0.448769       -12.2116
  56   2.0000      -0.442073       -12.0294
  57   2.0000      -0.437399       -11.9022
  58   2.0000      -0.435947       -11.8627
  59   2.0000      -0.423846       -11.5334
  60   2.0000      -0.421145       -11.4599
  61   2.0000      -0.414714       -11.2849
  62   2.0000      -0.409120       -11.1327
  63   2.0000      -0.345302        -9.3961
  64   2.0000      -0.329740        -8.9727
  65   2.0000      -0.318370        -8.6633
  66   2.0000      -0.301302        -8.1989
  67   0.0000       0.037809         1.0288
  68   0.0000       0.053747         1.4625
  69   0.0000       0.107906         2.9363
  70   0.0000       0.122241         3.3263
  71   0.0000       0.134220         3.6523

MULLIKEN ATOMIC CHARGES
-----------------------
   0 S :    0.106506
   1 C :   -0.108188
   2 C :   -0.077677
   3 C :    0.038810
   4 C :   -0.157085
   5 H :    0.008693
   6 C :    0.076113
   7 H :    0.024404
   8 H :    0.016275
   9 C :   -0.035317
  10 H :    0.042151
  11 H :    0.022437
  12 C :   -0.082217
  13 H :    0.027949
  14 H :    0.042383
  15 H :    0.026386
  16 S :    0.094081
  17 C :   -0.066771
  18 C :   -0.024777
  19 C :   -0.041144
  20 C :   -0.162909
  21 H :    0.024892
  22 C :    0.103751
  23 H :    0.022574
  24 H :    0.000138
  25 C :   -0.085680
  26 H :    0.032283
  27 H :    0.042348
  28 C :   -0.072911
  29 H :    0.034292
  30 H :    0.031754
  31 H :    0.030473
  32 H :    0.021095
  33 H :    0.044888
Sum of atomic charges:   -0.0000000

LOEWDIN ATOMIC CHARGES
----------------------
   0 S :    0.387655
   1 C :   -0.174855
   2 C :   -0.062785
   3 C :   -0.063571
   4 C :   -0.208458
   5 H :    0.026980
   6 C :   -0.028877
   7 H :    0.035774
   8 H :    0.027790
   9 C :   -0.035468
  10 H :    0.029398
  11 H :    0.021041
  12 C :   -0.073108
  13 H :    0.023570
  14 H :    0.031256
  15 H :    0.023240
  16 S :    0.409208
  17 C :   -0.159552
  18 C :   -0.067906
  19 C :   -0.046244
  20 C :   -0.213034
  21 H :    0.035845
  22 C :   -0.041881
  23 H :    0.038063
  24 H :    0.026734
  25 C :   -0.033673
  26 H :    0.019881
  27 H :    0.027974
  28 C :   -0.068336
  29 H :    0.020271
  30 H :    0.029621
  31 H :    0.021949
  32 H :    0.020614
  33 H :    0.020884

  Mayer bond orders larger than 0.100000
B(  0-S ,  1-C ) :   1.1216 B(  0-S ,  4-C ) :   1.1452 B(  1-C ,  2-C ) :   1.6325
B(  1-C , 32-H ) :   0.9733 B(  2-C ,  3-C ) :   1.2437 B(  2-C ,  6-C ) :   0.9965
B(  3-C ,  4-C ) :   1.5803 B(  3-C ,  5-H ) :   0.9896 B(  4-C , 20-C ) :   1.0118
B(  6-C ,  7-H ) :   0.9478 B(  6-C ,  8-H ) :   0.9273 B(  6-C ,  9-C ) :   1.0618
B(  9-C , 10-H ) :   0.9627 B(  9-C , 11-H ) :   0.9534 B(  9-C , 12-C ) :   1.0717
B( 12-C , 13-H ) :   0.9762 B( 12-C , 14-H ) :   0.9763 B( 12-C , 15-H ) :   0.9774
B( 16-S , 17-C ) :   1.1480 B( 16-S , 20-C ) :   1.1578 B( 17-C , 18-C ) :   1.6212
B( 17-C , 20-C ) :   0.1038 B( 17-C , 33-H ) :   0.9680 B( 18-C , 19-C ) :   1.2507
B( 18-C , 21-H ) :   0.9877 B( 19-C , 20-C ) :   1.5839 B( 19-C , 22-C ) :   1.0428
B( 22-C , 23-H ) :   0.9154 B( 22-C , 24-H ) :   0.9425 B( 22-C , 25-C ) :   1.0502
B( 25-C , 26-H ) :   0.9672 B( 25-C , 27-H ) :   0.9490 B( 25-C , 28-C ) :   1.0830
B( 28-C , 29-H ) :   0.9773 B( 28-C , 30-H ) :   0.9768 B( 28-C , 31-H ) :   0.9784

Dispersion correction           -0.013705706
FINAL SINGLE POINT ENERGY     -1339.851480113099

DIPOLE MOMENT
-------------
                                X             Y             Z
Electronic contribution:     20.43586      21.99165      -9.43913
Nuclear contribution   :    -20.80847     -22.57255       9.54162
                        -----------------------------------------
Total Dipole Moment    :     -0.37261      -0.58090       0.10249
                        -----------------------------------------
Magnitude (a.u.)       :      0.69770
Magnitude (Debye)      :      1.77341

Rotational constants in cm-1:     0.018369     0.008291     0.006282
Rotational constants in MHz :   550.675635   248.557742   188.328830

                             ****ORCA TERMINATED NORMALLY****
TOTAL RUN TIME: 0 days 0 hours 0 minutes 33 seconds 471 msec
