                         Program Version 4.2.1 -  RELEASE  -
|  1> ! wB97X-D3 SP def2-SVP
|  2> %pal
|  3> nprocs 16
|  4> end
|  5>
|  6> * xyz 0 1
|  7> S 	 -108.293 	 43.9363 	 128.416
|  8> C 	 -107.556 	 44.6374 	 129.765
|  9> C 	 -106.635 	 45.5662 	 129.384
| 10> C 	 -106.351 	 45.4686 	 127.939
| 11> C 	 -107.05 	 44.514 	 127.249
| 12> H 	 -105.675 	 46.1029 	 127.407
| 13> C 	 -105.94 	 46.6164 	 130.215
| 14> H 	 -106.623 	 47.4671 	 130.176
| 15> H 	 -104.993 	 46.8285 	 129.752
| 16> C 	 -105.516 	 46.0701 	 131.613
| 17> H 	 -106.285 	 45.8188 	 132.307
| 18> H 	 -105.01 	 45.0815 	 131.369
| 19> C 	 -104.437 	 46.9244 	 132.356
| 20> H 	 -104.838 	 47.8692 	 132.738
| 21> H 	 -103.961 	 46.4196 	 133.206
| 22> H 	 -103.741 	 47.3348 	 131.629
| 23> S 	 -106.83 	 42.5627 	 125.245
| 24> C 	 -107.296 	 43.0099 	 123.66
| 25> C 	 -107.556 	 44.3894 	 123.55
| 26> C 	 -107.335 	 45.1067 	 124.742
| 27> C 	 -107.075 	 44.2664 	 125.807
| 28> H 	 -107.922 	 44.7485 	 122.594
| 29> C 	 -107.642 	 46.5729 	 124.761
| 30> H 	 -106.72 	 47.0235 	 124.448
| 31> H 	 -107.925 	 46.8703 	 125.796
| 32> C 	 -108.708 	 47.1636 	 123.846
| 33> H 	 -109.553 	 46.4686 	 123.768
| 34> H 	 -108.456 	 47.0297 	 122.826
| 35> C 	 -109.074 	 48.6449 	 124.15
| 36> H 	 -109.92 	 48.802 	 123.52
| 37> H 	 -108.342 	 49.3807 	 123.868
| 38> H 	 -109.509 	 48.8038 	 125.125
| 39> H 	 -107.901 	 44.6181 	 130.798
| 40> H 	 -107.414 	 42.2397 	 122.904
| 41> *
| 42>
| 43>                          ****END OF INPUT****

CARTESIAN COORDINATES (ANGSTROEM)
---------------------------------
  S    -108.293000   43.936300  128.416000
  C    -107.556000   44.637400  129.765000
  C    -106.635000   45.566200  129.384000
  C    -106.351000   45.468600  127.939000
  C    -107.050000   44.514000  127.249000
  H    -105.675000   46.102900  127.407000
  C    -105.940000   46.616400  130.215000
  H    -106.623000   47.467100  130.176000
  H    -104.993000   46.828500  129.752000
  C    -105.516000   46.070100  131.613000
  H    -106.285000   45.818800  132.307000
  H    -105.010000   45.081500  131.369000
  C    -104.437000   46.924400  132.356000
  H    -104.838000   47.869200  132.738000
  H    -103.961000   46.419600  133.206000
  H    -103.741000   47.334800  131.629000
  S    -106.830000   42.562700  125.245000
  C    -107.296000   43.009900  123.660000
  C    -107.556000   44.389400  123.550000
  C    -107.335000   45.106700  124.742000
  C    -107.075000   44.266400  125.807000
  H    -107.922000   44.748500  122.594000
  C    -107.642000   46.572900  124.761000
  H    -106.720000   47.023500  124.448000
  H    -107.925000   46.870300  125.796000
  C    -108.708000   47.163600  123.846000
  H    -109.553000   46.468600  123.768000
  H    -108.456000   47.029700  122.826000
  C    -109.074000   48.644900  124.150000
  H    -109.920000   48.802000  123.520000
  H    -108.342000   49.380700  123.868000
  H    -109.509000   48.803800  125.125000
  H    -107.901000   44.618100  130.798000
  H    -107.414000   42.239700  122.904000

 Total Charge           Charge          ....    0
 Multiplicity           Mult            ....    1
 Number of Electrons    NEL             ....  134
 Basis Dimension        Dim             ....  322

ORBITAL ENERGIES
----------------

  NO   OCC          E(Eh)            E(eV)
   0   2.0000     -88.964598     -2420.8498
   1   2.0000     -88.957011     -2420.6433
   2   2.0000     -10.329115      -281.0695
   3   2.0000     -10.327882      -281.0360
   4   2.0000     -10.319624      -280.8113
   5   2.0000     -10.307434      -280.4795
   6   2.0000     -10.305644      -280.4308
   7   2.0000     -10.297041      -280.1967
   8   2.0000     -10.294592      -280.1301
   9   2.0000     -10.294339      -280.1232
  10   2.0000     -10.293381      -280.0971
  11   2.0000     -10.291439      -280.0443
  12   2.0000     -10.289452      -279.9902
  13   2.0000     -10.286559      -279.9115
  14   2.0000     -10.280534      -279.7476
  15   2.0000     -10.279307      -279.7142
  16   2.0000      -8.079359      -219.8505
  17   2.0000      -8.072354      -219.6599
  18   2.0000      -6.037689      -164.2939
  19   2.0000      -6.033824      -164.1887
  20   2.0000      -6.031011      -164.1122
  21   2.0000      -6.030352      -164.0942
  22   2.0000      -6.026935      -164.0012
  23   2.0000      -6.022717      -163.8865
  24   2.0000      -1.003240       -27.2996
  25   2.0000      -0.985423       -26.8147
  26   2.0000      -0.912804       -24.8387
  27   2.0000      -0.906934       -24.6789
  28   2.0000      -0.869304       -23.6550
  29   2.0000      -0.854792       -23.2601
  30   2.0000      -0.841863       -22.9083
  31   2.0000      -0.810644       -22.0587
  32   2.0000      -0.787481       -21.4285
  33   2.0000      -0.769393       -20.9362
  34   2.0000      -0.715371       -19.4662
  35   2.0000      -0.708528       -19.2800
  36   2.0000      -0.692453       -18.8426
  37   2.0000      -0.656569       -17.8661
  38   2.0000      -0.638961       -17.3870
  39   2.0000      -0.612782       -16.6747
  40   2.0000      -0.598297       -16.2805
  41   2.0000      -0.577099       -15.7037
  42   2.0000      -0.569012       -15.4836
  43   2.0000      -0.561951       -15.2915
  44   2.0000      -0.526857       -14.3365
  45   2.0000      -0.521620       -14.1940
  46   2.0000      -0.521012       -14.1775
  47   2.0000      -0.511577       -13.9207
  48   2.0000      -0.504291       -13.7225
  49   2.0000      -0.497135       -13.5277
  50   2.0000      -0.488427       -13.2908
  51   2.0000      -0.485261       -13.2046
  52   2.0000      -0.476352       -12.9622
  53   2.0000      -0.469238       -12.7686
  54   2.0000      -0.457279       -12.4432
  55   2.0000      -0.447645       -12.1810
  56   2.0000      -0.442072       -12.0294
  57   2.0000      -0.432765       -11.7761
  58   2.0000      -0.430545       -11.7157
  59   2.0000      -0.425423       -11.5763
  60   2.0000      -0.419804       -11.4235
  61   2.0000      -0.415967       -11.3190
  62   2.0000      -0.410014       -11.1570
  63   2.0000      -0.340252        -9.2587
  64   2.0000      -0.334383        -9.0990
  65   2.0000      -0.317000        -8.6260
  66   2.0000      -0.297196        -8.0871
  67   0.0000       0.030967         0.8427
  68   0.0000       0.068287         1.8582
  69   0.0000       0.112976         3.0742
  70   0.0000       0.121715         3.3120
  71   0.0000       0.130382         3.5479

MULLIKEN ATOMIC CHARGES
-----------------------
   0 S :    0.098653
   1 C :   -0.100253
   2 C :   -0.145531
   3 C :    0.029427
   4 C :   -0.124055
   5 H :   -0.000009
   6 C :    0.115538
   7 H :    0.052228
   8 H :    0.017960
   9 C :   -0.133964
  10 H :    0.031369
  11 H :    0.046398
  12 C :   -0.038899
  13 H :    0.019689
  14 H :    0.047495
  15 H :    0.019853
  16 S :    0.113085
  17 C :   -0.092313
  18 C :   -0.067155
  19 C :    0.023230
  20 C :   -0.218774
  21 H :    0.019258
  22 C :    0.088432
  23 H :    0.030941
  24 H :    0.037163
  25 C :   -0.101411
  26 H :    0.019278
  27 H :    0.008675
  28 C :   -0.004590
  29 H :    0.017840
  30 H :    0.041879
  31 H :    0.034692
  32 H :    0.051182
  33 H :    0.062691
Sum of atomic charges:   -0.0000000

LOEWDIN ATOMIC CHARGES
----------------------
   0 S :    0.399284
   1 C :   -0.214529
   2 C :   -0.071477
   3 C :   -0.057547
   4 C :   -0.186872
   5 H :    0.023715
   6 C :   -0.027655
   7 H :    0.036489
   8 H :    0.029619
   9 C :   -0.043629
  10 H :    0.015156
  11 H :    0.035827
  12 C :   -0.071379
  13 H :    0.023022
  14 H :    0.030403
  15 H :    0.022842
  16 S :    0.404770
  17 C :   -0.186105
  18 C :   -0.080086
  19 C :   -0.044314
  20 C :   -0.191861
  21 H :    0.030591
  22 C :   -0.032847
  23 H :    0.035037
  24 H :    0.035688
  25 C :   -0.046598
  26 H :    0.025912
  27 H :    0.016225
  28 C :   -0.056373
  29 H :    0.029044
  30 H :    0.027218
  31 H :    0.027455
  32 H :    0.035127
  33 H :    0.027852

  Mayer bond orders larger than 0.100000
B(  0-S ,  1-C ) :   1.1395 B(  0-S ,  4-C ) :   1.1269 B(  1-C ,  2-C ) :   1.6213
B(  1-C , 32-H ) :   0.9657 B(  2-C ,  3-C ) :   1.2253 B(  2-C ,  6-C ) :   1.0190
B(  3-C ,  4-C ) :   1.5906 B(  3-C ,  5-H ) :   1.0046 B(  4-C , 20-C ) :   1.0549
B(  6-C ,  7-H ) :   0.9301 B(  6-C ,  8-H ) :   0.9413 B(  6-C ,  9-C ) :   1.0556
B(  9-C , 10-H ) :   0.9567 B(  9-C , 11-H ) :   0.9620 B(  9-C , 12-C ) :   1.0827
B( 12-C , 13-H ) :   0.9723 B( 12-C , 14-H ) :   0.9763 B( 12-C , 15-H ) :   0.9731
B( 16-S , 17-C ) :   1.1868 B( 16-S , 20-C ) :   1.1340 B( 17-C , 18-C ) :   1.5724
B( 17-C , 20-C ) :   0.1030 B( 17-C , 33-H ) :   0.9668 B( 18-C , 19-C ) :   1.2453
B( 18-C , 21-H ) :   0.9926 B( 19-C , 20-C ) :   1.5818 B( 19-C , 22-C ) :   1.0376
B( 22-C , 23-H ) :   0.9126 B( 22-C , 24-H ) :   0.9415 B( 22-C , 25-C ) :   1.0823
B( 25-C , 26-H ) :   0.9544 B( 25-C , 27-H ) :   0.9352 B( 25-C , 28-C ) :   1.0818
B( 28-C , 29-H ) :   0.9679 B( 28-C , 30-H ) :   0.9761 B( 28-C , 31-H ) :   0.9744

Dispersion correction           -0.013424178
FINAL SINGLE POINT ENERGY     -1339.862079286682

DIPOLE MOMENT
-------------
                                X             Y             Z
Electronic contribution:     -3.68055     -24.82378      -7.24936
Nuclear contribution   :      3.64510      25.58132       7.06770
                        -----------------------------------------
Total Dipole Moment    :     -0.03545       0.75753      -0.18166
                        -----------------------------------------
Magnitude (a.u.)       :      0.77982
Magnitude (Debye)      :      1.98213

Rotational constants in cm-1:     0.019088     0.007250     0.005915
Rotational constants in MHz :   572.246232   217.347932   177.327593

                             ****ORCA TERMINATED NORMALLY****
TOTAL RUN TIME: 0 days 0 hours 0 minutes 31 seconds 970 msec
