                         Program Version 4.2.1 -  RELEASE  -
|  1> ! wB97X-D3 SP def2-SVP
|  2> %pal
|  3> nprocs 16
|  4> end
|  5>
|  6> * xyz 0 1
|  7> S 	 -101.41 	 54.421 	 114.716
|  8> C 	 -100.284 	 54.6776 	 113.376
|  9> C 	 -98.9652 	 54.6371 	 113.788
| 10> C 	 -98.8629 	 54.6043 	 115.195
| 11> C 	 -100.084 	 54.5027 	 115.878
| 12> H 	 -97.9273 	 54.634 	 115.743
| 13> C 	 -97.7607 	 54.6132 	 112.897
| 14> H 	 -96.8763 	 54.8415 	 113.467
| 15> H 	 -97.8969 	 55.4463 	 112.221
| 16> C 	 -97.6514 	 53.4209 	 111.976
| 17> H 	 -97.4281 	 52.5093 	 112.521
| 18> H 	 -98.4872 	 53.2406 	 111.397
| 19> C 	 -96.3407 	 53.4369 	 111.106
| 20> H 	 -96.4053 	 53.9834 	 110.154
| 21> H 	 -95.6079 	 53.7501 	 111.773
| 22> H 	 -96.0517 	 52.5298 	 110.838
| 23> S 	 -101.257 	 52.8105 	 117.697
| 24> C 	 -101.016 	 53.1342 	 119.38
| 25> C 	 -100.395 	 54.2811 	 119.601
| 26> C 	 -100.067 	 54.9705 	 118.413
| 27> C 	 -100.312 	 54.1902 	 117.289
| 28> H 	 -100.299 	 54.669 	 120.586
| 29> C 	 -99.6071 	 56.4923 	 118.384
| 30> H 	 -100.325 	 56.9459 	 119.088
| 31> H 	 -99.7661 	 56.8039 	 117.339
| 32> C 	 -98.1611 	 56.7663 	 118.995
| 33> H 	 -98.1839 	 56.6548 	 120.135
| 34> H 	 -98.0694 	 57.9092 	 118.842
| 35> C 	 -96.9798 	 56.0155 	 118.391
| 36> H 	 -96.8064 	 56.0189 	 117.39
| 37> H 	 -97.1376 	 54.9703 	 118.579
| 38> H 	 -95.9889 	 56.3747 	 118.718
| 39> H 	 -100.602 	 54.8025 	 112.366
| 40> H 	 -101.482 	 52.5023 	 120.114
| 41> *
| 42>
| 43>                          ****END OF INPUT****

CARTESIAN COORDINATES (ANGSTROEM)
---------------------------------
  S    -101.410000   54.421000  114.716000
  C    -100.284000   54.677600  113.376000
  C    -98.965200   54.637100  113.788000
  C    -98.862900   54.604300  115.195000
  C    -100.084000   54.502700  115.878000
  H    -97.927300   54.634000  115.743000
  C    -97.760700   54.613200  112.897000
  H    -96.876300   54.841500  113.467000
  H    -97.896900   55.446300  112.221000
  C    -97.651400   53.420900  111.976000
  H    -97.428100   52.509300  112.521000
  H    -98.487200   53.240600  111.397000
  C    -96.340700   53.436900  111.106000
  H    -96.405300   53.983400  110.154000
  H    -95.607900   53.750100  111.773000
  H    -96.051700   52.529800  110.838000
  S    -101.257000   52.810500  117.697000
  C    -101.016000   53.134200  119.380000
  C    -100.395000   54.281100  119.601000
  C    -100.067000   54.970500  118.413000
  C    -100.312000   54.190200  117.289000
  H    -100.299000   54.669000  120.586000
  C    -99.607100   56.492300  118.384000
  H    -100.325000   56.945900  119.088000
  H    -99.766100   56.803900  117.339000
  C    -98.161100   56.766300  118.995000
  H    -98.183900   56.654800  120.135000
  H    -98.069400   57.909200  118.842000
  C    -96.979800   56.015500  118.391000
  H    -96.806400   56.018900  117.390000
  H    -97.137600   54.970300  118.579000
  H    -95.988900   56.374700  118.718000
  H    -100.602000   54.802500  112.366000
  H    -101.482000   52.502300  120.114000

 Total Charge           Charge          ....    0
 Multiplicity           Mult            ....    1
 Number of Electrons    NEL             ....  134
 Basis Dimension        Dim             ....  322

ORBITAL ENERGIES
----------------

  NO   OCC          E(Eh)            E(eV)
   0   2.0000     -88.966464     -2420.9006
   1   2.0000     -88.960902     -2420.7492
   2   2.0000     -10.330049      -281.0949
   3   2.0000     -10.320783      -280.8428
   4   2.0000     -10.312416      -280.6151
   5   2.0000     -10.307744      -280.4880
   6   2.0000     -10.304455      -280.3985
   7   2.0000     -10.302082      -280.3339
   8   2.0000     -10.299981      -280.2767
   9   2.0000     -10.298263      -280.2300
  10   2.0000     -10.293809      -280.1088
  11   2.0000     -10.288724      -279.9704
  12   2.0000     -10.283470      -279.8274
  13   2.0000     -10.280445      -279.7451
  14   2.0000     -10.269977      -279.4603
  15   2.0000     -10.264180      -279.3025
  16   2.0000      -8.080560      -219.8832
  17   2.0000      -8.077050      -219.7877
  18   2.0000      -6.039087      -164.3319
  19   2.0000      -6.035435      -164.2325
  20   2.0000      -6.035114      -164.2238
  21   2.0000      -6.031518      -164.1260
  22   2.0000      -6.031398      -164.1227
  23   2.0000      -6.027694      -164.0219
  24   2.0000      -1.010372       -27.4936
  25   2.0000      -0.986003       -26.8305
  26   2.0000      -0.916564       -24.9410
  27   2.0000      -0.895086       -24.3565
  28   2.0000      -0.872168       -23.7329
  29   2.0000      -0.849868       -23.1261
  30   2.0000      -0.847333       -23.0571
  31   2.0000      -0.816951       -22.2304
  32   2.0000      -0.787913       -21.4402
  33   2.0000      -0.775915       -21.1137
  34   2.0000      -0.711850       -19.3704
  35   2.0000      -0.704286       -19.1646
  36   2.0000      -0.693269       -18.8648
  37   2.0000      -0.658589       -17.9211
  38   2.0000      -0.641574       -17.4581
  39   2.0000      -0.619037       -16.8448
  40   2.0000      -0.593075       -16.1384
  41   2.0000      -0.580090       -15.7851
  42   2.0000      -0.561810       -15.2876
  43   2.0000      -0.543648       -14.7934
  44   2.0000      -0.540359       -14.7039
  45   2.0000      -0.525455       -14.2984
  46   2.0000      -0.520844       -14.1729
  47   2.0000      -0.514650       -14.0043
  48   2.0000      -0.508637       -13.8407
  49   2.0000      -0.497405       -13.5351
  50   2.0000      -0.489888       -13.3305
  51   2.0000      -0.483867       -13.1667
  52   2.0000      -0.470792       -12.8109
  53   2.0000      -0.465031       -12.6541
  54   2.0000      -0.455242       -12.3878
  55   2.0000      -0.451999       -12.2995
  56   2.0000      -0.448950       -12.2166
  57   2.0000      -0.445807       -12.1310
  58   2.0000      -0.435743       -11.8572
  59   2.0000      -0.429048       -11.6750
  60   2.0000      -0.423434       -11.5222
  61   2.0000      -0.408748       -11.1226
  62   2.0000      -0.402951       -10.9649
  63   2.0000      -0.346323        -9.4239
  64   2.0000      -0.331483        -9.0201
  65   2.0000      -0.328103        -8.9281
  66   2.0000      -0.290528        -7.9057
  67   0.0000       0.033058         0.8996
  68   0.0000       0.067621         1.8401
  69   0.0000       0.110049         2.9946
  70   0.0000       0.127265         3.4631
  71   0.0000       0.132878         3.6158

MULLIKEN ATOMIC CHARGES
-----------------------
   0 S :    0.103880
   1 C :   -0.123678
   2 C :   -0.072720
   3 C :    0.036486
   4 C :   -0.169214
   5 H :   -0.000195
   6 C :    0.106592
   7 H :    0.011429
   8 H :    0.022890
   9 C :   -0.066121
  10 H :    0.023921
  11 H :    0.014990
  12 C :    0.014174
  13 H :    0.034513
  14 H :    0.007528
  15 H :   -0.009827
  16 S :    0.105442
  17 C :   -0.082895
  18 C :   -0.003488
  19 C :   -0.065706
  20 C :   -0.165566
  21 H :    0.003119
  22 C :    0.072457
  23 H :    0.037847
  24 H :    0.048664
  25 C :   -0.123453
  26 H :    0.045270
  27 H :    0.042984
  28 C :   -0.003243
  29 H :    0.001985
  30 H :    0.035378
  31 H :    0.029758
  32 H :    0.036649
  33 H :    0.050152
Sum of atomic charges:    0.0000000

LOEWDIN ATOMIC CHARGES
----------------------
   0 S :    0.394225
   1 C :   -0.186646
   2 C :   -0.061334
   3 C :   -0.059444
   4 C :   -0.190350
   5 H :    0.029297
   6 C :   -0.030284
   7 H :    0.027492
   8 H :    0.035242
   9 C :   -0.025856
  10 H :    0.027132
  11 H :    0.012251
  12 C :   -0.048217
  13 H :    0.027051
  14 H :    0.019508
  15 H :    0.005986
  16 S :    0.415887
  17 C :   -0.179208
  18 C :   -0.074709
  19 C :   -0.060086
  20 C :   -0.216652
  21 H :    0.028959
  22 C :   -0.023819
  23 H :    0.036738
  24 H :    0.034279
  25 C :   -0.049184
  26 H :    0.031566
  27 H :    0.031225
  28 C :   -0.070347
  29 H :    0.009970
  30 H :    0.028579
  31 H :    0.034378
  32 H :    0.020573
  33 H :    0.025799

  Mayer bond orders larger than 0.100000
B(  0-S ,  1-C ) :   1.1401 B(  0-S ,  4-C ) :   1.1558 B(  1-C ,  2-C ) :   1.5852
B(  1-C ,  4-C ) :   0.1033 B(  1-C , 32-H ) :   0.9746 B(  2-C ,  3-C ) :   1.2720
B(  2-C ,  6-C ) :   1.0213 B(  3-C ,  4-C ) :   1.5525 B(  3-C ,  5-H ) :   0.9923
B(  4-C , 20-C ) :   1.0319 B(  6-C ,  7-H ) :   0.9385 B(  6-C ,  8-H ) :   0.9289
B(  6-C ,  9-C ) :   1.0710 B(  9-C , 10-H ) :   0.9584 B(  9-C , 11-H ) :   0.9592
B(  9-C , 12-C ) :   1.0776 B( 12-C , 13-H ) :   0.9747 B( 12-C , 14-H ) :   0.9719
B( 12-C , 15-H ) :   0.9732 B( 16-S , 17-C ) :   1.1508 B( 16-S , 20-C ) :   1.1509
B( 17-C , 18-C ) :   1.6207 B( 17-C , 33-H ) :   0.9684 B( 18-C , 19-C ) :   1.2400
B( 18-C , 21-H ) :   0.9992 B( 19-C , 20-C ) :   1.5925 B( 19-C , 22-C ) :   1.0184
B( 22-C , 23-H ) :   0.9398 B( 22-C , 24-H ) :   0.9395 B( 22-C , 25-C ) :   1.0595
B( 25-C , 26-H ) :   0.9569 B( 25-C , 27-H ) :   0.9576 B( 25-C , 28-C ) :   1.0684
B( 28-C , 29-H ) :   0.9701 B( 28-C , 30-H ) :   0.9710 B( 28-C , 31-H ) :   0.9662

Dispersion correction           -0.014364630
FINAL SINGLE POINT ENERGY     -1339.853027166227

DIPOLE MOMENT
-------------
                                X             Y             Z
Electronic contribution:    -24.62510      -8.05640       7.28317
Nuclear contribution   :     25.08413       8.25115      -7.29896
                        -----------------------------------------
Total Dipole Moment    :      0.45903       0.19474      -0.01580
                        -----------------------------------------
Magnitude (a.u.)       :      0.49888
Magnitude (Debye)      :      1.26806

Rotational constants in cm-1:     0.019941     0.007995     0.006575
Rotational constants in MHz :   597.804931   239.698991   197.100712

                             ****ORCA TERMINATED NORMALLY****
TOTAL RUN TIME: 0 days 0 hours 0 minutes 35 seconds 35 msec
