                         Program Version 4.2.1 -  RELEASE  -
|  1> ! wB97X-D3 SP def2-SVP
|  2> %pal
|  3> nprocs 16
|  4> end
|  5>
|  6> * xyz 0 1
|  7> S 	 5.97078 	 75.8954 	 47.942
|  8> C 	 4.82751 	 74.7188 	 47.2911
|  9> C 	 5.40727 	 73.4643 	 47.3822
| 10> C 	 6.76079 	 73.4371 	 48.007
| 11> C 	 7.22065 	 74.6699 	 48.4106
| 12> H 	 7.38319 	 72.6258 	 48.2305
| 13> C 	 4.73995 	 72.1325 	 46.9509
| 14> H 	 3.77734 	 72.3201 	 46.4209
| 15> H 	 4.54481 	 71.4858 	 47.9476
| 16> C 	 5.54718 	 71.2907 	 45.9308
| 17> H 	 5.51903 	 71.808 	 45.0355
| 18> H 	 6.57654 	 71.2154 	 46.1591
| 19> C 	 4.97178 	 69.7798 	 45.8331
| 20> H 	 4.00012 	 69.8886 	 45.3999
| 21> H 	 5.49255 	 69.1945 	 45.1426
| 22> H 	 4.80491 	 69.23 	 46.752
| 23> S 	 9.95576 	 74.8559 	 48.1016
| 24> C 	 10.8766 	 75.0162 	 49.5882
| 25> C 	 10.1171 	 75.1566 	 50.7337
| 26> C 	 8.72794 	 75.0869 	 50.422
| 27> C 	 8.46797 	 74.9161 	 49.0778
| 28> H 	 10.6157 	 75.3588 	 51.7033
| 29> C 	 7.70113 	 75.3127 	 51.5127
| 30> H 	 7.00899 	 75.9477 	 50.9825
| 31> H 	 8.08939 	 75.9793 	 52.2518
| 32> C 	 7.31731 	 73.9827 	 52.1801
| 33> H 	 8.28917 	 73.4716 	 52.3519
| 34> H 	 6.76303 	 73.2917 	 51.5556
| 35> C 	 6.6005 	 74.1632 	 53.5265
| 36> H 	 6.58117 	 73.3695 	 54.284
| 37> H 	 5.59619 	 74.4908 	 53.3468
| 38> H 	 7.01193 	 74.9905 	 54.0925
| 39> H 	 3.86557 	 74.8841 	 46.7951
| 40> H 	 11.9712 	 75.044 	 49.6521
| 41> *
| 42>
| 43>                          ****END OF INPUT****

CARTESIAN COORDINATES (ANGSTROEM)
---------------------------------
  S      5.970780   75.895400   47.942000
  C      4.827510   74.718800   47.291100
  C      5.407270   73.464300   47.382200
  C      6.760790   73.437100   48.007000
  C      7.220650   74.669900   48.410600
  H      7.383190   72.625800   48.230500
  C      4.739950   72.132500   46.950900
  H      3.777340   72.320100   46.420900
  H      4.544810   71.485800   47.947600
  C      5.547180   71.290700   45.930800
  H      5.519030   71.808000   45.035500
  H      6.576540   71.215400   46.159100
  C      4.971780   69.779800   45.833100
  H      4.000120   69.888600   45.399900
  H      5.492550   69.194500   45.142600
  H      4.804910   69.230000   46.752000
  S      9.955760   74.855900   48.101600
  C     10.876600   75.016200   49.588200
  C     10.117100   75.156600   50.733700
  C      8.727940   75.086900   50.422000
  C      8.467970   74.916100   49.077800
  H     10.615700   75.358800   51.703300
  C      7.701130   75.312700   51.512700
  H      7.008990   75.947700   50.982500
  H      8.089390   75.979300   52.251800
  C      7.317310   73.982700   52.180100
  H      8.289170   73.471600   52.351900
  H      6.763030   73.291700   51.555600
  C      6.600500   74.163200   53.526500
  H      6.581170   73.369500   54.284000
  H      5.596190   74.490800   53.346800
  H      7.011930   74.990500   54.092500
  H      3.865570   74.884100   46.795100
  H     11.971200   75.044000   49.652100

 Total Charge           Charge          ....    0
 Multiplicity           Mult            ....    1
 Number of Electrons    NEL             ....  134
 Basis Dimension        Dim             ....  322

ORBITAL ENERGIES
----------------

  NO   OCC          E(Eh)            E(eV)
   0   2.0000     -88.970607     -2421.0133
   1   2.0000     -88.962879     -2420.8030
   2   2.0000     -10.331909      -281.1455
   3   2.0000     -10.325695      -280.9764
   4   2.0000     -10.321002      -280.8487
   5   2.0000     -10.320814      -280.8436
   6   2.0000     -10.310084      -280.5517
   7   2.0000     -10.307578      -280.4835
   8   2.0000     -10.304190      -280.3913
   9   2.0000     -10.296600      -280.1847
  10   2.0000     -10.295905      -280.1658
  11   2.0000     -10.289352      -279.9875
  12   2.0000     -10.286900      -279.9208
  13   2.0000     -10.283415      -279.8259
  14   2.0000     -10.275196      -279.6023
  15   2.0000     -10.273102      -279.5453
  16   2.0000      -8.084684      -219.9954
  17   2.0000      -8.076210      -219.7648
  18   2.0000      -6.043197      -164.4437
  19   2.0000      -6.039436      -164.3414
  20   2.0000      -6.035321      -164.2294
  21   2.0000      -6.035052      -164.2221
  22   2.0000      -6.030796      -164.1063
  23   2.0000      -6.026770      -163.9968
  24   2.0000      -1.002222       -27.2719
  25   2.0000      -0.975655       -26.5489
  26   2.0000      -0.909292       -24.7431
  27   2.0000      -0.899382       -24.4734
  28   2.0000      -0.872664       -23.7464
  29   2.0000      -0.851063       -23.1586
  30   2.0000      -0.834639       -22.7117
  31   2.0000      -0.815396       -22.1881
  32   2.0000      -0.780960       -21.2510
  33   2.0000      -0.769015       -20.9260
  34   2.0000      -0.711977       -19.3739
  35   2.0000      -0.704493       -19.1702
  36   2.0000      -0.695094       -18.9145
  37   2.0000      -0.662902       -18.0385
  38   2.0000      -0.642453       -17.4820
  39   2.0000      -0.613202       -16.6861
  40   2.0000      -0.591942       -16.1076
  41   2.0000      -0.565525       -15.3887
  42   2.0000      -0.559399       -15.2220
  43   2.0000      -0.556399       -15.1404
  44   2.0000      -0.525324       -14.2948
  45   2.0000      -0.518862       -14.1190
  46   2.0000      -0.516187       -14.0462
  47   2.0000      -0.511592       -13.9211
  48   2.0000      -0.508419       -13.8348
  49   2.0000      -0.500444       -13.6178
  50   2.0000      -0.491365       -13.3707
  51   2.0000      -0.477244       -12.9865
  52   2.0000      -0.464917       -12.6510
  53   2.0000      -0.462729       -12.5915
  54   2.0000      -0.456694       -12.4273
  55   2.0000      -0.448613       -12.2074
  56   2.0000      -0.442124       -12.0308
  57   2.0000      -0.439164       -11.9503
  58   2.0000      -0.436140       -11.8680
  59   2.0000      -0.430320       -11.7096
  60   2.0000      -0.424090       -11.5401
  61   2.0000      -0.408927       -11.1275
  62   2.0000      -0.404542       -11.0081
  63   2.0000      -0.338921        -9.2225
  64   2.0000      -0.332625        -9.0512
  65   2.0000      -0.319626        -8.6975
  66   2.0000      -0.309079        -8.4105
  67   0.0000       0.040338         1.0977
  68   0.0000       0.052906         1.4396
  69   0.0000       0.105216         2.8631
  70   0.0000       0.115184         3.1343
  71   0.0000       0.129274         3.5177

MULLIKEN ATOMIC CHARGES
-----------------------
   0 S :    0.088710
   1 C :   -0.113181
   2 C :   -0.076005
   3 C :    0.066421
   4 C :   -0.161945
   5 H :    0.000033
   6 C :   -0.009799
   7 H :    0.027289
   8 H :    0.060978
   9 C :   -0.048871
  10 H :    0.017801
  11 H :    0.024207
  12 C :   -0.036175
  13 H :    0.015460
  14 H :    0.023698
  15 H :    0.036481
  16 S :    0.124984
  17 C :   -0.095506
  18 C :   -0.045922
  19 C :   -0.047927
  20 C :   -0.200762
  21 H :    0.036420
  22 C :    0.128526
  23 H :    0.019263
  24 H :    0.005159
  25 C :   -0.062833
  26 H :    0.027856
  27 H :    0.037013
  28 C :   -0.030679
  29 H :    0.037058
  30 H :    0.025005
  31 H :    0.009854
  32 H :    0.059348
  33 H :    0.058040
Sum of atomic charges:   -0.0000000

LOEWDIN ATOMIC CHARGES
----------------------
   0 S :    0.364553
   1 C :   -0.196577
   2 C :   -0.066155
   3 C :   -0.048889
   4 C :   -0.179277
   5 H :    0.023601
   6 C :   -0.040765
   7 H :    0.029287
   8 H :    0.044380
   9 C :   -0.028964
  10 H :    0.017259
  11 H :    0.014721
  12 C :   -0.059666
  13 H :    0.021890
  14 H :    0.017853
  15 H :    0.026471
  16 S :    0.399469
  17 C :   -0.178006
  18 C :   -0.078851
  19 C :   -0.041042
  20 C :   -0.203867
  21 H :    0.041446
  22 C :   -0.025997
  23 H :    0.028027
  24 H :    0.026912
  25 C :   -0.034472
  26 H :    0.028628
  27 H :    0.025991
  28 C :   -0.072148
  29 H :    0.027939
  30 H :    0.024054
  31 H :    0.021298
  32 H :    0.040072
  33 H :    0.030829

  Mayer bond orders larger than 0.100000
B(  0-S ,  1-C ) :   1.1182 B(  0-S ,  4-C ) :   1.1022 B(  1-C ,  2-C ) :   1.6509
B(  1-C , 32-H ) :   0.9661 B(  2-C ,  3-C ) :   1.1724 B(  2-C ,  6-C ) :   1.0245
B(  3-C ,  4-C ) :   1.6386 B(  3-C ,  5-H ) :   0.9967 B(  4-C , 20-C ) :   1.0518
B(  6-C ,  7-H ) :   0.9489 B(  6-C ,  8-H ) :   0.9478 B(  6-C ,  9-C ) :   1.0428
B(  9-C , 10-H ) :   0.9569 B(  9-C , 11-H ) :   0.9655 B(  9-C , 12-C ) :   1.0659
B( 12-C , 13-H ) :   0.9757 B( 12-C , 14-H ) :   0.9773 B( 12-C , 15-H ) :   0.9802
B( 16-S , 17-C ) :   1.1578 B( 16-S , 20-C ) :   1.1215 B( 17-C , 18-C ) :   1.6324
B( 17-C , 33-H ) :   0.9597 B( 18-C , 19-C ) :   1.2274 B( 18-C , 21-H ) :   0.9832
B( 19-C , 20-C ) :   1.6235 B( 19-C , 22-C ) :   1.0301 B( 22-C , 23-H ) :   0.9248
B( 22-C , 24-H ) :   0.9360 B( 22-C , 25-C ) :   1.0425 B( 25-C , 26-H ) :   0.9580
B( 25-C , 27-H ) :   0.9581 B( 25-C , 28-C ) :   1.0762 B( 28-C , 29-H ) :   0.9771
B( 28-C , 30-H ) :   0.9724 B( 28-C , 31-H ) :   0.9718

Dispersion correction           -0.014105788
FINAL SINGLE POINT ENERGY     -1339.859939893990

DIPOLE MOMENT
-------------
                                X             Y             Z
Electronic contribution:     12.29036      18.43918      -8.63525
Nuclear contribution   :    -12.30134     -18.83774       8.90128
                        -----------------------------------------
Total Dipole Moment    :     -0.01098      -0.39856       0.26602
                        -----------------------------------------
Magnitude (a.u.)       :      0.47931
Magnitude (Debye)      :      1.21832

Rotational constants in cm-1:     0.016902     0.007899     0.007065
Rotational constants in MHz :   506.702427   236.819557   211.796117

                             ****ORCA TERMINATED NORMALLY****
TOTAL RUN TIME: 0 days 0 hours 0 minutes 31 seconds 494 msec
