                         Program Version 4.2.1 -  RELEASE  -
|  1> ! wB97X-D3 SP def2-SVP
|  2> %pal
|  3> nprocs 16
|  4> end
|  5>
|  6> * xyz 0 1
|  7> S 	 -16.6407 	 31.0639 	 36.7967
|  8> C 	 -16.5713 	 32.6147 	 37.6369
|  9> C 	 -17.3536 	 33.547 	 37.0077
| 10> C 	 -17.9901 	 33.1271 	 35.7817
| 11> C 	 -17.5623 	 31.8705 	 35.4572
| 12> H 	 -18.7157 	 33.6809 	 35.1922
| 13> C 	 -17.6978 	 34.8538 	 37.7074
| 14> H 	 -17.4312 	 34.7994 	 38.7796
| 15> H 	 -18.7758 	 34.9094 	 37.736
| 16> C 	 -17.016 	 36.1719 	 37.1158
| 17> H 	 -15.9782 	 36.2131 	 37.3789
| 18> H 	 -17.0322 	 36.3092 	 36.0352
| 19> C 	 -17.7586 	 37.396 	 37.5626
| 20> H 	 -18.8304 	 37.3765 	 37.3001
| 21> H 	 -17.6072 	 37.4269 	 38.6573
| 22> H 	 -17.495 	 38.2752 	 37.0854
| 23> S 	 -18.42 	 29.5322 	 34.3668
| 24> C 	 -18.371 	 29.3513 	 32.626
| 25> C 	 -17.8906 	 30.4686 	 31.9987
| 26> C 	 -17.566 	 31.5115 	 32.9007
| 27> C 	 -17.7831 	 31.1659 	 34.211
| 28> H 	 -17.732 	 30.5155 	 30.9014
| 29> C 	 -16.8868 	 32.7505 	 32.4269
| 30> H 	 -15.9773 	 32.3423 	 31.9211
| 31> H 	 -16.39 	 33.1948 	 33.3394
| 32> C 	 -17.6414 	 33.6169 	 31.4003
| 33> H 	 -18.1782 	 33.0613 	 30.6577
| 34> H 	 -16.8671 	 34.1486 	 30.8826
| 35> C 	 -18.6422 	 34.5804 	 32.1078
| 36> H 	 -19.3492 	 35.0391 	 31.4345
| 37> H 	 -18.2974 	 35.3086 	 32.7505
| 38> H 	 -19.3741 	 34.1055 	 32.6946
| 39> H 	 -16.1051 	 32.7527 	 38.6401
| 40> H 	 -18.5932 	 28.4276 	 32.0204
| 41> *
| 42>
| 43>                          ****END OF INPUT****

CARTESIAN COORDINATES (ANGSTROEM)
---------------------------------
  S    -16.640700   31.063900   36.796700
  C    -16.571300   32.614700   37.636900
  C    -17.353600   33.547000   37.007700
  C    -17.990100   33.127100   35.781700
  C    -17.562300   31.870500   35.457200
  H    -18.715700   33.680900   35.192200
  C    -17.697800   34.853800   37.707400
  H    -17.431200   34.799400   38.779600
  H    -18.775800   34.909400   37.736000
  C    -17.016000   36.171900   37.115800
  H    -15.978200   36.213100   37.378900
  H    -17.032200   36.309200   36.035200
  C    -17.758600   37.396000   37.562600
  H    -18.830400   37.376500   37.300100
  H    -17.607200   37.426900   38.657300
  H    -17.495000   38.275200   37.085400
  S    -18.420000   29.532200   34.366800
  C    -18.371000   29.351300   32.626000
  C    -17.890600   30.468600   31.998700
  C    -17.566000   31.511500   32.900700
  C    -17.783100   31.165900   34.211000
  H    -17.732000   30.515500   30.901400
  C    -16.886800   32.750500   32.426900
  H    -15.977300   32.342300   31.921100
  H    -16.390000   33.194800   33.339400
  C    -17.641400   33.616900   31.400300
  H    -18.178200   33.061300   30.657700
  H    -16.867100   34.148600   30.882600
  C    -18.642200   34.580400   32.107800
  H    -19.349200   35.039100   31.434500
  H    -18.297400   35.308600   32.750500
  H    -19.374100   34.105500   32.694600
  H    -16.105100   32.752700   38.640100
  H    -18.593200   28.427600   32.020400

 Total Charge           Charge          ....    0
 Multiplicity           Mult            ....    1
 Number of Electrons    NEL             ....  134
 Basis Dimension        Dim             ....  322

ORBITAL ENERGIES
----------------

  NO   OCC          E(Eh)            E(eV)
   0   2.0000     -88.964016     -2420.8339
   1   2.0000     -88.963261     -2420.8134
   2   2.0000     -10.331711      -281.1402
   3   2.0000     -10.320866      -280.8450
   4   2.0000     -10.319104      -280.7971
   5   2.0000     -10.315305      -280.6937
   6   2.0000     -10.300278      -280.2848
   7   2.0000     -10.297519      -280.2097
   8   2.0000     -10.297335      -280.2047
   9   2.0000     -10.295515      -280.1552
  10   2.0000     -10.293511      -280.1007
  11   2.0000     -10.292530      -280.0740
  12   2.0000     -10.291743      -280.0526
  13   2.0000     -10.284590      -279.8579
  14   2.0000     -10.271503      -279.5018
  15   2.0000     -10.267541      -279.3940
  16   2.0000      -8.078749      -219.8339
  17   2.0000      -8.077112      -219.7894
  18   2.0000      -6.037326      -164.2840
  19   2.0000      -6.035759      -164.2414
  20   2.0000      -6.033347      -164.1757
  21   2.0000      -6.032011      -164.1394
  22   2.0000      -6.029353      -164.0670
  23   2.0000      -6.027504      -164.0167
  24   2.0000      -1.005435       -27.3593
  25   2.0000      -0.980570       -26.6827
  26   2.0000      -0.909026       -24.7358
  27   2.0000      -0.905255       -24.6332
  28   2.0000      -0.871038       -23.7022
  29   2.0000      -0.853140       -23.2151
  30   2.0000      -0.846919       -23.0458
  31   2.0000      -0.817727       -22.2515
  32   2.0000      -0.784907       -21.3584
  33   2.0000      -0.765824       -20.8391
  34   2.0000      -0.717146       -19.5145
  35   2.0000      -0.701260       -19.0823
  36   2.0000      -0.695508       -18.9257
  37   2.0000      -0.658765       -17.9259
  38   2.0000      -0.639732       -17.4080
  39   2.0000      -0.618367       -16.8266
  40   2.0000      -0.593926       -16.1615
  41   2.0000      -0.561770       -15.2865
  42   2.0000      -0.560010       -15.2387
  43   2.0000      -0.546276       -14.8649
  44   2.0000      -0.538449       -14.6519
  45   2.0000      -0.528168       -14.3722
  46   2.0000      -0.522267       -14.2116
  47   2.0000      -0.510028       -13.8786
  48   2.0000      -0.505041       -13.7429
  49   2.0000      -0.496536       -13.5114
  50   2.0000      -0.490950       -13.3594
  51   2.0000      -0.482189       -13.1210
  52   2.0000      -0.470941       -12.8150
  53   2.0000      -0.462325       -12.5805
  54   2.0000      -0.454245       -12.3606
  55   2.0000      -0.452397       -12.3104
  56   2.0000      -0.448612       -12.2074
  57   2.0000      -0.440464       -11.9856
  58   2.0000      -0.433615       -11.7993
  59   2.0000      -0.421447       -11.4682
  60   2.0000      -0.420434       -11.4406
  61   2.0000      -0.415974       -11.3192
  62   2.0000      -0.409485       -11.1426
  63   2.0000      -0.346666        -9.4333
  64   2.0000      -0.330648        -8.9974
  65   2.0000      -0.327852        -8.9213
  66   2.0000      -0.290691        -7.9101
  67   0.0000       0.029846         0.8121
  68   0.0000       0.070075         1.9068
  69   0.0000       0.104206         2.8356
  70   0.0000       0.122673         3.3381
  71   0.0000       0.130145         3.5414

MULLIKEN ATOMIC CHARGES
-----------------------
   0 S :    0.090433
   1 C :   -0.131527
   2 C :   -0.073123
   3 C :    0.046402
   4 C :   -0.143317
   5 H :    0.018216
   6 C :    0.032457
   7 H :    0.020725
   8 H :    0.028113
   9 C :   -0.058458
  10 H :    0.028303
  11 H :    0.023124
  12 C :   -0.039110
  13 H :    0.026436
  14 H :    0.031596
  15 H :    0.013867
  16 S :    0.101012
  17 C :   -0.098867
  18 C :   -0.053602
  19 C :   -0.009797
  20 C :   -0.174126
  21 H :    0.030242
  22 C :   -0.000394
  23 H :    0.033291
  24 H :    0.045604
  25 C :   -0.001765
  26 H :    0.026122
  27 H :    0.026967
  28 C :   -0.013691
  29 H :    0.014398
  30 H :    0.014374
  31 H :    0.008316
  32 H :    0.065813
  33 H :    0.071965
Sum of atomic charges:   -0.0000000

LOEWDIN ATOMIC CHARGES
----------------------
   0 S :    0.359763
   1 C :   -0.197802
   2 C :   -0.066039
   3 C :   -0.054696
   4 C :   -0.164888
   5 H :    0.037351
   6 C :   -0.027918
   7 H :    0.031124
   8 H :    0.029296
   9 C :   -0.040017
  10 H :    0.022052
  11 H :    0.021859
  12 C :   -0.064874
  13 H :    0.027500
  14 H :    0.026343
  15 H :    0.014252
  16 S :    0.394869
  17 C :   -0.190354
  18 C :   -0.078278
  19 C :   -0.059942
  20 C :   -0.199822
  21 H :    0.037205
  22 C :   -0.041819
  23 H :    0.038183
  24 H :    0.042170
  25 C :   -0.023950
  26 H :    0.025381
  27 H :    0.025545
  28 C :   -0.065617
  29 H :    0.027247
  30 H :    0.014591
  31 H :    0.020480
  32 H :    0.038104
  33 H :    0.042703

  Mayer bond orders larger than 0.100000
B(  0-S ,  1-C ) :   1.1066 B(  0-S ,  4-C ) :   1.1248 B(  1-C ,  2-C ) :   1.6569
B(  1-C , 32-H ) :   0.9614 B(  2-C ,  3-C ) :   1.1843 B(  2-C ,  6-C ) :   1.0256
B(  3-C ,  4-C ) :   1.6057 B(  3-C ,  5-H ) :   1.0005 B(  4-C , 20-C ) :   1.0359
B(  6-C ,  7-H ) :   0.9455 B(  6-C ,  8-H ) :   0.9510 B(  6-C ,  9-C ) :   1.0360
B(  9-C , 10-H ) :   0.9570 B(  9-C , 11-H ) :   0.9655 B(  9-C , 12-C ) :   1.0829
B( 12-C , 13-H ) :   0.9734 B( 12-C , 14-H ) :   0.9755 B( 12-C , 15-H ) :   0.9728
B( 16-S , 17-C ) :   1.1423 B( 16-S , 20-C ) :   1.1246 B( 17-C , 18-C ) :   1.6367
B( 17-C , 33-H ) :   0.9571 B( 18-C , 19-C ) :   1.2278 B( 18-C , 21-H ) :   0.9805
B( 19-C , 20-C ) :   1.6116 B( 19-C , 22-C ) :   1.0403 B( 22-C , 23-H ) :   0.9350
B( 22-C , 24-H ) :   0.9383 B( 22-C , 25-C ) :   1.0537 B( 25-C , 26-H ) :   0.9592
B( 25-C , 27-H ) :   0.9554 B( 25-C , 28-C ) :   1.0684 B( 28-C , 29-H ) :   0.9671
B( 28-C , 30-H ) :   0.9790 B( 28-C , 31-H ) :   0.9677

Dispersion correction           -0.014517036
FINAL SINGLE POINT ENERGY     -1339.864980958997

DIPOLE MOMENT
-------------
                                X             Y             Z
Electronic contribution:      1.67882     -31.15236       4.65296
Nuclear contribution   :     -1.71647      31.76304      -5.00266
                        -----------------------------------------
Total Dipole Moment    :     -0.03766       0.61068      -0.34970
                        -----------------------------------------
Magnitude (a.u.)       :      0.70473
Magnitude (Debye)      :      1.79127

Rotational constants in cm-1:     0.018620     0.009151     0.006582
Rotational constants in MHz :   558.214660   274.345622   197.322729

                             ****ORCA TERMINATED NORMALLY****
TOTAL RUN TIME: 0 days 0 hours 0 minutes 32 seconds 26 msec
