                         Program Version 4.2.1 -  RELEASE  -
|  1> ! wB97X-D3 SP def2-SVP
|  2> %pal
|  3> nprocs 16
|  4> end
|  5>
|  6> * xyz 0 1
|  7> S 	 -98.4178 	 40.9379 	 120.231
|  8> C 	 -98.8696 	 41.3748 	 121.833
|  9> C 	 -97.6968 	 41.5672 	 122.589
| 10> C 	 -96.4871 	 41.1918 	 121.967
| 11> C 	 -96.6294 	 40.7498 	 120.635
| 12> H 	 -95.458 	 41.0958 	 122.38
| 13> C 	 -97.7119 	 42.0397 	 124.03
| 14> H 	 -96.7013 	 41.9197 	 124.408
| 15> H 	 -98.3177 	 41.3504 	 124.616
| 16> C 	 -98.2376 	 43.5007 	 124.184
| 17> H 	 -99.2509 	 43.6766 	 123.914
| 18> H 	 -98.225 	 43.8759 	 125.235
| 19> C 	 -97.3937 	 44.5069 	 123.357
| 20> H 	 -97.6026 	 45.5856 	 123.428
| 21> H 	 -96.2978 	 44.4021 	 123.48
| 22> H 	 -97.5647 	 44.2349 	 122.286
| 23> S 	 -94.5467 	 39.1823 	 120.042
| 24> C 	 -93.4228 	 39.6128 	 118.801
| 25> C 	 -93.9775 	 40.5732 	 117.956
| 26> C 	 -95.1132 	 41.1833 	 118.566
| 27> C 	 -95.5485 	 40.5726 	 119.721
| 28> H 	 -93.4497 	 40.8414 	 117.061
| 29> C 	 -95.7844 	 42.3933 	 117.972
| 30> H 	 -96.6935 	 42.516 	 118.594
| 31> H 	 -95.9574 	 42.0422 	 116.944
| 32> C 	 -95.0016 	 43.7247 	 118.023
| 33> H 	 -94.3696 	 43.7914 	 118.929
| 34> H 	 -95.7092 	 44.5466 	 118.319
| 35> C 	 -94.3012 	 44.077 	 116.706
| 36> H 	 -94.0454 	 45.1799 	 116.688
| 37> H 	 -94.9596 	 43.8432 	 115.869
| 38> H 	 -93.4893 	 43.5345 	 116.623
| 39> H 	 -99.9345 	 41.5248 	 122.067
| 40> H 	 -92.6251 	 38.9383 	 118.575
| 41> *
| 42>
| 43>                          ****END OF INPUT****

CARTESIAN COORDINATES (ANGSTROEM)
---------------------------------
  S    -98.417800   40.937900  120.231000
  C    -98.869600   41.374800  121.833000
  C    -97.696800   41.567200  122.589000
  C    -96.487100   41.191800  121.967000
  C    -96.629400   40.749800  120.635000
  H    -95.458000   41.095800  122.380000
  C    -97.711900   42.039700  124.030000
  H    -96.701300   41.919700  124.408000
  H    -98.317700   41.350400  124.616000
  C    -98.237600   43.500700  124.184000
  H    -99.250900   43.676600  123.914000
  H    -98.225000   43.875900  125.235000
  C    -97.393700   44.506900  123.357000
  H    -97.602600   45.585600  123.428000
  H    -96.297800   44.402100  123.480000
  H    -97.564700   44.234900  122.286000
  S    -94.546700   39.182300  120.042000
  C    -93.422800   39.612800  118.801000
  C    -93.977500   40.573200  117.956000
  C    -95.113200   41.183300  118.566000
  C    -95.548500   40.572600  119.721000
  H    -93.449700   40.841400  117.061000
  C    -95.784400   42.393300  117.972000
  H    -96.693500   42.516000  118.594000
  H    -95.957400   42.042200  116.944000
  C    -95.001600   43.724700  118.023000
  H    -94.369600   43.791400  118.929000
  H    -95.709200   44.546600  118.319000
  C    -94.301200   44.077000  116.706000
  H    -94.045400   45.179900  116.688000
  H    -94.959600   43.843200  115.869000
  H    -93.489300   43.534500  116.623000
  H    -99.934500   41.524800  122.067000
  H    -92.625100   38.938300  118.575000

 Total Charge           Charge          ....    0
 Multiplicity           Mult            ....    1
 Number of Electrons    NEL             ....  134
 Basis Dimension        Dim             ....  322

ORBITAL ENERGIES
----------------

  NO   OCC          E(Eh)            E(eV)
   0   2.0000     -88.968501     -2420.9560
   1   2.0000     -88.961285     -2420.7596
   2   2.0000     -10.335911      -281.2544
   3   2.0000     -10.323801      -280.9249
   4   2.0000     -10.321361      -280.8585
   5   2.0000     -10.315485      -280.6986
   6   2.0000     -10.306396      -280.4513
   7   2.0000     -10.303207      -280.3645
   8   2.0000     -10.299937      -280.2755
   9   2.0000     -10.295326      -280.1501
  10   2.0000     -10.294196      -280.1193
  11   2.0000     -10.290208      -280.0108
  12   2.0000     -10.287574      -279.9391
  13   2.0000     -10.286246      -279.9030
  14   2.0000     -10.277745      -279.6717
  15   2.0000     -10.270384      -279.4713
  16   2.0000      -8.081836      -219.9179
  17   2.0000      -8.076879      -219.7830
  18   2.0000      -6.040272      -164.3642
  19   2.0000      -6.036294      -164.2559
  20   2.0000      -6.035193      -164.2259
  21   2.0000      -6.032970      -164.1655
  22   2.0000      -6.031307      -164.1202
  23   2.0000      -6.027740      -164.0231
  24   2.0000      -1.007456       -27.4143
  25   2.0000      -0.983778       -26.7700
  26   2.0000      -0.906428       -24.6652
  27   2.0000      -0.905315       -24.6349
  28   2.0000      -0.875206       -23.8156
  29   2.0000      -0.851246       -23.1636
  30   2.0000      -0.843958       -22.9653
  31   2.0000      -0.812345       -22.1050
  32   2.0000      -0.780313       -21.2334
  33   2.0000      -0.766290       -20.8518
  34   2.0000      -0.709074       -19.2949
  35   2.0000      -0.702405       -19.1134
  36   2.0000      -0.694154       -18.8889
  37   2.0000      -0.669121       -18.2077
  38   2.0000      -0.645531       -17.5658
  39   2.0000      -0.608049       -16.5459
  40   2.0000      -0.587459       -15.9856
  41   2.0000      -0.569400       -15.4942
  42   2.0000      -0.552581       -15.0365
  43   2.0000      -0.551077       -14.9956
  44   2.0000      -0.544052       -14.8044
  45   2.0000      -0.537792       -14.6341
  46   2.0000      -0.519597       -14.1390
  47   2.0000      -0.514812       -14.0087
  48   2.0000      -0.507371       -13.8063
  49   2.0000      -0.496519       -13.5110
  50   2.0000      -0.482690       -13.1347
  51   2.0000      -0.479985       -13.0611
  52   2.0000      -0.474936       -12.9237
  53   2.0000      -0.461438       -12.5564
  54   2.0000      -0.458446       -12.4749
  55   2.0000      -0.447586       -12.1794
  56   2.0000      -0.442655       -12.0453
  57   2.0000      -0.437093       -11.8939
  58   2.0000      -0.434524       -11.8240
  59   2.0000      -0.423817       -11.5327
  60   2.0000      -0.417018       -11.3476
  61   2.0000      -0.407456       -11.0875
  62   2.0000      -0.399598       -10.8736
  63   2.0000      -0.347397        -9.4532
  64   2.0000      -0.330386        -8.9903
  65   2.0000      -0.325139        -8.8475
  66   2.0000      -0.293139        -7.9767
  67   0.0000       0.024756         0.6737
  68   0.0000       0.057771         1.5720
  69   0.0000       0.101700         2.7674
  70   0.0000       0.118226         3.2171
  71   0.0000       0.130705         3.5567

MULLIKEN ATOMIC CHARGES
-----------------------
   0 S :    0.101913
   1 C :   -0.128570
   2 C :   -0.100858
   3 C :    0.027263
   4 C :   -0.155804
   5 H :    0.041463
   6 C :    0.092277
   7 H :    0.020250
   8 H :    0.038160
   9 C :   -0.060451
  10 H :    0.022123
  11 H :    0.031637
  12 C :   -0.100167
  13 H :    0.040199
  14 H :    0.029695
  15 H :    0.041128
  16 S :    0.097421
  17 C :   -0.093001
  18 C :   -0.032154
  19 C :   -0.055508
  20 C :   -0.175321
  21 H :    0.021235
  22 C :    0.064006
  23 H :    0.022893
  24 H :    0.037055
  25 C :   -0.090274
  26 H :    0.029144
  27 H :    0.026898
  28 C :    0.007108
  29 H :    0.042466
  30 H :    0.027181
  31 H :   -0.001198
  32 H :    0.074924
  33 H :    0.056867
Sum of atomic charges:   -0.0000000

LOEWDIN ATOMIC CHARGES
----------------------
   0 S :    0.394739
   1 C :   -0.201238
   2 C :   -0.072546
   3 C :   -0.055805
   4 C :   -0.184277
   5 H :    0.042725
   6 C :   -0.026235
   7 H :    0.029567
   8 H :    0.033693
   9 C :   -0.041220
  10 H :    0.018355
  11 H :    0.026551
  12 C :   -0.079283
  13 H :    0.026242
  14 H :    0.023485
  15 H :    0.028487
  16 S :    0.419474
  17 C :   -0.183675
  18 C :   -0.069846
  19 C :   -0.057899
  20 C :   -0.209417
  21 H :    0.030444
  22 C :   -0.034511
  23 H :    0.027754
  24 H :    0.035229
  25 C :   -0.048391
  26 H :    0.027654
  27 H :    0.028454
  28 C :   -0.052494
  29 H :    0.037088
  30 H :    0.027085
  31 H :   -0.000980
  32 H :    0.038352
  33 H :    0.022437

  Mayer bond orders larger than 0.100000
B(  0-S ,  1-C ) :   1.1737 B(  0-S ,  4-C ) :   1.1317 B(  1-C ,  2-C ) :   1.5282
B(  1-C ,  4-C ) :   0.1125 B(  1-C , 32-H ) :   0.9742 B(  2-C ,  3-C ) :   1.2882
B(  2-C ,  6-C ) :   1.0167 B(  3-C ,  4-C ) :   1.5354 B(  3-C ,  5-H ) :   0.9795
B(  4-C , 20-C ) :   1.0472 B(  6-C ,  7-H ) :   0.9470 B(  6-C ,  8-H ) :   0.9432
B(  6-C ,  9-C ) :   1.0584 B(  9-C , 10-H ) :   0.9606 B(  9-C , 11-H ) :   0.9609
B(  9-C , 12-C ) :   1.0609 B( 12-C , 13-H ) :   0.9774 B( 12-C , 14-H ) :   0.9785
B( 12-C , 15-H ) :   0.9722 B( 16-S , 17-C ) :   1.1780 B( 16-S , 20-C ) :   1.1442
B( 17-C , 18-C ) :   1.5823 B( 17-C , 20-C ) :   0.1022 B( 17-C , 33-H ) :   0.9685
B( 18-C , 19-C ) :   1.2336 B( 18-C , 21-H ) :   0.9961 B( 19-C , 20-C ) :   1.5952
B( 19-C , 22-C ) :   1.0439 B( 22-C , 23-H ) :   0.9243 B( 22-C , 24-H ) :   0.9398
B( 22-C , 25-C ) :   1.0573 B( 25-C , 26-H ) :   0.9560 B( 25-C , 27-H ) :   0.9613
B( 25-C , 28-C ) :   1.0664 B( 28-C , 29-H ) :   0.9710 B( 28-C , 30-H ) :   0.9754
B( 28-C , 31-H ) :   0.9776

Dispersion correction           -0.014826862
FINAL SINGLE POINT ENERGY     -1339.860152737091

DIPOLE MOMENT
-------------
                                X             Y             Z
Electronic contribution:     -1.49305     -23.56423      -2.39230
Nuclear contribution   :      1.55413      23.93387       2.48228
                        -----------------------------------------
Total Dipole Moment    :      0.06108       0.36964       0.08998
                        -----------------------------------------
Magnitude (a.u.)       :      0.38530
Magnitude (Debye)      :      0.97936

Rotational constants in cm-1:     0.018976     0.008528     0.007183
Rotational constants in MHz :   568.894039   255.657281   215.341115

                             ****ORCA TERMINATED NORMALLY****
TOTAL RUN TIME: 0 days 0 hours 0 minutes 32 seconds 978 msec
