                         Program Version 4.2.1 -  RELEASE  -
|  1> ! wB97X-D3 SP def2-SVP
|  2> %pal
|  3> nprocs 16
|  4> end
|  5>
|  6> * xyz 0 1
|  7> S 	 -69.773 	 37.2355 	 125.04
|  8> C 	 -69.0378 	 36.4005 	 126.355
|  9> C 	 -69.2702 	 37.0842 	 127.578
| 10> C 	 -69.977 	 38.2883 	 127.406
| 11> C 	 -70.4109 	 38.521 	 126.092
| 12> H 	 -70.3522 	 38.9973 	 128.168
| 13> C 	 -68.8295 	 36.6729 	 128.906
| 14> H 	 -68.7964 	 35.6256 	 128.972
| 15> H 	 -69.5297 	 36.909 	 129.673
| 16> C 	 -67.441 	 37.167 	 129.223
| 17> H 	 -66.6373 	 37.0412 	 128.458
| 18> H 	 -67.4148 	 38.2248 	 129.303
| 19> C 	 -67.0296 	 36.6802 	 130.587
| 20> H 	 -66.9493 	 35.6065 	 130.671
| 21> H 	 -65.9577 	 36.9966 	 130.912
| 22> H 	 -67.6424 	 37.0612 	 131.478
| 23> S 	 -70.9493 	 41.176 	 125.719
| 24> C 	 -72.0769 	 41.6807 	 124.438
| 25> C 	 -72.8196 	 40.5557 	 123.995
| 26> C 	 -72.4162 	 39.3182 	 124.643
| 27> C 	 -71.3558 	 39.4839 	 125.544
| 28> H 	 -73.691 	 40.4835 	 123.37
| 29> C 	 -73.0141 	 37.9711 	 124.134
| 30> H 	 -74.0311 	 38.0495 	 124.527
| 31> H 	 -72.5458 	 37.2217 	 124.788
| 32> C 	 -72.9776 	 37.5367 	 122.599
| 33> H 	 -71.9583 	 37.4264 	 122.259
| 34> H 	 -73.4373 	 38.3569 	 122.017
| 35> C 	 -73.7814 	 36.242 	 122.564
| 36> H 	 -74.7098 	 36.6057 	 122.883
| 37> H 	 -73.4218 	 35.485 	 123.298
| 38> H 	 -73.8697 	 35.7696 	 121.586
| 39> H 	 -68.5651 	 35.4227 	 126.282
| 40> H 	 -72.3176 	 42.7043 	 124.24
| 41> *
| 42>
| 43>                          ****END OF INPUT****

CARTESIAN COORDINATES (ANGSTROEM)
---------------------------------
  S    -69.773000   37.235500  125.040000
  C    -69.037800   36.400500  126.355000
  C    -69.270200   37.084200  127.578000
  C    -69.977000   38.288300  127.406000
  C    -70.410900   38.521000  126.092000
  H    -70.352200   38.997300  128.168000
  C    -68.829500   36.672900  128.906000
  H    -68.796400   35.625600  128.972000
  H    -69.529700   36.909000  129.673000
  C    -67.441000   37.167000  129.223000
  H    -66.637300   37.041200  128.458000
  H    -67.414800   38.224800  129.303000
  C    -67.029600   36.680200  130.587000
  H    -66.949300   35.606500  130.671000
  H    -65.957700   36.996600  130.912000
  H    -67.642400   37.061200  131.478000
  S    -70.949300   41.176000  125.719000
  C    -72.076900   41.680700  124.438000
  C    -72.819600   40.555700  123.995000
  C    -72.416200   39.318200  124.643000
  C    -71.355800   39.483900  125.544000
  H    -73.691000   40.483500  123.370000
  C    -73.014100   37.971100  124.134000
  H    -74.031100   38.049500  124.527000
  H    -72.545800   37.221700  124.788000
  C    -72.977600   37.536700  122.599000
  H    -71.958300   37.426400  122.259000
  H    -73.437300   38.356900  122.017000
  C    -73.781400   36.242000  122.564000
  H    -74.709800   36.605700  122.883000
  H    -73.421800   35.485000  123.298000
  H    -73.869700   35.769600  121.586000
  H    -68.565100   35.422700  126.282000
  H    -72.317600   42.704300  124.240000

 Total Charge           Charge          ....    0
 Multiplicity           Mult            ....    1
 Number of Electrons    NEL             ....  134
 Basis Dimension        Dim             ....  322

ORBITAL ENERGIES
----------------

  NO   OCC          E(Eh)            E(eV)
   0   2.0000     -88.968331     -2420.9514
   1   2.0000     -88.965843     -2420.8837
   2   2.0000     -10.331744      -281.1410
   3   2.0000     -10.328301      -281.0474
   4   2.0000     -10.326649      -281.0024
   5   2.0000     -10.316500      -280.7262
   6   2.0000     -10.307003      -280.4678
   7   2.0000     -10.300917      -280.3022
   8   2.0000     -10.300097      -280.2799
   9   2.0000     -10.296672      -280.1867
  10   2.0000     -10.294992      -280.1410
  11   2.0000     -10.293548      -280.1017
  12   2.0000     -10.285945      -279.8948
  13   2.0000     -10.282822      -279.8098
  14   2.0000     -10.280156      -279.7373
  15   2.0000     -10.275800      -279.6187
  16   2.0000      -8.082357      -219.9321
  17   2.0000      -8.080093      -219.8705
  18   2.0000      -6.040770      -164.3777
  19   2.0000      -6.038782      -164.3236
  20   2.0000      -6.036751      -164.2683
  21   2.0000      -6.034528      -164.2079
  22   2.0000      -6.033475      -164.1792
  23   2.0000      -6.030829      -164.1072
  24   2.0000      -1.001660       -27.2565
  25   2.0000      -0.978533       -26.6272
  26   2.0000      -0.921858       -25.0850
  27   2.0000      -0.903143       -24.5758
  28   2.0000      -0.865883       -23.5619
  29   2.0000      -0.853513       -23.2253
  30   2.0000      -0.847236       -23.0545
  31   2.0000      -0.811241       -22.0750
  32   2.0000      -0.776015       -21.1164
  33   2.0000      -0.762532       -20.7496
  34   2.0000      -0.706194       -19.2165
  35   2.0000      -0.705021       -19.1846
  36   2.0000      -0.694834       -18.9074
  37   2.0000      -0.670342       -18.2409
  38   2.0000      -0.642030       -17.4705
  39   2.0000      -0.617586       -16.8054
  40   2.0000      -0.591803       -16.1038
  41   2.0000      -0.573246       -15.5988
  42   2.0000      -0.566225       -15.4078
  43   2.0000      -0.557213       -15.1625
  44   2.0000      -0.526856       -14.3365
  45   2.0000      -0.525335       -14.2951
  46   2.0000      -0.520450       -14.1622
  47   2.0000      -0.511478       -13.9180
  48   2.0000      -0.505003       -13.7418
  49   2.0000      -0.494885       -13.4665
  50   2.0000      -0.490788       -13.3550
  51   2.0000      -0.473800       -12.8927
  52   2.0000      -0.467545       -12.7225
  53   2.0000      -0.462401       -12.5826
  54   2.0000      -0.456159       -12.4127
  55   2.0000      -0.448684       -12.2093
  56   2.0000      -0.443611       -12.0713
  57   2.0000      -0.437310       -11.8998
  58   2.0000      -0.432261       -11.7624
  59   2.0000      -0.425243       -11.5714
  60   2.0000      -0.421796       -11.4776
  61   2.0000      -0.412925       -11.2363
  62   2.0000      -0.412442       -11.2231
  63   2.0000      -0.346746        -9.4354
  64   2.0000      -0.330780        -9.0010
  65   2.0000      -0.324640        -8.8339
  66   2.0000      -0.288998        -7.8640
  67   0.0000       0.024143         0.6570
  68   0.0000       0.066516         1.8100
  69   0.0000       0.103510         2.8167
  70   0.0000       0.116834         3.1792
  71   0.0000       0.131731         3.5846

MULLIKEN ATOMIC CHARGES
-----------------------
   0 S :    0.116182
   1 C :   -0.114290
   2 C :   -0.099627
   3 C :    0.032186
   4 C :   -0.165252
   5 H :    0.024933
   6 C :    0.118186
   7 H :   -0.003491
   8 H :    0.014076
   9 C :   -0.042856
  10 H :    0.036770
  11 H :    0.012601
  12 C :   -0.096084
  13 H :    0.026346
  14 H :    0.032931
  15 H :    0.042473
  16 S :    0.100186
  17 C :   -0.085251
  18 C :   -0.014051
  19 C :   -0.073268
  20 C :   -0.142200
  21 H :    0.018840
  22 C :   -0.018121
  23 H :    0.033506
  24 H :    0.026793
  25 C :   -0.031450
  26 H :    0.035763
  27 H :    0.031895
  28 C :   -0.025012
  29 H :    0.011001
  30 H :    0.041272
  31 H :    0.038066
  32 H :    0.053701
  33 H :    0.063246
Sum of atomic charges:   -0.0000000

LOEWDIN ATOMIC CHARGES
----------------------
   0 S :    0.427299
   1 C :   -0.211956
   2 C :   -0.061489
   3 C :   -0.064223
   4 C :   -0.188546
   5 H :    0.038736
   6 C :   -0.030431
   7 H :    0.024415
   8 H :    0.031769
   9 C :   -0.042846
  10 H :    0.034279
  11 H :    0.021371
  12 C :   -0.079877
  13 H :    0.016758
  14 H :    0.032368
  15 H :    0.032335
  16 S :    0.400844
  17 C :   -0.173228
  18 C :   -0.065183
  19 C :   -0.058705
  20 C :   -0.212046
  21 H :    0.027940
  22 C :   -0.042879
  23 H :    0.032865
  24 H :    0.021781
  25 C :   -0.029431
  26 H :    0.020549
  27 H :    0.024788
  28 C :   -0.060782
  29 H :    0.018565
  30 H :    0.032972
  31 H :    0.025082
  32 H :    0.031088
  33 H :    0.025820

  Mayer bond orders larger than 0.100000
B(  0-S ,  1-C ) :   1.1601 B(  0-S ,  4-C ) :   1.1590 B(  1-C ,  2-C ) :   1.5543
B(  1-C ,  4-C ) :   0.1079 B(  1-C , 32-H ) :   0.9685 B(  2-C ,  3-C ) :   1.2816
B(  2-C ,  6-C ) :   1.0471 B(  3-C ,  4-C ) :   1.5390 B(  3-C ,  5-H ) :   0.9871
B(  4-C , 20-C ) :   1.0271 B(  6-C ,  7-H ) :   0.9288 B(  6-C ,  8-H ) :   0.9333
B(  6-C ,  9-C ) :   1.0558 B(  9-C , 10-H ) :   0.9536 B(  9-C , 11-H ) :   0.9481
B(  9-C , 12-C ) :   1.0806 B( 12-C , 13-H ) :   0.9760 B( 12-C , 14-H ) :   0.9713
B( 12-C , 15-H ) :   0.9722 B( 16-S , 17-C ) :   1.1563 B( 16-S , 20-C ) :   1.1369
B( 17-C , 18-C ) :   1.5654 B( 17-C , 33-H ) :   0.9720 B( 18-C , 19-C ) :   1.2669
B( 18-C , 21-H ) :   0.9856 B( 19-C , 20-C ) :   1.5798 B( 19-C , 22-C ) :   1.0238
B( 22-C , 23-H ) :   0.9344 B( 22-C , 24-H ) :   0.9381 B( 22-C , 25-C ) :   1.0423
B( 25-C , 26-H ) :   0.9573 B( 25-C , 27-H ) :   0.9553 B( 25-C , 28-C ) :   1.0649
B( 28-C , 29-H ) :   0.9763 B( 28-C , 30-H ) :   0.9752 B( 28-C , 31-H ) :   0.9730

Dispersion correction           -0.013878216
FINAL SINGLE POINT ENERGY     -1339.865271508625

DIPOLE MOMENT
-------------
                                X             Y             Z
Electronic contribution:      0.03660      14.97365      -6.78471
Nuclear contribution   :     -0.29253     -15.27426       6.91017
                        -----------------------------------------
Total Dipole Moment    :     -0.25593      -0.30061       0.12546
                        -----------------------------------------
Magnitude (a.u.)       :      0.41426
Magnitude (Debye)      :      1.05295

Rotational constants in cm-1:     0.021721     0.007530     0.005942
Rotational constants in MHz :   651.188015   225.742859   178.137661

                             ****ORCA TERMINATED NORMALLY****
TOTAL RUN TIME: 0 days 0 hours 0 minutes 34 seconds 293 msec
