                         Program Version 4.2.1 -  RELEASE  -
|  1> ! wB97X-D3 SP def2-SVP
|  2> %pal
|  3> nprocs 16
|  4> end
|  5>
|  6> * xyz 0 1
|  7> S 	 -65.0239 	 47.9503 	 125.497
|  8> C 	 -64.8741 	 46.5147 	 124.582
|  9> C 	 -63.9127 	 46.7382 	 123.581
| 10> C 	 -63.3276 	 48.0581 	 123.68
| 11> C 	 -63.9789 	 48.8437 	 124.569
| 12> H 	 -62.5887 	 48.4786 	 123.046
| 13> C 	 -63.4273 	 45.5666 	 122.608
| 14> H 	 -63.655 	 45.8089 	 121.57
| 15> H 	 -64.0196 	 44.6116 	 122.904
| 16> C 	 -61.8506 	 45.2318 	 122.646
| 17> H 	 -61.2411 	 46.2265 	 122.501
| 18> H 	 -61.525 	 44.8291 	 123.617
| 19> C 	 -61.4192 	 44.1746 	 121.596
| 20> H 	 -61.7278 	 44.4239 	 120.621
| 21> H 	 -60.3542 	 43.9544 	 121.426
| 22> H 	 -61.7839 	 43.1642 	 121.841
| 23> S 	 -65.1075 	 51.3364 	 124.84
| 24> C 	 -64.0892 	 52.7397 	 124.977
| 25> C 	 -62.792 	 52.4031 	 124.87
| 26> C 	 -62.5885 	 51.0056 	 124.876
| 27> C 	 -63.7504 	 50.2506 	 124.9
| 28> H 	 -62.0857 	 53.2607 	 124.98
| 29> C 	 -61.1669 	 50.487 	 124.785
| 30> H 	 -61.171 	 49.4144 	 124.771
| 31> H 	 -60.6394 	 50.7825 	 125.676
| 32> C 	 -60.3847 	 51.0289 	 123.546
| 33> H 	 -60.1389 	 52.1137 	 123.56
| 34> H 	 -61.1791 	 51.1127 	 122.659
| 35> C 	 -59.0521 	 50.2656 	 123.339
| 36> H 	 -59.3157 	 49.2263 	 123.519
| 37> H 	 -58.3269 	 50.5659 	 124.112
| 38> H 	 -58.4818 	 50.4703 	 122.417
| 39> H 	 -65.2555 	 45.5257 	 124.902
| 40> H 	 -64.3568 	 53.7622 	 125.149
| 41> *
| 42>
| 43>                          ****END OF INPUT****

CARTESIAN COORDINATES (ANGSTROEM)
---------------------------------
  S    -65.023900   47.950300  125.497000
  C    -64.874100   46.514700  124.582000
  C    -63.912700   46.738200  123.581000
  C    -63.327600   48.058100  123.680000
  C    -63.978900   48.843700  124.569000
  H    -62.588700   48.478600  123.046000
  C    -63.427300   45.566600  122.608000
  H    -63.655000   45.808900  121.570000
  H    -64.019600   44.611600  122.904000
  C    -61.850600   45.231800  122.646000
  H    -61.241100   46.226500  122.501000
  H    -61.525000   44.829100  123.617000
  C    -61.419200   44.174600  121.596000
  H    -61.727800   44.423900  120.621000
  H    -60.354200   43.954400  121.426000
  H    -61.783900   43.164200  121.841000
  S    -65.107500   51.336400  124.840000
  C    -64.089200   52.739700  124.977000
  C    -62.792000   52.403100  124.870000
  C    -62.588500   51.005600  124.876000
  C    -63.750400   50.250600  124.900000
  H    -62.085700   53.260700  124.980000
  C    -61.166900   50.487000  124.785000
  H    -61.171000   49.414400  124.771000
  H    -60.639400   50.782500  125.676000
  C    -60.384700   51.028900  123.546000
  H    -60.138900   52.113700  123.560000
  H    -61.179100   51.112700  122.659000
  C    -59.052100   50.265600  123.339000
  H    -59.315700   49.226300  123.519000
  H    -58.326900   50.565900  124.112000
  H    -58.481800   50.470300  122.417000
  H    -65.255500   45.525700  124.902000
  H    -64.356800   53.762200  125.149000

 Total Charge           Charge          ....    0
 Multiplicity           Mult            ....    1
 Number of Electrons    NEL             ....  134
 Basis Dimension        Dim             ....  322

ORBITAL ENERGIES
----------------

  NO   OCC          E(Eh)            E(eV)
   0   2.0000     -88.963788     -2420.8277
   1   2.0000     -88.962600     -2420.7954
   2   2.0000     -10.326318      -280.9934
   3   2.0000     -10.322668      -280.8941
   4   2.0000     -10.316203      -280.7182
   5   2.0000     -10.312251      -280.6106
   6   2.0000     -10.311911      -280.6014
   7   2.0000     -10.311870      -280.6002
   8   2.0000     -10.305059      -280.4149
   9   2.0000     -10.302592      -280.3478
  10   2.0000     -10.301337      -280.3136
  11   2.0000     -10.291607      -280.0489
  12   2.0000     -10.290236      -280.0116
  13   2.0000     -10.290179      -280.0100
  14   2.0000     -10.285379      -279.8794
  15   2.0000     -10.278853      -279.7018
  16   2.0000      -8.080110      -219.8710
  17   2.0000      -8.079073      -219.8428
  18   2.0000      -6.038315      -164.3109
  19   2.0000      -6.037632      -164.2923
  20   2.0000      -6.034030      -164.1943
  21   2.0000      -6.033464      -164.1789
  22   2.0000      -6.031187      -164.1169
  23   2.0000      -6.029763      -164.0782
  24   2.0000      -1.021613       -27.7995
  25   2.0000      -0.996119       -27.1058
  26   2.0000      -0.905954       -24.6523
  27   2.0000      -0.895246       -24.3609
  28   2.0000      -0.873672       -23.7738
  29   2.0000      -0.850724       -23.1494
  30   2.0000      -0.844265       -22.9736
  31   2.0000      -0.821691       -22.3594
  32   2.0000      -0.780466       -21.2376
  33   2.0000      -0.770446       -20.9649
  34   2.0000      -0.706520       -19.2254
  35   2.0000      -0.698421       -19.0050
  36   2.0000      -0.691864       -18.8266
  37   2.0000      -0.658316       -17.9137
  38   2.0000      -0.643004       -17.4970
  39   2.0000      -0.622688       -16.9442
  40   2.0000      -0.598447       -16.2846
  41   2.0000      -0.572425       -15.5765
  42   2.0000      -0.559037       -15.2122
  43   2.0000      -0.553080       -15.0501
  44   2.0000      -0.529015       -14.3952
  45   2.0000      -0.524993       -14.2858
  46   2.0000      -0.515368       -14.0239
  47   2.0000      -0.509148       -13.8546
  48   2.0000      -0.503999       -13.7145
  49   2.0000      -0.498476       -13.5642
  50   2.0000      -0.492710       -13.4073
  51   2.0000      -0.479352       -13.0438
  52   2.0000      -0.469870       -12.7858
  53   2.0000      -0.464506       -12.6398
  54   2.0000      -0.462481       -12.5848
  55   2.0000      -0.453742       -12.3470
  56   2.0000      -0.450279       -12.2527
  57   2.0000      -0.439317       -11.9544
  58   2.0000      -0.430253       -11.7078
  59   2.0000      -0.421467       -11.4687
  60   2.0000      -0.418369       -11.3844
  61   2.0000      -0.414487       -11.2788
  62   2.0000      -0.402213       -10.9448
  63   2.0000      -0.354920        -9.6579
  64   2.0000      -0.330487        -8.9930
  65   2.0000      -0.329992        -8.9796
  66   2.0000      -0.298178        -8.1138
  67   0.0000       0.034488         0.9385
  68   0.0000       0.077329         2.1042
  69   0.0000       0.116120         3.1598
  70   0.0000       0.122822         3.3422
  71   0.0000       0.128315         3.4916

MULLIKEN ATOMIC CHARGES
-----------------------
   0 S :    0.119088
   1 C :   -0.127265
   2 C :   -0.089640
   3 C :    0.031085
   4 C :   -0.150614
   5 H :    0.001232
   6 C :    0.032008
   7 H :    0.042412
   8 H :    0.039173
   9 C :   -0.110591
  10 H :    0.046702
  11 H :    0.038529
  12 C :   -0.048369
  13 H :    0.015843
  14 H :    0.032325
  15 H :    0.029082
  16 S :    0.103938
  17 C :   -0.074862
  18 C :   -0.052861
  19 C :   -0.070249
  20 C :   -0.099744
  21 H :    0.035976
  22 C :    0.102388
  23 H :    0.011011
  24 H :    0.029619
  25 C :   -0.159309
  26 H :    0.033533
  27 H :    0.047715
  28 C :   -0.032734
  29 H :    0.031228
  30 H :    0.032374
  31 H :    0.047107
  32 H :    0.068896
  33 H :    0.044972
Sum of atomic charges:   -0.0000000

LOEWDIN ATOMIC CHARGES
----------------------
   0 S :    0.465169
   1 C :   -0.222512
   2 C :   -0.059588
   3 C :   -0.067615
   4 C :   -0.221276
   5 H :    0.026096
   6 C :   -0.031364
   7 H :    0.028669
   8 H :    0.037558
   9 C :   -0.047622
  10 H :    0.031659
  11 H :    0.024232
  12 C :   -0.075378
  13 H :    0.015390
  14 H :    0.031280
  15 H :    0.027127
  16 S :    0.413427
  17 C :   -0.180000
  18 C :   -0.080241
  19 C :   -0.057021
  20 C :   -0.207453
  21 H :    0.042528
  22 C :   -0.028272
  23 H :    0.022589
  24 H :    0.031332
  25 C :   -0.057727
  26 H :    0.022327
  27 H :    0.032914
  28 C :   -0.070024
  29 H :    0.023835
  30 H :    0.030329
  31 H :    0.031892
  32 H :    0.038026
  33 H :    0.029715

  Mayer bond orders larger than 0.100000
B(  0-S ,  1-C ) :   1.1629 B(  0-S ,  4-C ) :   1.1985 B(  1-C ,  2-C ) :   1.5801
B(  1-C , 32-H ) :   0.9672 B(  2-C ,  3-C ) :   1.2611 B(  2-C ,  6-C ) :   1.0104
B(  3-C ,  4-C ) :   1.5628 B(  3-C ,  5-H ) :   1.0005 B(  4-C , 20-C ) :   0.9812
B(  6-C ,  7-H ) :   0.9464 B(  6-C ,  8-H ) :   0.9518 B(  6-C ,  9-C ) :   1.0396
B(  9-C , 10-H ) :   0.9571 B(  9-C , 11-H ) :   0.9621 B(  9-C , 12-C ) :   1.0689
B( 12-C , 13-H ) :   0.9766 B( 12-C , 14-H ) :   0.9744 B( 12-C , 15-H ) :   0.9760
B( 16-S , 17-C ) :   1.1551 B( 16-S , 20-C ) :   1.1380 B( 17-C , 18-C ) :   1.6331
B( 17-C , 33-H ) :   0.9649 B( 18-C , 19-C ) :   1.2330 B( 18-C , 21-H ) :   0.9844
B( 19-C , 20-C ) :   1.6070 B( 19-C , 22-C ) :   1.0516 B( 22-C , 23-H ) :   0.9400
B( 22-C , 24-H ) :   0.9263 B( 22-C , 25-C ) :   1.0395 B( 25-C , 26-H ) :   0.9500
B( 25-C , 27-H ) :   0.9614 B( 25-C , 28-C ) :   1.0637 B( 28-C , 29-H ) :   0.9788
B( 28-C , 30-H ) :   0.9712 B( 28-C , 31-H ) :   0.9743

Dispersion correction           -0.013942742
FINAL SINGLE POINT ENERGY     -1339.861543127219

DIPOLE MOMENT
-------------
                                X             Y             Z
Electronic contribution:    -26.73227      13.00892      14.81312
Nuclear contribution   :     27.43890     -13.05644     -15.01627
                        -----------------------------------------
Total Dipole Moment    :      0.70663      -0.04753      -0.20316
                        -----------------------------------------
Magnitude (a.u.)       :      0.73679
Magnitude (Debye)      :      1.87276

Rotational constants in cm-1:     0.017113     0.009106     0.006296
Rotational constants in MHz :   513.021319   272.994752   188.754578

                             ****ORCA TERMINATED NORMALLY****
TOTAL RUN TIME: 0 days 0 hours 0 minutes 33 seconds 547 msec
