                         Program Version 4.2.1 -  RELEASE  -
|  1> ! wB97X-D3 SP def2-SVP
|  2> %pal
|  3> nprocs 16
|  4> end
|  5>
|  6> * xyz 0 1
|  7> S 	 8.47848 	 -18.0078 	 86.2466
|  8> C 	 7.59707 	 -19.5026 	 86.515
|  9> C 	 6.24659 	 -19.319 	 86.2728
| 10> C 	 5.92383 	 -17.9122 	 86.0486
| 11> C 	 7.00041 	 -17.0505 	 85.9614
| 12> H 	 4.90023 	 -17.5627 	 85.8979
| 13> C 	 5.24966 	 -20.4909 	 86.2871
| 14> H 	 5.26599 	 -20.9395 	 87.2665
| 15> H 	 5.57857 	 -21.2723 	 85.6534
| 16> C 	 3.74358 	 -20.2036 	 86.1354
| 17> H 	 3.23929 	 -21.13 	 86.4149
| 18> H 	 3.34451 	 -19.3893 	 86.8177
| 19> C 	 3.29411 	 -20.0158 	 84.7121
| 20> H 	 3.56997 	 -19.092 	 84.1764
| 21> H 	 3.4224 	 -20.9074 	 84.0273
| 22> H 	 2.26727 	 -19.833 	 84.7335
| 23> S 	 5.93929 	 -15.0836 	 84.3022
| 24> C 	 6.41065 	 -13.3967 	 84.5452
| 25> C 	 7.27026 	 -13.3321 	 85.6532
| 26> C 	 7.58541 	 -14.5699 	 86.1988
| 27> C 	 6.98658 	 -15.6501 	 85.6022
| 28> H 	 7.54636 	 -12.3819 	 86.0679
| 29> C 	 8.60986 	 -14.6564 	 87.3774
| 30> H 	 8.5932 	 -15.6389 	 87.8793
| 31> H 	 8.26726 	 -14.0043 	 88.2597
| 32> C 	 10.075 	 -14.3447 	 86.9688
| 33> H 	 10.736 	 -14.5142 	 87.7846
| 34> H 	 10.1803 	 -13.3194 	 86.8291
| 35> C 	 10.4938 	 -15.1613 	 85.8232
| 36> H 	 10.5643 	 -16.229 	 86.0675
| 37> H 	 11.5399 	 -14.913 	 85.4639
| 38> H 	 9.87097 	 -14.9903 	 84.9309
| 39> H 	 8.14756 	 -20.4372 	 86.7247
| 40> H 	 6.12623 	 -12.6019 	 83.9384
| 41> *
| 42>
| 43>                          ****END OF INPUT****

CARTESIAN COORDINATES (ANGSTROEM)
---------------------------------
  S      8.478480  -18.007800   86.246600
  C      7.597070  -19.502600   86.515000
  C      6.246590  -19.319000   86.272800
  C      5.923830  -17.912200   86.048600
  C      7.000410  -17.050500   85.961400
  H      4.900230  -17.562700   85.897900
  C      5.249660  -20.490900   86.287100
  H      5.265990  -20.939500   87.266500
  H      5.578570  -21.272300   85.653400
  C      3.743580  -20.203600   86.135400
  H      3.239290  -21.130000   86.414900
  H      3.344510  -19.389300   86.817700
  C      3.294110  -20.015800   84.712100
  H      3.569970  -19.092000   84.176400
  H      3.422400  -20.907400   84.027300
  H      2.267270  -19.833000   84.733500
  S      5.939290  -15.083600   84.302200
  C      6.410650  -13.396700   84.545200
  C      7.270260  -13.332100   85.653200
  C      7.585410  -14.569900   86.198800
  C      6.986580  -15.650100   85.602200
  H      7.546360  -12.381900   86.067900
  C      8.609860  -14.656400   87.377400
  H      8.593200  -15.638900   87.879300
  H      8.267260  -14.004300   88.259700
  C     10.075000  -14.344700   86.968800
  H     10.736000  -14.514200   87.784600
  H     10.180300  -13.319400   86.829100
  C     10.493800  -15.161300   85.823200
  H     10.564300  -16.229000   86.067500
  H     11.539900  -14.913000   85.463900
  H      9.870970  -14.990300   84.930900
  H      8.147560  -20.437200   86.724700
  H      6.126230  -12.601900   83.938400

 Total Charge           Charge          ....    0
 Multiplicity           Mult            ....    1
 Number of Electrons    NEL             ....  134
 Basis Dimension        Dim             ....  322

ORBITAL ENERGIES
----------------

  NO   OCC          E(Eh)            E(eV)
   0   2.0000     -88.968391     -2420.9530
   1   2.0000     -88.963579     -2420.8221
   2   2.0000     -10.332464      -281.1606
   3   2.0000     -10.327439      -281.0239
   4   2.0000     -10.320778      -280.8427
   5   2.0000     -10.315892      -280.7097
   6   2.0000     -10.306348      -280.4500
   7   2.0000     -10.300840      -280.3001
   8   2.0000     -10.297491      -280.2090
   9   2.0000     -10.295696      -280.1601
  10   2.0000     -10.293656      -280.1046
  11   2.0000     -10.293106      -280.0896
  12   2.0000     -10.289015      -279.9783
  13   2.0000     -10.272796      -279.5370
  14   2.0000     -10.271665      -279.5062
  15   2.0000     -10.269498      -279.4473
  16   2.0000      -8.082387      -219.9329
  17   2.0000      -8.077092      -219.7888
  18   2.0000      -6.040927      -164.3820
  19   2.0000      -6.036883      -164.2719
  20   2.0000      -6.035787      -164.2421
  21   2.0000      -6.033270      -164.1736
  22   2.0000      -6.031685      -164.1305
  23   2.0000      -6.027795      -164.0246
  24   2.0000      -1.004306       -27.3286
  25   2.0000      -0.979990       -26.6669
  26   2.0000      -0.910246       -24.7690
  27   2.0000      -0.906955       -24.6795
  28   2.0000      -0.872635       -23.7456
  29   2.0000      -0.848692       -23.0941
  30   2.0000      -0.840442       -22.8696
  31   2.0000      -0.815087       -22.1796
  32   2.0000      -0.782926       -21.3045
  33   2.0000      -0.770178       -20.9576
  34   2.0000      -0.710180       -19.3250
  35   2.0000      -0.698055       -18.9950
  36   2.0000      -0.687157       -18.6985
  37   2.0000      -0.667461       -18.1625
  38   2.0000      -0.634814       -17.2742
  39   2.0000      -0.619660       -16.8618
  40   2.0000      -0.598091       -16.2749
  41   2.0000      -0.569531       -15.4977
  42   2.0000      -0.551840       -15.0163
  43   2.0000      -0.548470       -14.9246
  44   2.0000      -0.545022       -14.8308
  45   2.0000      -0.532614       -14.4932
  46   2.0000      -0.524382       -14.2692
  47   2.0000      -0.516051       -14.0425
  48   2.0000      -0.505845       -13.7647
  49   2.0000      -0.492843       -13.4109
  50   2.0000      -0.486437       -13.2366
  51   2.0000      -0.479236       -13.0407
  52   2.0000      -0.467777       -12.7289
  53   2.0000      -0.464476       -12.6390
  54   2.0000      -0.459335       -12.4992
  55   2.0000      -0.443779       -12.0758
  56   2.0000      -0.440629       -11.9901
  57   2.0000      -0.436014       -11.8645
  58   2.0000      -0.423450       -11.5227
  59   2.0000      -0.422183       -11.4882
  60   2.0000      -0.416131       -11.3235
  61   2.0000      -0.412002       -11.2111
  62   2.0000      -0.399797       -10.8790
  63   2.0000      -0.350141        -9.5278
  64   2.0000      -0.335488        -9.1291
  65   2.0000      -0.324546        -8.8313
  66   2.0000      -0.290373        -7.9014
  67   0.0000       0.025724         0.7000
  68   0.0000       0.069699         1.8966
  69   0.0000       0.111042         3.0216
  70   0.0000       0.114705         3.1213
  71   0.0000       0.139061         3.7840

MULLIKEN ATOMIC CHARGES
-----------------------
   0 S :    0.085133
   1 C :   -0.139369
   2 C :   -0.076700
   3 C :    0.000592
   4 C :   -0.119930
   5 H :    0.015425
   6 C :    0.088126
   7 H :    0.029249
   8 H :    0.023343
   9 C :   -0.098741
  10 H :    0.027367
  11 H :    0.047984
  12 C :   -0.050551
  13 H :    0.030170
  14 H :    0.040938
  15 H :    0.008548
  16 S :    0.107417
  17 C :   -0.080835
  18 C :   -0.020051
  19 C :   -0.034150
  20 C :   -0.145398
  21 H :    0.016140
  22 C :    0.007056
  23 H :    0.027807
  24 H :    0.038841
  25 C :    0.008978
  26 H :    0.015310
  27 H :    0.006087
  28 C :   -0.086839
  29 H :    0.041474
  30 H :    0.027206
  31 H :    0.051943
  32 H :    0.065562
  33 H :    0.041867
Sum of atomic charges:   -0.0000000

LOEWDIN ATOMIC CHARGES
----------------------
   0 S :    0.405153
   1 C :   -0.198868
   2 C :   -0.059280
   3 C :   -0.068717
   4 C :   -0.178665
   5 H :    0.028989
   6 C :   -0.032198
   7 H :    0.035093
   8 H :    0.028517
   9 C :   -0.046195
  10 H :    0.031126
  11 H :    0.034824
  12 C :   -0.079134
  13 H :    0.025497
  14 H :    0.032996
  15 H :    0.018317
  16 S :    0.404535
  17 C :   -0.166130
  18 C :   -0.064763
  19 C :   -0.060098
  20 C :   -0.196236
  21 H :    0.030496
  22 C :   -0.036455
  23 H :    0.022295
  24 H :    0.037200
  25 C :   -0.039796
  26 H :    0.024243
  27 H :    0.013033
  28 C :   -0.075952
  29 H :    0.017657
  30 H :    0.030093
  31 H :    0.028936
  32 H :    0.035199
  33 H :    0.018289

  Mayer bond orders larger than 0.100000
B(  0-S ,  1-C ) :   1.1343 B(  0-S ,  4-C ) :   1.1313 B(  1-C ,  2-C ) :   1.6118
B(  1-C , 32-H ) :   0.9716 B(  2-C ,  3-C ) :   1.2468 B(  2-C ,  6-C ) :   0.9995
B(  3-C ,  4-C ) :   1.5746 B(  3-C ,  5-H ) :   0.9872 B(  4-C , 20-C ) :   1.0636
B(  6-C ,  7-H ) :   0.9398 B(  6-C ,  8-H ) :   0.9396 B(  6-C ,  9-C ) :   1.0894
B(  9-C , 10-H ) :   0.9488 B(  9-C , 11-H ) :   0.9514 B(  9-C , 12-C ) :   1.0864
B( 12-C , 13-H ) :   0.9718 B( 12-C , 14-H ) :   0.9719 B( 12-C , 15-H ) :   0.9669
B( 16-S , 17-C ) :   1.1666 B( 16-S , 20-C ) :   1.1385 B( 17-C , 18-C ) :   1.5582
B( 17-C , 20-C ) :   0.1065 B( 17-C , 33-H ) :   0.9805 B( 18-C , 19-C ) :   1.2810
B( 18-C , 21-H ) :   0.9956 B( 19-C , 20-C ) :   1.5563 B( 19-C , 22-C ) :   1.0346
B( 22-C , 23-H ) :   0.9373 B( 22-C , 24-H ) :   0.9422 B( 22-C , 25-C ) :   1.0623
B( 25-C , 26-H ) :   0.9484 B( 25-C , 27-H ) :   0.9521 B( 25-C , 28-C ) :   1.0874
B( 28-C , 29-H ) :   0.9675 B( 28-C , 30-H ) :   0.9662 B( 28-C , 31-H ) :   0.9698

Dispersion correction           -0.015215435
FINAL SINGLE POINT ENERGY     -1339.877687443244

DIPOLE MOMENT
-------------
                                X             Y             Z
Electronic contribution:      1.95776       6.58380      -3.68951
Nuclear contribution   :     -2.16254      -6.66390       3.89969
                        -----------------------------------------
Total Dipole Moment    :     -0.20478      -0.08010       0.21018
                        -----------------------------------------
Magnitude (a.u.)       :      0.30418
Magnitude (Debye)      :      0.77317

Rotational constants in cm-1:     0.022305     0.008840     0.006803
Rotational constants in MHz :   668.694846   265.016184   203.959753

                             ****ORCA TERMINATED NORMALLY****
TOTAL RUN TIME: 0 days 0 hours 0 minutes 34 seconds 539 msec
