                         Program Version 4.2.1 -  RELEASE  -
|  1> ! wB97X-D3 SP def2-SVP
|  2> %pal
|  3> nprocs 16
|  4> end
|  5>
|  6> * xyz 0 1
|  7> S 	 10.8946 	 -7.30747 	 64.1477
|  8> C 	 9.34019 	 -6.65498 	 64.6558
|  9> C 	 9.39053 	 -6.37222 	 66.0035
| 10> C 	 10.5656 	 -6.96112 	 66.7163
| 11> C 	 11.4882 	 -7.38932 	 65.7865
| 12> H 	 10.7714 	 -7.11403 	 67.7492
| 13> C 	 8.22259 	 -5.7842 	 66.8158
| 14> H 	 7.99669 	 -6.34569 	 67.7338
| 15> H 	 7.19412 	 -5.78183 	 66.3719
| 16> C 	 8.66334 	 -4.41102 	 67.3689
| 17> H 	 9.66719 	 -4.55165 	 67.9214
| 18> H 	 8.8881 	 -3.74735 	 66.5201
| 19> C 	 7.68036 	 -3.64201 	 68.2408
| 20> H 	 8.15199 	 -2.70909 	 68.6847
| 21> H 	 6.95187 	 -3.28874 	 67.4805
| 22> H 	 7.21885 	 -4.27513 	 69.0306
| 23> S 	 13.7482 	 -7.40395 	 67.36
| 24> C 	 14.9212 	 -8.63791 	 67.0633
| 25> C 	 14.4664 	 -9.66175 	 66.282
| 26> C 	 13.1697 	 -9.34591 	 65.7287
| 27> C 	 12.6513 	 -8.13919 	 66.1432
| 28> H 	 15.0375 	 -10.6487 	 66.0992
| 29> C 	 12.3766 	 -10.4316 	 65.0761
| 30> H 	 13.0388 	 -11.3555 	 65.041
| 31> H 	 12.0508 	 -10.1368 	 64.0363
| 32> C 	 11.2243 	 -10.8006 	 66.0264
| 33> H 	 10.5823 	 -9.94442 	 66.2343
| 34> H 	 11.682 	 -11.0301 	 66.9706
| 35> C 	 10.3003 	 -11.8672 	 65.5019
| 36> H 	 10.9229 	 -12.6232 	 65.0011
| 37> H 	 9.60386 	 -11.5262 	 64.6619
| 38> H 	 9.75451 	 -12.2931 	 66.2793
| 39> H 	 8.57948 	 -6.3437 	 63.9005
| 40> H 	 15.7526 	 -8.78706 	 67.7312
| 41> *
| 42>
| 43>                          ****END OF INPUT****

CARTESIAN COORDINATES (ANGSTROEM)
---------------------------------
  S     10.894600   -7.307470   64.147700
  C      9.340190   -6.654980   64.655800
  C      9.390530   -6.372220   66.003500
  C     10.565600   -6.961120   66.716300
  C     11.488200   -7.389320   65.786500
  H     10.771400   -7.114030   67.749200
  C      8.222590   -5.784200   66.815800
  H      7.996690   -6.345690   67.733800
  H      7.194120   -5.781830   66.371900
  C      8.663340   -4.411020   67.368900
  H      9.667190   -4.551650   67.921400
  H      8.888100   -3.747350   66.520100
  C      7.680360   -3.642010   68.240800
  H      8.151990   -2.709090   68.684700
  H      6.951870   -3.288740   67.480500
  H      7.218850   -4.275130   69.030600
  S     13.748200   -7.403950   67.360000
  C     14.921200   -8.637910   67.063300
  C     14.466400   -9.661750   66.282000
  C     13.169700   -9.345910   65.728700
  C     12.651300   -8.139190   66.143200
  H     15.037500  -10.648700   66.099200
  C     12.376600  -10.431600   65.076100
  H     13.038800  -11.355500   65.041000
  H     12.050800  -10.136800   64.036300
  C     11.224300  -10.800600   66.026400
  H     10.582300   -9.944420   66.234300
  H     11.682000  -11.030100   66.970600
  C     10.300300  -11.867200   65.501900
  H     10.922900  -12.623200   65.001100
  H      9.603860  -11.526200   64.661900
  H      9.754510  -12.293100   66.279300
  H      8.579480   -6.343700   63.900500
  H     15.752600   -8.787060   67.731200

 Total Charge           Charge          ....    0
 Multiplicity           Mult            ....    1
 Number of Electrons    NEL             ....  134
 Basis Dimension        Dim             ....  322

ORBITAL ENERGIES
----------------

  NO   OCC          E(Eh)            E(eV)
   0   2.0000     -88.966307     -2420.8963
   1   2.0000     -88.964307     -2420.8419
   2   2.0000     -10.329113      -281.0695
   3   2.0000     -10.324394      -280.9411
   4   2.0000     -10.323477      -280.9161
   5   2.0000     -10.315829      -280.7080
   6   2.0000     -10.314549      -280.6731
   7   2.0000     -10.301525      -280.3187
   8   2.0000     -10.301143      -280.3084
   9   2.0000     -10.300709      -280.2966
  10   2.0000     -10.298469      -280.2356
  11   2.0000     -10.294786      -280.1354
  12   2.0000     -10.289502      -279.9916
  13   2.0000     -10.286330      -279.9053
  14   2.0000     -10.275710      -279.6163
  15   2.0000     -10.271750      -279.5085
  16   2.0000      -8.081010      -219.8955
  17   2.0000      -8.079055      -219.8423
  18   2.0000      -6.039681      -164.3481
  19   2.0000      -6.037597      -164.2914
  20   2.0000      -6.035505      -164.2344
  21   2.0000      -6.033683      -164.1849
  22   2.0000      -6.031603      -164.1282
  23   2.0000      -6.029669      -164.0756
  24   2.0000      -1.008233       -27.4354
  25   2.0000      -0.983258       -26.7558
  26   2.0000      -0.911140       -24.7934
  27   2.0000      -0.907399       -24.6916
  28   2.0000      -0.874917       -23.8077
  29   2.0000      -0.851400       -23.1678
  30   2.0000      -0.843090       -22.9416
  31   2.0000      -0.812914       -22.1205
  32   2.0000      -0.779958       -21.2237
  33   2.0000      -0.766994       -20.8710
  34   2.0000      -0.705371       -19.1941
  35   2.0000      -0.687867       -18.7178
  36   2.0000      -0.682293       -18.5661
  37   2.0000      -0.666963       -18.1490
  38   2.0000      -0.645728       -17.5712
  39   2.0000      -0.612236       -16.6598
  40   2.0000      -0.593455       -16.1487
  41   2.0000      -0.566899       -15.4261
  42   2.0000      -0.561908       -15.2903
  43   2.0000      -0.556433       -15.1413
  44   2.0000      -0.526174       -14.3179
  45   2.0000      -0.521750       -14.1975
  46   2.0000      -0.517436       -14.0802
  47   2.0000      -0.514063       -13.9884
  48   2.0000      -0.507625       -13.8132
  49   2.0000      -0.503604       -13.7038
  50   2.0000      -0.488572       -13.2947
  51   2.0000      -0.481578       -13.1044
  52   2.0000      -0.467368       -12.7177
  53   2.0000      -0.465229       -12.6595
  54   2.0000      -0.454335       -12.3631
  55   2.0000      -0.450838       -12.2679
  56   2.0000      -0.439808       -11.9678
  57   2.0000      -0.432665       -11.7734
  58   2.0000      -0.424867       -11.5612
  59   2.0000      -0.420525       -11.4431
  60   2.0000      -0.418139       -11.3781
  61   2.0000      -0.409229       -11.1357
  62   2.0000      -0.407633       -11.0923
  63   2.0000      -0.352851        -9.6016
  64   2.0000      -0.330374        -8.9899
  65   2.0000      -0.327281        -8.9058
  66   2.0000      -0.293912        -7.9978
  67   0.0000       0.024037         0.6541
  68   0.0000       0.074810         2.0357
  69   0.0000       0.097652         2.6573
  70   0.0000       0.116808         3.1785
  71   0.0000       0.126773         3.4497

MULLIKEN ATOMIC CHARGES
-----------------------
   0 S :    0.102959
   1 C :   -0.150269
   2 C :   -0.031287
   3 C :    0.002853
   4 C :   -0.107466
   5 H :    0.023123
   6 C :    0.043403
   7 H :    0.022573
   8 H :    0.029419
   9 C :   -0.148635
  10 H :    0.041007
  11 H :    0.031227
  12 C :   -0.050670
  13 H :    0.050562
  14 H :    0.034485
  15 H :    0.040769
  16 S :    0.094383
  17 C :   -0.068509
  18 C :   -0.072017
  19 C :   -0.042414
  20 C :   -0.178118
  21 H :    0.057080
  22 C :    0.026406
  23 H :    0.025129
  24 H :    0.045423
  25 C :   -0.081647
  26 H :    0.039527
  27 H :    0.020099
  28 C :   -0.012609
  29 H :    0.013237
  30 H :    0.040584
  31 H :    0.025258
  32 H :    0.077777
  33 H :    0.056356
Sum of atomic charges:   -0.0000000

LOEWDIN ATOMIC CHARGES
----------------------
   0 S :    0.400763
   1 C :   -0.198549
   2 C :   -0.050245
   3 C :   -0.055308
   4 C :   -0.192387
   5 H :    0.028441
   6 C :   -0.042905
   7 H :    0.029764
   8 H :    0.031288
   9 C :   -0.055980
  10 H :    0.027446
  11 H :    0.022803
  12 C :   -0.076046
  13 H :    0.036481
  14 H :    0.029516
  15 H :    0.025084
  16 S :    0.393905
  17 C :   -0.188517
  18 C :   -0.080871
  19 C :   -0.059701
  20 C :   -0.186388
  21 H :    0.049675
  22 C :   -0.037521
  23 H :    0.032559
  24 H :    0.030692
  25 C :   -0.042035
  26 H :    0.026742
  27 H :    0.022559
  28 C :   -0.063968
  29 H :    0.021199
  30 H :    0.035033
  31 H :    0.017564
  32 H :    0.042024
  33 H :    0.026880

  Mayer bond orders larger than 0.100000
B(  0-S ,  1-C ) :   1.1135 B(  0-S ,  4-C ) :   1.1420 B(  1-C ,  2-C ) :   1.6462
B(  1-C , 32-H ) :   0.9673 B(  2-C ,  3-C ) :   1.1749 B(  2-C ,  6-C ) :   1.0301
B(  3-C ,  4-C ) :   1.5866 B(  3-C ,  5-H ) :   0.9932 B(  4-C , 20-C ) :   1.0631
B(  6-C ,  7-H ) :   0.9425 B(  6-C ,  8-H ) :   0.9544 B(  6-C ,  9-C ) :   1.0350
B(  9-C , 10-H ) :   0.9580 B(  9-C , 11-H ) :   0.9590 B(  9-C , 12-C ) :   1.0759
B( 12-C , 13-H ) :   0.9727 B( 12-C , 14-H ) :   0.9750 B( 12-C , 15-H ) :   0.9735
B( 16-S , 17-C ) :   1.1599 B( 16-S , 20-C ) :   1.1170 B( 17-C , 18-C ) :   1.6252
B( 17-C , 33-H ) :   0.9585 B( 18-C , 19-C ) :   1.2416 B( 18-C , 21-H ) :   0.9708
B( 19-C , 20-C ) :   1.5862 B( 19-C , 22-C ) :   1.0550 B( 22-C , 23-H ) :   0.9357
B( 22-C , 24-H ) :   0.9271 B( 22-C , 25-C ) :   1.0627 B( 25-C , 26-H ) :   0.9524
B( 25-C , 27-H ) :   0.9516 B( 25-C , 28-C ) :   1.0891 B( 28-C , 29-H ) :   0.9714
B( 28-C , 30-H ) :   0.9721 B( 28-C , 31-H ) :   0.9714

Dispersion correction           -0.014814296
FINAL SINGLE POINT ENERGY     -1339.869351296937

DIPOLE MOMENT
-------------
                                X             Y             Z
Electronic contribution:     18.08585       2.77148      -6.27909
Nuclear contribution   :    -18.46347      -3.04446       6.54657
                        -----------------------------------------
Total Dipole Moment    :     -0.37763      -0.27298       0.26748
                        -----------------------------------------
Magnitude (a.u.)       :      0.53728
Magnitude (Debye)      :      1.36565

Rotational constants in cm-1:     0.019883     0.008410     0.006995
Rotational constants in MHz :   596.086883   252.124927   209.712321

                             ****ORCA TERMINATED NORMALLY****
TOTAL RUN TIME: 0 days 0 hours 0 minutes 35 seconds 853 msec
