                         Program Version 4.2.1 -  RELEASE  -
|  1> ! wB97X-D3 SP def2-SVP
|  2> %pal
|  3> nprocs 16
|  4> end
|  5>
|  6> * xyz 0 1
|  7> S 	 -110.137 	 56.8555 	 116.71
|  8> C 	 -110.456 	 56.4604 	 115.038
|  9> C 	 -109.867 	 55.2608 	 114.719
| 10> C 	 -109.215 	 54.7205 	 115.88
| 11> C 	 -109.429 	 55.2952 	 117.112
| 12> H 	 -108.586 	 53.8718 	 115.838
| 13> C 	 -109.731 	 54.7256 	 113.335
| 14> H 	 -108.824 	 54.2325 	 113.289
| 15> H 	 -109.498 	 55.5504 	 112.635
| 16> C 	 -110.892 	 53.8251 	 112.69
| 17> H 	 -110.679 	 53.6353 	 111.694
| 18> H 	 -110.876 	 52.8119 	 113.21
| 19> C 	 -112.251 	 54.4845 	 112.68
| 20> H 	 -112.942 	 53.8356 	 112.17
| 21> H 	 -112.577 	 54.7108 	 113.688
| 22> H 	 -112.207 	 55.4576 	 112.029
| 23> S 	 -107.78 	 56.3439 	 119.091
| 24> C 	 -107.13 	 55.3267 	 120.347
| 25> C 	 -107.773 	 54.0996 	 120.279
| 26> C 	 -108.646 	 53.95 	 119.179
| 27> C 	 -108.683 	 55.0349 	 118.337
| 28> H 	 -107.536 	 53.3284 	 120.972
| 29> C 	 -109.266 	 52.618 	 119.003
| 30> H 	 -110.292 	 52.7043 	 118.64
| 31> H 	 -109.51 	 52.2372 	 119.996
| 32> C 	 -108.458 	 51.5629 	 118.256
| 33> H 	 -107.395 	 51.7983 	 118.335
| 34> H 	 -108.638 	 51.4894 	 117.158
| 35> C 	 -108.733 	 50.1519 	 118.657
| 36> H 	 -108.165 	 49.4296 	 118.062
| 37> H 	 -109.838 	 49.8389 	 118.531
| 38> H 	 -108.44 	 50.0927 	 119.668
| 39> H 	 -110.805 	 57.2434 	 114.37
| 40> H 	 -106.242 	 55.4774 	 120.948
| 41> *
| 42>
| 43>                          ****END OF INPUT****

CARTESIAN COORDINATES (ANGSTROEM)
---------------------------------
  S    -110.137000   56.855500  116.710000
  C    -110.456000   56.460400  115.038000
  C    -109.867000   55.260800  114.719000
  C    -109.215000   54.720500  115.880000
  C    -109.429000   55.295200  117.112000
  H    -108.586000   53.871800  115.838000
  C    -109.731000   54.725600  113.335000
  H    -108.824000   54.232500  113.289000
  H    -109.498000   55.550400  112.635000
  C    -110.892000   53.825100  112.690000
  H    -110.679000   53.635300  111.694000
  H    -110.876000   52.811900  113.210000
  C    -112.251000   54.484500  112.680000
  H    -112.942000   53.835600  112.170000
  H    -112.577000   54.710800  113.688000
  H    -112.207000   55.457600  112.029000
  S    -107.780000   56.343900  119.091000
  C    -107.130000   55.326700  120.347000
  C    -107.773000   54.099600  120.279000
  C    -108.646000   53.950000  119.179000
  C    -108.683000   55.034900  118.337000
  H    -107.536000   53.328400  120.972000
  C    -109.266000   52.618000  119.003000
  H    -110.292000   52.704300  118.640000
  H    -109.510000   52.237200  119.996000
  C    -108.458000   51.562900  118.256000
  H    -107.395000   51.798300  118.335000
  H    -108.638000   51.489400  117.158000
  C    -108.733000   50.151900  118.657000
  H    -108.165000   49.429600  118.062000
  H    -109.838000   49.838900  118.531000
  H    -108.440000   50.092700  119.668000
  H    -110.805000   57.243400  114.370000
  H    -106.242000   55.477400  120.948000

 Total Charge           Charge          ....    0
 Multiplicity           Mult            ....    1
 Number of Electrons    NEL             ....  134
 Basis Dimension        Dim             ....  322

ORBITAL ENERGIES
----------------

  NO   OCC          E(Eh)            E(eV)
   0   2.0000     -88.964752     -2420.8540
   1   2.0000     -88.961021     -2420.7524
   2   2.0000     -10.330398      -281.1044
   3   2.0000     -10.329944      -281.0921
   4   2.0000     -10.318498      -280.7806
   5   2.0000     -10.317134      -280.7435
   6   2.0000     -10.302132      -280.3353
   7   2.0000     -10.298429      -280.2345
   8   2.0000     -10.292381      -280.0699
   9   2.0000     -10.290219      -280.0111
  10   2.0000     -10.289793      -279.9995
  11   2.0000     -10.289782      -279.9992
  12   2.0000     -10.286903      -279.9208
  13   2.0000     -10.284930      -279.8672
  14   2.0000     -10.281414      -279.7715
  15   2.0000     -10.278927      -279.7038
  16   2.0000      -8.079542      -219.8555
  17   2.0000      -8.076019      -219.7596
  18   2.0000      -6.038125      -164.3057
  19   2.0000      -6.034548      -164.2084
  20   2.0000      -6.033940      -164.1919
  21   2.0000      -6.030495      -164.0981
  22   2.0000      -6.030282      -164.0923
  23   2.0000      -6.026702      -163.9949
  24   2.0000      -1.010535       -27.4980
  25   2.0000      -0.989362       -26.9219
  26   2.0000      -0.915974       -24.9249
  27   2.0000      -0.908468       -24.7207
  28   2.0000      -0.872927       -23.7535
  29   2.0000      -0.858025       -23.3480
  30   2.0000      -0.846575       -23.0365
  31   2.0000      -0.818236       -22.2653
  32   2.0000      -0.782606       -21.2958
  33   2.0000      -0.775085       -21.0911
  34   2.0000      -0.707602       -19.2548
  35   2.0000      -0.698064       -18.9953
  36   2.0000      -0.693462       -18.8701
  37   2.0000      -0.666156       -18.1270
  38   2.0000      -0.646343       -17.5879
  39   2.0000      -0.619992       -16.8708
  40   2.0000      -0.600678       -16.3453
  41   2.0000      -0.573194       -15.5974
  42   2.0000      -0.566885       -15.4257
  43   2.0000      -0.551815       -15.0156
  44   2.0000      -0.544565       -14.8184
  45   2.0000      -0.525644       -14.3035
  46   2.0000      -0.521735       -14.1971
  47   2.0000      -0.516970       -14.0675
  48   2.0000      -0.510715       -13.8973
  49   2.0000      -0.506836       -13.7917
  50   2.0000      -0.489494       -13.3198
  51   2.0000      -0.480857       -13.0848
  52   2.0000      -0.470928       -12.8146
  53   2.0000      -0.462849       -12.5948
  54   2.0000      -0.458400       -12.4737
  55   2.0000      -0.448600       -12.2070
  56   2.0000      -0.439067       -11.9476
  57   2.0000      -0.435832       -11.8596
  58   2.0000      -0.435005       -11.8371
  59   2.0000      -0.424901       -11.5621
  60   2.0000      -0.418764       -11.3952
  61   2.0000      -0.411317       -11.1925
  62   2.0000      -0.402351       -10.9485
  63   2.0000      -0.352587        -9.5944
  64   2.0000      -0.331322        -9.0157
  65   2.0000      -0.324076        -8.8185
  66   2.0000      -0.294969        -8.0265
  67   0.0000       0.026359         0.7173
  68   0.0000       0.061207         1.6655
  69   0.0000       0.109171         2.9707
  70   0.0000       0.120978         3.2920
  71   0.0000       0.136729         3.7206

MULLIKEN ATOMIC CHARGES
-----------------------
   0 S :    0.074734
   1 C :   -0.123973
   2 C :   -0.066848
   3 C :    0.017586
   4 C :   -0.112989
   5 H :   -0.003841
   6 C :    0.070307
   7 H :   -0.001582
   8 H :    0.023426
   9 C :   -0.047662
  10 H :    0.012957
  11 H :    0.038216
  12 C :   -0.068898
  13 H :    0.034655
  14 H :    0.048500
  15 H :    0.033393
  16 S :    0.101821
  17 C :   -0.086693
  18 C :   -0.034859
  19 C :   -0.046563
  20 C :   -0.144290
  21 H :    0.008568
  22 C :    0.081513
  23 H :    0.023650
  24 H :    0.009244
  25 C :   -0.068144
  26 H :    0.029591
  27 H :    0.032837
  28 C :   -0.061810
  29 H :    0.034187
  30 H :    0.043311
  31 H :    0.020403
  32 H :    0.063679
  33 H :    0.065577
Sum of atomic charges:    0.0000000

LOEWDIN ATOMIC CHARGES
----------------------
   0 S :    0.395584
   1 C :   -0.182268
   2 C :   -0.071859
   3 C :   -0.049898
   4 C :   -0.195669
   5 H :    0.019937
   6 C :   -0.033492
   7 H :    0.021565
   8 H :    0.034784
   9 C :   -0.033675
  10 H :    0.014023
  11 H :    0.030047
  12 C :   -0.068075
  13 H :    0.024418
  14 H :    0.023775
  15 H :    0.033778
  16 S :    0.406241
  17 C :   -0.187094
  18 C :   -0.067269
  19 C :   -0.062791
  20 C :   -0.189083
  21 H :    0.025673
  22 C :   -0.037021
  23 H :    0.034563
  24 H :    0.031663
  25 C :   -0.048390
  26 H :    0.024778
  27 H :    0.027310
  28 C :   -0.065159
  29 H :    0.027140
  30 H :    0.034502
  31 H :    0.013674
  32 H :    0.031970
  33 H :    0.036315

  Mayer bond orders larger than 0.100000
B(  0-S ,  1-C ) :   1.1639 B(  0-S ,  4-C ) :   1.1290 B(  1-C ,  2-C ) :   1.5661
B(  1-C , 32-H ) :   0.9701 B(  2-C ,  3-C ) :   1.2682 B(  2-C ,  6-C ) :   1.0258
B(  3-C ,  4-C ) :   1.5645 B(  3-C ,  5-H ) :   0.9942 B(  4-C , 20-C ) :   1.0548
B(  6-C ,  7-H ) :   0.9345 B(  6-C ,  8-H ) :   0.9419 B(  6-C ,  9-C ) :   1.0636
B(  9-C , 10-H ) :   0.9536 B(  9-C , 11-H ) :   0.9554 B(  9-C , 12-C ) :   1.0858
B( 12-C , 13-H ) :   0.9721 B( 12-C , 14-H ) :   0.9741 B( 12-C , 15-H ) :   0.9715
B( 16-S , 17-C ) :   1.1607 B( 16-S , 20-C ) :   1.1316 B( 17-C , 18-C ) :   1.5875
B( 17-C , 33-H ) :   0.9670 B( 18-C , 19-C ) :   1.2593 B( 18-C , 21-H ) :   0.9954
B( 19-C , 20-C ) :   1.5896 B( 19-C , 22-C ) :   1.0663 B( 22-C , 23-H ) :   0.9118
B( 22-C , 24-H ) :   0.9375 B( 22-C , 25-C ) :   1.0465 B( 25-C , 26-H ) :   0.9599
B( 25-C , 27-H ) :   0.9488 B( 25-C , 28-C ) :   1.0864 B( 28-C , 29-H ) :   0.9717
B( 28-C , 30-H ) :   0.9729 B( 28-C , 31-H ) :   0.9753

Dispersion correction           -0.013905923
FINAL SINGLE POINT ENERGY     -1339.860032803102

DIPOLE MOMENT
-------------
                                X             Y             Z
Electronic contribution:      6.41330      24.33669      14.38612
Nuclear contribution   :     -6.14293     -24.98445     -14.77794
                        -----------------------------------------
Total Dipole Moment    :      0.27037      -0.64776      -0.39182
                        -----------------------------------------
Magnitude (a.u.)       :      0.80388
Magnitude (Debye)      :      2.04330

Rotational constants in cm-1:     0.018490     0.008596     0.006263
Rotational constants in MHz :   554.331046   257.688342   187.749240

                             ****ORCA TERMINATED NORMALLY****
TOTAL RUN TIME: 0 days 0 hours 0 minutes 34 seconds 232 msec
