                         Program Version 4.2.1 -  RELEASE  -
|  1> ! wB97X-D3 SP def2-SVP
|  2> %pal
|  3> nprocs 16
|  4> end
|  5>
|  6> * xyz 0 1
|  7> S 	 -65.8843 	 40.9161 	 121.406
|  8> C 	 -67.1068 	 40.8887 	 120.201
|  9> C 	 -68.4016 	 40.5621 	 120.633
| 10> C 	 -68.3421 	 40.3785 	 122.128
| 11> C 	 -67.0694 	 40.602 	 122.692
| 12> H 	 -69.1626 	 40.1037 	 122.745
| 13> C 	 -69.6592 	 40.3675 	 119.807
| 14> H 	 -69.9787 	 39.3206 	 119.886
| 15> H 	 -69.4222 	 40.5125 	 118.717
| 16> C 	 -70.8482 	 41.1866 	 120.279
| 17> H 	 -71.0682 	 40.8736 	 121.305
| 18> H 	 -70.4847 	 42.2312 	 120.333
| 19> C 	 -71.9802 	 41.0666 	 119.221
| 20> H 	 -72.801 	 41.6895 	 119.567
| 21> H 	 -71.6754 	 41.4363 	 118.233
| 22> H 	 -72.4183 	 40.0724 	 119.227
| 23> S 	 -65.7018 	 38.8182 	 124.103
| 24> C 	 -65.8269 	 38.7836 	 125.757
| 25> C 	 -66.6257 	 39.7527 	 126.258
| 26> C 	 -67.0979 	 40.63 	 125.23
| 27> C 	 -66.6365 	 40.2506 	 123.971
| 28> H 	 -66.6691 	 39.9494 	 127.367
| 29> C 	 -67.8775 	 41.8762 	 125.544
| 30> H 	 -67.8123 	 42.5892 	 124.728
| 31> H 	 -67.4275 	 42.453 	 126.419
| 32> C 	 -69.2718 	 41.4597 	 125.884
| 33> H 	 -69.2443 	 40.8653 	 126.707
| 34> H 	 -69.6337 	 40.8625 	 124.947
| 35> C 	 -70.2594 	 42.6273 	 126.02
| 36> H 	 -70.1658 	 43.2529 	 126.944
| 37> H 	 -71.3059 	 42.3282 	 125.962
| 38> H 	 -70.032 	 43.2584 	 125.136
| 39> H 	 -66.8457 	 41.1278 	 119.189
| 40> H 	 -65.2064 	 38.138 	 126.448
| 41> *
| 42>
| 43>                          ****END OF INPUT****

CARTESIAN COORDINATES (ANGSTROEM)
---------------------------------
  S    -65.884300   40.916100  121.406000
  C    -67.106800   40.888700  120.201000
  C    -68.401600   40.562100  120.633000
  C    -68.342100   40.378500  122.128000
  C    -67.069400   40.602000  122.692000
  H    -69.162600   40.103700  122.745000
  C    -69.659200   40.367500  119.807000
  H    -69.978700   39.320600  119.886000
  H    -69.422200   40.512500  118.717000
  C    -70.848200   41.186600  120.279000
  H    -71.068200   40.873600  121.305000
  H    -70.484700   42.231200  120.333000
  C    -71.980200   41.066600  119.221000
  H    -72.801000   41.689500  119.567000
  H    -71.675400   41.436300  118.233000
  H    -72.418300   40.072400  119.227000
  S    -65.701800   38.818200  124.103000
  C    -65.826900   38.783600  125.757000
  C    -66.625700   39.752700  126.258000
  C    -67.097900   40.630000  125.230000
  C    -66.636500   40.250600  123.971000
  H    -66.669100   39.949400  127.367000
  C    -67.877500   41.876200  125.544000
  H    -67.812300   42.589200  124.728000
  H    -67.427500   42.453000  126.419000
  C    -69.271800   41.459700  125.884000
  H    -69.244300   40.865300  126.707000
  H    -69.633700   40.862500  124.947000
  C    -70.259400   42.627300  126.020000
  H    -70.165800   43.252900  126.944000
  H    -71.305900   42.328200  125.962000
  H    -70.032000   43.258400  125.136000
  H    -66.845700   41.127800  119.189000
  H    -65.206400   38.138000  126.448000

 Total Charge           Charge          ....    0
 Multiplicity           Mult            ....    1
 Number of Electrons    NEL             ....  134
 Basis Dimension        Dim             ....  322

ORBITAL ENERGIES
----------------

  NO   OCC          E(Eh)            E(eV)
   0   2.0000     -88.963931     -2420.8316
   1   2.0000     -88.960832     -2420.7473
   2   2.0000     -10.326973      -281.0112
   3   2.0000     -10.314813      -280.6803
   4   2.0000     -10.314337      -280.6674
   5   2.0000     -10.311016      -280.5770
   6   2.0000     -10.310567      -280.5648
   7   2.0000     -10.303010      -280.3592
   8   2.0000     -10.299870      -280.2737
   9   2.0000     -10.296392      -280.1791
  10   2.0000     -10.291036      -280.0333
  11   2.0000     -10.290778      -280.0263
  12   2.0000     -10.289061      -279.9796
  13   2.0000     -10.283723      -279.8343
  14   2.0000     -10.282877      -279.8113
  15   2.0000     -10.280369      -279.7431
  16   2.0000      -8.079080      -219.8429
  17   2.0000      -8.078342      -219.8229
  18   2.0000      -6.037573      -164.2907
  19   2.0000      -6.036620      -164.2648
  20   2.0000      -6.033494      -164.1797
  21   2.0000      -6.032369      -164.1491
  22   2.0000      -6.029888      -164.0816
  23   2.0000      -6.029230      -164.0637
  24   2.0000      -1.017918       -27.6989
  25   2.0000      -0.981704       -26.7135
  26   2.0000      -0.918365       -24.9900
  27   2.0000      -0.914288       -24.8791
  28   2.0000      -0.877478       -23.8774
  29   2.0000      -0.850318       -23.1383
  30   2.0000      -0.843020       -22.9397
  31   2.0000      -0.810645       -22.0588
  32   2.0000      -0.781531       -21.2665
  33   2.0000      -0.769562       -20.9408
  34   2.0000      -0.709083       -19.2951
  35   2.0000      -0.695989       -18.9388
  36   2.0000      -0.690504       -18.7896
  37   2.0000      -0.658829       -17.9276
  38   2.0000      -0.642079       -17.4719
  39   2.0000      -0.618724       -16.8363
  40   2.0000      -0.600571       -16.3424
  41   2.0000      -0.573537       -15.6067
  42   2.0000      -0.567165       -15.4333
  43   2.0000      -0.559940       -15.2367
  44   2.0000      -0.524805       -14.2807
  45   2.0000      -0.519496       -14.1362
  46   2.0000      -0.517973       -14.0948
  47   2.0000      -0.513088       -13.9618
  48   2.0000      -0.505936       -13.7672
  49   2.0000      -0.500695       -13.6246
  50   2.0000      -0.492842       -13.4109
  51   2.0000      -0.477734       -12.9998
  52   2.0000      -0.471899       -12.8410
  53   2.0000      -0.463983       -12.6256
  54   2.0000      -0.457370       -12.4457
  55   2.0000      -0.448864       -12.2142
  56   2.0000      -0.444944       -12.1075
  57   2.0000      -0.437225       -11.8975
  58   2.0000      -0.432927       -11.7805
  59   2.0000      -0.426070       -11.5939
  60   2.0000      -0.424063       -11.5393
  61   2.0000      -0.420752       -11.4493
  62   2.0000      -0.410422       -11.1681
  63   2.0000      -0.345989        -9.4149
  64   2.0000      -0.327595        -8.9143
  65   2.0000      -0.322498        -8.7756
  66   2.0000      -0.295127        -8.0308
  67   0.0000       0.035864         0.9759
  68   0.0000       0.070538         1.9194
  69   0.0000       0.114479         3.1151
  70   0.0000       0.123910         3.3718
  71   0.0000       0.125400         3.4123

MULLIKEN ATOMIC CHARGES
-----------------------
   0 S :    0.102590
   1 C :   -0.113349
   2 C :   -0.074897
   3 C :    0.042095
   4 C :   -0.177692
   5 H :    0.006929
   6 C :    0.045702
   7 H :    0.036341
   8 H :    0.025393
   9 C :   -0.111670
  10 H :    0.035207
  11 H :    0.037372
  12 C :   -0.027031
  13 H :    0.029422
  14 H :    0.042473
  15 H :    0.033196
  16 S :    0.132051
  17 C :   -0.100558
  18 C :   -0.054489
  19 C :   -0.057603
  20 C :   -0.143312
  21 H :    0.037937
  22 C :    0.059611
  23 H :    0.022455
  24 H :    0.034398
  25 C :   -0.084030
  26 H :    0.010391
  27 H :    0.034211
  28 C :   -0.039009
  29 H :    0.036646
  30 H :    0.036229
  31 H :    0.028363
  32 H :    0.041768
  33 H :    0.072862
Sum of atomic charges:   -0.0000000

LOEWDIN ATOMIC CHARGES
----------------------
   0 S :    0.403337
   1 C :   -0.199602
   2 C :   -0.058345
   3 C :   -0.043596
   4 C :   -0.198816
   5 H :    0.019978
   6 C :   -0.041055
   7 H :    0.033814
   8 H :    0.032795
   9 C :   -0.042081
  10 H :    0.023992
  11 H :    0.027267
  12 C :   -0.062491
  13 H :    0.026919
  14 H :    0.029984
  15 H :    0.026413
  16 S :    0.460521
  17 C :   -0.220598
  18 C :   -0.088160
  19 C :   -0.047969
  20 C :   -0.228931
  21 H :    0.040819
  22 C :   -0.034613
  23 H :    0.026567
  24 H :    0.035908
  25 C :   -0.036387
  26 H :    0.007164
  27 H :    0.034312
  28 C :   -0.071663
  29 H :    0.026775
  30 H :    0.024936
  31 H :    0.028980
  32 H :    0.020630
  33 H :    0.043197

  Mayer bond orders larger than 0.100000
B(  0-S ,  1-C ) :   1.1529 B(  0-S ,  4-C ) :   1.1275 B(  1-C ,  2-C ) :   1.6191
B(  1-C , 32-H ) :   0.9667 B(  2-C ,  3-C ) :   1.2071 B(  2-C ,  6-C ) :   1.0324
B(  3-C ,  4-C ) :   1.5938 B(  3-C ,  5-H ) :   0.9872 B(  4-C , 20-C ) :   1.0498
B(  6-C ,  7-H ) :   0.9350 B(  6-C ,  8-H ) :   0.9468 B(  6-C ,  9-C ) :   1.0483
B(  9-C , 10-H ) :   0.9536 B(  9-C , 11-H ) :   0.9599 B(  9-C , 12-C ) :   1.0835
B( 12-C , 13-H ) :   0.9737 B( 12-C , 14-H ) :   0.9740 B( 12-C , 15-H ) :   0.9731
B( 16-S , 17-C ) :   1.1911 B( 16-S , 20-C ) :   1.1510 B( 17-C , 18-C ) :   1.5989
B( 17-C , 33-H ) :   0.9528 B( 18-C , 19-C ) :   1.2620 B( 18-C , 21-H ) :   0.9780
B( 19-C , 20-C ) :   1.5807 B( 19-C , 22-C ) :   1.0517 B( 22-C , 23-H ) :   0.9344
B( 22-C , 24-H ) :   0.9385 B( 22-C , 25-C ) :   1.0503 B( 25-C , 26-H ) :   0.9606
B( 25-C , 27-H ) :   0.9496 B( 25-C , 28-C ) :   1.0768 B( 28-C , 29-H ) :   0.9724
B( 28-C , 30-H ) :   0.9763 B( 28-C , 31-H ) :   0.9732

Dispersion correction           -0.014020504
FINAL SINGLE POINT ENERGY     -1339.875039183738

DIPOLE MOMENT
-------------
                                X             Y             Z
Electronic contribution:     28.84254     -10.42639       0.43977
Nuclear contribution   :    -29.40901      10.49467      -0.36144
                        -----------------------------------------
Total Dipole Moment    :     -0.56647       0.06828       0.07833
                        -----------------------------------------
Magnitude (a.u.)       :      0.57593
Magnitude (Debye)      :      1.46389

Rotational constants in cm-1:     0.017097     0.009121     0.006678
Rotational constants in MHz :   512.543372   273.431028   200.208076

                             ****ORCA TERMINATED NORMALLY****
TOTAL RUN TIME: 0 days 0 hours 0 minutes 34 seconds 592 msec
