                         Program Version 4.2.1 -  RELEASE  -
|  1> ! wB97X-D3 SP def2-SVP
|  2> %pal
|  3> nprocs 16
|  4> end
|  5>
|  6> * xyz 0 1
|  7> S 	 -96.821 	 38.3451 	 124.15
|  8> C 	 -95.5163 	 37.779 	 125.131
|  9> C 	 -94.2526 	 37.8159 	 124.498
| 10> C 	 -94.4306 	 38.1219 	 123.142
| 11> C 	 -95.6889 	 38.4603 	 122.759
| 12> H 	 -93.7225 	 38.0106 	 122.383
| 13> C 	 -92.9436 	 37.3396 	 125.128
| 14> H 	 -92.6321 	 36.486 	 124.613
| 15> H 	 -93.1333 	 36.9777 	 126.103
| 16> C 	 -91.7266 	 38.353 	 125.13
| 17> H 	 -90.9234 	 37.8936 	 125.639
| 18> H 	 -91.6203 	 38.6804 	 124.039
| 19> C 	 -92.172 	 39.6188 	 125.909
| 20> H 	 -92.5469 	 39.4681 	 126.889
| 21> H 	 -91.4234 	 40.3533 	 125.872
| 22> H 	 -92.9915 	 40.1321 	 125.451
| 23> S 	 -95.7082 	 37.71 	 120.133
| 24> C 	 -96.3726 	 38.7431 	 118.912
| 25> C 	 -96.9191 	 39.8529 	 119.524
| 26> C 	 -96.8492 	 39.8775 	 120.951
| 27> C 	 -96.1102 	 38.8062 	 121.394
| 28> H 	 -97.3916 	 40.5844 	 118.873
| 29> C 	 -97.3148 	 41.0508 	 121.747
| 30> H 	 -96.5282 	 41.7845 	 121.807
| 31> H 	 -97.4846 	 40.5954 	 122.718
| 32> C 	 -98.7602 	 41.6284 	 121.476
| 33> H 	 -98.6835 	 42.1844 	 120.549
| 34> H 	 -99.0254 	 42.2845 	 122.283
| 35> C 	 -99.7243 	 40.4446 	 121.26
| 36> H 	 -100.737 	 40.711 	 121.311
| 37> H 	 -99.7207 	 39.631 	 121.987
| 38> H 	 -99.5675 	 40.1226 	 120.217
| 39> H 	 -95.7345 	 37.5917 	 126.195
| 40> H 	 -96.5286 	 38.3944 	 117.843
| 41> *
| 42>
| 43>                          ****END OF INPUT****

CARTESIAN COORDINATES (ANGSTROEM)
---------------------------------
  S    -96.821000   38.345100  124.150000
  C    -95.516300   37.779000  125.131000
  C    -94.252600   37.815900  124.498000
  C    -94.430600   38.121900  123.142000
  C    -95.688900   38.460300  122.759000
  H    -93.722500   38.010600  122.383000
  C    -92.943600   37.339600  125.128000
  H    -92.632100   36.486000  124.613000
  H    -93.133300   36.977700  126.103000
  C    -91.726600   38.353000  125.130000
  H    -90.923400   37.893600  125.639000
  H    -91.620300   38.680400  124.039000
  C    -92.172000   39.618800  125.909000
  H    -92.546900   39.468100  126.889000
  H    -91.423400   40.353300  125.872000
  H    -92.991500   40.132100  125.451000
  S    -95.708200   37.710000  120.133000
  C    -96.372600   38.743100  118.912000
  C    -96.919100   39.852900  119.524000
  C    -96.849200   39.877500  120.951000
  C    -96.110200   38.806200  121.394000
  H    -97.391600   40.584400  118.873000
  C    -97.314800   41.050800  121.747000
  H    -96.528200   41.784500  121.807000
  H    -97.484600   40.595400  122.718000
  C    -98.760200   41.628400  121.476000
  H    -98.683500   42.184400  120.549000
  H    -99.025400   42.284500  122.283000
  C    -99.724300   40.444600  121.260000
  H    -100.737000   40.711000  121.311000
  H    -99.720700   39.631000  121.987000
  H    -99.567500   40.122600  120.217000
  H    -95.734500   37.591700  126.195000
  H    -96.528600   38.394400  117.843000

 Total Charge           Charge          ....    0
 Multiplicity           Mult            ....    1
 Number of Electrons    NEL             ....  134
 Basis Dimension        Dim             ....  322

ORBITAL ENERGIES
----------------

  NO   OCC          E(Eh)            E(eV)
   0   2.0000     -88.968274     -2420.9498
   1   2.0000     -88.963385     -2420.8168
   2   2.0000     -10.327795      -281.0336
   3   2.0000     -10.322425      -280.8875
   4   2.0000     -10.317842      -280.7628
   5   2.0000     -10.317445      -280.7519
   6   2.0000     -10.303874      -280.3827
   7   2.0000     -10.298031      -280.2237
   8   2.0000     -10.294417      -280.1253
   9   2.0000     -10.291349      -280.0419
  10   2.0000     -10.288505      -279.9644
  11   2.0000     -10.285858      -279.8924
  12   2.0000     -10.285837      -279.8918
  13   2.0000     -10.285457      -279.8815
  14   2.0000     -10.271480      -279.5012
  15   2.0000     -10.262610      -279.2598
  16   2.0000      -8.082284      -219.9301
  17   2.0000      -8.079023      -219.8414
  18   2.0000      -6.040716      -164.3762
  19   2.0000      -6.037518      -164.2892
  20   2.0000      -6.036956      -164.2739
  21   2.0000      -6.033279      -164.1739
  22   2.0000      -6.033133      -164.1699
  23   2.0000      -6.029874      -164.0812
  24   2.0000      -1.009791       -27.4778
  25   2.0000      -0.986390       -26.8410
  26   2.0000      -0.908972       -24.7344
  27   2.0000      -0.905600       -24.6426
  28   2.0000      -0.868331       -23.6285
  29   2.0000      -0.851834       -23.1796
  30   2.0000      -0.845019       -22.9941
  31   2.0000      -0.813921       -22.1479
  32   2.0000      -0.784354       -21.3434
  33   2.0000      -0.772249       -21.0140
  34   2.0000      -0.708658       -19.2836
  35   2.0000      -0.702633       -19.1196
  36   2.0000      -0.686760       -18.6877
  37   2.0000      -0.663353       -18.0508
  38   2.0000      -0.640687       -17.4340
  39   2.0000      -0.622504       -16.9392
  40   2.0000      -0.595267       -16.1980
  41   2.0000      -0.564626       -15.3643
  42   2.0000      -0.560829       -15.2609
  43   2.0000      -0.550089       -14.9687
  44   2.0000      -0.543698       -14.7948
  45   2.0000      -0.540150       -14.6982
  46   2.0000      -0.517783       -14.0896
  47   2.0000      -0.514768       -14.0075
  48   2.0000      -0.499269       -13.5858
  49   2.0000      -0.490844       -13.3566
  50   2.0000      -0.484239       -13.1768
  51   2.0000      -0.476518       -12.9667
  52   2.0000      -0.470699       -12.8084
  53   2.0000      -0.465853       -12.6765
  54   2.0000      -0.459803       -12.5119
  55   2.0000      -0.447021       -12.1641
  56   2.0000      -0.441320       -12.0089
  57   2.0000      -0.437658       -11.9093
  58   2.0000      -0.433668       -11.8007
  59   2.0000      -0.426505       -11.6058
  60   2.0000      -0.422850       -11.5063
  61   2.0000      -0.420490       -11.4421
  62   2.0000      -0.404226       -10.9996
  63   2.0000      -0.349063        -9.4985
  64   2.0000      -0.332302        -9.0424
  65   2.0000      -0.329239        -8.9591
  66   2.0000      -0.289880        -7.8880
  67   0.0000       0.034824         0.9476
  68   0.0000       0.069344         1.8870
  69   0.0000       0.106436         2.8963
  70   0.0000       0.117566         3.1991
  71   0.0000       0.131936         3.5902

MULLIKEN ATOMIC CHARGES
-----------------------
   0 S :    0.109376
   1 C :   -0.147614
   2 C :   -0.068852
   3 C :    0.020998
   4 C :   -0.138508
   5 H :   -0.009728
   6 C :    0.099740
   7 H :    0.020335
   8 H :   -0.001006
   9 C :   -0.072449
  10 H :    0.036283
  11 H :    0.049282
  12 C :   -0.024817
  13 H :    0.016123
  14 H :    0.016853
  15 H :    0.023340
  16 S :    0.112501
  17 C :   -0.129464
  18 C :   -0.048077
  19 C :   -0.045020
  20 C :   -0.162316
  21 H :    0.018446
  22 C :    0.077293
  23 H :    0.048799
  24 H :    0.005273
  25 C :   -0.061917
  26 H :    0.028500
  27 H :    0.037791
  28 C :   -0.039647
  29 H :    0.014103
  30 H :    0.032785
  31 H :    0.035310
  32 H :    0.060763
  33 H :    0.085522
Sum of atomic charges:    0.0000000

LOEWDIN ATOMIC CHARGES
----------------------
   0 S :    0.400203
   1 C :   -0.201290
   2 C :   -0.059910
   3 C :   -0.058521
   4 C :   -0.174727
   5 H :    0.020732
   6 C :   -0.024212
   7 H :    0.024007
   8 H :    0.021649
   9 C :   -0.026941
  10 H :    0.021330
  11 H :    0.036752
  12 C :   -0.065091
  13 H :    0.018759
  14 H :    0.017240
  15 H :    0.025949
  16 S :    0.427462
  17 C :   -0.209573
  18 C :   -0.073474
  19 C :   -0.063818
  20 C :   -0.203379
  21 H :    0.028744
  22 C :   -0.032769
  23 H :    0.032625
  24 H :    0.019347
  25 C :   -0.028912
  26 H :    0.019966
  27 H :    0.023431
  28 C :   -0.066667
  29 H :    0.017855
  30 H :    0.026843
  31 H :    0.032714
  32 H :    0.027913
  33 H :    0.045760

  Mayer bond orders larger than 0.100000
B(  0-S ,  1-C ) :   1.1639 B(  0-S ,  4-C ) :   1.1265 B(  1-C ,  2-C ) :   1.5823
B(  1-C , 32-H ) :   0.9613 B(  2-C ,  3-C ) :   1.2309 B(  2-C ,  6-C ) :   1.0236
B(  3-C ,  4-C ) :   1.5988 B(  3-C ,  5-H ) :   1.0010 B(  4-C , 20-C ) :   1.0298
B(  6-C ,  7-H ) :   0.9404 B(  6-C ,  8-H ) :   0.9380 B(  6-C ,  9-C ) :   1.0673
B(  9-C , 10-H ) :   0.9585 B(  9-C , 11-H ) :   0.9569 B(  9-C , 12-C ) :   1.0742
B( 12-C , 13-H ) :   0.9761 B( 12-C , 14-H ) :   0.9741 B( 12-C , 15-H ) :   0.9696
B( 16-S , 17-C ) :   1.1548 B( 16-S , 20-C ) :   1.1656 B( 17-C , 18-C ) :   1.5998
B( 17-C , 33-H ) :   0.9601 B( 18-C , 19-C ) :   1.2370 B( 18-C , 21-H ) :   0.9876
B( 19-C , 20-C ) :   1.5768 B( 19-C , 22-C ) :   1.0396 B( 22-C , 23-H ) :   0.9397
B( 22-C , 24-H ) :   0.9205 B( 22-C , 25-C ) :   1.0605 B( 25-C , 26-H ) :   0.9557
B( 25-C , 27-H ) :   0.9639 B( 25-C , 28-C ) :   1.0800 B( 28-C , 29-H ) :   0.9714
B( 28-C , 30-H ) :   0.9764 B( 28-C , 31-H ) :   0.9662

Dispersion correction           -0.014960361
FINAL SINGLE POINT ENERGY     -1339.868723326761

DIPOLE MOMENT
-------------
                                X             Y             Z
Electronic contribution:     -3.49646     -11.12921      -8.40426
Nuclear contribution   :      3.56242      11.32439       8.48856
                        -----------------------------------------
Total Dipole Moment    :      0.06596       0.19518       0.08430
                        -----------------------------------------
Magnitude (a.u.)       :      0.22260
Magnitude (Debye)      :      0.56581

Rotational constants in cm-1:     0.022570     0.007961     0.006959
Rotational constants in MHz :   676.621536   238.675449   208.627187

                             ****ORCA TERMINATED NORMALLY****
TOTAL RUN TIME: 0 days 0 hours 0 minutes 32 seconds 442 msec
