                         Program Version 4.2.1 -  RELEASE  -
|  1> ! wB97X-D3 SP def2-SVP
|  2> %pal
|  3> nprocs 16
|  4> end
|  5>
|  6> * xyz 0 1
|  7> S 	 0.115138 	 27.8187 	 39.0767
|  8> C 	 -0.652445 	 27.3869 	 37.565
|  9> C 	 0.283622 	 26.9294 	 36.6433
| 10> C 	 1.63356 	 27.126 	 37.181
| 11> C 	 1.72048 	 27.5493 	 38.4953
| 12> H 	 2.54071 	 26.9581 	 36.5814
| 13> C 	 0.0292618 	 26.3318 	 35.2931
| 14> H 	 -0.865616 	 25.7543 	 35.3434
| 15> H 	 0.780051 	 25.5819 	 35.2025
| 16> C 	 0.169728 	 27.3283 	 34.1223
| 17> H 	 -0.62932 	 28.0108 	 34.0545
| 18> H 	 1.07545 	 27.9567 	 34.2053
| 19> C 	 0.365613 	 26.6011 	 32.8078
| 20> H 	 0.282908 	 27.3979 	 31.9898
| 21> H 	 1.35817 	 26.1262 	 32.6194
| 22> H 	 -0.393325 	 25.8351 	 32.6572
| 23> S 	 2.54049 	 29.4326 	 40.4206
| 24> C 	 4.1697 	 29.582 	 40.9197
| 25> C 	 4.83805 	 28.5151 	 40.386
| 26> C 	 4.14391 	 27.784 	 39.3513
| 27> C 	 2.86061 	 28.1062 	 39.2273
| 28> H 	 5.79384 	 28.3415 	 40.6363
| 29> C 	 4.90827 	 26.6281 	 38.6124
| 30> H 	 5.76989 	 27.1205 	 38.1042
| 31> H 	 4.19598 	 26.1625 	 37.9307
| 32> C 	 5.46436 	 25.6247 	 39.6554
| 33> H 	 6.39706 	 26.1131 	 40.0313
| 34> H 	 5.78694 	 24.7552 	 39.1001
| 35> C 	 4.4858 	 25.1368 	 40.7494
| 36> H 	 4.1567 	 26.0645 	 41.3134
| 37> H 	 4.83002 	 24.3421 	 41.4121
| 38> H 	 3.52026 	 24.7829 	 40.2662
| 39> H 	 -1.74229 	 27.3829 	 37.5255
| 40> H 	 4.59323 	 30.2026 	 41.6652
| 41> *
| 42>
| 43>                          ****END OF INPUT****

CARTESIAN COORDINATES (ANGSTROEM)
---------------------------------
  S      0.115138   27.818700   39.076700
  C     -0.652445   27.386900   37.565000
  C      0.283622   26.929400   36.643300
  C      1.633560   27.126000   37.181000
  C      1.720480   27.549300   38.495300
  H      2.540710   26.958100   36.581400
  C      0.029262   26.331800   35.293100
  H     -0.865616   25.754300   35.343400
  H      0.780051   25.581900   35.202500
  C      0.169728   27.328300   34.122300
  H     -0.629320   28.010800   34.054500
  H      1.075450   27.956700   34.205300
  C      0.365613   26.601100   32.807800
  H      0.282908   27.397900   31.989800
  H      1.358170   26.126200   32.619400
  H     -0.393325   25.835100   32.657200
  S      2.540490   29.432600   40.420600
  C      4.169700   29.582000   40.919700
  C      4.838050   28.515100   40.386000
  C      4.143910   27.784000   39.351300
  C      2.860610   28.106200   39.227300
  H      5.793840   28.341500   40.636300
  C      4.908270   26.628100   38.612400
  H      5.769890   27.120500   38.104200
  H      4.195980   26.162500   37.930700
  C      5.464360   25.624700   39.655400
  H      6.397060   26.113100   40.031300
  H      5.786940   24.755200   39.100100
  C      4.485800   25.136800   40.749400
  H      4.156700   26.064500   41.313400
  H      4.830020   24.342100   41.412100
  H      3.520260   24.782900   40.266200
  H     -1.742290   27.382900   37.525500
  H      4.593230   30.202600   41.665200

 Total Charge           Charge          ....    0
 Multiplicity           Mult            ....    1
 Number of Electrons    NEL             ....  134
 Basis Dimension        Dim             ....  322

ORBITAL ENERGIES
----------------

  NO   OCC          E(Eh)            E(eV)
   0   2.0000     -88.962481     -2420.7922
   1   2.0000     -88.957742     -2420.6632
   2   2.0000     -10.331727      -281.1406
   3   2.0000     -10.328342      -281.0485
   4   2.0000     -10.317614      -280.7565
   5   2.0000     -10.313499      -280.6446
   6   2.0000     -10.306723      -280.4602
   7   2.0000     -10.300022      -280.2779
   8   2.0000     -10.299179      -280.2549
   9   2.0000     -10.299042      -280.2512
  10   2.0000     -10.290275      -280.0126
  11   2.0000     -10.289638      -279.9953
  12   2.0000     -10.286931      -279.9216
  13   2.0000     -10.284960      -279.8680
  14   2.0000     -10.283213      -279.8204
  15   2.0000     -10.282306      -279.7958
  16   2.0000      -8.077869      -219.8100
  17   2.0000      -8.072672      -219.6686
  18   2.0000      -6.036497      -164.2614
  19   2.0000      -6.032150      -164.1432
  20   2.0000      -6.031380      -164.1222
  21   2.0000      -6.028600      -164.0465
  22   2.0000      -6.027176      -164.0078
  23   2.0000      -6.023107      -163.8971
  24   2.0000      -1.008937       -27.4546
  25   2.0000      -0.986723       -26.8501
  26   2.0000      -0.916861       -24.9490
  27   2.0000      -0.904768       -24.6200
  28   2.0000      -0.873914       -23.7804
  29   2.0000      -0.849634       -23.1197
  30   2.0000      -0.834439       -22.7062
  31   2.0000      -0.817308       -22.2401
  32   2.0000      -0.781267       -21.2594
  33   2.0000      -0.775987       -21.1157
  34   2.0000      -0.706943       -19.2369
  35   2.0000      -0.701833       -19.0979
  36   2.0000      -0.693477       -18.8705
  37   2.0000      -0.664755       -18.0889
  38   2.0000      -0.644801       -17.5459
  39   2.0000      -0.621477       -16.9112
  40   2.0000      -0.593555       -16.1515
  41   2.0000      -0.569305       -15.4916
  42   2.0000      -0.563748       -15.3404
  43   2.0000      -0.554694       -15.0940
  44   2.0000      -0.541622       -14.7383
  45   2.0000      -0.531660       -14.4672
  46   2.0000      -0.518548       -14.1104
  47   2.0000      -0.514104       -13.9895
  48   2.0000      -0.508057       -13.8249
  49   2.0000      -0.502597       -13.6764
  50   2.0000      -0.491941       -13.3864
  51   2.0000      -0.476381       -12.9630
  52   2.0000      -0.467133       -12.7113
  53   2.0000      -0.463337       -12.6081
  54   2.0000      -0.457457       -12.4480
  55   2.0000      -0.447976       -12.1900
  56   2.0000      -0.447032       -12.1644
  57   2.0000      -0.441665       -12.0183
  58   2.0000      -0.433413       -11.7938
  59   2.0000      -0.423581       -11.5262
  60   2.0000      -0.417600       -11.3635
  61   2.0000      -0.412336       -11.2202
  62   2.0000      -0.396980       -10.8024
  63   2.0000      -0.363725        -9.8975
  64   2.0000      -0.326427        -8.8825
  65   2.0000      -0.322777        -8.7832
  66   2.0000      -0.292171        -7.9504
  67   0.0000       0.028637         0.7793
  68   0.0000       0.077601         2.1116
  69   0.0000       0.106255         2.8914
  70   0.0000       0.120291         3.2733
  71   0.0000       0.138432         3.7669

MULLIKEN ATOMIC CHARGES
-----------------------
   0 S :    0.086565
   1 C :   -0.137156
   2 C :   -0.100082
   3 C :   -0.011196
   4 C :   -0.113757
   5 H :    0.024463
   6 C :    0.109393
   7 H :    0.019083
   8 H :    0.008894
   9 C :   -0.037830
  10 H :    0.024230
  11 H :    0.032764
  12 C :   -0.088272
  13 H :    0.038366
  14 H :    0.041658
  15 H :    0.031893
  16 S :    0.074045
  17 C :   -0.045014
  18 C :   -0.005095
  19 C :   -0.103550
  20 C :   -0.114477
  21 H :   -0.035787
  22 C :    0.092013
  23 H :    0.048741
  24 H :    0.020095
  25 C :   -0.103949
  26 H :    0.034658
  27 H :    0.029075
  28 C :   -0.069394
  29 H :    0.053619
  30 H :    0.049559
  31 H :    0.038389
  32 H :    0.057792
  33 H :    0.050263
Sum of atomic charges:    0.0000000

LOEWDIN ATOMIC CHARGES
----------------------
   0 S :    0.410496
   1 C :   -0.194452
   2 C :   -0.059411
   3 C :   -0.069075
   4 C :   -0.197502
   5 H :    0.029492
   6 C :   -0.029452
   7 H :    0.029926
   8 H :    0.029873
   9 C :   -0.034732
  10 H :    0.019698
  11 H :    0.032346
  12 C :   -0.072786
  13 H :    0.033741
  14 H :    0.027305
  15 H :    0.020100
  16 S :    0.380748
  17 C :   -0.178595
  18 C :   -0.064321
  19 C :   -0.063131
  20 C :   -0.175409
  21 H :    0.004814
  22 C :   -0.022102
  23 H :    0.040181
  24 H :    0.023504
  25 C :   -0.047386
  26 H :    0.024161
  27 H :    0.022312
  28 C :   -0.077076
  29 H :    0.035470
  30 H :    0.027355
  31 H :    0.034212
  32 H :    0.028964
  33 H :    0.030730

  Mayer bond orders larger than 0.100000
B(  0-S ,  1-C ) :   1.1471 B(  0-S ,  4-C ) :   1.1450 B(  1-C ,  2-C ) :   1.5903
B(  1-C , 32-H ) :   0.9735 B(  2-C ,  3-C ) :   1.2465 B(  2-C ,  6-C ) :   1.0280
B(  3-C ,  4-C ) :   1.5765 B(  3-C ,  5-H ) :   0.9794 B(  4-C , 20-C ) :   1.0460
B(  6-C ,  7-H ) :   0.9347 B(  6-C ,  8-H ) :   0.9371 B(  6-C ,  9-C ) :   1.0533
B(  9-C , 10-H ) :   0.9572 B(  9-C , 11-H ) :   0.9573 B(  9-C , 12-C ) :   1.0795
B( 12-C , 13-H ) :   0.9739 B( 12-C , 14-H ) :   0.9767 B( 12-C , 15-H ) :   0.9744
B( 16-S , 17-C ) :   1.1482 B( 16-S , 20-C ) :   1.1022 B( 17-C , 18-C ) :   1.6191
B( 17-C , 33-H ) :   0.9727 B( 18-C , 19-C ) :   1.2163 B( 18-C , 21-H ) :   1.0046
B( 19-C , 20-C ) :   1.6674 B( 19-C , 22-C ) :   1.0203 B( 22-C , 23-H ) :   0.9401
B( 22-C , 24-H ) :   0.9354 B( 22-C , 25-C ) :   1.0706 B( 25-C , 26-H ) :   0.9531
B( 25-C , 27-H ) :   0.9570 B( 25-C , 28-C ) :   1.0700 B( 28-C , 29-H ) :   0.9662
B( 28-C , 30-H ) :   0.9757 B( 28-C , 31-H ) :   0.9727

Dispersion correction           -0.014194530
FINAL SINGLE POINT ENERGY     -1339.870638071732

DIPOLE MOMENT
-------------
                                X             Y             Z
Electronic contribution:     -7.38488      15.03197      17.99894
Nuclear contribution   :      7.71990     -15.41184     -18.46709
                        -----------------------------------------
Total Dipole Moment    :      0.33503      -0.37986      -0.46815
                        -----------------------------------------
Magnitude (a.u.)       :      0.68971
Magnitude (Debye)      :      1.75311

Rotational constants in cm-1:     0.021085     0.007692     0.006579
Rotational constants in MHz :   632.113408   230.601907   197.221383

                             ****ORCA TERMINATED NORMALLY****
TOTAL RUN TIME: 0 days 0 hours 0 minutes 31 seconds 984 msec
