                         Program Version 4.2.1 -  RELEASE  -
|  1> ! wB97X-D3 SP def2-SVP
|  2> %pal
|  3> nprocs 16
|  4> end
|  5>
|  6> * xyz 0 1
|  7> S 	 -45.9984 	 50.9123 	 103.198
|  8> C 	 -44.871 	 52.0141 	 103.932
|  9> C 	 -43.6477 	 51.4533 	 103.882
| 10> C 	 -43.6166 	 50.2294 	 103.125
| 11> C 	 -44.794 	 49.7793 	 102.66
| 12> H 	 -42.739 	 49.6337 	 102.938
| 13> C 	 -42.4001 	 52.0756 	 104.406
| 14> H 	 -41.7394 	 51.3979 	 104.942
| 15> H 	 -42.7006 	 52.77 	 105.155
| 16> C 	 -41.6164 	 52.9118 	 103.37
| 17> H 	 -41.3597 	 52.3347 	 102.468
| 18> H 	 -42.2276 	 53.7734 	 103.032
| 19> C 	 -40.3514 	 53.5186 	 103.984
| 20> H 	 -40.3691 	 54.1722 	 104.808
| 21> H 	 -39.5457 	 52.7399 	 104.031
| 22> H 	 -39.8854 	 54.1477 	 103.17
| 23> S 	 -45.8109 	 48.5607 	 100.451
| 24> C 	 -45.5398 	 46.7882 	 100.16
| 25> C 	 -44.8937 	 46.2317 	 101.282
| 26> C 	 -44.663 	 47.1969 	 102.356
| 27> C 	 -45.1304 	 48.4772 	 102.054
| 28> H 	 -44.7371 	 45.2196 	 101.321
| 29> C 	 -44.0573 	 46.8074 	 103.713
| 30> H 	 -43.0564 	 47.1646 	 103.639
| 31> H 	 -43.9645 	 45.7583 	 103.789
| 32> C 	 -44.7753 	 47.3468 	 105.016
| 33> H 	 -45.7835 	 46.9993 	 105.081
| 34> H 	 -45.0165 	 48.3936 	 105.044
| 35> C 	 -43.9866 	 46.9513 	 106.303
| 36> H 	 -42.9911 	 47.436 	 106.41
| 37> H 	 -43.8402 	 45.8904 	 106.198
| 38> H 	 -44.5482 	 47.1186 	 107.213
| 39> H 	 -45.1285 	 53.0112 	 104.365
| 40> H 	 -45.9254 	 46.2637 	 99.2665
| 41> *
| 42>
| 43>                          ****END OF INPUT****

CARTESIAN COORDINATES (ANGSTROEM)
---------------------------------
  S    -45.998400   50.912300  103.198000
  C    -44.871000   52.014100  103.932000
  C    -43.647700   51.453300  103.882000
  C    -43.616600   50.229400  103.125000
  C    -44.794000   49.779300  102.660000
  H    -42.739000   49.633700  102.938000
  C    -42.400100   52.075600  104.406000
  H    -41.739400   51.397900  104.942000
  H    -42.700600   52.770000  105.155000
  C    -41.616400   52.911800  103.370000
  H    -41.359700   52.334700  102.468000
  H    -42.227600   53.773400  103.032000
  C    -40.351400   53.518600  103.984000
  H    -40.369100   54.172200  104.808000
  H    -39.545700   52.739900  104.031000
  H    -39.885400   54.147700  103.170000
  S    -45.810900   48.560700  100.451000
  C    -45.539800   46.788200  100.160000
  C    -44.893700   46.231700  101.282000
  C    -44.663000   47.196900  102.356000
  C    -45.130400   48.477200  102.054000
  H    -44.737100   45.219600  101.321000
  C    -44.057300   46.807400  103.713000
  H    -43.056400   47.164600  103.639000
  H    -43.964500   45.758300  103.789000
  C    -44.775300   47.346800  105.016000
  H    -45.783500   46.999300  105.081000
  H    -45.016500   48.393600  105.044000
  C    -43.986600   46.951300  106.303000
  H    -42.991100   47.436000  106.410000
  H    -43.840200   45.890400  106.198000
  H    -44.548200   47.118600  107.213000
  H    -45.128500   53.011200  104.365000
  H    -45.925400   46.263700   99.266500

 Total Charge           Charge          ....    0
 Multiplicity           Mult            ....    1
 Number of Electrons    NEL             ....  134
 Basis Dimension        Dim             ....  322

ORBITAL ENERGIES
----------------

  NO   OCC          E(Eh)            E(eV)
   0   2.0000     -88.964854     -2420.8568
   1   2.0000     -88.958103     -2420.6730
   2   2.0000     -10.331483      -281.1339
   3   2.0000     -10.328916      -281.0641
   4   2.0000     -10.325409      -280.9687
   5   2.0000     -10.314829      -280.6808
   6   2.0000     -10.312729      -280.6236
   7   2.0000     -10.300211      -280.2830
   8   2.0000     -10.295428      -280.1528
   9   2.0000     -10.292855      -280.0828
  10   2.0000     -10.290864      -280.0286
  11   2.0000     -10.287182      -279.9285
  12   2.0000     -10.285298      -279.8772
  13   2.0000     -10.282603      -279.8039
  14   2.0000     -10.280735      -279.7530
  15   2.0000     -10.277267      -279.6587
  16   2.0000      -8.078807      -219.8355
  17   2.0000      -8.073558      -219.6927
  18   2.0000      -6.037427      -164.2867
  19   2.0000      -6.033310      -164.1747
  20   2.0000      -6.032136      -164.1428
  21   2.0000      -6.029584      -164.0733
  22   2.0000      -6.027839      -164.0258
  23   2.0000      -6.024286      -163.9292
  24   2.0000      -1.009351       -27.4658
  25   2.0000      -0.980415       -26.6784
  26   2.0000      -0.912177       -24.8216
  27   2.0000      -0.898908       -24.4605
  28   2.0000      -0.871200       -23.7066
  29   2.0000      -0.846104       -23.0237
  30   2.0000      -0.843360       -22.9490
  31   2.0000      -0.820044       -22.3145
  32   2.0000      -0.779760       -21.2184
  33   2.0000      -0.769052       -20.9270
  34   2.0000      -0.711461       -19.3598
  35   2.0000      -0.700019       -19.0485
  36   2.0000      -0.691870       -18.8267
  37   2.0000      -0.668920       -18.2022
  38   2.0000      -0.645050       -17.5527
  39   2.0000      -0.621431       -16.9100
  40   2.0000      -0.590984       -16.0815
  41   2.0000      -0.573766       -15.6130
  42   2.0000      -0.562748       -15.3132
  43   2.0000      -0.557041       -15.1579
  44   2.0000      -0.528109       -14.3706
  45   2.0000      -0.521073       -14.1791
  46   2.0000      -0.516360       -14.0509
  47   2.0000      -0.510698       -13.8968
  48   2.0000      -0.507795       -13.8178
  49   2.0000      -0.502236       -13.6665
  50   2.0000      -0.494394       -13.4531
  51   2.0000      -0.487254       -13.2588
  52   2.0000      -0.471977       -12.8431
  53   2.0000      -0.462930       -12.5970
  54   2.0000      -0.458726       -12.4826
  55   2.0000      -0.445159       -12.1134
  56   2.0000      -0.440947       -11.9988
  57   2.0000      -0.434920       -11.8348
  58   2.0000      -0.427830       -11.6418
  59   2.0000      -0.420780       -11.4500
  60   2.0000      -0.418094       -11.3769
  61   2.0000      -0.415794       -11.3143
  62   2.0000      -0.409822       -11.1518
  63   2.0000      -0.346843        -9.4381
  64   2.0000      -0.326178        -8.8758
  65   2.0000      -0.325735        -8.8637
  66   2.0000      -0.303093        -8.2476
  67   0.0000       0.031310         0.8520
  68   0.0000       0.070705         1.9240
  69   0.0000       0.113532         3.0894
  70   0.0000       0.120087         3.2677
  71   0.0000       0.133279         3.6267

MULLIKEN ATOMIC CHARGES
-----------------------
   0 S :    0.086630
   1 C :   -0.132050
   2 C :   -0.077915
   3 C :    0.019330
   4 C :   -0.127462
   5 H :    0.000923
   6 C :    0.091841
   7 H :    0.022310
   8 H :   -0.001140
   9 C :   -0.082396
  10 H :    0.035647
  11 H :    0.030001
  12 C :   -0.057951
  13 H :    0.035501
  14 H :    0.030989
  15 H :    0.025822
  16 S :    0.094116
  17 C :   -0.116731
  18 C :    0.009442
  19 C :   -0.065779
  20 C :   -0.133673
  21 H :   -0.007690
  22 C :    0.110054
  23 H :    0.023491
  24 H :    0.003145
  25 C :   -0.053627
  26 H :    0.020376
  27 H :    0.032635
  28 C :   -0.057031
  29 H :    0.039533
  30 H :    0.020625
  31 H :    0.035013
  32 H :    0.066469
  33 H :    0.079553
Sum of atomic charges:   -0.0000000

LOEWDIN ATOMIC CHARGES
----------------------
   0 S :    0.401470
   1 C :   -0.197651
   2 C :   -0.070692
   3 C :   -0.063610
   4 C :   -0.199103
   5 H :    0.027849
   6 C :   -0.034803
   7 H :    0.029330
   8 H :    0.025292
   9 C :   -0.037140
  10 H :    0.027216
  11 H :    0.026759
  12 C :   -0.074983
  13 H :    0.017535
  14 H :    0.029142
  15 H :    0.033757
  16 S :    0.389960
  17 C :   -0.166248
  18 C :   -0.058289
  19 C :   -0.046429
  20 C :   -0.206904
  21 H :    0.017199
  22 C :   -0.023081
  23 H :    0.029500
  24 H :    0.023331
  25 C :   -0.036326
  26 H :    0.023613
  27 H :    0.022710
  28 C :   -0.064120
  29 H :    0.028078
  30 H :    0.020072
  31 H :    0.025983
  32 H :    0.042862
  33 H :    0.037720

  Mayer bond orders larger than 0.100000
B(  0-S ,  1-C ) :   1.1332 B(  0-S ,  4-C ) :   1.1422 B(  1-C ,  2-C ) :   1.6157
B(  1-C , 32-H ) :   0.9662 B(  2-C ,  3-C ) :   1.2206 B(  2-C ,  6-C ) :   1.0432
B(  3-C ,  4-C ) :   1.6098 B(  3-C ,  5-H ) :   1.0082 B(  4-C , 20-C ) :   0.9824
B(  6-C ,  7-H ) :   0.9402 B(  6-C ,  8-H ) :   0.9304 B(  6-C ,  9-C ) :   1.0627
B(  9-C , 10-H ) :   0.9568 B(  9-C , 11-H ) :   0.9557 B(  9-C , 12-C ) :   1.0856
B( 12-C , 13-H ) :   0.9782 B( 12-C , 14-H ) :   0.9722 B( 12-C , 15-H ) :   0.9701
B( 16-S , 17-C ) :   1.1538 B( 16-S , 20-C ) :   1.1435 B( 17-C , 18-C ) :   1.5932
B( 17-C , 20-C ) :   0.1004 B( 17-C , 33-H ) :   0.9659 B( 18-C , 19-C ) :   1.2381
B( 18-C , 21-H ) :   1.0029 B( 19-C , 20-C ) :   1.5990 B( 19-C , 22-C ) :   1.0306
B( 22-C , 23-H ) :   0.9281 B( 22-C , 24-H ) :   0.9361 B( 22-C , 25-C ) :   1.0503
B( 25-C , 26-H ) :   0.9542 B( 25-C , 27-H ) :   0.9548 B( 25-C , 28-C ) :   1.0801
B( 28-C , 29-H ) :   0.9778 B( 28-C , 30-H ) :   0.9773 B( 28-C , 31-H ) :   0.9747

Dispersion correction           -0.014594126
FINAL SINGLE POINT ENERGY     -1339.872141424095

DIPOLE MOMENT
-------------
                                X             Y             Z
Electronic contribution:    -20.71638      -2.94554     -17.81717
Nuclear contribution   :     21.29221       2.75765      18.13408
                        -----------------------------------------
Total Dipole Moment    :      0.57584      -0.18789       0.31691
                        -----------------------------------------
Magnitude (a.u.)       :      0.68361
Magnitude (Debye)      :      1.73760

Rotational constants in cm-1:     0.018194     0.008356     0.007165
Rotational constants in MHz :   545.446360   250.496699   214.791259

                             ****ORCA TERMINATED NORMALLY****
TOTAL RUN TIME: 0 days 0 hours 0 minutes 31 seconds 14 msec
