                         Program Version 4.2.1 -  RELEASE  -
|  1> ! wB97X-D3 SP def2-SVP
|  2> %pal
|  3> nprocs 16
|  4> end
|  5>
|  6> * xyz 0 1
|  7> S 	 -71.546 	 42.0124 	 120.568
|  8> C 	 -73.0263 	 41.3301 	 121.232
|  9> C 	 -73.5392 	 42.3205 	 122.067
| 10> C 	 -72.6925 	 43.4364 	 122.346
| 11> C 	 -71.4735 	 43.3854 	 121.663
| 12> H 	 -72.8606 	 44.1948 	 123.074
| 13> C 	 -74.8375 	 42.1307 	 122.856
| 14> H 	 -74.9934 	 41.115 	 122.7
| 15> H 	 -75.7004 	 42.6008 	 122.374
| 16> C 	 -74.8485 	 42.4544 	 124.305
| 17> H 	 -73.9124 	 42.0384 	 124.656
| 18> H 	 -74.8852 	 43.5155 	 124.605
| 19> C 	 -76.0367 	 41.8508 	 124.989
| 20> H 	 -75.9054 	 40.7974 	 124.897
| 21> H 	 -75.8661 	 41.9197 	 126.029
| 22> H 	 -77.0694 	 42.2222 	 124.744
| 23> S 	 -68.752 	 43.7982 	 121.56
| 24> C 	 -68.1925 	 45.4514 	 121.537
| 25> C 	 -69.1964 	 46.3526 	 121.563
| 26> C 	 -70.4995 	 45.7818 	 121.555
| 27> C 	 -70.3912 	 44.3926 	 121.542
| 28> H 	 -69.0257 	 47.4163 	 121.777
| 29> C 	 -71.7539 	 46.6481 	 121.728
| 30> H 	 -71.3348 	 47.6765 	 121.811
| 31> H 	 -72.0856 	 46.429 	 122.73
| 32> C 	 -72.8924 	 46.5029 	 120.706
| 33> H 	 -73.1586 	 45.3697 	 120.615
| 34> H 	 -72.461 	 46.9389 	 119.827
| 35> C 	 -74.2042 	 47.292 	 120.985
| 36> H 	 -74.8563 	 46.898 	 121.742
| 37> H 	 -74.8752 	 47.1864 	 120.112
| 38> H 	 -74.1041 	 48.3602 	 121.311
| 39> H 	 -73.488 	 40.353 	 121.001
| 40> H 	 -67.099 	 45.6719 	 121.727
| 41> *
| 42>
| 43>                          ****END OF INPUT****

CARTESIAN COORDINATES (ANGSTROEM)
---------------------------------
  S    -71.546000   42.012400  120.568000
  C    -73.026300   41.330100  121.232000
  C    -73.539200   42.320500  122.067000
  C    -72.692500   43.436400  122.346000
  C    -71.473500   43.385400  121.663000
  H    -72.860600   44.194800  123.074000
  C    -74.837500   42.130700  122.856000
  H    -74.993400   41.115000  122.700000
  H    -75.700400   42.600800  122.374000
  C    -74.848500   42.454400  124.305000
  H    -73.912400   42.038400  124.656000
  H    -74.885200   43.515500  124.605000
  C    -76.036700   41.850800  124.989000
  H    -75.905400   40.797400  124.897000
  H    -75.866100   41.919700  126.029000
  H    -77.069400   42.222200  124.744000
  S    -68.752000   43.798200  121.560000
  C    -68.192500   45.451400  121.537000
  C    -69.196400   46.352600  121.563000
  C    -70.499500   45.781800  121.555000
  C    -70.391200   44.392600  121.542000
  H    -69.025700   47.416300  121.777000
  C    -71.753900   46.648100  121.728000
  H    -71.334800   47.676500  121.811000
  H    -72.085600   46.429000  122.730000
  C    -72.892400   46.502900  120.706000
  H    -73.158600   45.369700  120.615000
  H    -72.461000   46.938900  119.827000
  C    -74.204200   47.292000  120.985000
  H    -74.856300   46.898000  121.742000
  H    -74.875200   47.186400  120.112000
  H    -74.104100   48.360200  121.311000
  H    -73.488000   40.353000  121.001000
  H    -67.099000   45.671900  121.727000

 Total Charge           Charge          ....    0
 Multiplicity           Mult            ....    1
 Number of Electrons    NEL             ....  134
 Basis Dimension        Dim             ....  322

ORBITAL ENERGIES
----------------

  NO   OCC          E(Eh)            E(eV)
   0   2.0000     -88.969069     -2420.9715
   1   2.0000     -88.961619     -2420.7687
   2   2.0000     -10.332995      -281.1751
   3   2.0000     -10.329135      -281.0701
   4   2.0000     -10.320057      -280.8230
   5   2.0000     -10.319141      -280.7981
   6   2.0000     -10.306424      -280.4521
   7   2.0000     -10.301684      -280.3231
   8   2.0000     -10.297205      -280.2012
   9   2.0000     -10.293805      -280.1087
  10   2.0000     -10.293770      -280.1077
  11   2.0000     -10.292135      -280.0632
  12   2.0000     -10.281999      -279.7874
  13   2.0000     -10.280971      -279.7594
  14   2.0000     -10.279329      -279.7148
  15   2.0000     -10.272941      -279.5409
  16   2.0000      -8.084136      -219.9805
  17   2.0000      -8.076050      -219.7605
  18   2.0000      -6.042556      -164.4263
  19   2.0000      -6.038717      -164.3219
  20   2.0000      -6.034838      -164.2163
  21   2.0000      -6.034619      -164.2103
  22   2.0000      -6.030401      -164.0956
  23   2.0000      -6.026934      -164.0012
  24   2.0000      -1.007699       -27.4209
  25   2.0000      -0.985307       -26.8116
  26   2.0000      -0.920776       -25.0556
  27   2.0000      -0.905026       -24.6270
  28   2.0000      -0.870807       -23.6959
  29   2.0000      -0.851839       -23.1797
  30   2.0000      -0.844230       -22.9727
  31   2.0000      -0.817179       -22.2366
  32   2.0000      -0.785308       -21.3693
  33   2.0000      -0.771492       -20.9934
  34   2.0000      -0.711264       -19.3545
  35   2.0000      -0.698505       -19.0073
  36   2.0000      -0.684106       -18.6155
  37   2.0000      -0.661307       -17.9951
  38   2.0000      -0.639815       -17.4102
  39   2.0000      -0.619654       -16.8617
  40   2.0000      -0.593454       -16.1487
  41   2.0000      -0.581702       -15.8289
  42   2.0000      -0.564731       -15.3671
  43   2.0000      -0.559514       -15.2252
  44   2.0000      -0.527451       -14.3527
  45   2.0000      -0.522905       -14.2290
  46   2.0000      -0.514330       -13.9956
  47   2.0000      -0.511799       -13.9268
  48   2.0000      -0.504890       -13.7388
  49   2.0000      -0.498697       -13.5702
  50   2.0000      -0.493935       -13.4407
  51   2.0000      -0.486739       -13.2448
  52   2.0000      -0.472079       -12.8459
  53   2.0000      -0.465838       -12.6761
  54   2.0000      -0.459504       -12.5037
  55   2.0000      -0.450799       -12.2669
  56   2.0000      -0.438645       -11.9361
  57   2.0000      -0.433538       -11.7972
  58   2.0000      -0.429946       -11.6994
  59   2.0000      -0.423268       -11.5177
  60   2.0000      -0.419165       -11.4061
  61   2.0000      -0.416220       -11.3259
  62   2.0000      -0.407750       -11.0954
  63   2.0000      -0.348820        -9.4919
  64   2.0000      -0.334802        -9.1104
  65   2.0000      -0.326549        -8.8859
  66   2.0000      -0.292182        -7.9507
  67   0.0000       0.024029         0.6539
  68   0.0000       0.074245         2.0203
  69   0.0000       0.107723         2.9313
  70   0.0000       0.118845         3.2339
  71   0.0000       0.137255         3.7349

MULLIKEN ATOMIC CHARGES
-----------------------
   0 S :    0.090109
   1 C :   -0.128727
   2 C :   -0.111499
   3 C :    0.005098
   4 C :   -0.113217
   5 H :    0.003843
   6 C :    0.122456
   7 H :   -0.021123
   8 H :    0.027197
   9 C :   -0.095596
  10 H :    0.024898
  11 H :    0.032999
  12 C :   -0.020345
  13 H :    0.010076
  14 H :    0.013240
  15 H :    0.052502
  16 S :    0.121081
  17 C :   -0.107001
  18 C :   -0.041622
  19 C :   -0.045921
  20 C :   -0.171551
  21 H :    0.028078
  22 C :    0.072279
  23 H :    0.014711
  24 H :    0.026244
  25 C :   -0.076885
  26 H :    0.078649
  27 H :    0.032757
  28 C :   -0.061246
  29 H :    0.015477
  30 H :    0.038428
  31 H :    0.036823
  32 H :    0.068615
  33 H :    0.079174
Sum of atomic charges:   -0.0000000

LOEWDIN ATOMIC CHARGES
----------------------
   0 S :    0.396925
   1 C :   -0.207757
   2 C :   -0.061315
   3 C :   -0.074957
   4 C :   -0.183064
   5 H :    0.025663
   6 C :   -0.033479
   7 H :    0.019299
   8 H :    0.031341
   9 C :   -0.045892
  10 H :    0.026785
  11 H :    0.024626
  12 C :   -0.064719
  13 H :    0.022037
  14 H :    0.023480
  15 H :    0.034234
  16 S :    0.416343
  17 C :   -0.191324
  18 C :   -0.078005
  19 C :   -0.049294
  20 C :   -0.205736
  21 H :    0.036430
  22 C :   -0.034047
  23 H :    0.032101
  24 H :    0.025924
  25 C :   -0.043486
  26 H :    0.047253
  27 H :    0.025240
  28 C :   -0.078267
  29 H :    0.018788
  30 H :    0.033224
  31 H :    0.029068
  32 H :    0.041124
  33 H :    0.041458

  Mayer bond orders larger than 0.100000
B(  0-S ,  1-C ) :   1.1293 B(  0-S ,  4-C ) :   1.1746 B(  1-C ,  2-C ) :   1.5845
B(  1-C ,  4-C ) :   0.1072 B(  1-C , 32-H ) :   0.9667 B(  2-C ,  3-C ) :   1.2504
B(  2-C ,  6-C ) :   1.0250 B(  3-C ,  4-C ) :   1.5358 B(  3-C ,  5-H ) :   1.0060
B(  4-C , 20-C ) :   1.0207 B(  6-C ,  7-H ) :   0.9341 B(  6-C ,  8-H ) :   0.9206
B(  6-C ,  9-C ) :   1.0815 B(  9-C , 10-H ) :   0.9521 B(  9-C , 11-H ) :   0.9449
B(  9-C , 12-C ) :   1.0993 B( 12-C , 13-H ) :   0.9669 B( 12-C , 14-H ) :   0.9653
B( 12-C , 15-H ) :   0.9730 B( 16-S , 17-C ) :   1.1507 B( 16-S , 20-C ) :   1.1571
B( 17-C , 18-C ) :   1.6205 B( 17-C , 33-H ) :   0.9566 B( 18-C , 19-C ) :   1.2589
B( 18-C , 21-H ) :   0.9797 B( 19-C , 20-C ) :   1.5877 B( 19-C , 22-C ) :   1.0220
B( 22-C , 23-H ) :   0.9293 B( 22-C , 24-H ) :   0.9325 B( 22-C , 25-C ) :   1.0539
B( 25-C , 26-H ) :   0.9492 B( 25-C , 27-H ) :   0.9554 B( 25-C , 28-C ) :   1.0782
B( 28-C , 29-H ) :   0.9731 B( 28-C , 30-H ) :   0.9738 B( 28-C , 31-H ) :   0.9737

Dispersion correction           -0.014338979
FINAL SINGLE POINT ENERGY     -1339.864446874207

DIPOLE MOMENT
-------------
                                X             Y             Z
Electronic contribution:     27.25049      -9.29695     -11.18283
Nuclear contribution   :    -27.67047       9.66890      11.69171
                        -----------------------------------------
Total Dipole Moment    :     -0.41998       0.37195       0.50888
                        -----------------------------------------
Magnitude (a.u.)       :      0.75743
Magnitude (Debye)      :      1.92523

Rotational constants in cm-1:     0.017889     0.008867     0.007044
Rotational constants in MHz :   536.293236   265.819487   211.168489

                             ****ORCA TERMINATED NORMALLY****
TOTAL RUN TIME: 0 days 0 hours 0 minutes 35 seconds 81 msec
