                         Program Version 4.2.1 -  RELEASE  -
|  1> ! wB97X-D3 SP def2-SVP
|  2> %pal
|  3> nprocs 16
|  4> end
|  5>
|  6> * xyz 0 1
|  7> S 	 -100.571 	 41.5402 	 124.011
|  8> C 	 -99.1141 	 41.0625 	 124.82
|  9> C 	 -98.2649 	 42.1288 	 125.074
| 10> C 	 -98.8969 	 43.3793 	 124.714
| 11> C 	 -100.154 	 43.1901 	 124.182
| 12> H 	 -98.4641 	 44.3321 	 124.839
| 13> C 	 -96.809 	 42.1136 	 125.555
| 14> H 	 -96.6156 	 42.8283 	 126.382
| 15> H 	 -96.2414 	 42.3254 	 124.614
| 16> C 	 -96.2288 	 40.7858 	 126.041
| 17> H 	 -97.0313 	 40.3297 	 126.666
| 18> H 	 -96.1371 	 40.1536 	 125.242
| 19> C 	 -94.9528 	 40.8391 	 126.77
| 20> H 	 -95.0789 	 41.2976 	 127.735
| 21> H 	 -94.4234 	 39.8645 	 126.775
| 22> H 	 -94.2484 	 41.5581 	 126.365
| 23> S 	 -102.412 	 44.5068 	 124.792
| 24> C 	 -102.918 	 45.9978 	 123.947
| 25> C 	 -101.951 	 46.4326 	 123.083
| 26> C 	 -100.813 	 45.4425 	 122.957
| 27> C 	 -100.995 	 44.3177 	 123.839
| 28> H 	 -102.069 	 47.3679 	 122.611
| 29> C 	 -99.6351 	 45.5285 	 122.031
| 30> H 	 -98.7027 	 45.3543 	 122.685
| 31> H 	 -99.5342 	 46.5073 	 121.684
| 32> C 	 -99.7348 	 44.6006 	 120.805
| 33> H 	 -100.609 	 44.8421 	 120.278
| 34> H 	 -99.8765 	 43.5601 	 121.021
| 35> C 	 -98.5184 	 44.8622 	 119.909
| 36> H 	 -98.3159 	 45.9074 	 119.856
| 37> H 	 -98.702 	 44.4598 	 118.89
| 38> H 	 -97.7322 	 44.4174 	 120.512
| 39> H 	 -98.8167 	 39.986 	 124.808
| 40> H 	 -103.866 	 46.4807 	 124.13
| 41> *
| 42>
| 43>                          ****END OF INPUT****

CARTESIAN COORDINATES (ANGSTROEM)
---------------------------------
  S    -100.571000   41.540200  124.011000
  C    -99.114100   41.062500  124.820000
  C    -98.264900   42.128800  125.074000
  C    -98.896900   43.379300  124.714000
  C    -100.154000   43.190100  124.182000
  H    -98.464100   44.332100  124.839000
  C    -96.809000   42.113600  125.555000
  H    -96.615600   42.828300  126.382000
  H    -96.241400   42.325400  124.614000
  C    -96.228800   40.785800  126.041000
  H    -97.031300   40.329700  126.666000
  H    -96.137100   40.153600  125.242000
  C    -94.952800   40.839100  126.770000
  H    -95.078900   41.297600  127.735000
  H    -94.423400   39.864500  126.775000
  H    -94.248400   41.558100  126.365000
  S    -102.412000   44.506800  124.792000
  C    -102.918000   45.997800  123.947000
  C    -101.951000   46.432600  123.083000
  C    -100.813000   45.442500  122.957000
  C    -100.995000   44.317700  123.839000
  H    -102.069000   47.367900  122.611000
  C    -99.635100   45.528500  122.031000
  H    -98.702700   45.354300  122.685000
  H    -99.534200   46.507300  121.684000
  C    -99.734800   44.600600  120.805000
  H    -100.609000   44.842100  120.278000
  H    -99.876500   43.560100  121.021000
  C    -98.518400   44.862200  119.909000
  H    -98.315900   45.907400  119.856000
  H    -98.702000   44.459800  118.890000
  H    -97.732200   44.417400  120.512000
  H    -98.816700   39.986000  124.808000
  H    -103.866000   46.480700  124.130000

 Total Charge           Charge          ....    0
 Multiplicity           Mult            ....    1
 Number of Electrons    NEL             ....  134
 Basis Dimension        Dim             ....  322

ORBITAL ENERGIES
----------------

  NO   OCC          E(Eh)            E(eV)
   0   2.0000     -88.969466     -2420.9823
   1   2.0000     -88.959493     -2420.7109
   2   2.0000     -10.325376      -280.9678
   3   2.0000     -10.324612      -280.9470
   4   2.0000     -10.316948      -280.7384
   5   2.0000     -10.316805      -280.7345
   6   2.0000     -10.312274      -280.6112
   7   2.0000     -10.307060      -280.4694
   8   2.0000     -10.300148      -280.2813
   9   2.0000     -10.299315      -280.2586
  10   2.0000     -10.291535      -280.0469
  11   2.0000     -10.290121      -280.0084
  12   2.0000     -10.276628      -279.6413
  13   2.0000     -10.276416      -279.6355
  14   2.0000     -10.274446      -279.5819
  15   2.0000     -10.273325      -279.5514
  16   2.0000      -8.085059      -220.0056
  17   2.0000      -8.074441      -219.7167
  18   2.0000      -6.043463      -164.4510
  19   2.0000      -6.039493      -164.3429
  20   2.0000      -6.035835      -164.2434
  21   2.0000      -6.033010      -164.1666
  22   2.0000      -6.028798      -164.0519
  23   2.0000      -6.025248      -163.9553
  24   2.0000      -1.008835       -27.4518
  25   2.0000      -0.977142       -26.5894
  26   2.0000      -0.918958       -25.0061
  27   2.0000      -0.909459       -24.7476
  28   2.0000      -0.872805       -23.7502
  29   2.0000      -0.857747       -23.3405
  30   2.0000      -0.842298       -22.9201
  31   2.0000      -0.815927       -22.2025
  32   2.0000      -0.782861       -21.3027
  33   2.0000      -0.760404       -20.6916
  34   2.0000      -0.710135       -19.3238
  35   2.0000      -0.704350       -19.1663
  36   2.0000      -0.687478       -18.7072
  37   2.0000      -0.662107       -18.0169
  38   2.0000      -0.645350       -17.5609
  39   2.0000      -0.614449       -16.7200
  40   2.0000      -0.589266       -16.0347
  41   2.0000      -0.581533       -15.8243
  42   2.0000      -0.570901       -15.5350
  43   2.0000      -0.563774       -15.3411
  44   2.0000      -0.527375       -14.3506
  45   2.0000      -0.523257       -14.2386
  46   2.0000      -0.520032       -14.1508
  47   2.0000      -0.513877       -13.9833
  48   2.0000      -0.505438       -13.7537
  49   2.0000      -0.498058       -13.5529
  50   2.0000      -0.494154       -13.4466
  51   2.0000      -0.482008       -13.1161
  52   2.0000      -0.475035       -12.9264
  53   2.0000      -0.461684       -12.5631
  54   2.0000      -0.457801       -12.4574
  55   2.0000      -0.451783       -12.2936
  56   2.0000      -0.446772       -12.1573
  57   2.0000      -0.437991       -11.9183
  58   2.0000      -0.433789       -11.8040
  59   2.0000      -0.428494       -11.6599
  60   2.0000      -0.419517       -11.4156
  61   2.0000      -0.410361       -11.1665
  62   2.0000      -0.407752       -11.0955
  63   2.0000      -0.343294        -9.3415
  64   2.0000      -0.329853        -8.9758
  65   2.0000      -0.321852        -8.7580
  66   2.0000      -0.295360        -8.0372
  67   0.0000       0.036676         0.9980
  68   0.0000       0.069589         1.8936
  69   0.0000       0.110643         3.0108
  70   0.0000       0.117179         3.1886
  71   0.0000       0.133855         3.6424

MULLIKEN ATOMIC CHARGES
-----------------------
   0 S :    0.136429
   1 C :   -0.153410
   2 C :   -0.084895
   3 C :    0.046268
   4 C :   -0.153866
   5 H :    0.003633
   6 C :    0.029526
   7 H :    0.042932
   8 H :    0.050286
   9 C :   -0.067065
  10 H :    0.029644
  11 H :    0.003109
  12 C :   -0.022079
  13 H :    0.024366
  14 H :    0.045755
  15 H :    0.013262
  16 S :    0.097289
  17 C :   -0.098124
  18 C :   -0.003622
  19 C :   -0.062524
  20 C :   -0.162575
  21 H :    0.008705
  22 C :    0.064909
  23 H :    0.030616
  24 H :   -0.006482
  25 C :   -0.044985
  26 H :    0.007211
  27 H :    0.028001
  28 C :   -0.021884
  29 H :    0.016321
  30 H :    0.045735
  31 H :    0.028445
  32 H :    0.070312
  33 H :    0.058757
Sum of atomic charges:   -0.0000000

LOEWDIN ATOMIC CHARGES
----------------------
   0 S :    0.433315
   1 C :   -0.217535
   2 C :   -0.059815
   3 C :   -0.047885
   4 C :   -0.215792
   5 H :    0.025065
   6 C :   -0.032990
   7 H :    0.034570
   8 H :    0.043844
   9 C :   -0.049484
  10 H :    0.027365
  11 H :    0.009476
  12 C :   -0.066069
  13 H :    0.025034
  14 H :    0.036290
  15 H :    0.024009
  16 S :    0.401776
  17 C :   -0.175987
  18 C :   -0.065026
  19 C :   -0.051590
  20 C :   -0.211266
  21 H :    0.026238
  22 C :   -0.036124
  23 H :    0.037519
  24 H :    0.019052
  25 C :   -0.031371
  26 H :    0.015472
  27 H :    0.021302
  28 C :   -0.059889
  29 H :    0.017343
  30 H :    0.031147
  31 H :    0.027887
  32 H :    0.035311
  33 H :    0.028808

  Mayer bond orders larger than 0.100000
B(  0-S ,  1-C ) :   1.1347 B(  0-S ,  4-C ) :   1.1661 B(  1-C ,  2-C ) :   1.6172
B(  1-C , 32-H ) :   0.9567 B(  2-C ,  3-C ) :   1.2455 B(  2-C ,  6-C ) :   1.0089
B(  3-C ,  4-C ) :   1.5626 B(  3-C ,  5-H ) :   1.0025 B(  4-C , 20-C ) :   1.0264
B(  6-C ,  7-H ) :   0.9516 B(  6-C ,  8-H ) :   0.9291 B(  6-C ,  9-C ) :   1.0823
B(  9-C , 10-H ) :   0.9513 B(  9-C , 11-H ) :   0.9454 B(  9-C , 12-C ) :   1.1005
B( 12-C , 13-H ) :   0.9679 B( 12-C , 14-H ) :   0.9697 B( 12-C , 15-H ) :   0.9677
B( 16-S , 17-C ) :   1.1377 B( 16-S , 20-C ) :   1.1607 B( 17-C , 18-C ) :   1.6324
B( 17-C , 33-H ) :   0.9688 B( 18-C , 19-C ) :   1.2085 B( 18-C , 21-H ) :   0.9975
B( 19-C , 20-C ) :   1.5777 B( 19-C , 22-C ) :   1.0613 B( 22-C , 23-H ) :   0.9302
B( 22-C , 24-H ) :   0.9226 B( 22-C , 25-C ) :   1.0621 B( 25-C , 26-H ) :   0.9486
B( 25-C , 27-H ) :   0.9589 B( 25-C , 28-C ) :   1.0763 B( 28-C , 29-H ) :   0.9734
B( 28-C , 30-H ) :   0.9737 B( 28-C , 31-H ) :   0.9775

Dispersion correction           -0.013962700
FINAL SINGLE POINT ENERGY     -1339.865767657345

DIPOLE MOMENT
-------------
                                X             Y             Z
Electronic contribution:    -26.22158       0.73609       5.72031
Nuclear contribution   :     26.81339      -0.51879      -5.93071
                        -----------------------------------------
Total Dipole Moment    :      0.59181       0.21730      -0.21040
                        -----------------------------------------
Magnitude (a.u.)       :      0.66463
Magnitude (Debye)      :      1.68935

Rotational constants in cm-1:     0.019724     0.007702     0.006485
Rotational constants in MHz :   591.309023   230.906192   194.410693

                             ****ORCA TERMINATED NORMALLY****
TOTAL RUN TIME: 0 days 0 hours 0 minutes 33 seconds 637 msec
