                         Program Version 4.2.1 -  RELEASE  -
|  1> ! wB97X-D3 SP def2-SVP
|  2> %pal
|  3> nprocs 16
|  4> end
|  5>
|  6> * xyz 0 1
|  7> S 	 59.2676 	 -5.12585 	 87.9187
|  8> C 	 58.8059 	 -3.63094 	 88.673
|  9> C 	 58.0473 	 -2.78038 	 87.8845
| 10> C 	 57.7337 	 -3.37703 	 86.6142
| 11> C 	 58.1597 	 -4.67585 	 86.5543
| 12> H 	 57.0935 	 -2.84573 	 85.8882
| 13> C 	 57.6923 	 -1.30552 	 88.1502
| 14> H 	 57.446 	 -1.34118 	 89.1609
| 15> H 	 56.7003 	 -0.956986 	 87.7173
| 16> C 	 58.75 	 -0.153385 	 88.0161
| 17> H 	 58.1809 	 0.753951 	 88.0127
| 18> H 	 59.3901 	 -0.0159123 	 88.8828
| 19> C 	 59.6846 	 -0.345478 	 86.767
| 20> H 	 60.3189 	 -1.21274 	 86.8819
| 21> H 	 59.176 	 -0.448387 	 85.8457
| 22> H 	 60.286 	 0.523716 	 86.7064
| 23> S 	 57.6746 	 -7.17222 	 85.5339
| 24> C 	 57.8827 	 -7.44972 	 83.8874
| 25> C 	 58.1616 	 -6.30847 	 83.2197
| 26> C 	 58.2026 	 -5.1494 	 84.0351
| 27> C 	 58.0777 	 -5.51557 	 85.3593
| 28> H 	 58.2135 	 -6.23394 	 82.1525
| 29> C 	 58.5946 	 -3.85755 	 83.4075
| 30> H 	 58.08 	 -3.09228 	 83.9557
| 31> H 	 58.2524 	 -3.85233 	 82.3897
| 32> C 	 60.1264 	 -3.58712 	 83.52
| 33> H 	 60.6552 	 -4.41757 	 83.0015
| 34> H 	 60.3517 	 -3.64117 	 84.5637
| 35> C 	 60.4675 	 -2.31208 	 82.9693
| 36> H 	 59.9917 	 -1.45661 	 83.4147
| 37> H 	 60.1324 	 -2.2877 	 81.8972
| 38> H 	 61.575 	 -2.0747 	 82.9783
| 39> H 	 59.2941 	 -3.19414 	 89.5612
| 40> H 	 57.6696 	 -8.36865 	 83.3663
| 41> *
| 42>
| 43>                          ****END OF INPUT****

CARTESIAN COORDINATES (ANGSTROEM)
---------------------------------
  S     59.267600   -5.125850   87.918700
  C     58.805900   -3.630940   88.673000
  C     58.047300   -2.780380   87.884500
  C     57.733700   -3.377030   86.614200
  C     58.159700   -4.675850   86.554300
  H     57.093500   -2.845730   85.888200
  C     57.692300   -1.305520   88.150200
  H     57.446000   -1.341180   89.160900
  H     56.700300   -0.956986   87.717300
  C     58.750000   -0.153385   88.016100
  H     58.180900    0.753951   88.012700
  H     59.390100   -0.015912   88.882800
  C     59.684600   -0.345478   86.767000
  H     60.318900   -1.212740   86.881900
  H     59.176000   -0.448387   85.845700
  H     60.286000    0.523716   86.706400
  S     57.674600   -7.172220   85.533900
  C     57.882700   -7.449720   83.887400
  C     58.161600   -6.308470   83.219700
  C     58.202600   -5.149400   84.035100
  C     58.077700   -5.515570   85.359300
  H     58.213500   -6.233940   82.152500
  C     58.594600   -3.857550   83.407500
  H     58.080000   -3.092280   83.955700
  H     58.252400   -3.852330   82.389700
  C     60.126400   -3.587120   83.520000
  H     60.655200   -4.417570   83.001500
  H     60.351700   -3.641170   84.563700
  C     60.467500   -2.312080   82.969300
  H     59.991700   -1.456610   83.414700
  H     60.132400   -2.287700   81.897200
  H     61.575000   -2.074700   82.978300
  H     59.294100   -3.194140   89.561200
  H     57.669600   -8.368650   83.366300

 Total Charge           Charge          ....    0
 Multiplicity           Mult            ....    1
 Number of Electrons    NEL             ....  134
 Basis Dimension        Dim             ....  322

ORBITAL ENERGIES
----------------

  NO   OCC          E(Eh)            E(eV)
   0   2.0000     -88.971954     -2421.0500
   1   2.0000     -88.962809     -2420.8011
   2   2.0000     -10.331709      -281.1401
   3   2.0000     -10.318060      -280.7687
   4   2.0000     -10.314617      -280.6750
   5   2.0000     -10.305256      -280.4203
   6   2.0000     -10.302569      -280.3472
   7   2.0000     -10.295260      -280.1483
   8   2.0000     -10.293582      -280.1026
   9   2.0000     -10.292816      -280.0818
  10   2.0000     -10.291309      -280.0408
  11   2.0000     -10.284981      -279.8686
  12   2.0000     -10.281658      -279.7781
  13   2.0000     -10.278304      -279.6869
  14   2.0000     -10.275159      -279.6013
  15   2.0000     -10.271345      -279.4975
  16   2.0000      -8.085701      -220.0231
  17   2.0000      -8.079600      -219.8571
  18   2.0000      -6.044270      -164.4730
  19   2.0000      -6.040620      -164.3736
  20   2.0000      -6.037904      -164.2997
  21   2.0000      -6.036179      -164.2528
  22   2.0000      -6.033794      -164.1879
  23   2.0000      -6.030492      -164.0980
  24   2.0000      -1.014541       -27.6071
  25   2.0000      -0.986025       -26.8311
  26   2.0000      -0.920649       -25.0521
  27   2.0000      -0.902595       -24.5609
  28   2.0000      -0.868696       -23.6384
  29   2.0000      -0.861750       -23.4494
  30   2.0000      -0.847732       -23.0680
  31   2.0000      -0.813889       -22.1470
  32   2.0000      -0.785248       -21.3677
  33   2.0000      -0.772201       -21.0127
  34   2.0000      -0.706903       -19.2358
  35   2.0000      -0.702187       -19.1075
  36   2.0000      -0.691683       -18.8216
  37   2.0000      -0.666296       -18.1308
  38   2.0000      -0.630516       -17.1572
  39   2.0000      -0.620140       -16.8749
  40   2.0000      -0.597887       -16.2693
  41   2.0000      -0.573017       -15.5926
  42   2.0000      -0.567048       -15.4301
  43   2.0000      -0.547783       -14.9059
  44   2.0000      -0.541150       -14.7254
  45   2.0000      -0.524865       -14.2823
  46   2.0000      -0.517657       -14.0862
  47   2.0000      -0.509545       -13.8654
  48   2.0000      -0.502459       -13.6726
  49   2.0000      -0.493565       -13.4306
  50   2.0000      -0.488983       -13.3059
  51   2.0000      -0.485701       -13.2166
  52   2.0000      -0.472455       -12.8562
  53   2.0000      -0.467878       -12.7316
  54   2.0000      -0.463256       -12.6058
  55   2.0000      -0.454990       -12.3809
  56   2.0000      -0.440163       -11.9775
  57   2.0000      -0.436369       -11.8742
  58   2.0000      -0.429263       -11.6809
  59   2.0000      -0.426394       -11.6028
  60   2.0000      -0.423047       -11.5117
  61   2.0000      -0.418869       -11.3980
  62   2.0000      -0.412235       -11.2175
  63   2.0000      -0.352853        -9.6016
  64   2.0000      -0.332415        -9.0455
  65   2.0000      -0.330196        -8.9851
  66   2.0000      -0.287788        -7.8311
  67   0.0000       0.030273         0.8238
  68   0.0000       0.071601         1.9484
  69   0.0000       0.102831         2.7982
  70   0.0000       0.118444         3.2230
  71   0.0000       0.130228         3.5437

MULLIKEN ATOMIC CHARGES
-----------------------
   0 S :    0.112384
   1 C :   -0.106671
   2 C :   -0.116573
   3 C :   -0.014045
   4 C :   -0.109878
   5 H :    0.039194
   6 C :    0.059254
   7 H :    0.007561
   8 H :    0.035613
   9 C :   -0.057835
  10 H :    0.022433
  11 H :    0.023434
  12 C :   -0.031307
  13 H :    0.043312
  14 H :    0.020565
  15 H :    0.023010
  16 S :    0.126275
  17 C :   -0.067098
  18 C :   -0.037615
  19 C :   -0.053764
  20 C :   -0.183045
  21 H :    0.001575
  22 C :    0.095512
  23 H :   -0.010168
  24 H :    0.011286
  25 C :   -0.035142
  26 H :    0.029185
  27 H :    0.024840
  28 C :   -0.033204
  29 H :    0.019632
  30 H :    0.020005
  31 H :    0.041946
  32 H :    0.050459
  33 H :    0.048873
Sum of atomic charges:    0.0000000

LOEWDIN ATOMIC CHARGES
----------------------
   0 S :    0.387366
   1 C :   -0.208070
   2 C :   -0.062095
   3 C :   -0.062520
   4 C :   -0.168988
   5 H :    0.038631
   6 C :   -0.041936
   7 H :    0.025084
   8 H :    0.038705
   9 C :   -0.031858
  10 H :    0.022541
  11 H :    0.021930
  12 C :   -0.058118
  13 H :    0.028330
  14 H :    0.015821
  15 H :    0.021380
  16 S :    0.447397
  17 C :   -0.206368
  18 C :   -0.071730
  19 C :   -0.056013
  20 C :   -0.218065
  21 H :    0.025491
  22 C :   -0.022466
  23 H :    0.021451
  24 H :    0.025615
  25 C :   -0.036751
  26 H :    0.029848
  27 H :    0.023595
  28 C :   -0.071916
  29 H :    0.019885
  30 H :    0.027981
  31 H :    0.033488
  32 H :    0.032295
  33 H :    0.030061

  Mayer bond orders larger than 0.100000
B(  0-S ,  1-C ) :   1.1246 B(  0-S ,  4-C ) :   1.1296 B(  1-C ,  2-C ) :   1.6477
B(  1-C , 32-H ) :   0.9560 B(  2-C ,  3-C ) :   1.2247 B(  2-C ,  6-C ) :   1.0175
B(  3-C ,  4-C ) :   1.5977 B(  3-C ,  5-H ) :   0.9868 B(  4-C , 20-C ) :   1.0354
B(  6-C ,  7-H ) :   0.9292 B(  6-C ,  8-H ) :   0.9485 B(  6-C ,  9-C ) :   1.0636
B(  9-C , 10-H ) :   0.9556 B(  9-C , 11-H ) :   0.9587 B(  9-C , 12-C ) :   1.0805
B( 12-C , 13-H ) :   0.9710 B( 12-C , 14-H ) :   0.9790 B( 12-C , 15-H ) :   0.9747
B( 16-S , 17-C ) :   1.1637 B( 16-S , 20-C ) :   1.1646 B( 17-C , 18-C ) :   1.5867
B( 17-C , 33-H ) :   0.9675 B( 18-C , 19-C ) :   1.2756 B( 18-C , 21-H ) :   0.9904
B( 19-C , 20-C ) :   1.5642 B( 19-C , 22-C ) :   1.0633 B( 22-C , 23-H ) :   0.9168
B( 22-C , 24-H ) :   0.9239 B( 22-C , 25-C ) :   1.0683 B( 25-C , 26-H ) :   0.9483
B( 25-C , 27-H ) :   0.9480 B( 25-C , 28-C ) :   1.1084 B( 28-C , 29-H ) :   0.9672
B( 28-C , 30-H ) :   0.9635 B( 28-C , 31-H ) :   0.9668

Dispersion correction           -0.015956351
FINAL SINGLE POINT ENERGY     -1339.872505107379

DIPOLE MOMENT
-------------
                                X             Y             Z
Electronic contribution:     -7.49290     -28.45205       8.99993
Nuclear contribution   :      7.54356      29.13465      -9.29963
                        -----------------------------------------
Total Dipole Moment    :      0.05065       0.68261      -0.29970
                        -----------------------------------------
Magnitude (a.u.)       :      0.74722
Magnitude (Debye)      :      1.89929

Rotational constants in cm-1:     0.019144     0.010219     0.007473
Rotational constants in MHz :   573.917213   306.370027   224.040218

                             ****ORCA TERMINATED NORMALLY****
TOTAL RUN TIME: 0 days 0 hours 0 minutes 33 seconds 436 msec
