                         Program Version 4.2.1 -  RELEASE  -
|  1> ! wB97X-D3 SP def2-SVP
|  2> %pal
|  3> nprocs 16
|  4> end
|  5>
|  6> * xyz 0 1
|  7> S 	 -2.2182 	 79.8276 	 48.314
|  8> C 	 -1.52397 	 81.0576 	 49.3161
|  9> C 	 -0.335634 	 80.7713 	 49.9126
| 10> C 	 0.16914 	 79.5799 	 49.4099
| 11> C 	 -0.778381 	 78.8912 	 48.7192
| 12> H 	 1.09459 	 79.0936 	 49.6629
| 13> C 	 0.399422 	 81.5639 	 51.0026
| 14> H 	 0.264409 	 80.9457 	 51.8975
| 15> H 	 -0.156952 	 82.4362 	 51.1805
| 16> C 	 1.83278 	 81.9051 	 50.764
| 17> H 	 2.20529 	 82.6243 	 51.5227
| 18> H 	 2.48865 	 81.0633 	 50.8604
| 19> C 	 2.09364 	 82.5485 	 49.4069
| 20> H 	 1.58373 	 81.9957 	 48.5766
| 21> H 	 1.68072 	 83.4954 	 49.4112
| 22> H 	 3.13255 	 82.6003 	 49.0605
| 23> S 	 -1.18182 	 76.2727 	 49.5169
| 24> C 	 -0.688624 	 74.9448 	 48.3846
| 25> C 	 -0.373438 	 75.4453 	 47.1117
| 26> C 	 -0.388999 	 76.8991 	 47.0264
| 27> C 	 -0.6698 	 77.5116 	 48.2632
| 28> H 	 -0.0760734 	 74.5969 	 46.5169
| 29> C 	 0.00963776 	 77.744 	 45.8621
| 30> H 	 0.381436 	 78.7522 	 46.2591
| 31> H 	 -0.911091 	 77.9985 	 45.2713
| 32> C 	 1.16554 	 77.1259 	 44.936
| 33> H 	 1.30644 	 77.8472 	 44.1579
| 34> H 	 0.730966 	 76.2477 	 44.5812
| 35> C 	 2.47894 	 76.8361 	 45.7254
| 36> H 	 2.32779 	 76.0587 	 46.4531
| 37> H 	 2.89174 	 77.6563 	 46.2547
| 38> H 	 3.19724 	 76.5574 	 44.9739
| 39> H 	 -2.12146 	 81.9556 	 49.5222
| 40> H 	 -0.651537 	 73.8539 	 48.67
| 41> *
| 42>
| 43>                          ****END OF INPUT****

CARTESIAN COORDINATES (ANGSTROEM)
---------------------------------
  S     -2.218200   79.827600   48.314000
  C     -1.523970   81.057600   49.316100
  C     -0.335634   80.771300   49.912600
  C      0.169140   79.579900   49.409900
  C     -0.778381   78.891200   48.719200
  H      1.094590   79.093600   49.662900
  C      0.399422   81.563900   51.002600
  H      0.264409   80.945700   51.897500
  H     -0.156952   82.436200   51.180500
  C      1.832780   81.905100   50.764000
  H      2.205290   82.624300   51.522700
  H      2.488650   81.063300   50.860400
  C      2.093640   82.548500   49.406900
  H      1.583730   81.995700   48.576600
  H      1.680720   83.495400   49.411200
  H      3.132550   82.600300   49.060500
  S     -1.181820   76.272700   49.516900
  C     -0.688624   74.944800   48.384600
  C     -0.373438   75.445300   47.111700
  C     -0.388999   76.899100   47.026400
  C     -0.669800   77.511600   48.263200
  H     -0.076073   74.596900   46.516900
  C      0.009638   77.744000   45.862100
  H      0.381436   78.752200   46.259100
  H     -0.911091   77.998500   45.271300
  C      1.165540   77.125900   44.936000
  H      1.306440   77.847200   44.157900
  H      0.730966   76.247700   44.581200
  C      2.478940   76.836100   45.725400
  H      2.327790   76.058700   46.453100
  H      2.891740   77.656300   46.254700
  H      3.197240   76.557400   44.973900
  H     -2.121460   81.955600   49.522200
  H     -0.651537   73.853900   48.670000

 Total Charge           Charge          ....    0
 Multiplicity           Mult            ....    1
 Number of Electrons    NEL             ....  134
 Basis Dimension        Dim             ....  322

ORBITAL ENERGIES
----------------

  NO   OCC          E(Eh)            E(eV)
   0   2.0000     -88.967301     -2420.9233
   1   2.0000     -88.959138     -2420.7012
   2   2.0000     -10.327920      -281.0370
   3   2.0000     -10.327096      -281.0146
   4   2.0000     -10.323897      -280.9275
   5   2.0000     -10.312203      -280.6093
   6   2.0000     -10.309593      -280.5383
   7   2.0000     -10.300878      -280.3012
   8   2.0000     -10.296379      -280.1787
   9   2.0000     -10.295859      -280.1646
  10   2.0000     -10.289922      -280.0030
  11   2.0000     -10.288522      -279.9649
  12   2.0000     -10.285332      -279.8781
  13   2.0000     -10.284797      -279.8635
  14   2.0000     -10.270822      -279.4833
  15   2.0000     -10.270251      -279.4677
  16   2.0000      -8.082405      -219.9334
  17   2.0000      -8.071929      -219.6484
  18   2.0000      -6.040624      -164.3737
  19   2.0000      -6.037224      -164.2812
  20   2.0000      -6.033092      -164.1688
  21   2.0000      -6.030582      -164.1005
  22   2.0000      -6.026809      -163.9978
  23   2.0000      -6.022548      -163.8819
  24   2.0000      -1.007879       -27.4258
  25   2.0000      -0.970045       -26.3963
  26   2.0000      -0.917657       -24.9707
  27   2.0000      -0.896316       -24.3900
  28   2.0000      -0.865590       -23.5539
  29   2.0000      -0.854857       -23.2618
  30   2.0000      -0.838691       -22.8219
  31   2.0000      -0.813547       -22.1378
  32   2.0000      -0.786462       -21.4007
  33   2.0000      -0.767410       -20.8823
  34   2.0000      -0.710556       -19.3352
  35   2.0000      -0.699599       -19.0370
  36   2.0000      -0.690238       -18.7823
  37   2.0000      -0.648440       -17.6450
  38   2.0000      -0.643031       -17.4978
  39   2.0000      -0.624332       -16.9889
  40   2.0000      -0.588383       -16.0107
  41   2.0000      -0.563473       -15.3329
  42   2.0000      -0.559791       -15.2327
  43   2.0000      -0.545038       -14.8312
  44   2.0000      -0.539919       -14.6920
  45   2.0000      -0.537744       -14.6328
  46   2.0000      -0.523332       -14.2406
  47   2.0000      -0.508990       -13.8503
  48   2.0000      -0.497150       -13.5281
  49   2.0000      -0.491100       -13.3635
  50   2.0000      -0.482421       -13.1273
  51   2.0000      -0.478076       -13.0091
  52   2.0000      -0.473417       -12.8823
  53   2.0000      -0.461793       -12.5660
  54   2.0000      -0.454791       -12.3755
  55   2.0000      -0.449913       -12.2428
  56   2.0000      -0.442205       -12.0330
  57   2.0000      -0.437377       -11.9016
  58   2.0000      -0.431425       -11.7397
  59   2.0000      -0.426348       -11.6015
  60   2.0000      -0.420993       -11.4558
  61   2.0000      -0.417139       -11.3509
  62   2.0000      -0.406797       -11.0695
  63   2.0000      -0.341020        -9.2796
  64   2.0000      -0.326137        -8.8746
  65   2.0000      -0.313318        -8.5258
  66   2.0000      -0.306866        -8.3502
  67   0.0000       0.038544         1.0488
  68   0.0000       0.054397         1.4802
  69   0.0000       0.106225         2.8905
  70   0.0000       0.115993         3.1563
  71   0.0000       0.123205         3.3526

MULLIKEN ATOMIC CHARGES
-----------------------
   0 S :    0.132483
   1 C :   -0.140817
   2 C :   -0.103920
   3 C :    0.051313
   4 C :   -0.192091
   5 H :    0.012519
   6 C :    0.144490
   7 H :    0.044034
   8 H :   -0.004291
   9 C :   -0.072292
  10 H :    0.035474
  11 H :    0.022380
  12 C :   -0.054167
  13 H :    0.040019
  14 H :    0.013076
  15 H :    0.035283
  16 S :    0.074560
  17 C :   -0.137130
  18 C :   -0.048583
  19 C :    0.025506
  20 C :   -0.183403
  21 H :    0.026033
  22 C :   -0.005758
  23 H :    0.044483
  24 H :    0.050619
  25 C :   -0.052321
  26 H :    0.031112
  27 H :    0.023610
  28 C :   -0.026607
  29 H :    0.034678
  30 H :    0.021684
  31 H :    0.032169
  32 H :    0.045415
  33 H :    0.080442
Sum of atomic charges:   -0.0000000

LOEWDIN ATOMIC CHARGES
----------------------
   0 S :    0.406901
   1 C :   -0.199758
   2 C :   -0.066353
   3 C :   -0.048713
   4 C :   -0.193553
   5 H :    0.034892
   6 C :   -0.021104
   7 H :    0.041101
   8 H :    0.022156
   9 C :   -0.044379
  10 H :    0.032990
  11 H :    0.018511
  12 C :   -0.065455
  13 H :    0.031290
  14 H :    0.013395
  15 H :    0.028122
  16 S :    0.335208
  17 C :   -0.171734
  18 C :   -0.083287
  19 C :   -0.053397
  20 C :   -0.175493
  21 H :    0.035953
  22 C :   -0.043281
  23 H :    0.036888
  24 H :    0.037872
  25 C :   -0.025457
  26 H :    0.022953
  27 H :    0.013682
  28 C :   -0.057891
  29 H :    0.025157
  30 H :    0.020828
  31 H :    0.026887
  32 H :    0.024005
  33 H :    0.041063

  Mayer bond orders larger than 0.100000
B(  0-S ,  1-C ) :   1.1422 B(  0-S ,  4-C ) :   1.1413 B(  1-C ,  2-C ) :   1.6444
B(  1-C , 32-H ) :   0.9555 B(  2-C ,  3-C ) :   1.2136 B(  2-C ,  6-C ) :   1.0095
B(  3-C ,  4-C ) :   1.6185 B(  3-C ,  5-H ) :   0.9936 B(  4-C , 20-C ) :   1.0282
B(  6-C ,  7-H ) :   0.9331 B(  6-C ,  8-H ) :   0.9308 B(  6-C ,  9-C ) :   1.0770
B(  9-C , 10-H ) :   0.9539 B(  9-C , 11-H ) :   0.9513 B(  9-C , 12-C ) :   1.0788
B( 12-C , 13-H ) :   0.9695 B( 12-C , 14-H ) :   0.9762 B( 12-C , 15-H ) :   0.9749
B( 16-S , 17-C ) :   1.1331 B( 16-S , 20-C ) :   1.1139 B( 17-C , 18-C ) :   1.6608
B( 17-C , 20-C ) :   0.1046 B( 17-C , 33-H ) :   0.9577 B( 18-C , 19-C ) :   1.1496
B( 18-C , 21-H ) :   0.9910 B( 19-C , 20-C ) :   1.6268 B( 19-C , 22-C ) :   1.0456
B( 22-C , 23-H ) :   0.9381 B( 22-C , 24-H ) :   0.9310 B( 22-C , 25-C ) :   1.0624
B( 25-C , 26-H ) :   0.9596 B( 25-C , 27-H ) :   0.9549 B( 25-C , 28-C ) :   1.0758
B( 28-C , 29-H ) :   0.9734 B( 28-C , 30-H ) :   0.9764 B( 28-C , 31-H ) :   0.9746

Dispersion correction           -0.015060942
FINAL SINGLE POINT ENERGY     -1339.860193858427

DIPOLE MOMENT
-------------
                                X             Y             Z
Electronic contribution:    -21.07261      -9.83278       6.29188
Nuclear contribution   :     21.54640      10.00075      -6.37331
                        -----------------------------------------
Total Dipole Moment    :      0.47380       0.16797      -0.08143
                        -----------------------------------------
Magnitude (a.u.)       :      0.50924
Magnitude (Debye)      :      1.29439

Rotational constants in cm-1:     0.018847     0.008642     0.007440
Rotational constants in MHz :   565.011320   259.080363   223.034346

                             ****ORCA TERMINATED NORMALLY****
TOTAL RUN TIME: 0 days 0 hours 0 minutes 34 seconds 960 msec
