                         Program Version 4.2.1 -  RELEASE  -
|  1> ! wB97X-D3 SP def2-SVP
|  2> %pal
|  3> nprocs 16
|  4> end
|  5>
|  6> * xyz 0 1
|  7> S 	 -68.1742 	 38.2798 	 144.292
|  8> C 	 -69.0086 	 36.7729 	 144.622
|  9> C 	 -68.112 	 35.7163 	 144.458
| 10> C 	 -66.7672 	 36.1932 	 144.25
| 11> C 	 -66.5952 	 37.5492 	 144.036
| 12> H 	 -65.7628 	 35.5746 	 144.164
| 13> C 	 -68.4327 	 34.2506 	 144.509
| 14> H 	 -69.3839 	 34.0326 	 145.106
| 15> H 	 -67.6502 	 33.8253 	 145.003
| 16> C 	 -68.5388 	 33.5291 	 143.105
| 17> H 	 -67.4834 	 33.545 	 142.724
| 18> H 	 -69.0298 	 32.5111 	 143.243
| 19> C 	 -69.2865 	 34.2664 	 142.067
| 20> H 	 -69.3964 	 33.6642 	 141.237
| 21> H 	 -70.2625 	 34.474 	 142.474
| 22> H 	 -68.7018 	 35.111 	 141.686
| 23> S 	 -65.2432 	 39.6664 	 145.104
| 24> C 	 -63.568 	 39.9629 	 144.612
| 25> C 	 -63.0387 	 38.9451 	 143.87
| 26> C 	 -64.0632 	 38.001 	 143.537
| 27> C 	 -65.3043 	 38.1991 	 144.079
| 28> H 	 -62.0184 	 38.7835 	 143.632
| 29> C 	 -63.8617 	 36.8594 	 142.526
| 30> H 	 -64.7695 	 36.3853 	 142.283
| 31> H 	 -63.2321 	 36.0156 	 142.879
| 32> C 	 -63.2716 	 37.2508 	 141.174
| 33> H 	 -62.8604 	 36.385 	 140.65
| 34> H 	 -62.4805 	 37.905 	 141.466
| 35> C 	 -64.2164 	 38.1159 	 140.389
| 36> H 	 -63.9556 	 38.0231 	 139.34
| 37> H 	 -64.226 	 39.1539 	 140.75
| 38> H 	 -65.2688 	 37.8253 	 140.486
| 39> H 	 -70.1196 	 36.6054 	 144.753
| 40> H 	 -63.0477 	 40.6793 	 145.128
| 41> *
| 42>
| 43>                          ****END OF INPUT****

CARTESIAN COORDINATES (ANGSTROEM)
---------------------------------
  S    -68.174200   38.279800  144.292000
  C    -69.008600   36.772900  144.622000
  C    -68.112000   35.716300  144.458000
  C    -66.767200   36.193200  144.250000
  C    -66.595200   37.549200  144.036000
  H    -65.762800   35.574600  144.164000
  C    -68.432700   34.250600  144.509000
  H    -69.383900   34.032600  145.106000
  H    -67.650200   33.825300  145.003000
  C    -68.538800   33.529100  143.105000
  H    -67.483400   33.545000  142.724000
  H    -69.029800   32.511100  143.243000
  C    -69.286500   34.266400  142.067000
  H    -69.396400   33.664200  141.237000
  H    -70.262500   34.474000  142.474000
  H    -68.701800   35.111000  141.686000
  S    -65.243200   39.666400  145.104000
  C    -63.568000   39.962900  144.612000
  C    -63.038700   38.945100  143.870000
  C    -64.063200   38.001000  143.537000
  C    -65.304300   38.199100  144.079000
  H    -62.018400   38.783500  143.632000
  C    -63.861700   36.859400  142.526000
  H    -64.769500   36.385300  142.283000
  H    -63.232100   36.015600  142.879000
  C    -63.271600   37.250800  141.174000
  H    -62.860400   36.385000  140.650000
  H    -62.480500   37.905000  141.466000
  C    -64.216400   38.115900  140.389000
  H    -63.955600   38.023100  139.340000
  H    -64.226000   39.153900  140.750000
  H    -65.268800   37.825300  140.486000
  H    -70.119600   36.605400  144.753000
  H    -63.047700   40.679300  145.128000

 Total Charge           Charge          ....    0
 Multiplicity           Mult            ....    1
 Number of Electrons    NEL             ....  134
 Basis Dimension        Dim             ....  322

ORBITAL ENERGIES
----------------

  NO   OCC          E(Eh)            E(eV)
   0   2.0000     -88.969961     -2420.9957
   1   2.0000     -88.962694     -2420.7980
   2   2.0000     -10.333253      -281.1821
   3   2.0000     -10.332520      -281.1622
   4   2.0000     -10.325550      -280.9725
   5   2.0000     -10.317235      -280.7463
   6   2.0000     -10.307168      -280.4723
   7   2.0000     -10.306024      -280.4412
   8   2.0000     -10.305111      -280.4163
   9   2.0000     -10.298702      -280.2419
  10   2.0000     -10.292824      -280.0820
  11   2.0000     -10.291268      -280.0396
  12   2.0000     -10.285263      -279.8762
  13   2.0000     -10.277357      -279.6611
  14   2.0000     -10.269428      -279.4453
  15   2.0000     -10.264231      -279.3039
  16   2.0000      -8.084020      -219.9774
  17   2.0000      -8.077093      -219.7889
  18   2.0000      -6.042742      -164.4314
  19   2.0000      -6.038456      -164.3147
  20   2.0000      -6.035648      -164.2383
  21   2.0000      -6.034706      -164.2127
  22   2.0000      -6.031740      -164.1320
  23   2.0000      -6.027709      -164.0223
  24   2.0000      -1.008250       -27.4359
  25   2.0000      -0.985124       -26.8066
  26   2.0000      -0.915110       -24.9014
  27   2.0000      -0.912743       -24.8370
  28   2.0000      -0.877406       -23.8754
  29   2.0000      -0.851770       -23.1778
  30   2.0000      -0.843909       -22.9639
  31   2.0000      -0.816823       -22.2269
  32   2.0000      -0.784916       -21.3586
  33   2.0000      -0.776788       -21.1375
  34   2.0000      -0.706826       -19.2337
  35   2.0000      -0.700849       -19.0711
  36   2.0000      -0.687001       -18.6943
  37   2.0000      -0.663604       -18.0576
  38   2.0000      -0.634704       -17.2712
  39   2.0000      -0.616427       -16.7738
  40   2.0000      -0.607559       -16.5325
  41   2.0000      -0.574435       -15.6312
  42   2.0000      -0.561130       -15.2691
  43   2.0000      -0.559123       -15.2145
  44   2.0000      -0.548186       -14.9169
  45   2.0000      -0.537592       -14.6286
  46   2.0000      -0.519127       -14.1262
  47   2.0000      -0.512070       -13.9341
  48   2.0000      -0.510648       -13.8954
  49   2.0000      -0.497581       -13.5399
  50   2.0000      -0.490429       -13.3452
  51   2.0000      -0.476287       -12.9604
  52   2.0000      -0.470808       -12.8113
  53   2.0000      -0.467004       -12.7078
  54   2.0000      -0.461273       -12.5519
  55   2.0000      -0.450496       -12.2586
  56   2.0000      -0.443877       -12.0785
  57   2.0000      -0.430867       -11.7245
  58   2.0000      -0.426217       -11.5980
  59   2.0000      -0.422396       -11.4940
  60   2.0000      -0.413737       -11.2584
  61   2.0000      -0.408814       -11.1244
  62   2.0000      -0.406737       -11.0679
  63   2.0000      -0.360365        -9.8060
  64   2.0000      -0.332638        -9.0515
  65   2.0000      -0.327604        -8.9146
  66   2.0000      -0.293011        -7.9732
  67   0.0000       0.021043         0.5726
  68   0.0000       0.072296         1.9673
  69   0.0000       0.102546         2.7904
  70   0.0000       0.115868         3.1529
  71   0.0000       0.125934         3.4268

MULLIKEN ATOMIC CHARGES
-----------------------
   0 S :    0.104747
   1 C :   -0.128749
   2 C :   -0.109270
   3 C :   -0.038913
   4 C :   -0.121190
   5 H :    0.061602
   6 C :    0.100900
   7 H :    0.031658
   8 H :    0.009194
   9 C :   -0.134854
  10 H :    0.029202
  11 H :    0.048274
  12 C :    0.014977
  13 H :    0.011140
  14 H :    0.015825
  15 H :    0.039189
  16 S :    0.075886
  17 C :   -0.049603
  18 C :   -0.004245
  19 C :   -0.055126
  20 C :   -0.140193
  21 H :    0.022135
  22 C :    0.032083
  23 H :    0.003400
  24 H :    0.031447
  25 C :   -0.052026
  26 H :    0.031603
  27 H :    0.007419
  28 C :   -0.051042
  29 H :    0.034641
  30 H :    0.044411
  31 H :    0.023310
  32 H :    0.078231
  33 H :    0.033937
Sum of atomic charges:    0.0000000

LOEWDIN ATOMIC CHARGES
----------------------
   0 S :    0.404183
   1 C :   -0.201583
   2 C :   -0.069790
   3 C :   -0.073442
   4 C :   -0.206577
   5 H :    0.050005
   6 C :   -0.031875
   7 H :    0.035300
   8 H :    0.018593
   9 C :   -0.043094
  10 H :    0.027098
  11 H :    0.033016
  12 C :   -0.062010
  13 H :    0.017054
  14 H :    0.020737
  15 H :    0.031902
  16 S :    0.374238
  17 C :   -0.149410
  18 C :   -0.061962
  19 C :   -0.058971
  20 C :   -0.170377
  21 H :    0.031653
  22 C :   -0.034883
  23 H :    0.015142
  24 H :    0.031238
  25 C :   -0.042081
  26 H :    0.025389
  27 H :    0.017993
  28 C :   -0.067697
  29 H :    0.026815
  30 H :    0.032551
  31 H :    0.023224
  32 H :    0.048334
  33 H :    0.009284

  Mayer bond orders larger than 0.100000
B(  0-S ,  1-C ) :   1.1421 B(  0-S ,  4-C ) :   1.1363 B(  1-C ,  2-C ) :   1.5851
B(  1-C , 32-H ) :   0.9586 B(  2-C ,  3-C ) :   1.2508 B(  2-C ,  6-C ) :   1.0338
B(  3-C ,  4-C ) :   1.5608 B(  3-C ,  5-H ) :   0.9650 B(  4-C , 20-C ) :   1.0660
B(  6-C ,  7-H ) :   0.9426 B(  6-C ,  8-H ) :   0.9362 B(  6-C ,  9-C ) :   1.0593
B(  9-C , 10-H ) :   0.9545 B(  9-C , 11-H ) :   0.9575 B(  9-C , 12-C ) :   1.1032
B( 12-C , 13-H ) :   0.9665 B( 12-C , 14-H ) :   0.9725 B( 12-C , 15-H ) :   0.9627
B( 16-S , 17-C ) :   1.1533 B( 16-S , 20-C ) :   1.1101 B( 17-C , 18-C ) :   1.6067
B( 17-C , 33-H ) :   0.9748 B( 18-C , 19-C ) :   1.2260 B( 18-C , 21-H ) :   0.9924
B( 19-C , 20-C ) :   1.6370 B( 19-C , 22-C ) :   1.0345 B( 22-C , 23-H ) :   0.9398
B( 22-C , 24-H ) :   0.9347 B( 22-C , 25-C ) :   1.0767 B( 25-C , 26-H ) :   0.9565
B( 25-C , 27-H ) :   0.9536 B( 25-C , 28-C ) :   1.0715 B( 28-C , 29-H ) :   0.9746
B( 28-C , 30-H ) :   0.9722 B( 28-C , 31-H ) :   0.9779

Dispersion correction           -0.014925136
FINAL SINGLE POINT ENERGY     -1339.852141545650

DIPOLE MOMENT
-------------
                                X             Y             Z
Electronic contribution:     -1.47942      19.52535      17.54782
Nuclear contribution   :      1.71163     -20.18142     -17.72970
                        -----------------------------------------
Total Dipole Moment    :      0.23221      -0.65607      -0.18188
                        -----------------------------------------
Magnitude (a.u.)       :      0.71933
Magnitude (Debye)      :      1.82838

Rotational constants in cm-1:     0.019986     0.009113     0.007139
Rotational constants in MHz :   599.158348   273.214288   214.029180

                             ****ORCA TERMINATED NORMALLY****
TOTAL RUN TIME: 0 days 0 hours 0 minutes 37 seconds 27 msec
