                         Program Version 4.2.1 -  RELEASE  -
|  1> ! wB97X-D3 SP def2-SVP
|  2> %pal
|  3> nprocs 16
|  4> end
|  5>
|  6> * xyz 0 1
|  7> S 	 6.37453 	 22.0794 	 64.8478
|  8> C 	 7.89044 	 21.2235 	 64.2751
|  9> C 	 8.25568 	 21.7177 	 63.028
| 10> C 	 7.32414 	 22.739 	 62.6148
| 11> C 	 6.2291 	 23.026 	 63.4185
| 12> H 	 7.4439 	 23.3261 	 61.697
| 13> C 	 9.57454 	 21.4197 	 62.3778
| 14> H 	 9.3676 	 20.7977 	 61.5427
| 15> H 	 10.0588 	 20.7666 	 63.0695
| 16> C 	 10.4737 	 22.6116 	 62.0436
| 17> H 	 11.2269 	 22.2238 	 61.3174
| 18> H 	 9.92726 	 23.4552 	 61.5487
| 19> C 	 11.1893 	 23.025 	 63.3667
| 20> H 	 10.4907 	 23.1615 	 64.1229
| 21> H 	 11.8472 	 22.2288 	 63.7058
| 22> H 	 11.9275 	 23.9244 	 63.3372
| 23> S 	 5.22065 	 25.3513 	 64.5867
| 24> C 	 4.26425 	 26.4842 	 63.7219
| 25> C 	 4.02432 	 25.9356 	 62.481
| 26> C 	 4.62114 	 24.6554 	 62.2044
| 27> C 	 5.3331 	 24.1911 	 63.2997
| 28> H 	 3.40546 	 26.5086 	 61.7637
| 29> C 	 4.42145 	 23.9246 	 60.867
| 30> H 	 5.23282 	 23.1439 	 60.6311
| 31> H 	 4.57266 	 24.6622 	 60.134
| 32> C 	 3.08063 	 23.2379 	 60.7587
| 33> H 	 2.23576 	 23.9711 	 60.8308
| 34> H 	 3.03158 	 22.3953 	 61.5136
| 35> C 	 2.98322 	 22.6178 	 59.3492
| 36> H 	 1.94742 	 22.2883 	 59.1056
| 37> H 	 3.62552 	 21.7317 	 59.2759
| 38> H 	 3.33524 	 23.282 	 58.525
| 39> H 	 8.44844 	 20.4589 	 64.6803
| 40> H 	 3.97746 	 27.5521 	 64.0347
| 41> *
| 42>
| 43>                          ****END OF INPUT****

CARTESIAN COORDINATES (ANGSTROEM)
---------------------------------
  S      6.374530   22.079400   64.847800
  C      7.890440   21.223500   64.275100
  C      8.255680   21.717700   63.028000
  C      7.324140   22.739000   62.614800
  C      6.229100   23.026000   63.418500
  H      7.443900   23.326100   61.697000
  C      9.574540   21.419700   62.377800
  H      9.367600   20.797700   61.542700
  H     10.058800   20.766600   63.069500
  C     10.473700   22.611600   62.043600
  H     11.226900   22.223800   61.317400
  H      9.927260   23.455200   61.548700
  C     11.189300   23.025000   63.366700
  H     10.490700   23.161500   64.122900
  H     11.847200   22.228800   63.705800
  H     11.927500   23.924400   63.337200
  S      5.220650   25.351300   64.586700
  C      4.264250   26.484200   63.721900
  C      4.024320   25.935600   62.481000
  C      4.621140   24.655400   62.204400
  C      5.333100   24.191100   63.299700
  H      3.405460   26.508600   61.763700
  C      4.421450   23.924600   60.867000
  H      5.232820   23.143900   60.631100
  H      4.572660   24.662200   60.134000
  C      3.080630   23.237900   60.758700
  H      2.235760   23.971100   60.830800
  H      3.031580   22.395300   61.513600
  C      2.983220   22.617800   59.349200
  H      1.947420   22.288300   59.105600
  H      3.625520   21.731700   59.275900
  H      3.335240   23.282000   58.525000
  H      8.448440   20.458900   64.680300
  H      3.977460   27.552100   64.034700

 Total Charge           Charge          ....    0
 Multiplicity           Mult            ....    1
 Number of Electrons    NEL             ....  134
 Basis Dimension        Dim             ....  322

ORBITAL ENERGIES
----------------

  NO   OCC          E(Eh)            E(eV)
   0   2.0000     -88.967371     -2420.9252
   1   2.0000     -88.964057     -2420.8351
   2   2.0000     -10.333315      -281.1838
   3   2.0000     -10.330057      -281.0951
   4   2.0000     -10.323591      -280.9192
   5   2.0000     -10.316525      -280.7269
   6   2.0000     -10.305074      -280.4153
   7   2.0000     -10.303422      -280.3704
   8   2.0000     -10.298890      -280.2471
   9   2.0000     -10.296703      -280.1875
  10   2.0000     -10.295336      -280.1503
  11   2.0000     -10.293697      -280.1057
  12   2.0000     -10.292974      -280.0861
  13   2.0000     -10.290104      -280.0080
  14   2.0000     -10.281112      -279.7633
  15   2.0000     -10.279700      -279.7249
  16   2.0000      -8.081143      -219.8991
  17   2.0000      -8.079623      -219.8577
  18   2.0000      -6.039887      -164.3537
  19   2.0000      -6.038177      -164.3072
  20   2.0000      -6.035661      -164.2387
  21   2.0000      -6.033742      -164.1865
  22   2.0000      -6.031785      -164.1332
  23   2.0000      -6.030523      -164.0989
  24   2.0000      -1.008867       -27.4527
  25   2.0000      -0.984380       -26.7863
  26   2.0000      -0.918336       -24.9892
  27   2.0000      -0.911094       -24.7921
  28   2.0000      -0.868708       -23.6388
  29   2.0000      -0.847635       -23.0653
  30   2.0000      -0.836671       -22.7670
  31   2.0000      -0.813585       -22.1388
  32   2.0000      -0.782481       -21.2924
  33   2.0000      -0.772772       -21.0282
  34   2.0000      -0.712845       -19.3975
  35   2.0000      -0.698353       -19.0032
  36   2.0000      -0.691567       -18.8185
  37   2.0000      -0.655437       -17.8354
  38   2.0000      -0.640785       -17.4367
  39   2.0000      -0.617154       -16.7936
  40   2.0000      -0.596136       -16.2217
  41   2.0000      -0.571679       -15.5562
  42   2.0000      -0.565158       -15.3787
  43   2.0000      -0.557667       -15.1749
  44   2.0000      -0.535782       -14.5794
  45   2.0000      -0.522648       -14.2220
  46   2.0000      -0.516589       -14.0571
  47   2.0000      -0.513869       -13.9831
  48   2.0000      -0.508356       -13.8331
  49   2.0000      -0.500273       -13.6131
  50   2.0000      -0.486548       -13.2396
  51   2.0000      -0.473914       -12.8959
  52   2.0000      -0.469111       -12.7652
  53   2.0000      -0.460656       -12.5351
  54   2.0000      -0.457461       -12.4481
  55   2.0000      -0.443896       -12.0790
  56   2.0000      -0.439228       -11.9520
  57   2.0000      -0.437588       -11.9074
  58   2.0000      -0.433353       -11.7921
  59   2.0000      -0.432759       -11.7760
  60   2.0000      -0.420555       -11.4439
  61   2.0000      -0.415746       -11.3130
  62   2.0000      -0.409426       -11.1411
  63   2.0000      -0.350937        -9.5495
  64   2.0000      -0.329684        -8.9712
  65   2.0000      -0.328501        -8.9390
  66   2.0000      -0.295089        -8.0298
  67   0.0000       0.030398         0.8272
  68   0.0000       0.071150         1.9361
  69   0.0000       0.112636         3.0650
  70   0.0000       0.121203         3.2981
  71   0.0000       0.132957         3.6179

MULLIKEN ATOMIC CHARGES
-----------------------
   0 S :    0.096004
   1 C :   -0.082563
   2 C :   -0.121241
   3 C :    0.013897
   4 C :   -0.141108
   5 H :    0.015151
   6 C :    0.103145
   7 H :    0.028167
   8 H :   -0.002496
   9 C :   -0.070765
  10 H :    0.038653
  11 H :    0.052020
  12 C :   -0.065621
  13 H :    0.032182
  14 H :    0.021775
  15 H :    0.046900
  16 S :    0.109261
  17 C :   -0.121522
  18 C :   -0.054439
  19 C :   -0.036771
  20 C :   -0.136416
  21 H :    0.024813
  22 C :    0.048776
  23 H :    0.032815
  24 H :    0.011436
  25 C :   -0.076030
  26 H :    0.040059
  27 H :    0.053449
  28 C :   -0.067413
  29 H :    0.039332
  30 H :    0.029470
  31 H :    0.030151
  32 H :    0.014136
  33 H :    0.094791
Sum of atomic charges:    0.0000000

LOEWDIN ATOMIC CHARGES
----------------------
   0 S :    0.389618
   1 C :   -0.167683
   2 C :   -0.058048
   3 C :   -0.068229
   4 C :   -0.202543
   5 H :    0.026560
   6 C :   -0.027935
   7 H :    0.029671
   8 H :    0.026811
   9 C :   -0.037345
  10 H :    0.030607
  11 H :    0.030322
  12 C :   -0.067789
  13 H :    0.016359
  14 H :    0.023696
  15 H :    0.035402
  16 S :    0.426384
  17 C :   -0.214827
  18 C :   -0.081167
  19 C :   -0.059156
  20 C :   -0.204127
  21 H :    0.031943
  22 C :   -0.034873
  23 H :    0.038475
  24 H :    0.021028
  25 C :   -0.041471
  26 H :    0.028229
  27 H :    0.037605
  28 C :   -0.074452
  29 H :    0.027359
  30 H :    0.023536
  31 H :    0.025728
  32 H :    0.013472
  33 H :    0.056841

  Mayer bond orders larger than 0.100000
B(  0-S ,  1-C ) :   1.1215 B(  0-S ,  4-C ) :   1.1438 B(  1-C ,  2-C ) :   1.6149
B(  1-C , 32-H ) :   0.9708 B(  2-C ,  3-C ) :   1.2404 B(  2-C ,  6-C ) :   1.0263
B(  3-C ,  4-C ) :   1.5818 B(  3-C ,  5-H ) :   0.9816 B(  4-C , 20-C ) :   1.0252
B(  6-C ,  7-H ) :   0.9231 B(  6-C ,  8-H ) :   0.9365 B(  6-C ,  9-C ) :   1.0639
B(  9-C , 10-H ) :   0.9543 B(  9-C , 11-H ) :   0.9598 B(  9-C , 12-C ) :   1.0565
B( 12-C , 13-H ) :   0.9830 B( 12-C , 14-H ) :   0.9730 B( 12-C , 15-H ) :   0.9756
B( 16-S , 17-C ) :   1.1646 B( 16-S , 20-C ) :   1.1535 B( 17-C , 18-C ) :   1.5880
B( 17-C , 33-H ) :   0.9584 B( 18-C , 19-C ) :   1.2669 B( 18-C , 21-H ) :   0.9838
B( 19-C , 20-C ) :   1.5804 B( 19-C , 22-C ) :   1.0302 B( 22-C , 23-H ) :   0.9372
B( 22-C , 24-H ) :   0.9293 B( 22-C , 25-C ) :   1.0758 B( 25-C , 26-H ) :   0.9556
B( 25-C , 27-H ) :   0.9532 B( 25-C , 28-C ) :   1.0755 B( 28-C , 29-H ) :   0.9750
B( 28-C , 30-H ) :   0.9741 B( 28-C , 31-H ) :   0.9733

Dispersion correction           -0.013939672
FINAL SINGLE POINT ENERGY     -1339.871165708795

DIPOLE MOMENT
-------------
                                X             Y             Z
Electronic contribution:     -8.28738       5.42821      20.38258
Nuclear contribution   :      8.58622      -5.37102     -21.04832
                        -----------------------------------------
Total Dipole Moment    :      0.29884       0.05719      -0.66574
                        -----------------------------------------
Magnitude (a.u.)       :      0.73197
Magnitude (Debye)      :      1.86053

Rotational constants in cm-1:     0.017727     0.008369     0.007116
Rotational constants in MHz :   531.428967   250.908002   213.333665

                             ****ORCA TERMINATED NORMALLY****
TOTAL RUN TIME: 0 days 0 hours 0 minutes 34 seconds 658 msec
