                         Program Version 4.2.1 -  RELEASE  -
|  1> ! wB97X-D3 SP def2-SVP
|  2> %pal
|  3> nprocs 16
|  4> end
|  5>
|  6> * xyz 0 1
|  7> S 	 18.9776 	 28.8588 	 65.5664
|  8> C 	 18.4046 	 29.7535 	 64.1903
|  9> C 	 17.0457 	 29.9966 	 64.2526
| 10> C 	 16.5595 	 29.7215 	 65.5442
| 11> C 	 17.4818 	 29.0333 	 66.4069
| 12> H 	 15.5241 	 29.8514 	 65.9031
| 13> C 	 16.2905 	 30.694 	 63.128
| 14> H 	 17.0632 	 30.9852 	 62.429
| 15> H 	 15.8404 	 31.6415 	 63.5429
| 16> C 	 15.1837 	 29.9468 	 62.3937
| 17> H 	 15.7149 	 29.1804 	 61.8067
| 18> H 	 14.4955 	 29.4548 	 63.0628
| 19> C 	 14.301 	 30.8651 	 61.5739
| 20> H 	 13.8847 	 31.806 	 62.0917
| 21> H 	 14.8085 	 31.324 	 60.6763
| 22> H 	 13.4789 	 30.2525 	 61.1426
| 23> S 	 15.6982 	 27.5435 	 67.9396
| 24> C 	 16.068 	 27.4208 	 69.6687
| 25> C 	 17.364 	 27.8703 	 69.9697
| 26> C 	 18.059 	 28.4176 	 68.9213
| 27> C 	 17.2534 	 28.4079 	 67.7449
| 28> H 	 17.8049 	 27.7972 	 71.0041
| 29> C 	 19.4082 	 29.088 	 69.0052
| 30> H 	 19.7066 	 29.3961 	 67.975
| 31> H 	 20.1226 	 28.313 	 69.4081
| 32> C 	 19.3772 	 30.2514 	 69.9686
| 33> H 	 20.339 	 30.7442 	 70.1641
| 34> H 	 19.2598 	 29.9732 	 71.0655
| 35> C 	 18.3704 	 31.2947 	 69.6622
| 36> H 	 17.3616 	 30.8912 	 69.4195
| 37> H 	 18.7533 	 31.7537 	 68.7594
| 38> H 	 18.3291 	 32.0438 	 70.5207
| 39> H 	 19.0079 	 29.8617 	 63.2893
| 40> H 	 15.4327 	 27.0511 	 70.4777
| 41> *
| 42>
| 43>                          ****END OF INPUT****

CARTESIAN COORDINATES (ANGSTROEM)
---------------------------------
  S     18.977600   28.858800   65.566400
  C     18.404600   29.753500   64.190300
  C     17.045700   29.996600   64.252600
  C     16.559500   29.721500   65.544200
  C     17.481800   29.033300   66.406900
  H     15.524100   29.851400   65.903100
  C     16.290500   30.694000   63.128000
  H     17.063200   30.985200   62.429000
  H     15.840400   31.641500   63.542900
  C     15.183700   29.946800   62.393700
  H     15.714900   29.180400   61.806700
  H     14.495500   29.454800   63.062800
  C     14.301000   30.865100   61.573900
  H     13.884700   31.806000   62.091700
  H     14.808500   31.324000   60.676300
  H     13.478900   30.252500   61.142600
  S     15.698200   27.543500   67.939600
  C     16.068000   27.420800   69.668700
  C     17.364000   27.870300   69.969700
  C     18.059000   28.417600   68.921300
  C     17.253400   28.407900   67.744900
  H     17.804900   27.797200   71.004100
  C     19.408200   29.088000   69.005200
  H     19.706600   29.396100   67.975000
  H     20.122600   28.313000   69.408100
  C     19.377200   30.251400   69.968600
  H     20.339000   30.744200   70.164100
  H     19.259800   29.973200   71.065500
  C     18.370400   31.294700   69.662200
  H     17.361600   30.891200   69.419500
  H     18.753300   31.753700   68.759400
  H     18.329100   32.043800   70.520700
  H     19.007900   29.861700   63.289300
  H     15.432700   27.051100   70.477700

 Total Charge           Charge          ....    0
 Multiplicity           Mult            ....    1
 Number of Electrons    NEL             ....  134
 Basis Dimension        Dim             ....  322

ORBITAL ENERGIES
----------------

  NO   OCC          E(Eh)            E(eV)
   0   2.0000     -88.975127     -2421.1363
   1   2.0000     -88.968603     -2420.9588
   2   2.0000     -10.335397      -281.2405
   3   2.0000     -10.334637      -281.2198
   4   2.0000     -10.322678      -280.8943
   5   2.0000     -10.312518      -280.6179
   6   2.0000     -10.303287      -280.3667
   7   2.0000     -10.301454      -280.3168
   8   2.0000     -10.298340      -280.2321
   9   2.0000     -10.298004      -280.2229
  10   2.0000     -10.296320      -280.1771
  11   2.0000     -10.294518      -280.1281
  12   2.0000     -10.290050      -280.0065
  13   2.0000     -10.287775      -279.9446
  14   2.0000     -10.283442      -279.8267
  15   2.0000     -10.272350      -279.5249
  16   2.0000      -8.088173      -220.0904
  17   2.0000      -8.083404      -219.9606
  18   2.0000      -6.046590      -164.5361
  19   2.0000      -6.043035      -164.4393
  20   2.0000      -6.041690      -164.4027
  21   2.0000      -6.039008      -164.3298
  22   2.0000      -6.037789      -164.2966
  23   2.0000      -6.034509      -164.2073
  24   2.0000      -1.003848       -27.3161
  25   2.0000      -0.983939       -26.7743
  26   2.0000      -0.915122       -24.9017
  27   2.0000      -0.913107       -24.8469
  28   2.0000      -0.865615       -23.5546
  29   2.0000      -0.854840       -23.2614
  30   2.0000      -0.843496       -22.9527
  31   2.0000      -0.807904       -21.9842
  32   2.0000      -0.782529       -21.2937
  33   2.0000      -0.768613       -20.9150
  34   2.0000      -0.703779       -19.1508
  35   2.0000      -0.694311       -18.8932
  36   2.0000      -0.687589       -18.7102
  37   2.0000      -0.660029       -17.9603
  38   2.0000      -0.635473       -17.2921
  39   2.0000      -0.612401       -16.6643
  40   2.0000      -0.591477       -16.0949
  41   2.0000      -0.570616       -15.5272
  42   2.0000      -0.560221       -15.2444
  43   2.0000      -0.557981       -15.1834
  44   2.0000      -0.541762       -14.7421
  45   2.0000      -0.522754       -14.2249
  46   2.0000      -0.518412       -14.1067
  47   2.0000      -0.506325       -13.7778
  48   2.0000      -0.497664       -13.5421
  49   2.0000      -0.495492       -13.4830
  50   2.0000      -0.486175       -13.2295
  51   2.0000      -0.475008       -12.9256
  52   2.0000      -0.467773       -12.7288
  53   2.0000      -0.460148       -12.5213
  54   2.0000      -0.459121       -12.4933
  55   2.0000      -0.450598       -12.2614
  56   2.0000      -0.445846       -12.1321
  57   2.0000      -0.436807       -11.8861
  58   2.0000      -0.436114       -11.8673
  59   2.0000      -0.427102       -11.6220
  60   2.0000      -0.420766       -11.4496
  61   2.0000      -0.417408       -11.3583
  62   2.0000      -0.395721       -10.7681
  63   2.0000      -0.342128        -9.3098
  64   2.0000      -0.339662        -9.2427
  65   2.0000      -0.332087        -9.0365
  66   2.0000      -0.284000        -7.7280
  67   0.0000       0.018941         0.5154
  68   0.0000       0.072361         1.9690
  69   0.0000       0.100774         2.7422
  70   0.0000       0.121275         3.3001
  71   0.0000       0.127746         3.4762

MULLIKEN ATOMIC CHARGES
-----------------------
   0 S :    0.117716
   1 C :   -0.135799
   2 C :   -0.071141
   3 C :    0.012054
   4 C :   -0.166857
   5 H :    0.017364
   6 C :    0.042311
   7 H :    0.014075
   8 H :    0.035921
   9 C :   -0.039208
  10 H :    0.034794
  11 H :    0.029358
  12 C :   -0.100888
  13 H :    0.047010
  14 H :    0.031430
  15 H :    0.044023
  16 S :    0.125930
  17 C :   -0.099827
  18 C :   -0.063295
  19 C :   -0.041456
  20 C :   -0.166309
  21 H :    0.035481
  22 C :    0.107216
  23 H :    0.029981
  24 H :    0.045552
  25 C :   -0.104629
  26 H :    0.020599
  27 H :    0.015414
  28 C :   -0.054780
  29 H :    0.054583
  30 H :    0.026719
  31 H :    0.042045
  32 H :    0.053774
  33 H :    0.060838
Sum of atomic charges:    0.0000000

LOEWDIN ATOMIC CHARGES
----------------------
   0 S :    0.440331
   1 C :   -0.207774
   2 C :   -0.066651
   3 C :   -0.072546
   4 C :   -0.207315
   5 H :    0.029905
   6 C :   -0.031658
   7 H :    0.027918
   8 H :    0.035701
   9 C :   -0.044120
  10 H :    0.030681
  11 H :    0.024187
  12 C :   -0.079973
  13 H :    0.034457
  14 H :    0.025972
  15 H :    0.031061
  16 S :    0.400082
  17 C :   -0.187518
  18 C :   -0.073903
  19 C :   -0.058998
  20 C :   -0.190428
  21 H :    0.041532
  22 C :   -0.033691
  23 H :    0.020831
  24 H :    0.044427
  25 C :   -0.061422
  26 H :    0.025706
  27 H :    0.022913
  28 C :   -0.069076
  29 H :    0.030673
  30 H :    0.023961
  31 H :    0.034117
  32 H :    0.027556
  33 H :    0.033063

  Mayer bond orders larger than 0.100000
B(  0-S ,  1-C ) :   1.1627 B(  0-S ,  4-C ) :   1.1797 B(  1-C ,  2-C ) :   1.5697
B(  1-C ,  4-C ) :   0.1034 B(  1-C , 32-H ) :   0.9626 B(  2-C ,  3-C ) :   1.2784
B(  2-C ,  6-C ) :   1.0254 B(  3-C ,  4-C ) :   1.5226 B(  3-C ,  5-H ) :   0.9888
B(  4-C , 20-C ) :   1.0376 B(  6-C ,  7-H ) :   0.9412 B(  6-C ,  8-H ) :   0.9448
B(  6-C ,  9-C ) :   1.0588 B(  9-C , 10-H ) :   0.9497 B(  9-C , 11-H ) :   0.9587
B(  9-C , 12-C ) :   1.0795 B( 12-C , 13-H ) :   0.9722 B( 12-C , 14-H ) :   0.9737
B( 12-C , 15-H ) :   0.9741 B( 16-S , 17-C ) :   1.1502 B( 16-S , 20-C ) :   1.1518
B( 17-C , 18-C ) :   1.5843 B( 17-C , 20-C ) :   0.1122 B( 17-C , 33-H ) :   0.9647
B( 18-C , 19-C ) :   1.2936 B( 18-C , 21-H ) :   0.9749 B( 19-C , 20-C ) :   1.5209
B( 19-C , 22-C ) :   1.0359 B( 22-C , 23-H ) :   0.9274 B( 22-C , 24-H ) :   0.9242
B( 22-C , 25-C ) :   1.0706 B( 25-C , 26-H ) :   0.9498 B( 25-C , 27-H ) :   0.9491
B( 25-C , 28-C ) :   1.0744 B( 28-C , 29-H ) :   0.9719 B( 28-C , 30-H ) :   0.9746
B( 28-C , 31-H ) :   0.9697

Dispersion correction           -0.014494056
FINAL SINGLE POINT ENERGY     -1339.876577784849

DIPOLE MOMENT
-------------
                                X             Y             Z
Electronic contribution:      3.18920     -15.52730       5.95706
Nuclear contribution   :     -3.22452      15.71886      -5.96867
                        -----------------------------------------
Total Dipole Moment    :     -0.03532       0.19156      -0.01161
                        -----------------------------------------
Magnitude (a.u.)       :      0.19514
Magnitude (Debye)      :      0.49600

Rotational constants in cm-1:     0.022836     0.007504     0.006553
Rotational constants in MHz :   684.597611   224.950013   196.453298

                             ****ORCA TERMINATED NORMALLY****
TOTAL RUN TIME: 0 days 0 hours 0 minutes 36 seconds 779 msec
