                         Program Version 4.2.1 -  RELEASE  -
|  1> ! wB97X-D3 SP def2-SVP
|  2> %pal
|  3> nprocs 16
|  4> end
|  5>
|  6> * xyz 0 1
|  7> S 	 8.64484 	 -8.08752 	 64.3298
|  8> C 	 7.79096 	 -8.39771 	 65.7615
|  9> C 	 8.17787 	 -9.64454 	 66.3145
| 10> C 	 9.1111 	 -10.2991 	 65.4217
| 11> C 	 9.32994 	 -9.65525 	 64.2254
| 12> H 	 9.68921 	 -11.2375 	 65.5608
| 13> C 	 7.90879 	 -10.0887 	 67.729
| 14> H 	 7.87152 	 -11.1667 	 67.6984
| 15> H 	 6.87304 	 -9.82934 	 68.0292
| 16> C 	 8.86992 	 -9.58646 	 68.7591
| 17> H 	 9.84027 	 -9.96254 	 68.5043
| 18> H 	 9.01221 	 -8.54436 	 68.8456
| 19> C 	 8.43953 	 -10.0357 	 70.1488
| 20> H 	 8.9249 	 -9.3372 	 70.7899
| 21> H 	 7.39132 	 -9.88238 	 70.301
| 22> H 	 8.76321 	 -11.0657 	 70.4223
| 23> S 	 11.381 	 -9.05423 	 62.3935
| 24> C 	 11.8483 	 -10.2255 	 61.2126
| 25> C 	 11.1818 	 -11.402 	 61.4101
| 26> C 	 10.1632 	 -11.3444 	 62.4295
| 27> C 	 10.0813 	 -10.1155 	 63.033
| 28> H 	 11.4846 	 -12.1995 	 60.7618
| 29> C 	 9.34436 	 -12.5804 	 62.9022
| 30> H 	 9.02012 	 -13.1446 	 62.0119
| 31> H 	 8.43584 	 -12.3507 	 63.4181
| 32> C 	 10.2171 	 -13.6056 	 63.6994
| 33> H 	 10.9052 	 -13.0169 	 64.3969
| 34> H 	 10.8388 	 -14.1906 	 63.05
| 35> C 	 9.38697 	 -14.6004 	 64.5305
| 36> H 	 8.71151 	 -14.0625 	 65.1851
| 37> H 	 10.0201 	 -15.3413 	 65.0326
| 38> H 	 8.76006 	 -15.1905 	 63.8674
| 39> H 	 7.34015 	 -7.5888 	 66.3105
| 40> H 	 12.7838 	 -10.1928 	 60.6595
| 41> *
| 42>
| 43>                          ****END OF INPUT****

CARTESIAN COORDINATES (ANGSTROEM)
---------------------------------
  S      8.644840   -8.087520   64.329800
  C      7.790960   -8.397710   65.761500
  C      8.177870   -9.644540   66.314500
  C      9.111100  -10.299100   65.421700
  C      9.329940   -9.655250   64.225400
  H      9.689210  -11.237500   65.560800
  C      7.908790  -10.088700   67.729000
  H      7.871520  -11.166700   67.698400
  H      6.873040   -9.829340   68.029200
  C      8.869920   -9.586460   68.759100
  H      9.840270   -9.962540   68.504300
  H      9.012210   -8.544360   68.845600
  C      8.439530  -10.035700   70.148800
  H      8.924900   -9.337200   70.789900
  H      7.391320   -9.882380   70.301000
  H      8.763210  -11.065700   70.422300
  S     11.381000   -9.054230   62.393500
  C     11.848300  -10.225500   61.212600
  C     11.181800  -11.402000   61.410100
  C     10.163200  -11.344400   62.429500
  C     10.081300  -10.115500   63.033000
  H     11.484600  -12.199500   60.761800
  C      9.344360  -12.580400   62.902200
  H      9.020120  -13.144600   62.011900
  H      8.435840  -12.350700   63.418100
  C     10.217100  -13.605600   63.699400
  H     10.905200  -13.016900   64.396900
  H     10.838800  -14.190600   63.050000
  C      9.386970  -14.600400   64.530500
  H      8.711510  -14.062500   65.185100
  H     10.020100  -15.341300   65.032600
  H      8.760060  -15.190500   63.867400
  H      7.340150   -7.588800   66.310500
  H     12.783800  -10.192800   60.659500

 Total Charge           Charge          ....    0
 Multiplicity           Mult            ....    1
 Number of Electrons    NEL             ....  134
 Basis Dimension        Dim             ....  322

ORBITAL ENERGIES
----------------

  NO   OCC          E(Eh)            E(eV)
   0   2.0000     -88.963150     -2420.8104
   1   2.0000     -88.962205     -2420.7847
   2   2.0000     -10.332023      -281.1486
   3   2.0000     -10.327219      -281.0179
   4   2.0000     -10.315964      -280.7117
   5   2.0000     -10.312220      -280.6098
   6   2.0000     -10.310184      -280.5544
   7   2.0000     -10.306333      -280.4496
   8   2.0000     -10.297350      -280.2051
   9   2.0000     -10.295744      -280.1614
  10   2.0000     -10.294499      -280.1275
  11   2.0000     -10.292764      -280.0804
  12   2.0000     -10.289792      -279.9995
  13   2.0000     -10.280067      -279.7348
  14   2.0000     -10.277465      -279.6640
  15   2.0000     -10.274113      -279.5728
  16   2.0000      -8.079559      -219.8560
  17   2.0000      -8.077088      -219.7887
  18   2.0000      -6.037824      -164.2975
  19   2.0000      -6.035653      -164.2385
  20   2.0000      -6.033747      -164.1866
  21   2.0000      -6.031623      -164.1288
  22   2.0000      -6.030554      -164.0997
  23   2.0000      -6.027716      -164.0225
  24   2.0000      -1.009623       -27.4733
  25   2.0000      -0.987996       -26.8847
  26   2.0000      -0.920036       -25.0355
  27   2.0000      -0.904526       -24.6134
  28   2.0000      -0.871160       -23.7055
  29   2.0000      -0.852721       -23.2037
  30   2.0000      -0.845279       -23.0012
  31   2.0000      -0.817736       -22.2517
  32   2.0000      -0.782655       -21.2971
  33   2.0000      -0.772911       -21.0320
  34   2.0000      -0.706445       -19.2233
  35   2.0000      -0.698359       -19.0033
  36   2.0000      -0.694282       -18.8924
  37   2.0000      -0.660657       -17.9774
  38   2.0000      -0.645717       -17.5709
  39   2.0000      -0.618460       -16.8292
  40   2.0000      -0.595713       -16.2102
  41   2.0000      -0.574424       -15.6309
  42   2.0000      -0.568256       -15.4630
  43   2.0000      -0.561366       -15.2755
  44   2.0000      -0.532958       -14.5025
  45   2.0000      -0.525250       -14.2928
  46   2.0000      -0.518007       -14.0957
  47   2.0000      -0.511313       -13.9135
  48   2.0000      -0.508327       -13.8323
  49   2.0000      -0.501726       -13.6527
  50   2.0000      -0.492094       -13.3905
  51   2.0000      -0.479855       -13.0575
  52   2.0000      -0.470399       -12.8002
  53   2.0000      -0.464671       -12.6443
  54   2.0000      -0.460914       -12.5421
  55   2.0000      -0.449420       -12.2293
  56   2.0000      -0.446366       -12.1462
  57   2.0000      -0.440906       -11.9977
  58   2.0000      -0.436818       -11.8864
  59   2.0000      -0.424703       -11.5568
  60   2.0000      -0.421155       -11.4602
  61   2.0000      -0.414753       -11.2860
  62   2.0000      -0.410984       -11.1834
  63   2.0000      -0.351652        -9.5689
  64   2.0000      -0.329907        -8.9772
  65   2.0000      -0.327245        -8.9048
  66   2.0000      -0.294779        -8.0213
  67   0.0000       0.030174         0.8211
  68   0.0000       0.069162         1.8820
  69   0.0000       0.111420         3.0319
  70   0.0000       0.124801         3.3960
  71   0.0000       0.127902         3.4804

MULLIKEN ATOMIC CHARGES
-----------------------
   0 S :    0.118840
   1 C :   -0.103040
   2 C :   -0.106937
   3 C :    0.008903
   4 C :   -0.164173
   5 H :    0.017908
   6 C :    0.063563
   7 H :    0.018340
   8 H :    0.017849
   9 C :   -0.037232
  10 H :    0.015120
  11 H :    0.014882
  12 C :   -0.025396
  13 H :    0.017923
  14 H :    0.022595
  15 H :    0.041871
  16 S :    0.084289
  17 C :   -0.083624
  18 C :   -0.048569
  19 C :   -0.028399
  20 C :   -0.122600
  21 H :    0.015941
  22 C :    0.065963
  23 H :    0.024781
  24 H :    0.030220
  25 C :   -0.103971
  26 H :    0.041077
  27 H :    0.025045
  28 C :   -0.033532
  29 H :    0.029148
  30 H :    0.040358
  31 H :    0.019867
  32 H :    0.054734
  33 H :    0.068253
Sum of atomic charges:   -0.0000000

LOEWDIN ATOMIC CHARGES
----------------------
   0 S :    0.447925
   1 C :   -0.213987
   2 C :   -0.062018
   3 C :   -0.072584
   4 C :   -0.211830
   5 H :    0.036046
   6 C :   -0.036079
   7 H :    0.029847
   8 H :    0.030559
   9 C :   -0.034879
  10 H :    0.023519
  11 H :    0.020040
  12 C :   -0.058136
  13 H :    0.023421
  14 H :    0.020830
  15 H :    0.029290
  16 S :    0.385926
  17 C :   -0.189085
  18 C :   -0.072343
  19 C :   -0.050921
  20 C :   -0.181610
  21 H :    0.030485
  22 C :   -0.028175
  23 H :    0.033082
  24 H :    0.026199
  25 C :   -0.040965
  26 H :    0.024134
  27 H :    0.018739
  28 C :   -0.063770
  29 H :    0.021450
  30 H :    0.029571
  31 H :    0.022656
  32 H :    0.026695
  33 H :    0.035969

  Mayer bond orders larger than 0.100000
B(  0-S ,  1-C ) :   1.1802 B(  0-S ,  4-C ) :   1.1799 B(  1-C ,  2-C ) :   1.5510
B(  1-C ,  4-C ) :   0.1032 B(  1-C , 32-H ) :   0.9716 B(  2-C ,  3-C ) :   1.2671
B(  2-C ,  6-C ) :   1.0375 B(  3-C ,  4-C ) :   1.5478 B(  3-C ,  5-H ) :   0.9894
B(  4-C , 20-C ) :   1.0114 B(  6-C ,  7-H ) :   0.9354 B(  6-C ,  8-H ) :   0.9373
B(  6-C ,  9-C ) :   1.0715 B(  9-C , 10-H ) :   0.9466 B(  9-C , 11-H ) :   0.9606
B(  9-C , 12-C ) :   1.0826 B( 12-C , 13-H ) :   0.9760 B( 12-C , 14-H ) :   0.9733
B( 12-C , 15-H ) :   0.9758 B( 16-S , 17-C ) :   1.1506 B( 16-S , 20-C ) :   1.1297
B( 17-C , 18-C ) :   1.6431 B( 17-C , 33-H ) :   0.9604 B( 18-C , 19-C ) :   1.2041
B( 18-C , 21-H ) :   0.9954 B( 19-C , 20-C ) :   1.6375 B( 19-C , 22-C ) :   1.0493
B( 22-C , 23-H ) :   0.9296 B( 22-C , 24-H ) :   0.9466 B( 22-C , 25-C ) :   1.0429
B( 25-C , 26-H ) :   0.9596 B( 25-C , 27-H ) :   0.9535 B( 25-C , 28-C ) :   1.0854
B( 28-C , 29-H ) :   0.9768 B( 28-C , 30-H ) :   0.9737 B( 28-C , 31-H ) :   0.9716

Dispersion correction           -0.014175689
FINAL SINGLE POINT ENERGY     -1339.880887457085

DIPOLE MOMENT
-------------
                                X             Y             Z
Electronic contribution:      5.24293      20.93085     -21.60511
Nuclear contribution   :     -5.08518     -21.52943      22.03223
                        -----------------------------------------
Total Dipole Moment    :      0.15775      -0.59858       0.42712
                        -----------------------------------------
Magnitude (a.u.)       :      0.75207
Magnitude (Debye)      :      1.91162

Rotational constants in cm-1:     0.018132     0.008630     0.006491
Rotational constants in MHz :   543.594481   258.723777   194.593066

                             ****ORCA TERMINATED NORMALLY****
TOTAL RUN TIME: 0 days 0 hours 0 minutes 34 seconds 602 msec
