                         Program Version 4.2.1 -  RELEASE  -
|  1> ! wB97X-D3 SP def2-SVP
|  2> %pal
|  3> nprocs 16
|  4> end
|  5>
|  6> * xyz 0 1
|  7> S 	 -71.8855 	 51.3242 	 136.896
|  8> C 	 -71.1112 	 52.8975 	 137.217
|  9> C 	 -71.3971 	 53.8161 	 136.215
| 10> C 	 -72.2466 	 53.2596 	 135.215
| 11> C 	 -72.7089 	 51.9467 	 135.512
| 12> H 	 -72.5195 	 53.8866 	 134.348
| 13> C 	 -70.8454 	 55.2401 	 136.173
| 14> H 	 -71.261 	 55.6485 	 135.313
| 15> H 	 -69.7737 	 55.0474 	 136.168
| 16> C 	 -71.3071 	 56.0063 	 137.397
| 17> H 	 -70.8603 	 55.6323 	 138.339
| 18> H 	 -70.8626 	 56.9852 	 137.364
| 19> C 	 -72.8061 	 56.1042 	 137.649
| 20> H 	 -73.3894 	 56.3665 	 136.717
| 21> H 	 -73.1768 	 55.0623 	 137.871
| 22> H 	 -73.1937 	 56.7408 	 138.499
| 23> S 	 -72.5441 	 49.7182 	 133.813
| 24> C 	 -73.9683 	 49.1049 	 133.086
| 25> C 	 -75.0738 	 49.9116 	 133.356
| 26> C 	 -74.7101 	 51.0363 	 134.207
| 27> C 	 -73.386 	 51.0424 	 134.569
| 28> H 	 -76.0676 	 49.7421 	 132.939
| 29> C 	 -75.7128 	 52.1971 	 134.53
| 30> H 	 -76.6763 	 51.9115 	 134.053
| 31> H 	 -75.466 	 53.1496 	 134.155
| 32> C 	 -75.9797 	 52.3817 	 136.052
| 33> H 	 -76.8209 	 53.0765 	 136.221
| 34> H 	 -75.1202 	 52.9141 	 136.618
| 35> C 	 -76.3983 	 51.0299 	 136.679
| 36> H 	 -77.2984 	 50.7615 	 136.143
| 37> H 	 -76.7952 	 51.0696 	 137.684
| 38> H 	 -75.622 	 50.1958 	 136.631
| 39> H 	 -70.5375 	 53.1646 	 138.101
| 40> H 	 -73.9793 	 48.2233 	 132.476
| 41> *
| 42>
| 43>                          ****END OF INPUT****

CARTESIAN COORDINATES (ANGSTROEM)
---------------------------------
  S    -71.885500   51.324200  136.896000
  C    -71.111200   52.897500  137.217000
  C    -71.397100   53.816100  136.215000
  C    -72.246600   53.259600  135.215000
  C    -72.708900   51.946700  135.512000
  H    -72.519500   53.886600  134.348000
  C    -70.845400   55.240100  136.173000
  H    -71.261000   55.648500  135.313000
  H    -69.773700   55.047400  136.168000
  C    -71.307100   56.006300  137.397000
  H    -70.860300   55.632300  138.339000
  H    -70.862600   56.985200  137.364000
  C    -72.806100   56.104200  137.649000
  H    -73.389400   56.366500  136.717000
  H    -73.176800   55.062300  137.871000
  H    -73.193700   56.740800  138.499000
  S    -72.544100   49.718200  133.813000
  C    -73.968300   49.104900  133.086000
  C    -75.073800   49.911600  133.356000
  C    -74.710100   51.036300  134.207000
  C    -73.386000   51.042400  134.569000
  H    -76.067600   49.742100  132.939000
  C    -75.712800   52.197100  134.530000
  H    -76.676300   51.911500  134.053000
  H    -75.466000   53.149600  134.155000
  C    -75.979700   52.381700  136.052000
  H    -76.820900   53.076500  136.221000
  H    -75.120200   52.914100  136.618000
  C    -76.398300   51.029900  136.679000
  H    -77.298400   50.761500  136.143000
  H    -76.795200   51.069600  137.684000
  H    -75.622000   50.195800  136.631000
  H    -70.537500   53.164600  138.101000
  H    -73.979300   48.223300  132.476000

 Total Charge           Charge          ....    0
 Multiplicity           Mult            ....    1
 Number of Electrons    NEL             ....  134
 Basis Dimension        Dim             ....  322

ORBITAL ENERGIES
----------------

  NO   OCC          E(Eh)            E(eV)
   0   2.0000     -88.970853     -2421.0200
   1   2.0000     -88.964899     -2420.8580
   2   2.0000     -10.333082      -281.1775
   3   2.0000     -10.322236      -280.8823
   4   2.0000     -10.315955      -280.7114
   5   2.0000     -10.314794      -280.6798
   6   2.0000     -10.303990      -280.3858
   7   2.0000     -10.299549      -280.2650
   8   2.0000     -10.298870      -280.2465
   9   2.0000     -10.297661      -280.2136
  10   2.0000     -10.293112      -280.0898
  11   2.0000     -10.292559      -280.0748
  12   2.0000     -10.289229      -279.9842
  13   2.0000     -10.288601      -279.9671
  14   2.0000     -10.287557      -279.9386
  15   2.0000     -10.271635      -279.5054
  16   2.0000      -8.084899      -220.0013
  17   2.0000      -8.080426      -219.8796
  18   2.0000      -6.043394      -164.4491
  19   2.0000      -6.039345      -164.3389
  20   2.0000      -6.038855      -164.3256
  21   2.0000      -6.035868      -164.2443
  22   2.0000      -6.034705      -164.2127
  23   2.0000      -6.031342      -164.1212
  24   2.0000      -1.005398       -27.3583
  25   2.0000      -0.982947       -26.7473
  26   2.0000      -0.919004       -25.0074
  27   2.0000      -0.899140       -24.4668
  28   2.0000      -0.862711       -23.4756
  29   2.0000      -0.844357       -22.9761
  30   2.0000      -0.838563       -22.8184
  31   2.0000      -0.807031       -21.9604
  32   2.0000      -0.784061       -21.3354
  33   2.0000      -0.772906       -21.0318
  34   2.0000      -0.706929       -19.2365
  35   2.0000      -0.700521       -19.0621
  36   2.0000      -0.681318       -18.5396
  37   2.0000      -0.661986       -18.0136
  38   2.0000      -0.632219       -17.2036
  39   2.0000      -0.610607       -16.6155
  40   2.0000      -0.589866       -16.0511
  41   2.0000      -0.575870       -15.6702
  42   2.0000      -0.562363       -15.3027
  43   2.0000      -0.549991       -14.9660
  44   2.0000      -0.541874       -14.7452
  45   2.0000      -0.534470       -14.5437
  46   2.0000      -0.511149       -13.9091
  47   2.0000      -0.505117       -13.7449
  48   2.0000      -0.502917       -13.6851
  49   2.0000      -0.487728       -13.2717
  50   2.0000      -0.478341       -13.0163
  51   2.0000      -0.473419       -12.8824
  52   2.0000      -0.470267       -12.7966
  53   2.0000      -0.463017       -12.5993
  54   2.0000      -0.460680       -12.5357
  55   2.0000      -0.450069       -12.2470
  56   2.0000      -0.439152       -11.9499
  57   2.0000      -0.433651       -11.8003
  58   2.0000      -0.431894       -11.7524
  59   2.0000      -0.428461       -11.6590
  60   2.0000      -0.419850       -11.4247
  61   2.0000      -0.407915       -11.0999
  62   2.0000      -0.405610       -11.0372
  63   2.0000      -0.337161        -9.1746
  64   2.0000      -0.331073        -9.0089
  65   2.0000      -0.327402        -8.9091
  66   2.0000      -0.298901        -8.1335
  67   0.0000       0.033694         0.9169
  68   0.0000       0.060269         1.6400
  69   0.0000       0.114637         3.1194
  70   0.0000       0.120502         3.2790
  71   0.0000       0.131317         3.5733

MULLIKEN ATOMIC CHARGES
-----------------------
   0 S :    0.124426
   1 C :   -0.138383
   2 C :   -0.155159
   3 C :    0.027604
   4 C :   -0.159423
   5 H :    0.023224
   6 C :    0.162939
   7 H :   -0.001407
   8 H :    0.051292
   9 C :   -0.073069
  10 H :    0.021986
  11 H :    0.022374
  12 C :   -0.100483
  13 H :    0.031790
  14 H :    0.048910
  15 H :    0.053600
  16 S :    0.124807
  17 C :   -0.096286
  18 C :   -0.023577
  19 C :   -0.065036
  20 C :   -0.159989
  21 H :    0.023881
  22 C :    0.108271
  23 H :    0.014526
  24 H :    0.024925
  25 C :   -0.124543
  26 H :    0.027409
  27 H :    0.060889
  28 C :   -0.056385
  29 H :    0.010770
  30 H :    0.024412
  31 H :    0.060220
  32 H :    0.048837
  33 H :    0.056646
Sum of atomic charges:   -0.0000000

LOEWDIN ATOMIC CHARGES
----------------------
   0 S :    0.420789
   1 C :   -0.198685
   2 C :   -0.063610
   3 C :   -0.065096
   4 C :   -0.203374
   5 H :    0.033794
   6 C :   -0.014769
   7 H :    0.020234
   8 H :    0.043950
   9 C :   -0.047149
  10 H :    0.025266
  11 H :    0.020370
  12 C :   -0.081539
  13 H :    0.026113
  14 H :    0.031278
  15 H :    0.035641
  16 S :    0.427524
  17 C :   -0.194025
  18 C :   -0.073413
  19 C :   -0.053603
  20 C :   -0.214124
  21 H :    0.032668
  22 C :   -0.022052
  23 H :    0.029972
  24 H :    0.022880
  25 C :   -0.050854
  26 H :    0.023902
  27 H :    0.031069
  28 C :   -0.075241
  29 H :    0.020946
  30 H :    0.021882
  31 H :    0.034462
  32 H :    0.027540
  33 H :    0.027254

  Mayer bond orders larger than 0.100000
B(  0-S ,  1-C ) :   1.1462 B(  0-S ,  4-C ) :   1.1771 B(  1-C ,  2-C ) :   1.5764
B(  1-C ,  4-C ) :   0.1082 B(  1-C , 32-H ) :   0.9682 B(  2-C ,  3-C ) :   1.2991
B(  2-C ,  6-C ) :   0.9919 B(  3-C ,  4-C ) :   1.5212 B(  3-C ,  5-H ) :   0.9824
B(  4-C , 20-C ) :   1.0186 B(  6-C ,  7-H ) :   0.9337 B(  6-C ,  8-H ) :   0.9362
B(  6-C ,  9-C ) :   1.0843 B(  9-C , 10-H ) :   0.9514 B(  9-C , 11-H ) :   0.9552
B(  9-C , 12-C ) :   1.0653 B( 12-C , 13-H ) :   0.9759 B( 12-C , 14-H ) :   0.9674
B( 12-C , 15-H ) :   0.9735 B( 16-S , 17-C ) :   1.1757 B( 16-S , 20-C ) :   1.1466
B( 17-C , 18-C ) :   1.5835 B( 17-C , 33-H ) :   0.9703 B( 18-C , 19-C ) :   1.2622
B( 18-C , 21-H ) :   0.9876 B( 19-C , 20-C ) :   1.6102 B( 19-C , 22-C ) :   1.0204
B( 22-C , 23-H ) :   0.9384 B( 22-C , 24-H ) :   0.9456 B( 22-C , 25-C ) :   1.0662
B( 25-C , 26-H ) :   0.9559 B( 25-C , 27-H ) :   0.9515 B( 25-C , 28-C ) :   1.0676
B( 28-C , 29-H ) :   0.9732 B( 28-C , 30-H ) :   0.9743 B( 28-C , 31-H ) :   0.9705

Dispersion correction           -0.016107337
FINAL SINGLE POINT ENERGY     -1339.880619731613

DIPOLE MOMENT
-------------
                                X             Y             Z
Electronic contribution:     12.13138     -20.00808      -9.25526
Nuclear contribution   :    -12.28967      20.54438       9.20506
                        -----------------------------------------
Total Dipole Moment    :     -0.15829       0.53631      -0.05020
                        -----------------------------------------
Magnitude (a.u.)       :      0.56143
Magnitude (Debye)      :      1.42703

Rotational constants in cm-1:     0.022130     0.009033     0.007608
Rotational constants in MHz :   663.444541   270.802873   228.080450

                             ****ORCA TERMINATED NORMALLY****
TOTAL RUN TIME: 0 days 0 hours 0 minutes 34 seconds 979 msec
