                         Program Version 4.2.1 -  RELEASE  -
|  1> ! wB97X-D3 SP def2-SVP
|  2> %pal
|  3> nprocs 16
|  4> end
|  5>
|  6> * xyz 0 1
|  7> S 	 4.73116 	 -23.3546 	 87.1137
|  8> C 	 2.96849 	 -23.5413 	 86.899
|  9> C 	 2.66076 	 -23.2105 	 85.6138
| 10> C 	 3.76047 	 -22.5993 	 84.934
| 11> C 	 4.85835 	 -22.4176 	 85.702
| 12> H 	 3.60563 	 -22.2438 	 83.9416
| 13> C 	 1.34757 	 -23.5349 	 84.9079
| 14> H 	 0.945885 	 -22.5969 	 84.4559
| 15> H 	 0.648666 	 -23.7805 	 85.6875
| 16> C 	 1.44764 	 -24.6174 	 83.8303
| 17> H 	 2.20325 	 -24.1594 	 83.169
| 18> H 	 2.06291 	 -25.5472 	 84.1322
| 19> C 	 0.19845 	 -25.0238 	 83.0198
| 20> H 	 -0.706277 	 -25.2202 	 83.6534
| 21> H 	 -0.137221 	 -24.1976 	 82.4048
| 22> H 	 0.476229 	 -25.8434 	 82.3499
| 23> S 	 7.59959 	 -22.7366 	 85.3222
| 24> C 	 8.58888 	 -21.5245 	 84.6008
| 25> C 	 7.76257 	 -20.5483 	 84.1109
| 26> C 	 6.40856 	 -20.6861 	 84.5058
| 27> C 	 6.11093 	 -21.845 	 85.2625
| 28> H 	 8.21528 	 -19.7227 	 83.5204
| 29> C 	 5.37168 	 -19.5502 	 84.2742
| 30> H 	 4.39071 	 -19.8884 	 84.4804
| 31> H 	 5.36049 	 -19.2606 	 83.2367
| 32> C 	 5.66566 	 -18.2164 	 85.0301
| 33> H 	 6.71495 	 -17.8904 	 85.0153
| 34> H 	 5.45126 	 -18.3792 	 86.0743
| 35> C 	 4.75752 	 -17.0422 	 84.6022
| 36> H 	 4.81669 	 -16.9621 	 83.5458
| 37> H 	 5.02853 	 -16.0847 	 85.1717
| 38> H 	 3.67892 	 -17.1954 	 84.7335
| 39> H 	 2.31897 	 -24.0945 	 87.566
| 40> H 	 9.65359 	 -21.4616 	 84.5066
| 41> *
| 42>
| 43>                          ****END OF INPUT****

CARTESIAN COORDINATES (ANGSTROEM)
---------------------------------
  S      4.731160  -23.354600   87.113700
  C      2.968490  -23.541300   86.899000
  C      2.660760  -23.210500   85.613800
  C      3.760470  -22.599300   84.934000
  C      4.858350  -22.417600   85.702000
  H      3.605630  -22.243800   83.941600
  C      1.347570  -23.534900   84.907900
  H      0.945885  -22.596900   84.455900
  H      0.648666  -23.780500   85.687500
  C      1.447640  -24.617400   83.830300
  H      2.203250  -24.159400   83.169000
  H      2.062910  -25.547200   84.132200
  C      0.198450  -25.023800   83.019800
  H     -0.706277  -25.220200   83.653400
  H     -0.137221  -24.197600   82.404800
  H      0.476229  -25.843400   82.349900
  S      7.599590  -22.736600   85.322200
  C      8.588880  -21.524500   84.600800
  C      7.762570  -20.548300   84.110900
  C      6.408560  -20.686100   84.505800
  C      6.110930  -21.845000   85.262500
  H      8.215280  -19.722700   83.520400
  C      5.371680  -19.550200   84.274200
  H      4.390710  -19.888400   84.480400
  H      5.360490  -19.260600   83.236700
  C      5.665660  -18.216400   85.030100
  H      6.714950  -17.890400   85.015300
  H      5.451260  -18.379200   86.074300
  C      4.757520  -17.042200   84.602200
  H      4.816690  -16.962100   83.545800
  H      5.028530  -16.084700   85.171700
  H      3.678920  -17.195400   84.733500
  H      2.318970  -24.094500   87.566000
  H      9.653590  -21.461600   84.506600

 Total Charge           Charge          ....    0
 Multiplicity           Mult            ....    1
 Number of Electrons    NEL             ....  134
 Basis Dimension        Dim             ....  322

ORBITAL ENERGIES
----------------

  NO   OCC          E(Eh)            E(eV)
   0   2.0000     -88.964943     -2420.8592
   1   2.0000     -88.963810     -2420.8284
   2   2.0000     -10.329121      -281.0697
   3   2.0000     -10.328585      -281.0551
   4   2.0000     -10.316877      -280.7365
   5   2.0000     -10.314938      -280.6837
   6   2.0000     -10.306544      -280.4553
   7   2.0000     -10.300961      -280.3034
   8   2.0000     -10.297376      -280.2059
   9   2.0000     -10.296784      -280.1897
  10   2.0000     -10.294053      -280.1154
  11   2.0000     -10.290391      -280.0158
  12   2.0000     -10.288182      -279.9557
  13   2.0000     -10.287070      -279.9254
  14   2.0000     -10.283277      -279.8222
  15   2.0000     -10.279561      -279.7211
  16   2.0000      -8.080466      -219.8806
  17   2.0000      -8.079172      -219.8454
  18   2.0000      -6.039049      -164.3309
  19   2.0000      -6.037693      -164.2940
  20   2.0000      -6.035071      -164.2226
  21   2.0000      -6.033412      -164.1775
  22   2.0000      -6.030850      -164.1078
  23   2.0000      -6.030028      -164.0854
  24   2.0000      -1.016749       -27.6671
  25   2.0000      -0.992652       -27.0114
  26   2.0000      -0.913203       -24.8495
  27   2.0000      -0.900844       -24.5132
  28   2.0000      -0.874976       -23.8093
  29   2.0000      -0.849528       -23.1168
  30   2.0000      -0.842125       -22.9154
  31   2.0000      -0.820247       -22.3201
  32   2.0000      -0.785773       -21.3820
  33   2.0000      -0.771570       -20.9955
  34   2.0000      -0.712694       -19.3934
  35   2.0000      -0.697782       -18.9876
  36   2.0000      -0.696298       -18.9472
  37   2.0000      -0.655943       -17.8491
  38   2.0000      -0.641322       -17.4513
  39   2.0000      -0.631176       -17.1752
  40   2.0000      -0.595371       -16.2009
  41   2.0000      -0.573240       -15.5986
  42   2.0000      -0.558398       -15.1948
  43   2.0000      -0.553483       -15.0610
  44   2.0000      -0.531344       -14.4586
  45   2.0000      -0.524247       -14.2655
  46   2.0000      -0.523790       -14.2531
  47   2.0000      -0.513322       -13.9682
  48   2.0000      -0.508756       -13.8440
  49   2.0000      -0.500299       -13.6138
  50   2.0000      -0.495761       -13.4904
  51   2.0000      -0.481163       -13.0931
  52   2.0000      -0.470187       -12.7945
  53   2.0000      -0.466786       -12.7019
  54   2.0000      -0.459428       -12.5017
  55   2.0000      -0.458032       -12.4637
  56   2.0000      -0.441516       -12.0143
  57   2.0000      -0.441117       -12.0034
  58   2.0000      -0.435591       -11.8530
  59   2.0000      -0.423898       -11.5348
  60   2.0000      -0.416592       -11.3361
  61   2.0000      -0.407167       -11.0796
  62   2.0000      -0.404796       -11.0151
  63   2.0000      -0.353733        -9.6256
  64   2.0000      -0.329983        -8.9793
  65   2.0000      -0.328058        -8.9269
  66   2.0000      -0.295375        -8.0376
  67   0.0000       0.024110         0.6561
  68   0.0000       0.074899         2.0381
  69   0.0000       0.106119         2.8876
  70   0.0000       0.123807         3.3690
  71   0.0000       0.134113         3.6494

MULLIKEN ATOMIC CHARGES
-----------------------
   0 S :    0.097270
   1 C :   -0.109968
   2 C :   -0.112657
   3 C :    0.038314
   4 C :   -0.130400
   5 H :    0.006600
   6 C :    0.092119
   7 H :    0.031160
   8 H :    0.007307
   9 C :   -0.124668
  10 H :    0.020311
  11 H :    0.043622
  12 C :   -0.028760
  13 H :    0.041170
  14 H :    0.024675
  15 H :    0.048245
  16 S :    0.101563
  17 C :   -0.083614
  18 C :   -0.054678
  19 C :   -0.054339
  20 C :   -0.114402
  21 H :    0.033354
  22 C :    0.094644
  23 H :    0.005765
  24 H :    0.010836
  25 C :   -0.073691
  26 H :    0.032973
  27 H :    0.026491
  28 C :   -0.064943
  29 H :    0.015241
  30 H :    0.052387
  31 H :    0.027045
  32 H :    0.047345
  33 H :    0.053683
Sum of atomic charges:   -0.0000000

LOEWDIN ATOMIC CHARGES
----------------------
   0 S :    0.410199
   1 C :   -0.179658
   2 C :   -0.061308
   3 C :   -0.057480
   4 C :   -0.203767
   5 H :    0.025751
   6 C :   -0.031429
   7 H :    0.033759
   8 H :    0.021725
   9 C :   -0.056789
  10 H :    0.024456
  11 H :    0.034351
  12 C :   -0.068572
  13 H :    0.031428
  14 H :    0.023648
  15 H :    0.034086
  16 S :    0.422473
  17 C :   -0.192832
  18 C :   -0.079841
  19 C :   -0.057776
  20 C :   -0.204407
  21 H :    0.038543
  22 C :   -0.025329
  23 H :    0.020251
  24 H :    0.024602
  25 C :   -0.040651
  26 H :    0.024701
  27 H :    0.022320
  28 C :   -0.071840
  29 H :    0.014718
  30 H :    0.038394
  31 H :    0.024274
  32 H :    0.029039
  33 H :    0.032957

  Mayer bond orders larger than 0.100000
B(  0-S ,  1-C ) :   1.1208 B(  0-S ,  4-C ) :   1.1564 B(  1-C ,  2-C ) :   1.6307
B(  1-C , 32-H ) :   0.9698 B(  2-C ,  3-C ) :   1.2407 B(  2-C ,  6-C ) :   1.0280
B(  3-C ,  4-C ) :   1.5470 B(  3-C ,  5-H ) :   0.9992 B(  4-C , 20-C ) :   1.0464
B(  6-C ,  7-H ) :   0.9381 B(  6-C ,  8-H ) :   0.9361 B(  6-C ,  9-C ) :   1.0491
B(  9-C , 10-H ) :   0.9507 B(  9-C , 11-H ) :   0.9576 B(  9-C , 12-C ) :   1.0789
B( 12-C , 13-H ) :   0.9761 B( 12-C , 14-H ) :   0.9721 B( 12-C , 15-H ) :   0.9730
B( 16-S , 17-C ) :   1.1704 B( 16-S , 20-C ) :   1.1487 B( 17-C , 18-C ) :   1.5788
B( 17-C , 20-C ) :   0.1063 B( 17-C , 33-H ) :   0.9712 B( 18-C , 19-C ) :   1.2783
B( 18-C , 21-H ) :   0.9863 B( 19-C , 20-C ) :   1.5565 B( 19-C , 22-C ) :   1.0490
B( 22-C , 23-H ) :   0.9362 B( 22-C , 24-H ) :   0.9362 B( 22-C , 25-C ) :   1.0561
B( 25-C , 26-H ) :   0.9602 B( 25-C , 27-H ) :   0.9546 B( 25-C , 28-C ) :   1.0754
B( 28-C , 29-H ) :   0.9757 B( 28-C , 30-H ) :   0.9735 B( 28-C , 31-H ) :   0.9752

Dispersion correction           -0.013411040
FINAL SINGLE POINT ENERGY     -1339.870417499997

DIPOLE MOMENT
-------------
                                X             Y             Z
Electronic contribution:     20.14634     -11.40098      13.38775
Nuclear contribution   :    -20.55427      11.61109     -13.88824
                        -----------------------------------------
Total Dipole Moment    :     -0.40792       0.21011      -0.50049
                        -----------------------------------------
Magnitude (a.u.)       :      0.67900
Magnitude (Debye)      :      1.72588

Rotational constants in cm-1:     0.017293     0.007846     0.006545
Rotational constants in MHz :   518.424360   235.215954   196.207838

                             ****ORCA TERMINATED NORMALLY****
TOTAL RUN TIME: 0 days 0 hours 0 minutes 32 seconds 869 msec
