                         Program Version 4.2.1 -  RELEASE  -
|  1> ! wB97X-D3 SP def2-SVP
|  2> %pal
|  3> nprocs 16
|  4> end
|  5>
|  6> * xyz 0 1
|  7> S 	 -8.16287 	 15.2953 	 82.1704
|  8> C 	 -8.60348 	 15.2562 	 80.4456
|  9> C 	 -8.46578 	 16.5597 	 79.9243
| 10> C 	 -7.85704 	 17.4869 	 80.7887
| 11> C 	 -7.64833 	 16.9709 	 82.0891
| 12> H 	 -7.64201 	 18.5147 	 80.5829
| 13> C 	 -8.95248 	 16.8792 	 78.529
| 14> H 	 -8.45293 	 16.3032 	 77.7185
| 15> H 	 -8.51494 	 17.838 	 78.3258
| 16> C 	 -10.4251 	 16.9242 	 78.2786
| 17> H 	 -10.5976 	 17.1576 	 77.1608
| 18> H 	 -10.7739 	 15.9059 	 78.4323
| 19> C 	 -11.1802 	 18.0172 	 78.9957
| 20> H 	 -12.2192 	 17.9236 	 78.8126
| 21> H 	 -11.0794 	 17.9838 	 80.0875
| 22> H 	 -10.9093 	 19.0058 	 78.6624
| 23> S 	 -8.2044 	 17.7204 	 84.5897
| 24> C 	 -7.18921 	 18.8903 	 85.4163
| 25> C 	 -6.01962 	 19.2047 	 84.7137
| 26> C 	 -5.96653 	 18.4869 	 83.476
| 27> C 	 -7.08744 	 17.6527 	 83.2835
| 28> H 	 -5.26172 	 19.9106 	 85.0217
| 29> C 	 -4.8614 	 18.7846 	 82.509
| 30> H 	 -4.5857 	 19.8589 	 82.508
| 31> H 	 -5.25412 	 18.5939 	 81.4901
| 32> C 	 -3.55856 	 17.9168 	 82.5804
| 33> H 	 -3.2188 	 17.8061 	 83.5969
| 34> H 	 -2.70639 	 18.4261 	 82.0637
| 35> C 	 -3.743 	 16.6192 	 81.8848
| 36> H 	 -4.10694 	 16.6241 	 80.8546
| 37> H 	 -4.39938 	 15.9734 	 82.5436
| 38> H 	 -2.80353 	 16.0138 	 81.7279
| 39> H 	 -9.16685 	 14.4911 	 79.8402
| 40> H 	 -7.607 	 19.412 	 86.2512
| 41> *
| 42>
| 43>                          ****END OF INPUT****

CARTESIAN COORDINATES (ANGSTROEM)
---------------------------------
  S     -8.162870   15.295300   82.170400
  C     -8.603480   15.256200   80.445600
  C     -8.465780   16.559700   79.924300
  C     -7.857040   17.486900   80.788700
  C     -7.648330   16.970900   82.089100
  H     -7.642010   18.514700   80.582900
  C     -8.952480   16.879200   78.529000
  H     -8.452930   16.303200   77.718500
  H     -8.514940   17.838000   78.325800
  C    -10.425100   16.924200   78.278600
  H    -10.597600   17.157600   77.160800
  H    -10.773900   15.905900   78.432300
  C    -11.180200   18.017200   78.995700
  H    -12.219200   17.923600   78.812600
  H    -11.079400   17.983800   80.087500
  H    -10.909300   19.005800   78.662400
  S     -8.204400   17.720400   84.589700
  C     -7.189210   18.890300   85.416300
  C     -6.019620   19.204700   84.713700
  C     -5.966530   18.486900   83.476000
  C     -7.087440   17.652700   83.283500
  H     -5.261720   19.910600   85.021700
  C     -4.861400   18.784600   82.509000
  H     -4.585700   19.858900   82.508000
  H     -5.254120   18.593900   81.490100
  C     -3.558560   17.916800   82.580400
  H     -3.218800   17.806100   83.596900
  H     -2.706390   18.426100   82.063700
  C     -3.743000   16.619200   81.884800
  H     -4.106940   16.624100   80.854600
  H     -4.399380   15.973400   82.543600
  H     -2.803530   16.013800   81.727900
  H     -9.166850   14.491100   79.840200
  H     -7.607000   19.412000   86.251200

 Total Charge           Charge          ....    0
 Multiplicity           Mult            ....    1
 Number of Electrons    NEL             ....  134
 Basis Dimension        Dim             ....  322

ORBITAL ENERGIES
----------------

  NO   OCC          E(Eh)            E(eV)
   0   2.0000     -88.970924     -2421.0219
   1   2.0000     -88.969407     -2420.9806
   2   2.0000     -10.336538      -281.2715
   3   2.0000     -10.330414      -281.1049
   4   2.0000     -10.320853      -280.8447
   5   2.0000     -10.319398      -280.8051
   6   2.0000     -10.307945      -280.4935
   7   2.0000     -10.300823      -280.2996
   8   2.0000     -10.300497      -280.2908
   9   2.0000     -10.295416      -280.1525
  10   2.0000     -10.294194      -280.1193
  11   2.0000     -10.289133      -279.9815
  12   2.0000     -10.285379      -279.8794
  13   2.0000     -10.285370      -279.8791
  14   2.0000     -10.274711      -279.5891
  15   2.0000     -10.270225      -279.4670
  16   2.0000      -8.084673      -219.9951
  17   2.0000      -8.084395      -219.9876
  18   2.0000      -6.042990      -164.4381
  19   2.0000      -6.042956      -164.4372
  20   2.0000      -6.039011      -164.3298
  21   2.0000      -6.038915      -164.3272
  22   2.0000      -6.035705      -164.2399
  23   2.0000      -6.035338      -164.2299
  24   2.0000      -1.005428       -27.3591
  25   2.0000      -0.980926       -26.6924
  26   2.0000      -0.915278       -24.9060
  27   2.0000      -0.908422       -24.7194
  28   2.0000      -0.866415       -23.5763
  29   2.0000      -0.851588       -23.1729
  30   2.0000      -0.846115       -23.0240
  31   2.0000      -0.811940       -22.0940
  32   2.0000      -0.783051       -21.3079
  33   2.0000      -0.768292       -20.9063
  34   2.0000      -0.701614       -19.0919
  35   2.0000      -0.699844       -19.0437
  36   2.0000      -0.689596       -18.7649
  37   2.0000      -0.667829       -18.1726
  38   2.0000      -0.633449       -17.2370
  39   2.0000      -0.613413       -16.6918
  40   2.0000      -0.598398       -16.2832
  41   2.0000      -0.574719       -15.6389
  42   2.0000      -0.552969       -15.0471
  43   2.0000      -0.549288       -14.9469
  44   2.0000      -0.544548       -14.8179
  45   2.0000      -0.532978       -14.5031
  46   2.0000      -0.509698       -13.8696
  47   2.0000      -0.507348       -13.8056
  48   2.0000      -0.503997       -13.7145
  49   2.0000      -0.495714       -13.4891
  50   2.0000      -0.489908       -13.3311
  51   2.0000      -0.480847       -13.0845
  52   2.0000      -0.477203       -12.9854
  53   2.0000      -0.463398       -12.6097
  54   2.0000      -0.458046       -12.4641
  55   2.0000      -0.446996       -12.1634
  56   2.0000      -0.442513       -12.0414
  57   2.0000      -0.434236       -11.8162
  58   2.0000      -0.428350       -11.6560
  59   2.0000      -0.420778       -11.4500
  60   2.0000      -0.419035       -11.4025
  61   2.0000      -0.408982       -11.1290
  62   2.0000      -0.406699       -11.0668
  63   2.0000      -0.345498        -9.4015
  64   2.0000      -0.334218        -9.0945
  65   2.0000      -0.329794        -8.9741
  66   2.0000      -0.290019        -7.8918
  67   0.0000       0.028332         0.7709
  68   0.0000       0.057995         1.5781
  69   0.0000       0.105924         2.8823
  70   0.0000       0.114241         3.1087
  71   0.0000       0.128614         3.4998

MULLIKEN ATOMIC CHARGES
-----------------------
   0 S :    0.113600
   1 C :   -0.126589
   2 C :   -0.124067
   3 C :    0.061573
   4 C :   -0.167367
   5 H :    0.010899
   6 C :    0.071007
   7 H :    0.037796
   8 H :   -0.010113
   9 C :   -0.076339
  10 H :    0.034539
  11 H :    0.021727
  12 C :   -0.024028
  13 H :    0.022457
  14 H :    0.040439
  15 H :    0.021203
  16 S :    0.113805
  17 C :   -0.093661
  18 C :   -0.020876
  19 C :   -0.033114
  20 C :   -0.143820
  21 H :    0.024597
  22 C :    0.031281
  23 H :    0.033348
  24 H :    0.014068
  25 C :   -0.032647
  26 H :    0.024501
  27 H :    0.026448
  28 C :   -0.092700
  29 H :    0.036374
  30 H :    0.044159
  31 H :    0.031816
  32 H :    0.071303
  33 H :    0.058382
Sum of atomic charges:    0.0000000

LOEWDIN ATOMIC CHARGES
----------------------
   0 S :    0.404359
   1 C :   -0.210856
   2 C :   -0.064231
   3 C :   -0.067364
   4 C :   -0.192063
   5 H :    0.029491
   6 C :   -0.043684
   7 H :    0.038356
   8 H :    0.021861
   9 C :   -0.043495
  10 H :    0.035088
  11 H :    0.019035
  12 C :   -0.063088
  13 H :    0.023282
  14 H :    0.028473
  15 H :    0.023622
  16 S :    0.429160
  17 C :   -0.178753
  18 C :   -0.061552
  19 C :   -0.056094
  20 C :   -0.214387
  21 H :    0.034543
  22 C :   -0.037262
  23 H :    0.034227
  24 H :    0.031748
  25 C :   -0.042084
  26 H :    0.021682
  27 H :    0.027312
  28 C :   -0.079917
  29 H :    0.025958
  30 H :    0.032192
  31 H :    0.029173
  32 H :    0.043340
  33 H :    0.021928

  Mayer bond orders larger than 0.100000
B(  0-S ,  1-C ) :   1.1334 B(  0-S ,  4-C ) :   1.1776 B(  1-C ,  2-C ) :   1.5787
B(  1-C ,  4-C ) :   0.1162 B(  1-C , 32-H ) :   0.9604 B(  2-C ,  3-C ) :   1.2805
B(  2-C ,  6-C ) :   1.0157 B(  3-C ,  4-C ) :   1.5357 B(  3-C ,  5-H ) :   0.9914
B(  4-C , 20-C ) :   0.9926 B(  6-C ,  7-H ) :   0.9376 B(  6-C ,  8-H ) :   0.9315
B(  6-C ,  9-C ) :   1.0797 B(  9-C , 10-H ) :   0.9494 B(  9-C , 11-H ) :   0.9559
B(  9-C , 12-C ) :   1.0809 B( 12-C , 13-H ) :   0.9707 B( 12-C , 14-H ) :   0.9749
B( 12-C , 15-H ) :   0.9718 B( 16-S , 17-C ) :   1.1744 B( 16-S , 20-C ) :   1.1668
B( 17-C , 18-C ) :   1.5666 B( 17-C , 33-H ) :   0.9726 B( 18-C , 19-C ) :   1.2633
B( 18-C , 21-H ) :   0.9944 B( 19-C , 20-C ) :   1.5742 B( 19-C , 22-C ) :   1.0467
B( 22-C , 23-H ) :   0.9391 B( 22-C , 24-H ) :   0.9360 B( 22-C , 25-C ) :   1.0599
B( 25-C , 26-H ) :   0.9557 B( 25-C , 27-H ) :   0.9529 B( 25-C , 28-C ) :   1.0874
B( 28-C , 29-H ) :   0.9721 B( 28-C , 30-H ) :   0.9738 B( 28-C , 31-H ) :   0.9713

Dispersion correction           -0.014944281
FINAL SINGLE POINT ENERGY     -1339.877721170542

DIPOLE MOMENT
-------------
                                X             Y             Z
Electronic contribution:     -5.09559      -5.65864      19.22957
Nuclear contribution   :      5.16897       6.19576     -19.60855
                        -----------------------------------------
Total Dipole Moment    :      0.07338       0.53712      -0.37897
                        -----------------------------------------
Magnitude (a.u.)       :      0.66144
Magnitude (Debye)      :      1.68124

Rotational constants in cm-1:     0.019870     0.008513     0.007463
Rotational constants in MHz :   595.695734   255.202334   223.722671

                             ****ORCA TERMINATED NORMALLY****
TOTAL RUN TIME: 0 days 0 hours 0 minutes 35 seconds 743 msec
