                         Program Version 4.2.1 -  RELEASE  -
|  1> ! wB97X-D3 SP def2-SVP
|  2> %pal
|  3> nprocs 16
|  4> end
|  5>
|  6> * xyz 0 1
|  7> S 	 25.1725 	 3.21073 	 76.1186
|  8> C 	 24.7558 	 3.86494 	 77.6483
|  9> C 	 23.5013 	 4.45253 	 77.5188
| 10> C 	 22.8476 	 4.30483 	 76.2274
| 11> C 	 23.6795 	 3.55537 	 75.4122
| 12> H 	 21.8369 	 4.67426 	 75.9954
| 13> C 	 22.71 	 5.22347 	 78.615
| 14> H 	 22.3118 	 4.58203 	 79.3906
| 15> H 	 21.8947 	 5.71832 	 78.1734
| 16> C 	 23.5312 	 6.16766 	 79.4125
| 17> H 	 24.4011 	 5.71055 	 79.9457
| 18> H 	 24.0237 	 6.95784 	 78.7523
| 19> C 	 22.7094 	 6.94812 	 80.5408
| 20> H 	 23.4816 	 7.24481 	 81.2048
| 21> H 	 22.1515 	 7.81026 	 80.1966
| 22> H 	 22.1636 	 6.26438 	 81.159
| 23> S 	 24.1284 	 3.69239 	 72.7534
| 24> C 	 22.9529 	 3.23021 	 71.6061
| 25> C 	 21.8741 	 2.60279 	 72.2213
| 26> C 	 21.9618 	 2.63182 	 73.6488
| 27> C 	 23.1798 	 3.14645 	 74.0628
| 28> H 	 21.0607 	 2.35137 	 71.6692
| 29> C 	 20.7635 	 2.15343 	 74.4951
| 30> H 	 21.151 	 2.09632 	 75.5621
| 31> H 	 20.6449 	 1.13415 	 74.3291
| 32> C 	 19.4637 	 2.95954 	 74.4743
| 33> H 	 18.8271 	 2.60393 	 73.6887
| 34> H 	 19.6489 	 4.08592 	 74.2837
| 35> C 	 18.6199 	 2.82469 	 75.6975
| 36> H 	 19.0096 	 3.46464 	 76.4838
| 37> H 	 18.6094 	 1.81756 	 76.0848
| 38> H 	 17.6278 	 3.22245 	 75.6794
| 39> H 	 25.3366 	 3.70843 	 78.5807
| 40> H 	 23.0856 	 3.31354 	 70.5554
| 41> *
| 42>
| 43>                          ****END OF INPUT****

CARTESIAN COORDINATES (ANGSTROEM)
---------------------------------
  S     25.172500    3.210730   76.118600
  C     24.755800    3.864940   77.648300
  C     23.501300    4.452530   77.518800
  C     22.847600    4.304830   76.227400
  C     23.679500    3.555370   75.412200
  H     21.836900    4.674260   75.995400
  C     22.710000    5.223470   78.615000
  H     22.311800    4.582030   79.390600
  H     21.894700    5.718320   78.173400
  C     23.531200    6.167660   79.412500
  H     24.401100    5.710550   79.945700
  H     24.023700    6.957840   78.752300
  C     22.709400    6.948120   80.540800
  H     23.481600    7.244810   81.204800
  H     22.151500    7.810260   80.196600
  H     22.163600    6.264380   81.159000
  S     24.128400    3.692390   72.753400
  C     22.952900    3.230210   71.606100
  C     21.874100    2.602790   72.221300
  C     21.961800    2.631820   73.648800
  C     23.179800    3.146450   74.062800
  H     21.060700    2.351370   71.669200
  C     20.763500    2.153430   74.495100
  H     21.151000    2.096320   75.562100
  H     20.644900    1.134150   74.329100
  C     19.463700    2.959540   74.474300
  H     18.827100    2.603930   73.688700
  H     19.648900    4.085920   74.283700
  C     18.619900    2.824690   75.697500
  H     19.009600    3.464640   76.483800
  H     18.609400    1.817560   76.084800
  H     17.627800    3.222450   75.679400
  H     25.336600    3.708430   78.580700
  H     23.085600    3.313540   70.555400

 Total Charge           Charge          ....    0
 Multiplicity           Mult            ....    1
 Number of Electrons    NEL             ....  134
 Basis Dimension        Dim             ....  322

ORBITAL ENERGIES
----------------

  NO   OCC          E(Eh)            E(eV)
   0   2.0000     -88.968328     -2420.9513
   1   2.0000     -88.962747     -2420.7994
   2   2.0000     -10.327069      -281.0138
   3   2.0000     -10.324112      -280.9334
   4   2.0000     -10.315435      -280.6973
   5   2.0000     -10.310546      -280.5642
   6   2.0000     -10.303683      -280.3775
   7   2.0000     -10.303652      -280.3766
   8   2.0000     -10.295143      -280.1451
   9   2.0000     -10.291735      -280.0523
  10   2.0000     -10.291165      -280.0368
  11   2.0000     -10.290843      -280.0281
  12   2.0000     -10.284766      -279.8627
  13   2.0000     -10.283304      -279.8229
  14   2.0000     -10.274503      -279.5834
  15   2.0000     -10.272581      -279.5311
  16   2.0000      -8.084491      -219.9902
  17   2.0000      -8.079295      -219.8488
  18   2.0000      -6.042996      -164.4383
  19   2.0000      -6.038575      -164.3180
  20   2.0000      -6.037623      -164.2921
  21   2.0000      -6.035408      -164.2318
  22   2.0000      -6.033425      -164.1778
  23   2.0000      -6.030270      -164.0920
  24   2.0000      -1.014458       -27.6048
  25   2.0000      -0.992486       -27.0069
  26   2.0000      -0.911802       -24.8114
  27   2.0000      -0.909229       -24.7414
  28   2.0000      -0.867594       -23.6084
  29   2.0000      -0.857549       -23.3351
  30   2.0000      -0.845976       -23.0202
  31   2.0000      -0.812534       -22.1102
  32   2.0000      -0.784911       -21.3585
  33   2.0000      -0.776722       -21.1357
  34   2.0000      -0.704130       -19.1603
  35   2.0000      -0.699536       -19.0353
  36   2.0000      -0.684490       -18.6259
  37   2.0000      -0.667925       -18.1752
  38   2.0000      -0.643542       -17.5117
  39   2.0000      -0.615994       -16.7620
  40   2.0000      -0.598965       -16.2987
  41   2.0000      -0.571612       -15.5543
  42   2.0000      -0.566781       -15.4229
  43   2.0000      -0.561846       -15.2886
  44   2.0000      -0.534059       -14.5325
  45   2.0000      -0.524809       -14.2808
  46   2.0000      -0.519705       -14.1419
  47   2.0000      -0.513633       -13.9767
  48   2.0000      -0.505000       -13.7417
  49   2.0000      -0.499229       -13.5847
  50   2.0000      -0.496544       -13.5116
  51   2.0000      -0.485477       -13.2105
  52   2.0000      -0.474022       -12.8988
  53   2.0000      -0.472414       -12.8550
  54   2.0000      -0.460010       -12.5175
  55   2.0000      -0.445093       -12.1116
  56   2.0000      -0.443488       -12.0679
  57   2.0000      -0.437577       -11.9071
  58   2.0000      -0.433764       -11.8033
  59   2.0000      -0.423888       -11.5346
  60   2.0000      -0.416198       -11.3253
  61   2.0000      -0.407555       -11.0901
  62   2.0000      -0.406896       -11.0722
  63   2.0000      -0.345116        -9.3911
  64   2.0000      -0.330602        -8.9961
  65   2.0000      -0.328446        -8.9375
  66   2.0000      -0.296621        -8.0715
  67   0.0000       0.041073         1.1176
  68   0.0000       0.072283         1.9669
  69   0.0000       0.121397         3.3034
  70   0.0000       0.123270         3.3543
  71   0.0000       0.126108         3.4316

MULLIKEN ATOMIC CHARGES
-----------------------
   0 S :    0.128786
   1 C :   -0.147206
   2 C :   -0.096581
   3 C :    0.012861
   4 C :   -0.128958
   5 H :    0.027514
   6 C :    0.146743
   7 H :    0.023856
   8 H :    0.002817
   9 C :   -0.172283
  10 H :    0.030631
  11 H :    0.036155
  12 C :   -0.021885
  13 H :    0.016266
  14 H :    0.048359
  15 H :    0.018068
  16 S :    0.116095
  17 C :   -0.087930
  18 C :    0.007001
  19 C :   -0.059151
  20 C :   -0.152659
  21 H :   -0.019761
  22 C :    0.068116
  23 H :    0.027057
  24 H :    0.018044
  25 C :   -0.063930
  26 H :    0.025768
  27 H :    0.045343
  28 C :   -0.040920
  29 H :    0.013784
  30 H :    0.031636
  31 H :    0.025944
  32 H :    0.072175
  33 H :    0.048245
Sum of atomic charges:    0.0000000

LOEWDIN ATOMIC CHARGES
----------------------
   0 S :    0.450433
   1 C :   -0.227576
   2 C :   -0.054460
   3 C :   -0.066621
   4 C :   -0.217594
   5 H :    0.038154
   6 C :   -0.034117
   7 H :    0.031679
   8 H :    0.021651
   9 C :   -0.046210
  10 H :    0.022325
  11 H :    0.027246
  12 C :   -0.063831
  13 H :    0.024408
  14 H :    0.026026
  15 H :    0.019768
  16 S :    0.444293
  17 C :   -0.192855
  18 C :   -0.058611
  19 C :   -0.056114
  20 C :   -0.208632
  21 H :    0.013346
  22 C :   -0.034091
  23 H :    0.037408
  24 H :    0.024827
  25 C :   -0.046673
  26 H :    0.021292
  27 H :    0.034792
  28 C :   -0.067715
  29 H :    0.023206
  30 H :    0.024868
  31 H :    0.025498
  32 H :    0.041404
  33 H :    0.022476

  Mayer bond orders larger than 0.100000
B(  0-S ,  1-C ) :   1.1336 B(  0-S ,  4-C ) :   1.2007 B(  1-C ,  2-C ) :   1.5890
B(  1-C , 32-H ) :   0.9704 B(  2-C ,  3-C ) :   1.2604 B(  2-C ,  6-C ) :   1.0166
B(  3-C ,  4-C ) :   1.5219 B(  3-C ,  5-H ) :   0.9964 B(  4-C , 20-C ) :   0.9765
B(  6-C ,  7-H ) :   0.9295 B(  6-C ,  8-H ) :   0.9439 B(  6-C ,  9-C ) :   1.0639
B(  9-C , 10-H ) :   0.9585 B(  9-C , 11-H ) :   0.9569 B(  9-C , 12-C ) :   1.0752
B( 12-C , 13-H ) :   0.9745 B( 12-C , 14-H ) :   0.9790 B( 12-C , 15-H ) :   0.9722
B( 16-S , 17-C ) :   1.1787 B( 16-S , 20-C ) :   1.1768 B( 17-C , 18-C ) :   1.5813
B( 17-C , 33-H ) :   0.9729 B( 18-C , 19-C ) :   1.2521 B( 18-C , 21-H ) :   1.0076
B( 19-C , 20-C ) :   1.6040 B( 19-C , 22-C ) :   1.0370 B( 22-C , 23-H ) :   0.9416
B( 22-C , 24-H ) :   0.9254 B( 22-C , 25-C ) :   1.0430 B( 25-C , 26-H ) :   0.9491
B( 25-C , 27-H ) :   0.9597 B( 25-C , 28-C ) :   1.0954 B( 28-C , 29-H ) :   0.9694
B( 28-C , 30-H ) :   0.9717 B( 28-C , 31-H ) :   0.9704

Dispersion correction           -0.014010136
FINAL SINGLE POINT ENERGY     -1339.861905840550

DIPOLE MOMENT
-------------
                                X             Y             Z
Electronic contribution:     22.22547      -8.03439     -20.43010
Nuclear contribution   :    -22.84977       8.10024      20.73793
                        -----------------------------------------
Total Dipole Moment    :     -0.62430       0.06585       0.30784
                        -----------------------------------------
Magnitude (a.u.)       :      0.69918
Magnitude (Debye)      :      1.77717

Rotational constants in cm-1:     0.018042     0.008460     0.006330
Rotational constants in MHz :   540.879034   253.621233   189.781299

                             ****ORCA TERMINATED NORMALLY****
TOTAL RUN TIME: 0 days 0 hours 0 minutes 33 seconds 929 msec
