                         Program Version 4.2.1 -  RELEASE  -
|  1> ! wB97X-D3 SP def2-SVP
|  2> %pal
|  3> nprocs 16
|  4> end
|  5>
|  6> * xyz 0 1
|  7> S 	 -71.6463 	 48.8365 	 123.654
|  8> C 	 -70.6319 	 47.8141 	 122.57
|  9> C 	 -69.3964 	 47.5752 	 123.07
| 10> C 	 -69.2138 	 48.0473 	 124.385
| 11> C 	 -70.4164 	 48.5281 	 124.96
| 12> H 	 -68.3543 	 48.0245 	 124.962
| 13> C 	 -68.2813 	 47.0666 	 122.152
| 14> H 	 -68.045 	 47.8517 	 121.385
| 15> H 	 -68.7432 	 46.1961 	 121.744
| 16> C 	 -66.9672 	 46.6537 	 122.809
| 17> H 	 -66.6019 	 47.5248 	 123.318
| 18> H 	 -67.2295 	 45.9751 	 123.613
| 19> C 	 -66.0032 	 45.9406 	 121.84
| 20> H 	 -65.1539 	 45.526 	 122.291
| 21> H 	 -66.4782 	 45.1734 	 121.216
| 22> H 	 -65.7675 	 46.7475 	 121.095
| 23> S 	 -71.2265 	 50.5927 	 126.645
| 24> C 	 -71.1584 	 50.3239 	 128.411
| 25> C 	 -70.6814 	 49.049 	 128.677
| 26> C 	 -70.3986 	 48.3345 	 127.471
| 27> C 	 -70.5768 	 49.0307 	 126.338
| 28> H 	 -70.4426 	 48.8408 	 129.681
| 29> C 	 -70.0136 	 46.8088 	 127.643
| 30> H 	 -69.1013 	 46.942 	 128.262
| 31> H 	 -69.6437 	 46.2984 	 126.726
| 32> C 	 -71.0578 	 45.8714 	 128.359
| 33> H 	 -71.1055 	 46.2464 	 129.392
| 34> H 	 -70.7348 	 44.8244 	 128.434
| 35> C 	 -72.4053 	 46.0375 	 127.692
| 36> H 	 -72.4997 	 45.6267 	 126.692
| 37> H 	 -72.6562 	 47.0676 	 127.605
| 38> H 	 -73.1861 	 45.4927 	 128.278
| 39> H 	 -70.9456 	 47.4863 	 121.605
| 40> H 	 -71.5237 	 51.0228 	 129.077
| 41> *
| 42>
| 43>                          ****END OF INPUT****

CARTESIAN COORDINATES (ANGSTROEM)
---------------------------------
  S    -71.646300   48.836500  123.654000
  C    -70.631900   47.814100  122.570000
  C    -69.396400   47.575200  123.070000
  C    -69.213800   48.047300  124.385000
  C    -70.416400   48.528100  124.960000
  H    -68.354300   48.024500  124.962000
  C    -68.281300   47.066600  122.152000
  H    -68.045000   47.851700  121.385000
  H    -68.743200   46.196100  121.744000
  C    -66.967200   46.653700  122.809000
  H    -66.601900   47.524800  123.318000
  H    -67.229500   45.975100  123.613000
  C    -66.003200   45.940600  121.840000
  H    -65.153900   45.526000  122.291000
  H    -66.478200   45.173400  121.216000
  H    -65.767500   46.747500  121.095000
  S    -71.226500   50.592700  126.645000
  C    -71.158400   50.323900  128.411000
  C    -70.681400   49.049000  128.677000
  C    -70.398600   48.334500  127.471000
  C    -70.576800   49.030700  126.338000
  H    -70.442600   48.840800  129.681000
  C    -70.013600   46.808800  127.643000
  H    -69.101300   46.942000  128.262000
  H    -69.643700   46.298400  126.726000
  C    -71.057800   45.871400  128.359000
  H    -71.105500   46.246400  129.392000
  H    -70.734800   44.824400  128.434000
  C    -72.405300   46.037500  127.692000
  H    -72.499700   45.626700  126.692000
  H    -72.656200   47.067600  127.605000
  H    -73.186100   45.492700  128.278000
  H    -70.945600   47.486300  121.605000
  H    -71.523700   51.022800  129.077000

 Total Charge           Charge          ....    0
 Multiplicity           Mult            ....    1
 Number of Electrons    NEL             ....  134
 Basis Dimension        Dim             ....  322

ORBITAL ENERGIES
----------------

  NO   OCC          E(Eh)            E(eV)
   0   2.0000     -88.968039     -2420.9434
   1   2.0000     -88.963929     -2420.8316
   2   2.0000     -10.338272      -281.3187
   3   2.0000     -10.322555      -280.8910
   4   2.0000     -10.318983      -280.7938
   5   2.0000     -10.311800      -280.5983
   6   2.0000     -10.303455      -280.3713
   7   2.0000     -10.297786      -280.2170
   8   2.0000     -10.296641      -280.1858
   9   2.0000     -10.295225      -280.1473
  10   2.0000     -10.293894      -280.1111
  11   2.0000     -10.292848      -280.0826
  12   2.0000     -10.288206      -279.9563
  13   2.0000     -10.285122      -279.8724
  14   2.0000     -10.282424      -279.7990
  15   2.0000     -10.266847      -279.3751
  16   2.0000      -8.080888      -219.8921
  17   2.0000      -8.079017      -219.8412
  18   2.0000      -6.039544      -164.3444
  19   2.0000      -6.037524      -164.2894
  20   2.0000      -6.035938      -164.2462
  21   2.0000      -6.033548      -164.1812
  22   2.0000      -6.031321      -164.1206
  23   2.0000      -6.029673      -164.0758
  24   2.0000      -1.005523       -27.3617
  25   2.0000      -0.980680       -26.6856
  26   2.0000      -0.911554       -24.8046
  27   2.0000      -0.898935       -24.4613
  28   2.0000      -0.870996       -23.7010
  29   2.0000      -0.847112       -23.0511
  30   2.0000      -0.842271       -22.9194
  31   2.0000      -0.817983       -22.2584
  32   2.0000      -0.779229       -21.2039
  33   2.0000      -0.771512       -20.9939
  34   2.0000      -0.715885       -19.4802
  35   2.0000      -0.693519       -18.8716
  36   2.0000      -0.692425       -18.8419
  37   2.0000      -0.666005       -18.1229
  38   2.0000      -0.641839       -17.4653
  39   2.0000      -0.620067       -16.8729
  40   2.0000      -0.593601       -16.1527
  41   2.0000      -0.578878       -15.7521
  42   2.0000      -0.566498       -15.4152
  43   2.0000      -0.550241       -14.9728
  44   2.0000      -0.537739       -14.6326
  45   2.0000      -0.527243       -14.3470
  46   2.0000      -0.516211       -14.0468
  47   2.0000      -0.513316       -13.9680
  48   2.0000      -0.501692       -13.6517
  49   2.0000      -0.491046       -13.3620
  50   2.0000      -0.486487       -13.2380
  51   2.0000      -0.485095       -13.2001
  52   2.0000      -0.478312       -13.0155
  53   2.0000      -0.461047       -12.5457
  54   2.0000      -0.457383       -12.4460
  55   2.0000      -0.446747       -12.1566
  56   2.0000      -0.444250       -12.0887
  57   2.0000      -0.430937       -11.7264
  58   2.0000      -0.429002       -11.6737
  59   2.0000      -0.428102       -11.6493
  60   2.0000      -0.416789       -11.3414
  61   2.0000      -0.415015       -11.2931
  62   2.0000      -0.408517       -11.1163
  63   2.0000      -0.346968        -9.4415
  64   2.0000      -0.332710        -9.0535
  65   2.0000      -0.330674        -8.9981
  66   2.0000      -0.290951        -7.9172
  67   0.0000       0.024033         0.6540
  68   0.0000       0.064031         1.7424
  69   0.0000       0.097199         2.6449
  70   0.0000       0.126251         3.4355
  71   0.0000       0.132430         3.6036

MULLIKEN ATOMIC CHARGES
-----------------------
   0 S :    0.092702
   1 C :   -0.114807
   2 C :   -0.060662
   3 C :    0.044608
   4 C :   -0.142541
   5 H :   -0.005633
   6 C :    0.041087
   7 H :    0.055314
   8 H :    0.022704
   9 C :   -0.094923
  10 H :    0.031481
  11 H :    0.019939
  12 C :   -0.009968
  13 H :    0.035082
  14 H :    0.028566
  15 H :    0.028237
  16 S :    0.091114
  17 C :   -0.084268
  18 C :   -0.011125
  19 C :   -0.066518
  20 C :   -0.146065
  21 H :    0.017377
  22 C :    0.032197
  23 H :    0.032252
  24 H :    0.032908
  25 C :   -0.055743
  26 H :    0.023712
  27 H :    0.038011
  28 C :   -0.045633
  29 H :    0.029940
  30 H :    0.041275
  31 H :    0.030522
  32 H :    0.031631
  33 H :    0.037230
Sum of atomic charges:   -0.0000000

LOEWDIN ATOMIC CHARGES
----------------------
   0 S :    0.353687
   1 C :   -0.169911
   2 C :   -0.066244
   3 C :   -0.048574
   4 C :   -0.154897
   5 H :    0.020218
   6 C :   -0.028768
   7 H :    0.038345
   8 H :    0.028577
   9 C :   -0.046292
  10 H :    0.020374
  11 H :    0.019831
  12 C :   -0.058440
  13 H :    0.019774
  14 H :    0.028057
  15 H :    0.032239
  16 S :    0.393351
  17 C :   -0.150936
  18 C :   -0.061388
  19 C :   -0.063582
  20 C :   -0.214309
  21 H :    0.028477
  22 C :   -0.034333
  23 H :    0.031241
  24 H :    0.027494
  25 C :   -0.040628
  26 H :    0.022169
  27 H :    0.027893
  28 C :   -0.066041
  29 H :    0.025667
  30 H :    0.024259
  31 H :    0.028148
  32 H :    0.021231
  33 H :    0.013311

  Mayer bond orders larger than 0.100000
B(  0-S ,  1-C ) :   1.1167 B(  0-S ,  4-C ) :   1.1328 B(  1-C ,  2-C ) :   1.6423
B(  1-C ,  4-C ) :   0.1053 B(  1-C , 32-H ) :   0.9734 B(  2-C ,  3-C ) :   1.2307
B(  2-C ,  6-C ) :   0.9936 B(  3-C ,  4-C ) :   1.5623 B(  3-C ,  5-H ) :   1.0014
B(  4-C , 20-C ) :   1.0414 B(  6-C ,  7-H ) :   0.9439 B(  6-C ,  8-H ) :   0.9357
B(  6-C ,  9-C ) :   1.0890 B(  9-C , 10-H ) :   0.9475 B(  9-C , 11-H ) :   0.9549
B(  9-C , 12-C ) :   1.0753 B( 12-C , 13-H ) :   0.9750 B( 12-C , 14-H ) :   0.9752
B( 12-C , 15-H ) :   0.9735 B( 16-S , 17-C ) :   1.1470 B( 16-S , 20-C ) :   1.1242
B( 17-C , 18-C ) :   1.6195 B( 17-C , 33-H ) :   0.9799 B( 18-C , 19-C ) :   1.2075
B( 18-C , 21-H ) :   0.9997 B( 19-C , 20-C ) :   1.6512 B( 19-C , 22-C ) :   1.0112
B( 22-C , 23-H ) :   0.9419 B( 22-C , 24-H ) :   0.9441 B( 22-C , 25-C ) :   1.0668
B( 25-C , 26-H ) :   0.9506 B( 25-C , 27-H ) :   0.9577 B( 25-C , 28-C ) :   1.0798
B( 28-C , 29-H ) :   0.9749 B( 28-C , 30-H ) :   0.9716 B( 28-C , 31-H ) :   0.9729

Dispersion correction           -0.014518113
FINAL SINGLE POINT ENERGY     -1339.860401358651

DIPOLE MOMENT
-------------
                                X             Y             Z
Electronic contribution:    -13.81543      21.49869       1.24722
Nuclear contribution   :     14.27447     -21.91221      -1.12091
                        -----------------------------------------
Total Dipole Moment    :      0.45904      -0.41352       0.12630
                        -----------------------------------------
Magnitude (a.u.)       :      0.63061
Magnitude (Debye)      :      1.60289

Rotational constants in cm-1:     0.019509     0.007973     0.006994
Rotational constants in MHz :   584.850723   239.028155   209.674500

                             ****ORCA TERMINATED NORMALLY****
TOTAL RUN TIME: 0 days 0 hours 0 minutes 33 seconds 955 msec
