                         Program Version 4.2.1 -  RELEASE  -
|  1> ! wB97X-D3 SP def2-SVP
|  2> %pal
|  3> nprocs 16
|  4> end
|  5>
|  6> * xyz 0 1
|  7> S 	 -2.94008 	 -23.1897 	 87.1155
|  8> C 	 -1.36879 	 -23.8204 	 86.7848
|  9> C 	 -0.572049 	 -22.9479 	 86.0589
| 10> C 	 -1.14999 	 -21.6513 	 86.0558
| 11> C 	 -2.39829 	 -21.5949 	 86.671
| 12> H 	 -0.649183 	 -20.7165 	 85.8729
| 13> C 	 0.831704 	 -23.1838 	 85.5718
| 14> H 	 0.953952 	 -22.8291 	 84.5116
| 15> H 	 0.980405 	 -24.2603 	 85.7234
| 16> C 	 1.84107 	 -22.4756 	 86.4614
| 17> H 	 2.86986 	 -22.5924 	 86.0269
| 18> H 	 1.61503 	 -21.4345 	 86.5541
| 19> C 	 1.98323 	 -22.847 	 87.9222
| 20> H 	 1.14547 	 -22.4809 	 88.7034
| 21> H 	 2.07703 	 -23.9032 	 87.9155
| 22> H 	 2.96501 	 -22.4152 	 88.2482
| 23> S 	 -3.40511 	 -19.9571 	 88.6245
| 24> C 	 -4.08695 	 -18.34 	 88.2301
| 25> C 	 -4.36974 	 -18.3321 	 86.8858
| 26> C 	 -3.83304 	 -19.4714 	 86.153
| 27> C 	 -3.19931 	 -20.4184 	 86.9748
| 28> H 	 -4.90604 	 -17.4464 	 86.5702
| 29> C 	 -4.0544 	 -19.6889 	 84.6934
| 30> H 	 -3.55862 	 -20.5934 	 84.382
| 31> H 	 -3.496 	 -18.9239 	 84.1313
| 32> C 	 -5.4767 	 -19.5568 	 84.2209
| 33> H 	 -5.84986 	 -18.6325 	 84.4572
| 34> H 	 -6.21604 	 -20.2289 	 84.6264
| 35> C 	 -5.55129 	 -19.6707 	 82.7263
| 36> H 	 -5.26713 	 -18.9509 	 82.025
| 37> H 	 -6.56362 	 -19.8965 	 82.4894
| 38> H 	 -4.97895 	 -20.5658 	 82.5743
| 39> H 	 -1.08651 	 -24.8619 	 86.9523
| 40> H 	 -4.4993 	 -17.775 	 89.0327
| 41> *
| 42>
| 43>                          ****END OF INPUT****

CARTESIAN COORDINATES (ANGSTROEM)
---------------------------------
  S     -2.940080  -23.189700   87.115500
  C     -1.368790  -23.820400   86.784800
  C     -0.572049  -22.947900   86.058900
  C     -1.149990  -21.651300   86.055800
  C     -2.398290  -21.594900   86.671000
  H     -0.649183  -20.716500   85.872900
  C      0.831704  -23.183800   85.571800
  H      0.953952  -22.829100   84.511600
  H      0.980405  -24.260300   85.723400
  C      1.841070  -22.475600   86.461400
  H      2.869860  -22.592400   86.026900
  H      1.615030  -21.434500   86.554100
  C      1.983230  -22.847000   87.922200
  H      1.145470  -22.480900   88.703400
  H      2.077030  -23.903200   87.915500
  H      2.965010  -22.415200   88.248200
  S     -3.405110  -19.957100   88.624500
  C     -4.086950  -18.340000   88.230100
  C     -4.369740  -18.332100   86.885800
  C     -3.833040  -19.471400   86.153000
  C     -3.199310  -20.418400   86.974800
  H     -4.906040  -17.446400   86.570200
  C     -4.054400  -19.688900   84.693400
  H     -3.558620  -20.593400   84.382000
  H     -3.496000  -18.923900   84.131300
  C     -5.476700  -19.556800   84.220900
  H     -5.849860  -18.632500   84.457200
  H     -6.216040  -20.228900   84.626400
  C     -5.551290  -19.670700   82.726300
  H     -5.267130  -18.950900   82.025000
  H     -6.563620  -19.896500   82.489400
  H     -4.978950  -20.565800   82.574300
  H     -1.086510  -24.861900   86.952300
  H     -4.499300  -17.775000   89.032700

 Total Charge           Charge          ....    0
 Multiplicity           Mult            ....    1
 Number of Electrons    NEL             ....  134
 Basis Dimension        Dim             ....  322

ORBITAL ENERGIES
----------------

  NO   OCC          E(Eh)            E(eV)
   0   2.0000     -88.966983     -2420.9147
   1   2.0000     -88.956244     -2420.6225
   2   2.0000     -10.328438      -281.0511
   3   2.0000     -10.325395      -280.9683
   4   2.0000     -10.319194      -280.7995
   5   2.0000     -10.313598      -280.6473
   6   2.0000     -10.306565      -280.4559
   7   2.0000     -10.299754      -280.2706
   8   2.0000     -10.299667      -280.2682
   9   2.0000     -10.297595      -280.2118
  10   2.0000     -10.293147      -280.0908
  11   2.0000     -10.284262      -279.8490
  12   2.0000     -10.284076      -279.8439
  13   2.0000     -10.283331      -279.8237
  14   2.0000     -10.272342      -279.5246
  15   2.0000     -10.261471      -279.2288
  16   2.0000      -8.082317      -219.9310
  17   2.0000      -8.071339      -219.6323
  18   2.0000      -6.040701      -164.3758
  19   2.0000      -6.036803      -164.2698
  20   2.0000      -6.033129      -164.1698
  21   2.0000      -6.029857      -164.0807
  22   2.0000      -6.025734      -163.9686
  23   2.0000      -6.022110      -163.8699
  24   2.0000      -1.007789       -27.4233
  25   2.0000      -0.983908       -26.7735
  26   2.0000      -0.918833       -25.0027
  27   2.0000      -0.916867       -24.9492
  28   2.0000      -0.871120       -23.7044
  29   2.0000      -0.851778       -23.1781
  30   2.0000      -0.847649       -23.0657
  31   2.0000      -0.817910       -22.2565
  32   2.0000      -0.782509       -21.2931
  33   2.0000      -0.769177       -20.9304
  34   2.0000      -0.709691       -19.3117
  35   2.0000      -0.704118       -19.1600
  36   2.0000      -0.684576       -18.6283
  37   2.0000      -0.656742       -17.8709
  38   2.0000      -0.642089       -17.4721
  39   2.0000      -0.623769       -16.9736
  40   2.0000      -0.601576       -16.3697
  41   2.0000      -0.571881       -15.5617
  42   2.0000      -0.567315       -15.4374
  43   2.0000      -0.554125       -15.0785
  44   2.0000      -0.539869       -14.6906
  45   2.0000      -0.536871       -14.6090
  46   2.0000      -0.522127       -14.2078
  47   2.0000      -0.518498       -14.1090
  48   2.0000      -0.507475       -13.8091
  49   2.0000      -0.499649       -13.5961
  50   2.0000      -0.486365       -13.2347
  51   2.0000      -0.473678       -12.8894
  52   2.0000      -0.467301       -12.7159
  53   2.0000      -0.462301       -12.5799
  54   2.0000      -0.457922       -12.4607
  55   2.0000      -0.449912       -12.2427
  56   2.0000      -0.441364       -12.0101
  57   2.0000      -0.438265       -11.9258
  58   2.0000      -0.434845       -11.8327
  59   2.0000      -0.418467       -11.3871
  60   2.0000      -0.416429       -11.3316
  61   2.0000      -0.411968       -11.2102
  62   2.0000      -0.408099       -11.1049
  63   2.0000      -0.342493        -9.3197
  64   2.0000      -0.329699        -8.9716
  65   2.0000      -0.318211        -8.6590
  66   2.0000      -0.301578        -8.2064
  67   0.0000       0.033427         0.9096
  68   0.0000       0.062277         1.6946
  69   0.0000       0.110729         3.0131
  70   0.0000       0.115743         3.1495
  71   0.0000       0.134756         3.6669

MULLIKEN ATOMIC CHARGES
-----------------------
   0 S :    0.127450
   1 C :   -0.123739
   2 C :   -0.099248
   3 C :    0.046081
   4 C :   -0.195305
   5 H :    0.018285
   6 C :    0.101012
   7 H :    0.051589
   8 H :    0.016487
   9 C :   -0.104809
  10 H :    0.038295
  11 H :    0.024439
  12 C :   -0.084798
  13 H :    0.069912
  14 H :    0.013892
  15 H :    0.040395
  16 S :    0.078052
  17 C :   -0.103298
  18 C :   -0.034758
  19 C :   -0.017829
  20 C :   -0.149798
  21 H :    0.029366
  22 C :    0.082548
  23 H :    0.017390
  24 H :    0.021301
  25 C :   -0.029538
  26 H :   -0.003953
  27 H :    0.026099
  28 C :   -0.017316
  29 H :    0.027220
  30 H :    0.011524
  31 H :    0.011617
  32 H :    0.048481
  33 H :    0.062955
Sum of atomic charges:   -0.0000000

LOEWDIN ATOMIC CHARGES
----------------------
   0 S :    0.420458
   1 C :   -0.203714
   2 C :   -0.066340
   3 C :   -0.055931
   4 C :   -0.199274
   5 H :    0.031817
   6 C :   -0.032492
   7 H :    0.044420
   8 H :    0.029484
   9 C :   -0.051334
  10 H :    0.030596
  11 H :    0.019362
  12 C :   -0.074462
  13 H :    0.043835
  14 H :    0.011733
  15 H :    0.033346
  16 S :    0.388221
  17 C :   -0.164412
  18 C :   -0.069805
  19 C :   -0.052802
  20 C :   -0.213635
  21 H :    0.034441
  22 C :   -0.034579
  23 H :    0.026410
  24 H :    0.036118
  25 C :   -0.029510
  26 H :    0.009869
  27 H :    0.027716
  28 C :   -0.057613
  29 H :    0.017076
  30 H :    0.023958
  31 H :    0.024751
  32 H :    0.027282
  33 H :    0.025010

  Mayer bond orders larger than 0.100000
B(  0-S ,  1-C ) :   1.1493 B(  0-S ,  4-C ) :   1.1610 B(  1-C ,  2-C ) :   1.6096
B(  1-C , 32-H ) :   0.9623 B(  2-C ,  3-C ) :   1.2255 B(  2-C ,  6-C ) :   1.0340
B(  3-C ,  4-C ) :   1.5925 B(  3-C ,  5-H ) :   0.9925 B(  4-C , 20-C ) :   1.0206
B(  6-C ,  7-H ) :   0.9338 B(  6-C ,  8-H ) :   0.9366 B(  6-C ,  9-C ) :   1.0737
B(  9-C , 10-H ) :   0.9558 B(  9-C , 11-H ) :   0.9559 B(  9-C , 12-C ) :   1.0690
B( 12-C , 13-H ) :   0.9703 B( 12-C , 14-H ) :   0.9752 B( 12-C , 15-H ) :   0.9713
B( 16-S , 17-C ) :   1.1490 B( 16-S , 20-C ) :   1.1454 B( 17-C , 18-C ) :   1.6122
B( 17-C , 33-H ) :   0.9703 B( 18-C , 19-C ) :   1.2079 B( 18-C , 21-H ) :   0.9917
B( 19-C , 20-C ) :   1.5842 B( 19-C , 22-C ) :   1.0640 B( 22-C , 23-H ) :   0.9283
B( 22-C , 24-H ) :   0.9220 B( 22-C , 25-C ) :   1.0707 B( 25-C , 26-H ) :   0.9430
B( 25-C , 27-H ) :   0.9525 B( 25-C , 28-C ) :   1.0869 B( 28-C , 29-H ) :   0.9777
B( 28-C , 30-H ) :   0.9702 B( 28-C , 31-H ) :   0.9732

Dispersion correction           -0.014083288
FINAL SINGLE POINT ENERGY     -1339.853649151721

DIPOLE MOMENT
-------------
                                X             Y             Z
Electronic contribution:     -9.03841      -1.84492      15.17563
Nuclear contribution   :      9.20549       2.06186     -15.57463
                        -----------------------------------------
Total Dipole Moment    :      0.16708       0.21694      -0.39900
                        -----------------------------------------
Magnitude (a.u.)       :      0.48392
Magnitude (Debye)      :      1.23003

Rotational constants in cm-1:     0.019884     0.008032     0.006953
Rotational constants in MHz :   596.115422   240.798645   208.444332

                             ****ORCA TERMINATED NORMALLY****
TOTAL RUN TIME: 0 days 0 hours 0 minutes 33 seconds 527 msec
