                         Program Version 4.2.1 -  RELEASE  -
|  1> ! wB97X-D3 SP def2-SVP
|  2> %pal
|  3> nprocs 16
|  4> end
|  5>
|  6> * xyz 0 1
|  7> S 	 48.0137 	 13.2698 	 85.615
|  8> C 	 46.6503 	 13.4058 	 84.5984
|  9> C 	 47.1102 	 13.4646 	 83.2595
| 10> C 	 48.5117 	 13.3071 	 83.1625
| 11> C 	 49.1789 	 13.0558 	 84.2997
| 12> H 	 49.1192 	 13.5039 	 82.246
| 13> C 	 46.2405 	 13.7655 	 82.0355
| 14> H 	 45.2004 	 13.7547 	 82.406
| 15> H 	 46.2938 	 12.8197 	 81.5271
| 16> C 	 46.6485 	 14.9791 	 81.1848
| 17> H 	 47.6233 	 15.1321 	 80.8437
| 18> H 	 45.9737 	 14.8782 	 80.2924
| 19> C 	 46.3764 	 16.3383 	 81.8685
| 20> H 	 46.6191 	 17.1302 	 81.1393
| 21> H 	 45.3877 	 16.4821 	 82.2041
| 22> H 	 47.151 	 16.3805 	 82.6539
| 23> S 	 51.255 	 13.3797 	 86.2378
| 24> C 	 52.8829 	 12.9071 	 85.8484
| 25> C 	 52.9489 	 12.6645 	 84.5062
| 26> C 	 51.6757 	 12.8144 	 83.7428
| 27> C 	 50.5809 	 13.0158 	 84.5797
| 28> H 	 53.9448 	 12.427 	 84.2045
| 29> C 	 51.6669 	 12.3068 	 82.2994
| 30> H 	 50.6857 	 12.5625 	 81.7587
| 31> H 	 51.6662 	 11.2418 	 82.4443
| 32> C 	 52.7286 	 12.8133 	 81.3386
| 33> H 	 52.5473 	 12.2838 	 80.4346
| 34> H 	 53.5891 	 12.4283 	 81.8354
| 35> C 	 52.7596 	 14.324 	 81.0745
| 36> H 	 53.0736 	 14.8864 	 81.9594
| 37> H 	 51.8372 	 14.8498 	 80.7277
| 38> H 	 53.4848 	 14.5177 	 80.2819
| 39> H 	 45.6388 	 13.5601 	 84.9181
| 40> H 	 53.8211 	 12.8512 	 86.4179
| 41> *
| 42>
| 43>                          ****END OF INPUT****

CARTESIAN COORDINATES (ANGSTROEM)
---------------------------------
  S     48.013700   13.269800   85.615000
  C     46.650300   13.405800   84.598400
  C     47.110200   13.464600   83.259500
  C     48.511700   13.307100   83.162500
  C     49.178900   13.055800   84.299700
  H     49.119200   13.503900   82.246000
  C     46.240500   13.765500   82.035500
  H     45.200400   13.754700   82.406000
  H     46.293800   12.819700   81.527100
  C     46.648500   14.979100   81.184800
  H     47.623300   15.132100   80.843700
  H     45.973700   14.878200   80.292400
  C     46.376400   16.338300   81.868500
  H     46.619100   17.130200   81.139300
  H     45.387700   16.482100   82.204100
  H     47.151000   16.380500   82.653900
  S     51.255000   13.379700   86.237800
  C     52.882900   12.907100   85.848400
  C     52.948900   12.664500   84.506200
  C     51.675700   12.814400   83.742800
  C     50.580900   13.015800   84.579700
  H     53.944800   12.427000   84.204500
  C     51.666900   12.306800   82.299400
  H     50.685700   12.562500   81.758700
  H     51.666200   11.241800   82.444300
  C     52.728600   12.813300   81.338600
  H     52.547300   12.283800   80.434600
  H     53.589100   12.428300   81.835400
  C     52.759600   14.324000   81.074500
  H     53.073600   14.886400   81.959400
  H     51.837200   14.849800   80.727700
  H     53.484800   14.517700   80.281900
  H     45.638800   13.560100   84.918100
  H     53.821100   12.851200   86.417900

 Total Charge           Charge          ....    0
 Multiplicity           Mult            ....    1
 Number of Electrons    NEL             ....  134
 Basis Dimension        Dim             ....  322

ORBITAL ENERGIES
----------------

  NO   OCC          E(Eh)            E(eV)
   0   2.0000     -88.962842     -2420.8020
   1   2.0000     -88.962541     -2420.7938
   2   2.0000     -10.337135      -281.2878
   3   2.0000     -10.328492      -281.0525
   4   2.0000     -10.318718      -280.7866
   5   2.0000     -10.315408      -280.6965
   6   2.0000     -10.313010      -280.6313
   7   2.0000     -10.301880      -280.3284
   8   2.0000     -10.294885      -280.1381
   9   2.0000     -10.294811      -280.1361
  10   2.0000     -10.294110      -280.1170
  11   2.0000     -10.291632      -280.0495
  12   2.0000     -10.289649      -279.9956
  13   2.0000     -10.284838      -279.8647
  14   2.0000     -10.283156      -279.8189
  15   2.0000     -10.275365      -279.6069
  16   2.0000      -8.077826      -219.8088
  17   2.0000      -8.076591      -219.7752
  18   2.0000      -6.036385      -164.2584
  19   2.0000      -6.035574      -164.2363
  20   2.0000      -6.032192      -164.1443
  21   2.0000      -6.031245      -164.1185
  22   2.0000      -6.028543      -164.0450
  23   2.0000      -6.026865      -163.9993
  24   2.0000      -1.009026       -27.4570
  25   2.0000      -0.981561       -26.7096
  26   2.0000      -0.912382       -24.8272
  27   2.0000      -0.910842       -24.7853
  28   2.0000      -0.878370       -23.9017
  29   2.0000      -0.849993       -23.1295
  30   2.0000      -0.838602       -22.8195
  31   2.0000      -0.821611       -22.3572
  32   2.0000      -0.784904       -21.3583
  33   2.0000      -0.774858       -21.0850
  34   2.0000      -0.716894       -19.5077
  35   2.0000      -0.697340       -18.9756
  36   2.0000      -0.695575       -18.9275
  37   2.0000      -0.652367       -17.7518
  38   2.0000      -0.641173       -17.4472
  39   2.0000      -0.624516       -16.9939
  40   2.0000      -0.594516       -16.1776
  41   2.0000      -0.573009       -15.5924
  42   2.0000      -0.556877       -15.1534
  43   2.0000      -0.553931       -15.0732
  44   2.0000      -0.547061       -14.8863
  45   2.0000      -0.538013       -14.6401
  46   2.0000      -0.522581       -14.2201
  47   2.0000      -0.520610       -14.1665
  48   2.0000      -0.505928       -13.7670
  49   2.0000      -0.498593       -13.5674
  50   2.0000      -0.491452       -13.3731
  51   2.0000      -0.476803       -12.9745
  52   2.0000      -0.469413       -12.7734
  53   2.0000      -0.465346       -12.6627
  54   2.0000      -0.462736       -12.5917
  55   2.0000      -0.450611       -12.2618
  56   2.0000      -0.446968       -12.1626
  57   2.0000      -0.437876       -11.9152
  58   2.0000      -0.435067       -11.8388
  59   2.0000      -0.427210       -11.6250
  60   2.0000      -0.408943       -11.1279
  61   2.0000      -0.404861       -11.0168
  62   2.0000      -0.397929       -10.8282
  63   2.0000      -0.370678       -10.0867
  64   2.0000      -0.328627        -8.9424
  65   2.0000      -0.321403        -8.7458
  66   2.0000      -0.283168        -7.7054
  67   0.0000       0.016578         0.4511
  68   0.0000       0.085649         2.3306
  69   0.0000       0.099068         2.6958
  70   0.0000       0.122145         3.3237
  71   0.0000       0.129013         3.5106

MULLIKEN ATOMIC CHARGES
-----------------------
   0 S :    0.091798
   1 C :   -0.095682
   2 C :   -0.136682
   3 C :   -0.038252
   4 C :   -0.101903
   5 H :    0.033001
   6 C :    0.096122
   7 H :    0.015170
   8 H :    0.032929
   9 C :   -0.072165
  10 H :    0.026162
  11 H :    0.034027
  12 C :   -0.051760
  13 H :    0.033182
  14 H :    0.026894
  15 H :    0.044214
  16 S :    0.085100
  17 C :   -0.082152
  18 C :   -0.065252
  19 C :   -0.024857
  20 C :   -0.105377
  21 H :    0.012673
  22 C :   -0.012705
  23 H :    0.019377
  24 H :    0.052062
  25 C :   -0.023292
  26 H :    0.026818
  27 H :    0.019721
  28 C :   -0.065461
  29 H :    0.043281
  30 H :    0.033197
  31 H :    0.035212
  32 H :    0.047670
  33 H :    0.066930
Sum of atomic charges:   -0.0000000

LOEWDIN ATOMIC CHARGES
----------------------
   0 S :    0.415667
   1 C :   -0.208474
   2 C :   -0.068149
   3 C :   -0.074631
   4 C :   -0.183190
   5 H :    0.036108
   6 C :   -0.033148
   7 H :    0.033590
   8 H :    0.032850
   9 C :   -0.038713
  10 H :    0.018564
  11 H :    0.029656
  12 C :   -0.057826
  13 H :    0.028624
  14 H :    0.014687
  15 H :    0.030760
  16 S :    0.365736
  17 C :   -0.189885
  18 C :   -0.080853
  19 C :   -0.056463
  20 C :   -0.168855
  21 H :    0.024918
  22 C :   -0.037476
  23 H :    0.028763
  24 H :    0.036957
  25 C :   -0.036684
  26 H :    0.024979
  27 H :    0.020484
  28 C :   -0.070261
  29 H :    0.029839
  30 H :    0.029160
  31 H :    0.028876
  32 H :    0.028650
  33 H :    0.045738

  Mayer bond orders larger than 0.100000
B(  0-S ,  1-C ) :   1.1620 B(  0-S ,  4-C ) :   1.1372 B(  1-C ,  2-C ) :   1.5581
B(  1-C , 32-H ) :   0.9743 B(  2-C ,  3-C ) :   1.2790 B(  2-C ,  6-C ) :   1.0091
B(  3-C ,  4-C ) :   1.5660 B(  3-C ,  5-H ) :   0.9704 B(  4-C , 20-C ) :   1.1231
B(  6-C ,  7-H ) :   0.9408 B(  6-C ,  8-H ) :   0.9376 B(  6-C ,  9-C ) :   1.0582
B(  9-C , 10-H ) :   0.9644 B(  9-C , 11-H ) :   0.9540 B(  9-C , 12-C ) :   1.0694
B( 12-C , 13-H ) :   0.9751 B( 12-C , 14-H ) :   0.9788 B( 12-C , 15-H ) :   0.9780
B( 16-S , 17-C ) :   1.1227 B( 16-S , 20-C ) :   1.0935 B( 17-C , 18-C ) :   1.6928
B( 17-C , 33-H ) :   0.9601 B( 18-C , 19-C ) :   1.1642 B( 18-C , 21-H ) :   0.9868
B( 19-C , 20-C ) :   1.6213 B( 19-C , 22-C ) :   1.0326 B( 22-C , 23-H ) :   0.9391
B( 22-C , 24-H ) :   0.9424 B( 22-C , 25-C ) :   1.0673 B( 25-C , 26-H ) :   0.9527
B( 25-C , 27-H ) :   0.9538 B( 25-C , 28-C ) :   1.0767 B( 28-C , 29-H ) :   0.9725
B( 28-C , 30-H ) :   0.9749 B( 28-C , 31-H ) :   0.9745

Dispersion correction           -0.014245846
FINAL SINGLE POINT ENERGY     -1339.849755880396

DIPOLE MOMENT
-------------
                                X             Y             Z
Electronic contribution:      0.79931      -8.14150      27.08967
Nuclear contribution   :     -0.66345       8.19855     -27.90169
                        -----------------------------------------
Total Dipole Moment    :      0.13587       0.05706      -0.81202
                        -----------------------------------------
Magnitude (a.u.)       :      0.82529
Magnitude (Debye)      :      2.09771

Rotational constants in cm-1:     0.017881     0.009417     0.006831
Rotational constants in MHz :   536.064964   282.321392   204.783497

                             ****ORCA TERMINATED NORMALLY****
TOTAL RUN TIME: 0 days 0 hours 0 minutes 28 seconds 762 msec
