                         Program Version 4.2.1 -  RELEASE  -
|  1> ! wB97X-D3 SP def2-SVP
|  2> %pal
|  3> nprocs 16
|  4> end
|  5>
|  6> * xyz 0 1
|  7> S 	 -17.091 	 -6.44667 	 82.9099
|  8> C 	 -16.6122 	 -7.29351 	 81.4523
|  9> C 	 -17.1058 	 -8.57626 	 81.4068
| 10> C 	 -18.0449 	 -8.77832 	 82.4785
| 11> C 	 -18.1437 	 -7.73991 	 83.386
| 12> H 	 -18.5836 	 -9.70131 	 82.741
| 13> C 	 -16.9918 	 -9.60895 	 80.3198
| 14> H 	 -17.7612 	 -9.41556 	 79.6287
| 15> H 	 -17.1206 	 -10.5952 	 80.7547
| 16> C 	 -15.7394 	 -9.60869 	 79.4811
| 17> H 	 -15.6741 	 -8.71748 	 78.9244
| 18> H 	 -14.8869 	 -9.72508 	 80.155
| 19> C 	 -15.6857 	 -10.7391 	 78.432
| 20> H 	 -16.4297 	 -10.5735 	 77.677
| 21> H 	 -14.6539 	 -10.7944 	 78.0846
| 22> H 	 -15.9617 	 -11.7367 	 78.7924
| 23> S 	 -20.404 	 -8.56367 	 84.6579
| 24> C 	 -20.4729 	 -8.36069 	 86.3438
| 25> C 	 -19.2488 	 -8.14343 	 86.9213
| 26> C 	 -18.258 	 -7.87132 	 85.9662
| 27> C 	 -18.8169 	 -7.91347 	 84.6643
| 28> H 	 -19.0169 	 -8.29371 	 87.9369
| 29> C 	 -16.8387 	 -7.47121 	 86.3482
| 30> H 	 -16.8606 	 -7.17574 	 87.4248
| 31> H 	 -16.7825 	 -6.54252 	 85.8668
| 32> C 	 -15.6276 	 -8.42082 	 85.9677
| 33> H 	 -15.521 	 -8.40765 	 84.8887
| 34> H 	 -15.8309 	 -9.46006 	 86.3895
| 35> C 	 -14.2969 	 -7.93207 	 86.5944
| 36> H 	 -13.4975 	 -8.6912 	 86.4229
| 37> H 	 -14.441 	 -7.73309 	 87.6398
| 38> H 	 -14.082 	 -6.967 	 86.1071
| 39> H 	 -16.0489 	 -6.87271 	 80.6415
| 40> H 	 -21.2936 	 -8.8535 	 86.9704
| 41> *
| 42>
| 43>                          ****END OF INPUT****

CARTESIAN COORDINATES (ANGSTROEM)
---------------------------------
  S    -17.091000   -6.446670   82.909900
  C    -16.612200   -7.293510   81.452300
  C    -17.105800   -8.576260   81.406800
  C    -18.044900   -8.778320   82.478500
  C    -18.143700   -7.739910   83.386000
  H    -18.583600   -9.701310   82.741000
  C    -16.991800   -9.608950   80.319800
  H    -17.761200   -9.415560   79.628700
  H    -17.120600  -10.595200   80.754700
  C    -15.739400   -9.608690   79.481100
  H    -15.674100   -8.717480   78.924400
  H    -14.886900   -9.725080   80.155000
  C    -15.685700  -10.739100   78.432000
  H    -16.429700  -10.573500   77.677000
  H    -14.653900  -10.794400   78.084600
  H    -15.961700  -11.736700   78.792400
  S    -20.404000   -8.563670   84.657900
  C    -20.472900   -8.360690   86.343800
  C    -19.248800   -8.143430   86.921300
  C    -18.258000   -7.871320   85.966200
  C    -18.816900   -7.913470   84.664300
  H    -19.016900   -8.293710   87.936900
  C    -16.838700   -7.471210   86.348200
  H    -16.860600   -7.175740   87.424800
  H    -16.782500   -6.542520   85.866800
  C    -15.627600   -8.420820   85.967700
  H    -15.521000   -8.407650   84.888700
  H    -15.830900   -9.460060   86.389500
  C    -14.296900   -7.932070   86.594400
  H    -13.497500   -8.691200   86.422900
  H    -14.441000   -7.733090   87.639800
  H    -14.082000   -6.967000   86.107100
  H    -16.048900   -6.872710   80.641500
  H    -21.293600   -8.853500   86.970400

 Total Charge           Charge          ....    0
 Multiplicity           Mult            ....    1
 Number of Electrons    NEL             ....  134
 Basis Dimension        Dim             ....  322

ORBITAL ENERGIES
----------------

  NO   OCC          E(Eh)            E(eV)
   0   2.0000     -88.969139     -2420.9733
   1   2.0000     -88.969053     -2420.9710
   2   2.0000     -10.325171      -280.9622
   3   2.0000     -10.322179      -280.8808
   4   2.0000     -10.312920      -280.6288
   5   2.0000     -10.312001      -280.6038
   6   2.0000     -10.301251      -280.3113
   7   2.0000     -10.299171      -280.2547
   8   2.0000     -10.292014      -280.0599
   9   2.0000     -10.291216      -280.0382
  10   2.0000     -10.290424      -280.0167
  11   2.0000     -10.286156      -279.9005
  12   2.0000     -10.284929      -279.8671
  13   2.0000     -10.282152      -279.7916
  14   2.0000     -10.278907      -279.7033
  15   2.0000     -10.278674      -279.6969
  16   2.0000      -8.084973      -220.0033
  17   2.0000      -8.083411      -219.9608
  18   2.0000      -6.043209      -164.4441
  19   2.0000      -6.042005      -164.4113
  20   2.0000      -6.039548      -164.3445
  21   2.0000      -6.037952      -164.3010
  22   2.0000      -6.035727      -164.2405
  23   2.0000      -6.034153      -164.1976
  24   2.0000      -1.013449       -27.5774
  25   2.0000      -0.989956       -26.9381
  26   2.0000      -0.919371       -25.0174
  27   2.0000      -0.901528       -24.5318
  28   2.0000      -0.871964       -23.7273
  29   2.0000      -0.856086       -23.2953
  30   2.0000      -0.849015       -23.1029
  31   2.0000      -0.809688       -22.0327
  32   2.0000      -0.785080       -21.3631
  33   2.0000      -0.769531       -20.9400
  34   2.0000      -0.710806       -19.3420
  35   2.0000      -0.698306       -19.0019
  36   2.0000      -0.684170       -18.6172
  37   2.0000      -0.665398       -18.1064
  38   2.0000      -0.637517       -17.3477
  39   2.0000      -0.611003       -16.6262
  40   2.0000      -0.593431       -16.1481
  41   2.0000      -0.582536       -15.8516
  42   2.0000      -0.568194       -15.4613
  43   2.0000      -0.561014       -15.2660
  44   2.0000      -0.528075       -14.3696
  45   2.0000      -0.525961       -14.3121
  46   2.0000      -0.517724       -14.0880
  47   2.0000      -0.506882       -13.7930
  48   2.0000      -0.502851       -13.6833
  49   2.0000      -0.494722       -13.4621
  50   2.0000      -0.491098       -13.3635
  51   2.0000      -0.482433       -13.1277
  52   2.0000      -0.475756       -12.9460
  53   2.0000      -0.461116       -12.5476
  54   2.0000      -0.458402       -12.4738
  55   2.0000      -0.454556       -12.3691
  56   2.0000      -0.443412       -12.0659
  57   2.0000      -0.433822       -11.8049
  58   2.0000      -0.431330       -11.7371
  59   2.0000      -0.428427       -11.6581
  60   2.0000      -0.424902       -11.5622
  61   2.0000      -0.420917       -11.4537
  62   2.0000      -0.415943       -11.3184
  63   2.0000      -0.348403        -9.4805
  64   2.0000      -0.332321        -9.0429
  65   2.0000      -0.329839        -8.9754
  66   2.0000      -0.286394        -7.7932
  67   0.0000       0.030019         0.8169
  68   0.0000       0.071199         1.9374
  69   0.0000       0.105872         2.8809
  70   0.0000       0.120549         3.2803
  71   0.0000       0.134203         3.6518

MULLIKEN ATOMIC CHARGES
-----------------------
   0 S :    0.108620
   1 C :   -0.131551
   2 C :   -0.058591
   3 C :   -0.016661
   4 C :   -0.127101
   5 H :    0.022420
   6 C :    0.083615
   7 H :    0.028545
   8 H :    0.023310
   9 C :   -0.089670
  10 H :    0.021836
  11 H :    0.030489
  12 C :   -0.034000
  13 H :    0.023844
  14 H :    0.042286
  15 H :    0.019137
  16 S :    0.130899
  17 C :   -0.095783
  18 C :   -0.035082
  19 C :   -0.042382
  20 C :   -0.185643
  21 H :    0.001451
  22 C :    0.063884
  23 H :    0.015446
  24 H :    0.013955
  25 C :   -0.076338
  26 H :    0.045709
  27 H :    0.040721
  28 C :   -0.048531
  29 H :    0.049989
  30 H :    0.025866
  31 H :    0.031710
  32 H :    0.042152
  33 H :    0.075451
Sum of atomic charges:    0.0000000

LOEWDIN ATOMIC CHARGES
----------------------
   0 S :    0.413026
   1 C :   -0.199007
   2 C :   -0.059206
   3 C :   -0.070787
   4 C :   -0.202242
   5 H :    0.028172
   6 C :   -0.028711
   7 H :    0.031426
   8 H :    0.031450
   9 C :   -0.037242
  10 H :    0.017300
  11 H :    0.024023
  12 C :   -0.060711
  13 H :    0.021430
  14 H :    0.030942
  15 H :    0.022443
  16 S :    0.455225
  17 C :   -0.222092
  18 C :   -0.067595
  19 C :   -0.053482
  20 C :   -0.210152
  21 H :    0.025046
  22 C :   -0.038018
  23 H :    0.032188
  24 H :    0.020998
  25 C :   -0.036035
  26 H :    0.024198
  27 H :    0.028968
  28 C :   -0.066486
  29 H :    0.032307
  30 H :    0.019044
  31 H :    0.027302
  32 H :    0.025488
  33 H :    0.040789

  Mayer bond orders larger than 0.100000
B(  0-S ,  1-C ) :   1.1260 B(  0-S ,  4-C ) :   1.1436 B(  1-C ,  2-C ) :   1.6145
B(  1-C , 32-H ) :   0.9701 B(  2-C ,  3-C ) :   1.2468 B(  2-C ,  6-C ) :   1.0219
B(  3-C ,  4-C ) :   1.5843 B(  3-C ,  5-H ) :   0.9832 B(  4-C , 20-C ) :   1.0327
B(  6-C ,  7-H ) :   0.9312 B(  6-C ,  8-H ) :   0.9412 B(  6-C ,  9-C ) :   1.0793
B(  9-C , 10-H ) :   0.9469 B(  9-C , 11-H ) :   0.9624 B(  9-C , 12-C ) :   1.0887
B( 12-C , 13-H ) :   0.9739 B( 12-C , 14-H ) :   0.9747 B( 12-C , 15-H ) :   0.9752
B( 16-S , 17-C ) :   1.1711 B( 16-S , 20-C ) :   1.1796 B( 17-C , 18-C ) :   1.5666
B( 17-C , 33-H ) :   0.9516 B( 18-C , 19-C ) :   1.3118 B( 18-C , 21-H ) :   0.9937
B( 19-C , 20-C ) :   1.5177 B( 19-C , 22-C ) :   1.0223 B( 22-C , 23-H ) :   0.9377
B( 22-C , 24-H ) :   0.9280 B( 22-C , 25-C ) :   1.0462 B( 25-C , 26-H ) :   0.9546
B( 25-C , 27-H ) :   0.9602 B( 25-C , 28-C ) :   1.0803 B( 28-C , 29-H ) :   0.9751
B( 28-C , 30-H ) :   0.9763 B( 28-C , 31-H ) :   0.9749

Dispersion correction           -0.014209955
FINAL SINGLE POINT ENERGY     -1339.872095070401

DIPOLE MOMENT
-------------
                                X             Y             Z
Electronic contribution:    -20.46570      10.61665       6.91943
Nuclear contribution   :     20.82251     -11.09842      -7.03761
                        -----------------------------------------
Total Dipole Moment    :      0.35681      -0.48176      -0.11817
                        -----------------------------------------
Magnitude (a.u.)       :      0.61104
Magnitude (Debye)      :      1.55315

Rotational constants in cm-1:     0.019048     0.008063     0.006648
Rotational constants in MHz :   571.055784   241.711777   199.298870

                             ****ORCA TERMINATED NORMALLY****
TOTAL RUN TIME: 0 days 0 hours 0 minutes 34 seconds 203 msec
