                         Program Version 4.2.1 -  RELEASE  -
|  1> ! wB97X-D3 SP def2-SVP
|  2> %pal
|  3> nprocs 16
|  4> end
|  5>
|  6> * xyz 0 1
|  7> S 	 -30.8966 	 68.1343 	 102.41
|  8> C 	 -29.7192 	 66.7965 	 102.593
|  9> C 	 -28.4686 	 67.2488 	 102.98
| 10> C 	 -28.4285 	 68.6183 	 102.982
| 11> C 	 -29.6425 	 69.3159 	 102.602
| 12> H 	 -27.6244 	 69.2724 	 103.196
| 13> C 	 -27.2623 	 66.4172 	 103.265
| 14> H 	 -27.5973 	 65.3705 	 103.307
| 15> H 	 -26.8791 	 66.7099 	 104.25
| 16> C 	 -26.1049 	 66.6023 	 102.28
| 17> H 	 -25.5434 	 67.4749 	 102.717
| 18> H 	 -25.4515 	 65.698 	 102.208
| 19> C 	 -26.557 	 66.7362 	 100.787
| 20> H 	 -26.9301 	 65.7497 	 100.44
| 21> H 	 -27.3204 	 67.5231 	 100.687
| 22> H 	 -25.78 	 66.9339 	 100.078
| 23> S 	 -31.3168 	 71.35 	 103.273
| 24> C 	 -30.8567 	 72.939 	 102.892
| 25> C 	 -29.5624 	 72.974 	 102.382
| 26> C 	 -28.9908 	 71.7379 	 102.089
| 27> C 	 -29.8079 	 70.752 	 102.6
| 28> H 	 -29.0813 	 73.8769 	 102.29
| 29> C 	 -27.6685 	 71.4109 	 101.383
| 30> H 	 -27.9604 	 70.7042 	 100.57
| 31> H 	 -27.0506 	 70.9702 	 102.054
| 32> C 	 -26.952 	 72.5202 	 100.573
| 33> H 	 -26.1667 	 72.0192 	 99.9983
| 34> H 	 -26.3416 	 73.224 	 101.149
| 35> C 	 -27.768 	 73.3936 	 99.5771
| 36> H 	 -27.9254 	 74.3569 	 100.031
| 37> H 	 -28.7061 	 72.8306 	 99.2125
| 38> H 	 -27.1346 	 73.4444 	 98.7585
| 39> H 	 -29.9115 	 65.7093 	 102.274
| 40> H 	 -31.4209 	 73.8188 	 103.158
| 41> *
| 42>
| 43>                          ****END OF INPUT****

CARTESIAN COORDINATES (ANGSTROEM)
---------------------------------
  S    -30.896600   68.134300  102.410000
  C    -29.719200   66.796500  102.593000
  C    -28.468600   67.248800  102.980000
  C    -28.428500   68.618300  102.982000
  C    -29.642500   69.315900  102.602000
  H    -27.624400   69.272400  103.196000
  C    -27.262300   66.417200  103.265000
  H    -27.597300   65.370500  103.307000
  H    -26.879100   66.709900  104.250000
  C    -26.104900   66.602300  102.280000
  H    -25.543400   67.474900  102.717000
  H    -25.451500   65.698000  102.208000
  C    -26.557000   66.736200  100.787000
  H    -26.930100   65.749700  100.440000
  H    -27.320400   67.523100  100.687000
  H    -25.780000   66.933900  100.078000
  S    -31.316800   71.350000  103.273000
  C    -30.856700   72.939000  102.892000
  C    -29.562400   72.974000  102.382000
  C    -28.990800   71.737900  102.089000
  C    -29.807900   70.752000  102.600000
  H    -29.081300   73.876900  102.290000
  C    -27.668500   71.410900  101.383000
  H    -27.960400   70.704200  100.570000
  H    -27.050600   70.970200  102.054000
  C    -26.952000   72.520200  100.573000
  H    -26.166700   72.019200   99.998300
  H    -26.341600   73.224000  101.149000
  C    -27.768000   73.393600   99.577100
  H    -27.925400   74.356900  100.031000
  H    -28.706100   72.830600   99.212500
  H    -27.134600   73.444400   98.758500
  H    -29.911500   65.709300  102.274000
  H    -31.420900   73.818800  103.158000

 Total Charge           Charge          ....    0
 Multiplicity           Mult            ....    1
 Number of Electrons    NEL             ....  134
 Basis Dimension        Dim             ....  322

ORBITAL ENERGIES
----------------

  NO   OCC          E(Eh)            E(eV)
   0   2.0000     -88.970343     -2421.0061
   1   2.0000     -88.965865     -2420.8842
   2   2.0000     -10.330100      -281.0963
   3   2.0000     -10.321873      -280.8724
   4   2.0000     -10.320611      -280.8381
   5   2.0000     -10.311388      -280.5871
   6   2.0000     -10.299712      -280.2694
   7   2.0000     -10.296370      -280.1785
   8   2.0000     -10.295933      -280.1666
   9   2.0000     -10.293524      -280.1010
  10   2.0000     -10.293121      -280.0901
  11   2.0000     -10.289021      -279.9785
  12   2.0000     -10.288093      -279.9532
  13   2.0000     -10.284579      -279.8576
  14   2.0000     -10.278653      -279.6964
  15   2.0000     -10.277702      -279.6705
  16   2.0000      -8.084153      -219.9810
  17   2.0000      -8.081557      -219.9103
  18   2.0000      -6.042643      -164.4287
  19   2.0000      -6.039810      -164.3516
  20   2.0000      -6.038684      -164.3209
  21   2.0000      -6.035975      -164.2472
  22   2.0000      -6.035106      -164.2236
  23   2.0000      -6.032501      -164.1527
  24   2.0000      -1.010723       -27.5032
  25   2.0000      -0.986402       -26.8414
  26   2.0000      -0.914510       -24.8851
  27   2.0000      -0.909358       -24.7449
  28   2.0000      -0.866248       -23.5718
  29   2.0000      -0.856706       -23.3122
  30   2.0000      -0.841819       -22.9071
  31   2.0000      -0.807308       -21.9680
  32   2.0000      -0.793309       -21.5870
  33   2.0000      -0.777892       -21.1675
  34   2.0000      -0.706994       -19.2383
  35   2.0000      -0.696913       -18.9640
  36   2.0000      -0.692183       -18.8352
  37   2.0000      -0.660077       -17.9616
  38   2.0000      -0.633412       -17.2360
  39   2.0000      -0.618827       -16.8391
  40   2.0000      -0.596224       -16.2241
  41   2.0000      -0.571314       -15.5462
  42   2.0000      -0.563508       -15.3338
  43   2.0000      -0.558204       -15.1895
  44   2.0000      -0.545490       -14.8435
  45   2.0000      -0.540660       -14.7121
  46   2.0000      -0.518882       -14.1195
  47   2.0000      -0.508829       -13.8459
  48   2.0000      -0.499574       -13.5941
  49   2.0000      -0.491538       -13.3754
  50   2.0000      -0.487644       -13.2695
  51   2.0000      -0.480780       -13.0827
  52   2.0000      -0.474179       -12.9031
  53   2.0000      -0.467831       -12.7303
  54   2.0000      -0.458659       -12.4807
  55   2.0000      -0.449395       -12.2287
  56   2.0000      -0.442720       -12.0470
  57   2.0000      -0.436712       -11.8835
  58   2.0000      -0.433411       -11.7937
  59   2.0000      -0.423199       -11.5158
  60   2.0000      -0.417353       -11.3567
  61   2.0000      -0.414729       -11.2853
  62   2.0000      -0.413906       -11.2629
  63   2.0000      -0.346362        -9.4250
  64   2.0000      -0.335563        -9.1311
  65   2.0000      -0.335132        -9.1194
  66   2.0000      -0.277738        -7.5576
  67   0.0000       0.020888         0.5684
  68   0.0000       0.074290         2.0215
  69   0.0000       0.104766         2.8508
  70   0.0000       0.128152         3.4872
  71   0.0000       0.130861         3.5609

MULLIKEN ATOMIC CHARGES
-----------------------
   0 S :    0.119743
   1 C :   -0.171172
   2 C :   -0.063310
   3 C :    0.005208
   4 C :   -0.161387
   5 H :   -0.014773
   6 C :    0.112648
   7 H :    0.016289
   8 H :    0.038921
   9 C :   -0.119786
  10 H :    0.041322
  11 H :    0.043459
  12 C :   -0.054285
  13 H :    0.026197
  14 H :    0.051234
  15 H :    0.028130
  16 S :    0.119979
  17 C :   -0.083320
  18 C :   -0.025944
  19 C :   -0.036386
  20 C :   -0.172623
  21 H :   -0.021964
  22 C :    0.115104
  23 H :    0.052694
  24 H :    0.018678
  25 C :   -0.109963
  26 H :    0.022925
  27 H :    0.019413
  28 C :   -0.038396
  29 H :    0.041957
  30 H :    0.051112
  31 H :    0.019365
  32 H :    0.075186
  33 H :    0.053746
Sum of atomic charges:   -0.0000000

LOEWDIN ATOMIC CHARGES
----------------------
   0 S :    0.405431
   1 C :   -0.204456
   2 C :   -0.070751
   3 C :   -0.062514
   4 C :   -0.200661
   5 H :    0.018990
   6 C :   -0.030035
   7 H :    0.029101
   8 H :    0.037848
   9 C :   -0.047584
  10 H :    0.026838
  11 H :    0.032516
  12 C :   -0.069802
  13 H :    0.027809
  14 H :    0.026667
  15 H :    0.021388
  16 S :    0.426302
  17 C :   -0.202197
  18 C :   -0.062576
  19 C :   -0.055780
  20 C :   -0.195559
  21 H :    0.015099
  22 C :   -0.019554
  23 H :    0.047769
  24 H :    0.015236
  25 C :   -0.046849
  26 H :    0.025472
  27 H :    0.019654
  28 C :   -0.062934
  29 H :    0.024392
  30 H :    0.039497
  31 H :    0.018454
  32 H :    0.044602
  33 H :    0.028186

  Mayer bond orders larger than 0.100000
B(  0-S ,  1-C ) :   1.1466 B(  0-S ,  4-C ) :   1.1703 B(  1-C ,  2-C ) :   1.5570
B(  1-C ,  4-C ) :   0.1144 B(  1-C , 32-H ) :   0.9517 B(  2-C ,  3-C ) :   1.2823
B(  2-C ,  6-C ) :   1.0316 B(  3-C ,  4-C ) :   1.4902 B(  3-C ,  5-H ) :   1.0028
B(  4-C , 20-C ) :   1.0882 B(  6-C ,  7-H ) :   0.9336 B(  6-C ,  8-H ) :   0.9422
B(  6-C ,  9-C ) :   1.0547 B(  9-C , 10-H ) :   0.9569 B(  9-C , 11-H ) :   0.9614
B(  9-C , 12-C ) :   1.0732 B( 12-C , 13-H ) :   0.9750 B( 12-C , 14-H ) :   0.9683
B( 12-C , 15-H ) :   0.9758 B( 16-S , 17-C ) :   1.1678 B( 16-S , 20-C ) :   1.1562
B( 17-C , 18-C ) :   1.5728 B( 17-C , 20-C ) :   0.1043 B( 17-C , 33-H ) :   0.9683
B( 18-C , 19-C ) :   1.2716 B( 18-C , 21-H ) :   1.0015 B( 19-C , 20-C ) :   1.5713
B( 19-C , 22-C ) :   1.0143 B( 22-C , 23-H ) :   0.9305 B( 22-C , 24-H ) :   0.9305
B( 22-C , 25-C ) :   1.0776 B( 25-C , 26-H ) :   0.9621 B( 25-C , 27-H ) :   0.9533
B( 25-C , 28-C ) :   1.0640 B( 28-C , 29-H ) :   0.9787 B( 28-C , 30-H ) :   0.9773
B( 28-C , 31-H ) :   0.9765

Dispersion correction           -0.015154390
FINAL SINGLE POINT ENERGY     -1339.854379500737

DIPOLE MOMENT
-------------
                                X             Y             Z
Electronic contribution:    -25.47685       0.65695      12.64688
Nuclear contribution   :     26.22624      -0.58020     -12.84511
                        -----------------------------------------
Total Dipole Moment    :      0.74939       0.07675      -0.19823
                        -----------------------------------------
Magnitude (a.u.)       :      0.77895
Magnitude (Debye)      :      1.97994

Rotational constants in cm-1:     0.018245     0.009811     0.006991
Rotational constants in MHz :   546.983041   294.123319   209.588856

                             ****ORCA TERMINATED NORMALLY****
TOTAL RUN TIME: 0 days 0 hours 0 minutes 31 seconds 947 msec
