                         Program Version 4.2.1 -  RELEASE  -
|  1> ! wB97X-D3 SP def2-SVP
|  2> %pal
|  3> nprocs 16
|  4> end
|  5>
|  6> * xyz 0 1
|  7> S 	 52.3141 	 13.8547 	 50.0755
|  8> C 	 53.5799 	 14.8206 	 50.7687
|  9> C 	 53.0845 	 15.9485 	 51.2978
| 10> C 	 51.7012 	 16.25 	 50.9941
| 11> C 	 51.1105 	 15.2132 	 50.2674
| 12> H 	 51.124 	 17.0918 	 51.2343
| 13> C 	 53.832 	 17.0265 	 52.0431
| 14> H 	 54.772 	 16.6387 	 52.3932
| 15> H 	 53.2403 	 17.2343 	 52.9259
| 16> C 	 54.179 	 18.2103 	 51.1774
| 17> H 	 53.1761 	 18.7313 	 50.8584
| 18> H 	 54.678 	 18.9763 	 51.8217
| 19> C 	 54.9427 	 17.8813 	 49.9046
| 20> H 	 54.4325 	 17.1614 	 49.2815
| 21> H 	 55.0332 	 18.7491 	 49.3141
| 22> H 	 55.885 	 17.4186 	 50.16
| 23> S 	 49.3026 	 15.0072 	 48.1536
| 24> C 	 47.587 	 14.926 	 48.4596
| 25> C 	 47.3337 	 15.2178 	 49.7806
| 26> C 	 48.4644 	 15.4357 	 50.6037
| 27> C 	 49.683 	 15.2419 	 49.8621
| 28> H 	 46.2993 	 15.1923 	 50.2539
| 29> C 	 48.4342 	 15.4052 	 52.0854
| 30> H 	 47.6405 	 16.0098 	 52.3721
| 31> H 	 49.2443 	 15.9958 	 52.4683
| 32> C 	 48.26 	 13.9942 	 52.5531
| 33> H 	 49.129 	 13.4079 	 52.2408
| 34> H 	 47.5107 	 13.4915 	 51.8913
| 35> C 	 47.8084 	 13.6793 	 53.9785
| 36> H 	 46.9876 	 14.278 	 54.0944
| 37> H 	 48.5854 	 13.9073 	 54.6023
| 38> H 	 47.5492 	 12.6383 	 54.1362
| 39> H 	 54.5687 	 14.4323 	 50.8454
| 40> H 	 46.8488 	 14.6274 	 47.6838
| 41> *
| 42>
| 43>                          ****END OF INPUT****

CARTESIAN COORDINATES (ANGSTROEM)
---------------------------------
  S     52.314100   13.854700   50.075500
  C     53.579900   14.820600   50.768700
  C     53.084500   15.948500   51.297800
  C     51.701200   16.250000   50.994100
  C     51.110500   15.213200   50.267400
  H     51.124000   17.091800   51.234300
  C     53.832000   17.026500   52.043100
  H     54.772000   16.638700   52.393200
  H     53.240300   17.234300   52.925900
  C     54.179000   18.210300   51.177400
  H     53.176100   18.731300   50.858400
  H     54.678000   18.976300   51.821700
  C     54.942700   17.881300   49.904600
  H     54.432500   17.161400   49.281500
  H     55.033200   18.749100   49.314100
  H     55.885000   17.418600   50.160000
  S     49.302600   15.007200   48.153600
  C     47.587000   14.926000   48.459600
  C     47.333700   15.217800   49.780600
  C     48.464400   15.435700   50.603700
  C     49.683000   15.241900   49.862100
  H     46.299300   15.192300   50.253900
  C     48.434200   15.405200   52.085400
  H     47.640500   16.009800   52.372100
  H     49.244300   15.995800   52.468300
  C     48.260000   13.994200   52.553100
  H     49.129000   13.407900   52.240800
  H     47.510700   13.491500   51.891300
  C     47.808400   13.679300   53.978500
  H     46.987600   14.278000   54.094400
  H     48.585400   13.907300   54.602300
  H     47.549200   12.638300   54.136200
  H     54.568700   14.432300   50.845400
  H     46.848800   14.627400   47.683800

 Total Charge           Charge          ....    0
 Multiplicity           Mult            ....    1
 Number of Electrons    NEL             ....  134
 Basis Dimension        Dim             ....  322

ORBITAL ENERGIES
----------------

  NO   OCC          E(Eh)            E(eV)
   0   2.0000     -88.964902     -2420.8581
   1   2.0000     -88.964378     -2420.8438
   2   2.0000     -10.337603      -281.3005
   3   2.0000     -10.332400      -281.1589
   4   2.0000     -10.321253      -280.8556
   5   2.0000     -10.310928      -280.5746
   6   2.0000     -10.305124      -280.4167
   7   2.0000     -10.298841      -280.2457
   8   2.0000     -10.296978      -280.1950
   9   2.0000     -10.294477      -280.1270
  10   2.0000     -10.293449      -280.0990
  11   2.0000     -10.285030      -279.8699
  12   2.0000     -10.281051      -279.7616
  13   2.0000     -10.280210      -279.7387
  14   2.0000     -10.269195      -279.4390
  15   2.0000     -10.262266      -279.2504
  16   2.0000      -8.078962      -219.8397
  17   2.0000      -8.078844      -219.8365
  18   2.0000      -6.037601      -164.2915
  19   2.0000      -6.037376      -164.2853
  20   2.0000      -6.033525      -164.1805
  21   2.0000      -6.033353      -164.1759
  22   2.0000      -6.029958      -164.0835
  23   2.0000      -6.029315      -164.0660
  24   2.0000      -1.000330       -27.2204
  25   2.0000      -0.983749       -26.7692
  26   2.0000      -0.917950       -24.9787
  27   2.0000      -0.912938       -24.8423
  28   2.0000      -0.868398       -23.6303
  29   2.0000      -0.853752       -23.2318
  30   2.0000      -0.843969       -22.9656
  31   2.0000      -0.814201       -22.1555
  32   2.0000      -0.786146       -21.3921
  33   2.0000      -0.775584       -21.1047
  34   2.0000      -0.707500       -19.2521
  35   2.0000      -0.697773       -18.9874
  36   2.0000      -0.691188       -18.8082
  37   2.0000      -0.657875       -17.9017
  38   2.0000      -0.647015       -17.6062
  39   2.0000      -0.618771       -16.8376
  40   2.0000      -0.598234       -16.2788
  41   2.0000      -0.565759       -15.3951
  42   2.0000      -0.563609       -15.3366
  43   2.0000      -0.555409       -15.1135
  44   2.0000      -0.538588       -14.6557
  45   2.0000      -0.532570       -14.4920
  46   2.0000      -0.522499       -14.2179
  47   2.0000      -0.518683       -14.1141
  48   2.0000      -0.509132       -13.8542
  49   2.0000      -0.500387       -13.6162
  50   2.0000      -0.491808       -13.3828
  51   2.0000      -0.481623       -13.1056
  52   2.0000      -0.468103       -12.7377
  53   2.0000      -0.463858       -12.6222
  54   2.0000      -0.458133       -12.4664
  55   2.0000      -0.453047       -12.3280
  56   2.0000      -0.443020       -12.0552
  57   2.0000      -0.441061       -12.0019
  58   2.0000      -0.435546       -11.8518
  59   2.0000      -0.418629       -11.3915
  60   2.0000      -0.415190       -11.2979
  61   2.0000      -0.407621       -11.0919
  62   2.0000      -0.404494       -11.0068
  63   2.0000      -0.343739        -9.3536
  64   2.0000      -0.331437        -9.0189
  65   2.0000      -0.326401        -8.8818
  66   2.0000      -0.295631        -8.0445
  67   0.0000       0.024805         0.6750
  68   0.0000       0.070360         1.9146
  69   0.0000       0.109853         2.9893
  70   0.0000       0.121077         3.2947
  71   0.0000       0.127573         3.4714

MULLIKEN ATOMIC CHARGES
-----------------------
   0 S :    0.098193
   1 C :   -0.118613
   2 C :   -0.087904
   3 C :    0.040119
   4 C :   -0.125469
   5 H :    0.007827
   6 C :    0.107352
   7 H :    0.000669
   8 H :    0.029661
   9 C :   -0.125171
  10 H :    0.031142
  11 H :    0.039592
  12 C :   -0.007930
  13 H :    0.041055
  14 H :    0.028978
  15 H :    0.020067
  16 S :    0.108044
  17 C :   -0.112071
  18 C :   -0.056088
  19 C :   -0.065991
  20 C :   -0.208948
  21 H :    0.041222
  22 C :    0.172865
  23 H :   -0.015000
  24 H :    0.001930
  25 C :   -0.117617
  26 H :    0.018990
  27 H :    0.018208
  28 C :    0.060525
  29 H :    0.006886
  30 H :    0.014597
  31 H :    0.031823
  32 H :    0.042857
  33 H :    0.078200
Sum of atomic charges:   -0.0000000

LOEWDIN ATOMIC CHARGES
----------------------
   0 S :    0.374047
   1 C :   -0.190928
   2 C :   -0.065692
   3 C :   -0.045596
   4 C :   -0.173214
   5 H :    0.024989
   6 C :   -0.033865
   7 H :    0.021551
   8 H :    0.032551
   9 C :   -0.046451
  10 H :    0.026700
  11 H :    0.026648
  12 C :   -0.058385
  13 H :    0.028870
  14 H :    0.023991
  15 H :    0.021715
  16 S :    0.407619
  17 C :   -0.196075
  18 C :   -0.081700
  19 C :   -0.051035
  20 C :   -0.197419
  21 H :    0.041951
  22 C :   -0.031294
  23 H :    0.020566
  24 H :    0.027701
  25 C :   -0.042610
  26 H :    0.024389
  27 H :    0.028792
  28 C :   -0.044481
  29 H :    0.013908
  30 H :    0.014237
  31 H :    0.031612
  32 H :    0.026336
  33 H :    0.040571

  Mayer bond orders larger than 0.100000
B(  0-S ,  1-C ) :   1.1174 B(  0-S ,  4-C ) :   1.1249 B(  1-C ,  2-C ) :   1.6393
B(  1-C , 32-H ) :   0.9744 B(  2-C ,  3-C ) :   1.1858 B(  2-C ,  6-C ) :   1.0317
B(  3-C ,  4-C ) :   1.5921 B(  3-C ,  5-H ) :   1.0011 B(  4-C , 20-C ) :   1.0583
B(  6-C ,  7-H ) :   0.9347 B(  6-C ,  8-H ) :   0.9358 B(  6-C ,  9-C ) :   1.0721
B(  9-C , 10-H ) :   0.9530 B(  9-C , 11-H ) :   0.9563 B(  9-C , 12-C ) :   1.0730
B( 12-C , 13-H ) :   0.9686 B( 12-C , 14-H ) :   0.9707 B( 12-C , 15-H ) :   0.9736
B( 16-S , 17-C ) :   1.1624 B( 16-S , 20-C ) :   1.1628 B( 17-C , 18-C ) :   1.5744
B( 17-C , 20-C ) :   0.1054 B( 17-C , 33-H ) :   0.9661 B( 18-C , 19-C ) :   1.2845
B( 18-C , 21-H ) :   0.9725 B( 19-C , 20-C ) :   1.5288 B( 19-C , 22-C ) :   1.0675
B( 22-C , 23-H ) :   0.9041 B( 22-C , 24-H ) :   0.9145 B( 22-C , 25-C ) :   1.0553
B( 25-C , 26-H ) :   0.9495 B( 25-C , 27-H ) :   0.9544 B( 25-C , 28-C ) :   1.0721
B( 28-C , 29-H ) :   0.9732 B( 28-C , 30-H ) :   0.9736 B( 28-C , 31-H ) :   0.9713

Dispersion correction           -0.014955796
FINAL SINGLE POINT ENERGY     -1339.864386669091

DIPOLE MOMENT
-------------
                                X             Y             Z
Electronic contribution:     -3.02518      -8.71192     -17.11308
Nuclear contribution   :      2.93777       8.92948      17.62172
                        -----------------------------------------
Total Dipole Moment    :     -0.08741       0.21756       0.50864
                        -----------------------------------------
Magnitude (a.u.)       :      0.56008
Magnitude (Debye)      :      1.42361

Rotational constants in cm-1:     0.019457     0.008407     0.007212
Rotational constants in MHz :   583.320437   252.034595   216.209458

                             ****ORCA TERMINATED NORMALLY****
TOTAL RUN TIME: 0 days 0 hours 0 minutes 30 seconds 716 msec
