                         Program Version 4.2.1 -  RELEASE  -
|  1> ! wB97X-D3 SP def2-SVP
|  2> %pal
|  3> nprocs 16
|  4> end
|  5>
|  6> * xyz 0 1
|  7> S 	 46.7142 	 12.3369 	 49.5569
|  8> C 	 45.2276 	 11.4046 	 49.1628
|  9> C 	 44.1089 	 11.98 	 49.6921
| 10> C 	 44.476 	 13.2676 	 50.3538
| 11> C 	 45.8497 	 13.451 	 50.5215
| 12> H 	 43.8035 	 13.9768 	 50.8236
| 13> C 	 42.719 	 11.5077 	 49.5826
| 14> H 	 42.2506 	 11.4381 	 50.5486
| 15> H 	 42.7745 	 10.469 	 49.2358
| 16> C 	 41.9005 	 12.3597 	 48.6556
| 17> H 	 41.9898 	 13.3728 	 48.9442
| 18> H 	 42.2344 	 12.2758 	 47.6608
| 19> C 	 40.3841 	 11.9807 	 48.6697
| 20> H 	 39.7688 	 12.7918 	 48.3113
| 21> H 	 40.0856 	 11.1023 	 48.1302
| 22> H 	 40.0661 	 11.8336 	 49.694
| 23> S 	 47.7025 	 15.5288 	 50.2294
| 24> C 	 47.6717 	 16.8261 	 51.3427
| 25> C 	 46.8434 	 16.5485 	 52.4137
| 26> C 	 46.1626 	 15.2826 	 52.2707
| 27> C 	 46.4727 	 14.5931 	 51.1222
| 28> H 	 46.7175 	 17.2026 	 53.1984
| 29> C 	 45.1554 	 14.7387 	 53.3571
| 30> H 	 44.4745 	 14.0766 	 52.9047
| 31> H 	 44.6809 	 15.5658 	 53.8304
| 32> C 	 45.7959 	 13.8611 	 54.4572
| 33> H 	 46.6643 	 14.3393 	 54.7531
| 34> H 	 46.0028 	 12.9332 	 53.9714
| 35> C 	 44.7323 	 13.5589 	 55.5052
| 36> H 	 43.7437 	 13.4816 	 55.0398
| 37> H 	 44.7163 	 14.4065 	 56.2126
| 38> H 	 45.0355 	 12.6253 	 55.9501
| 39> H 	 45.2863 	 10.5889 	 48.4593
| 40> H 	 48.3553 	 17.6484 	 51.3757
| 41> *
| 42>
| 43>                          ****END OF INPUT****

CARTESIAN COORDINATES (ANGSTROEM)
---------------------------------
  S     46.714200   12.336900   49.556900
  C     45.227600   11.404600   49.162800
  C     44.108900   11.980000   49.692100
  C     44.476000   13.267600   50.353800
  C     45.849700   13.451000   50.521500
  H     43.803500   13.976800   50.823600
  C     42.719000   11.507700   49.582600
  H     42.250600   11.438100   50.548600
  H     42.774500   10.469000   49.235800
  C     41.900500   12.359700   48.655600
  H     41.989800   13.372800   48.944200
  H     42.234400   12.275800   47.660800
  C     40.384100   11.980700   48.669700
  H     39.768800   12.791800   48.311300
  H     40.085600   11.102300   48.130200
  H     40.066100   11.833600   49.694000
  S     47.702500   15.528800   50.229400
  C     47.671700   16.826100   51.342700
  C     46.843400   16.548500   52.413700
  C     46.162600   15.282600   52.270700
  C     46.472700   14.593100   51.122200
  H     46.717500   17.202600   53.198400
  C     45.155400   14.738700   53.357100
  H     44.474500   14.076600   52.904700
  H     44.680900   15.565800   53.830400
  C     45.795900   13.861100   54.457200
  H     46.664300   14.339300   54.753100
  H     46.002800   12.933200   53.971400
  C     44.732300   13.558900   55.505200
  H     43.743700   13.481600   55.039800
  H     44.716300   14.406500   56.212600
  H     45.035500   12.625300   55.950100
  H     45.286300   10.588900   48.459300
  H     48.355300   17.648400   51.375700

 Total Charge           Charge          ....    0
 Multiplicity           Mult            ....    1
 Number of Electrons    NEL             ....  134
 Basis Dimension        Dim             ....  322

ORBITAL ENERGIES
----------------

  NO   OCC          E(Eh)            E(eV)
   0   2.0000     -88.963799     -2420.8280
   1   2.0000     -88.962070     -2420.7810
   2   2.0000     -10.328532      -281.0536
   3   2.0000     -10.325228      -280.9637
   4   2.0000     -10.317281      -280.7475
   5   2.0000     -10.316124      -280.7160
   6   2.0000     -10.306551      -280.4555
   7   2.0000     -10.304957      -280.4121
   8   2.0000     -10.298726      -280.2426
   9   2.0000     -10.290114      -280.0082
  10   2.0000     -10.288986      -279.9776
  11   2.0000     -10.284163      -279.8463
  12   2.0000     -10.281095      -279.7628
  13   2.0000     -10.277426      -279.6630
  14   2.0000     -10.275481      -279.6100
  15   2.0000     -10.271718      -279.5077
  16   2.0000      -8.078828      -219.8361
  17   2.0000      -8.077296      -219.7944
  18   2.0000      -6.037396      -164.2859
  19   2.0000      -6.035920      -164.2457
  20   2.0000      -6.033154      -164.1705
  21   2.0000      -6.031759      -164.1325
  22   2.0000      -6.029642      -164.0749
  23   2.0000      -6.027888      -164.0272
  24   2.0000      -1.007229       -27.4081
  25   2.0000      -0.982888       -26.7457
  26   2.0000      -0.922769       -25.1098
  27   2.0000      -0.911271       -24.7969
  28   2.0000      -0.874003       -23.7828
  29   2.0000      -0.851091       -23.1594
  30   2.0000      -0.840523       -22.8718
  31   2.0000      -0.812379       -22.1060
  32   2.0000      -0.785182       -21.3659
  33   2.0000      -0.773991       -21.0614
  34   2.0000      -0.714454       -19.4413
  35   2.0000      -0.702797       -19.1241
  36   2.0000      -0.694431       -18.8964
  37   2.0000      -0.666578       -18.1385
  38   2.0000      -0.644544       -17.5389
  39   2.0000      -0.619229       -16.8501
  40   2.0000      -0.597428       -16.2569
  41   2.0000      -0.578343       -15.7375
  42   2.0000      -0.577344       -15.7103
  43   2.0000      -0.563376       -15.3302
  44   2.0000      -0.528637       -14.3850
  45   2.0000      -0.522725       -14.2241
  46   2.0000      -0.516681       -14.0596
  47   2.0000      -0.514948       -14.0125
  48   2.0000      -0.510609       -13.8944
  49   2.0000      -0.507036       -13.7972
  50   2.0000      -0.491792       -13.3823
  51   2.0000      -0.483898       -13.1675
  52   2.0000      -0.469718       -12.7817
  53   2.0000      -0.466568       -12.6960
  54   2.0000      -0.460575       -12.5329
  55   2.0000      -0.452611       -12.3162
  56   2.0000      -0.444592       -12.0980
  57   2.0000      -0.440991       -12.0000
  58   2.0000      -0.432155       -11.7595
  59   2.0000      -0.427167       -11.6238
  60   2.0000      -0.424923       -11.5627
  61   2.0000      -0.420406       -11.4398
  62   2.0000      -0.407231       -11.0813
  63   2.0000      -0.351454        -9.5635
  64   2.0000      -0.329961        -8.9787
  65   2.0000      -0.325386        -8.8542
  66   2.0000      -0.292556        -7.9608
  67   0.0000       0.027025         0.7354
  68   0.0000       0.076633         2.0853
  69   0.0000       0.108135         2.9425
  70   0.0000       0.114972         3.1286
  71   0.0000       0.132336         3.6011

MULLIKEN ATOMIC CHARGES
-----------------------
   0 S :    0.085279
   1 C :   -0.123673
   2 C :   -0.085237
   3 C :    0.012115
   4 C :   -0.151072
   5 H :    0.027443
   6 C :    0.094939
   7 H :    0.022921
   8 H :    0.014521
   9 C :   -0.048110
  10 H :    0.021744
  11 H :    0.021440
  12 C :   -0.035303
  13 H :    0.029398
  14 H :    0.031650
  15 H :    0.013901
  16 S :    0.103300
  17 C :   -0.068359
  18 C :   -0.011655
  19 C :   -0.065906
  20 C :   -0.125839
  21 H :   -0.014039
  22 C :    0.071802
  23 H :   -0.000157
  24 H :    0.010710
  25 C :   -0.042290
  26 H :    0.013927
  27 H :    0.022457
  28 C :   -0.030131
  29 H :    0.029447
  30 H :    0.034831
  31 H :    0.037434
  32 H :    0.048124
  33 H :    0.054388
Sum of atomic charges:   -0.0000000

LOEWDIN ATOMIC CHARGES
----------------------
   0 S :    0.391834
   1 C :   -0.177370
   2 C :   -0.054414
   3 C :   -0.061381
   4 C :   -0.203712
   5 H :    0.027384
   6 C :   -0.033095
   7 H :    0.030036
   8 H :    0.032705
   9 C :   -0.025856
  10 H :    0.021308
  11 H :    0.021713
  12 C :   -0.063029
  13 H :    0.026073
  14 H :    0.022307
  15 H :    0.020801
  16 S :    0.404989
  17 C :   -0.186946
  18 C :   -0.066192
  19 C :   -0.047320
  20 C :   -0.196486
  21 H :    0.016547
  22 C :   -0.020111
  23 H :    0.016993
  24 H :    0.019632
  25 C :   -0.026806
  26 H :    0.011363
  27 H :    0.022269
  28 C :   -0.058312
  29 H :    0.026288
  30 H :    0.027233
  31 H :    0.026592
  32 H :    0.025617
  33 H :    0.029348

  Mayer bond orders larger than 0.100000
B(  0-S ,  1-C ) :   1.1132 B(  0-S ,  4-C ) :   1.1438 B(  1-C ,  2-C ) :   1.6442
B(  1-C , 32-H ) :   0.9714 B(  2-C ,  3-C ) :   1.1908 B(  2-C ,  6-C ) :   1.0445
B(  3-C ,  4-C ) :   1.5934 B(  3-C ,  5-H ) :   0.9776 B(  4-C , 20-C ) :   1.0615
B(  6-C ,  7-H ) :   0.9295 B(  6-C ,  8-H ) :   0.9324 B(  6-C ,  9-C ) :   1.0682
B(  9-C , 10-H ) :   0.9586 B(  9-C , 11-H ) :   0.9536 B(  9-C , 12-C ) :   1.0788
B( 12-C , 13-H ) :   0.9752 B( 12-C , 14-H ) :   0.9777 B( 12-C , 15-H ) :   0.9743
B( 16-S , 17-C ) :   1.1717 B( 16-S , 20-C ) :   1.1152 B( 17-C , 18-C ) :   1.5916
B( 17-C , 33-H ) :   0.9662 B( 18-C , 19-C ) :   1.2471 B( 18-C , 21-H ) :   1.0047
B( 19-C , 20-C ) :   1.6080 B( 19-C , 22-C ) :   1.0376 B( 22-C , 23-H ) :   0.9297
B( 22-C , 24-H ) :   0.9415 B( 22-C , 25-C ) :   1.0712 B( 25-C , 26-H ) :   0.9596
B( 25-C , 27-H ) :   0.9577 B( 25-C , 28-C ) :   1.0753 B( 28-C , 29-H ) :   0.9711
B( 28-C , 30-H ) :   0.9765 B( 28-C , 31-H ) :   0.9760

Dispersion correction           -0.013602271
FINAL SINGLE POINT ENERGY     -1339.874256950874

DIPOLE MOMENT
-------------
                                X             Y             Z
Electronic contribution:     25.58928       6.32876     -11.65154
Nuclear contribution   :    -26.20928      -6.29505      11.93888
                        -----------------------------------------
Total Dipole Moment    :     -0.62000       0.03371       0.28735
                        -----------------------------------------
Magnitude (a.u.)       :      0.68418
Magnitude (Debye)      :      1.73905

Rotational constants in cm-1:     0.016918     0.008416     0.006797
Rotational constants in MHz :   507.200865   252.304857   203.754116

                             ****ORCA TERMINATED NORMALLY****
TOTAL RUN TIME: 0 days 0 hours 0 minutes 33 seconds 848 msec
