                         Program Version 4.2.1 -  RELEASE  -
|  1> ! wB97X-D3 SP def2-SVP
|  2> %pal
|  3> nprocs 16
|  4> end
|  5>
|  6> * xyz 0 1
|  7> S 	 44.0269 	 12.9909 	 88.4535
|  8> C 	 45.1194 	 11.7326 	 87.8628
|  9> C 	 44.3387 	 10.6439 	 87.434
| 10> C 	 43.0009 	 11.0603 	 87.1674
| 11> C 	 42.7228 	 12.4023 	 87.4858
| 12> H 	 42.2166 	 10.5038 	 86.6426
| 13> C 	 44.8749 	 9.28334 	 87.0302
| 14> H 	 45.9354 	 9.13817 	 86.8549
| 15> H 	 44.359 	 9.11951 	 86.074
| 16> C 	 44.4799 	 8.19628 	 88.0197
| 17> H 	 43.3981 	 8.22532 	 88.2072
| 18> H 	 44.6157 	 7.23451 	 87.437
| 19> C 	 45.3501 	 8.10176 	 89.232
| 20> H 	 45.1867 	 8.87598 	 89.9165
| 21> H 	 45.1916 	 7.27085 	 89.9272
| 22> H 	 46.4227 	 8.09028 	 89.0267
| 23> S 	 41.1807 	 14.1199 	 86.0208
| 24> C 	 39.5048 	 14.3516 	 86.4015
| 25> C 	 39.2237 	 13.7802 	 87.6464
| 26> C 	 40.3007 	 12.9292 	 88.0853
| 27> C 	 41.4629 	 13.1222 	 87.3906
| 28> H 	 38.2856 	 13.8863 	 88.0783
| 29> C 	 40.1788 	 11.9451 	 89.2319
| 30> H 	 40.846 	 11.1139 	 89.0741
| 31> H 	 39.1263 	 11.5441 	 89.3006
| 32> C 	 40.5582 	 12.4963 	 90.6094
| 33> H 	 39.9893 	 13.3499 	 91.0188
| 34> H 	 41.5351 	 12.9159 	 90.7148
| 35> C 	 40.5379 	 11.275 	 91.588
| 36> H 	 39.5612 	 10.8052 	 91.8129
| 37> H 	 40.8721 	 11.6555 	 92.5628
| 38> H 	 41.2756 	 10.485 	 91.379
| 39> H 	 46.1844 	 11.7553 	 87.9363
| 40> H 	 38.8669 	 15.0808 	 86.0016
| 41> *
| 42>
| 43>                          ****END OF INPUT****

CARTESIAN COORDINATES (ANGSTROEM)
---------------------------------
  S     44.026900   12.990900   88.453500
  C     45.119400   11.732600   87.862800
  C     44.338700   10.643900   87.434000
  C     43.000900   11.060300   87.167400
  C     42.722800   12.402300   87.485800
  H     42.216600   10.503800   86.642600
  C     44.874900    9.283340   87.030200
  H     45.935400    9.138170   86.854900
  H     44.359000    9.119510   86.074000
  C     44.479900    8.196280   88.019700
  H     43.398100    8.225320   88.207200
  H     44.615700    7.234510   87.437000
  C     45.350100    8.101760   89.232000
  H     45.186700    8.875980   89.916500
  H     45.191600    7.270850   89.927200
  H     46.422700    8.090280   89.026700
  S     41.180700   14.119900   86.020800
  C     39.504800   14.351600   86.401500
  C     39.223700   13.780200   87.646400
  C     40.300700   12.929200   88.085300
  C     41.462900   13.122200   87.390600
  H     38.285600   13.886300   88.078300
  C     40.178800   11.945100   89.231900
  H     40.846000   11.113900   89.074100
  H     39.126300   11.544100   89.300600
  C     40.558200   12.496300   90.609400
  H     39.989300   13.349900   91.018800
  H     41.535100   12.915900   90.714800
  C     40.537900   11.275000   91.588000
  H     39.561200   10.805200   91.812900
  H     40.872100   11.655500   92.562800
  H     41.275600   10.485000   91.379000
  H     46.184400   11.755300   87.936300
  H     38.866900   15.080800   86.001600

 Total Charge           Charge          ....    0
 Multiplicity           Mult            ....    1
 Number of Electrons    NEL             ....  134
 Basis Dimension        Dim             ....  322

ORBITAL ENERGIES
----------------

  NO   OCC          E(Eh)            E(eV)
   0   2.0000     -88.963501     -2420.8199
   1   2.0000     -88.962754     -2420.7996
   2   2.0000     -10.327729      -281.0318
   3   2.0000     -10.318749      -280.7874
   4   2.0000     -10.316527      -280.7270
   5   2.0000     -10.314304      -280.6665
   6   2.0000     -10.306867      -280.4641
   7   2.0000     -10.300346      -280.2867
   8   2.0000     -10.299413      -280.2613
   9   2.0000     -10.293616      -280.1035
  10   2.0000     -10.291834      -280.0550
  11   2.0000     -10.291338      -280.0415
  12   2.0000     -10.290306      -280.0135
  13   2.0000     -10.284977      -279.8684
  14   2.0000     -10.278265      -279.6858
  15   2.0000     -10.271763      -279.5089
  16   2.0000      -8.079042      -219.8419
  17   2.0000      -8.077592      -219.8025
  18   2.0000      -6.037504      -164.2888
  19   2.0000      -6.036024      -164.2486
  20   2.0000      -6.033291      -164.1742
  21   2.0000      -6.032256      -164.1460
  22   2.0000      -6.029926      -164.0826
  23   2.0000      -6.028250      -164.0370
  24   2.0000      -1.010016       -27.4839
  25   2.0000      -0.986354       -26.8401
  26   2.0000      -0.917281       -24.9605
  27   2.0000      -0.905760       -24.6470
  28   2.0000      -0.870099       -23.6766
  29   2.0000      -0.846784       -23.0422
  30   2.0000      -0.845974       -23.0201
  31   2.0000      -0.812687       -22.1143
  32   2.0000      -0.786673       -21.4065
  33   2.0000      -0.769010       -20.9258
  34   2.0000      -0.707771       -19.2594
  35   2.0000      -0.699471       -19.0336
  36   2.0000      -0.694467       -18.8974
  37   2.0000      -0.667178       -18.1548
  38   2.0000      -0.644325       -17.5330
  39   2.0000      -0.621024       -16.8989
  40   2.0000      -0.597940       -16.2708
  41   2.0000      -0.575293       -15.6545
  42   2.0000      -0.560408       -15.2495
  43   2.0000      -0.553879       -15.0718
  44   2.0000      -0.540498       -14.7077
  45   2.0000      -0.524524       -14.2730
  46   2.0000      -0.515739       -14.0340
  47   2.0000      -0.511367       -13.9150
  48   2.0000      -0.502196       -13.6654
  49   2.0000      -0.498063       -13.5530
  50   2.0000      -0.485992       -13.2245
  51   2.0000      -0.482480       -13.1289
  52   2.0000      -0.471786       -12.8380
  53   2.0000      -0.465013       -12.6536
  54   2.0000      -0.463435       -12.6107
  55   2.0000      -0.448418       -12.2021
  56   2.0000      -0.443664       -12.0727
  57   2.0000      -0.437741       -11.9115
  58   2.0000      -0.435484       -11.8501
  59   2.0000      -0.430687       -11.7196
  60   2.0000      -0.418440       -11.3863
  61   2.0000      -0.410694       -11.1755
  62   2.0000      -0.400948       -10.9104
  63   2.0000      -0.331176        -9.0118
  64   2.0000      -0.324628        -8.8336
  65   2.0000      -0.318249        -8.6600
  66   2.0000      -0.311724        -8.4824
  67   0.0000       0.032883         0.8948
  68   0.0000       0.055891         1.5209
  69   0.0000       0.101679         2.7668
  70   0.0000       0.119934         3.2636
  71   0.0000       0.132868         3.6155

MULLIKEN ATOMIC CHARGES
-----------------------
   0 S :    0.104929
   1 C :   -0.110755
   2 C :   -0.070564
   3 C :    0.036504
   4 C :   -0.174508
   5 H :    0.023191
   6 C :    0.060442
   7 H :    0.023105
   8 H :    0.031967
   9 C :   -0.081457
  10 H :    0.028684
  11 H :    0.030129
  12 C :   -0.017572
  13 H :    0.013246
  14 H :    0.026546
  15 H :    0.022991
  16 S :    0.116955
  17 C :   -0.072045
  18 C :   -0.015144
  19 C :   -0.034306
  20 C :   -0.162761
  21 H :   -0.002722
  22 C :    0.087373
  23 H :    0.013671
  24 H :    0.033141
  25 C :   -0.059833
  26 H :    0.026911
  27 H :    0.016781
  28 C :   -0.077031
  29 H :    0.035618
  30 H :    0.019401
  31 H :    0.037881
  32 H :    0.042772
  33 H :    0.046460
Sum of atomic charges:   -0.0000000

LOEWDIN ATOMIC CHARGES
----------------------
   0 S :    0.407050
   1 C :   -0.183490
   2 C :   -0.061247
   3 C :   -0.062602
   4 C :   -0.203395
   5 H :    0.033761
   6 C :   -0.030554
   7 H :    0.029729
   8 H :    0.035478
   9 C :   -0.043781
  10 H :    0.024482
  11 H :    0.029598
  12 C :   -0.071054
  13 H :    0.018848
  14 H :    0.031054
  15 H :    0.026490
  16 S :    0.433586
  17 C :   -0.183344
  18 C :   -0.057880
  19 C :   -0.051880
  20 C :   -0.227278
  21 H :    0.019513
  22 C :   -0.032213
  23 H :    0.029000
  24 H :    0.037518
  25 C :   -0.038849
  26 H :    0.025930
  27 H :    0.019376
  28 C :   -0.073041
  29 H :    0.024042
  30 H :    0.024137
  31 H :    0.026576
  32 H :    0.023190
  33 H :    0.021248

  Mayer bond orders larger than 0.100000
B(  0-S ,  1-C ) :   1.1463 B(  0-S ,  4-C ) :   1.1657 B(  1-C ,  2-C ) :   1.5679
B(  1-C ,  4-C ) :   0.1122 B(  1-C , 32-H ) :   0.9836 B(  2-C ,  3-C ) :   1.2393
B(  2-C ,  6-C ) :   1.0219 B(  3-C ,  4-C ) :   1.5685 B(  3-C ,  5-H ) :   0.9922
B(  4-C , 20-C ) :   1.0036 B(  6-C ,  7-H ) :   0.9498 B(  6-C ,  8-H ) :   0.9411
B(  6-C ,  9-C ) :   1.0735 B(  9-C , 10-H ) :   0.9557 B(  9-C , 11-H ) :   0.9534
B(  9-C , 12-C ) :   1.0769 B( 12-C , 13-H ) :   0.9708 B( 12-C , 14-H ) :   0.9694
B( 12-C , 15-H ) :   0.9707 B( 16-S , 17-C ) :   1.1755 B( 16-S , 20-C ) :   1.1465
B( 17-C , 18-C ) :   1.5960 B( 17-C , 33-H ) :   0.9686 B( 18-C , 19-C ) :   1.2433
B( 18-C , 21-H ) :   0.9979 B( 19-C , 20-C ) :   1.6019 B( 19-C , 22-C ) :   1.0515
B( 22-C , 23-H ) :   0.9263 B( 22-C , 24-H ) :   0.9351 B( 22-C , 25-C ) :   1.0660
B( 25-C , 26-H ) :   0.9554 B( 25-C , 27-H ) :   0.9513 B( 25-C , 28-C ) :   1.0774
B( 28-C , 29-H ) :   0.9773 B( 28-C , 30-H ) :   0.9731 B( 28-C , 31-H ) :   0.9755

Dispersion correction           -0.014865898
FINAL SINGLE POINT ENERGY     -1339.860494607318

DIPOLE MOMENT
-------------
                                X             Y             Z
Electronic contribution:     -1.37589      22.61123     -16.17156
Nuclear contribution   :      1.26275     -23.11758      16.39811
                        -----------------------------------------
Total Dipole Moment    :     -0.11315      -0.50635       0.22655
                        -----------------------------------------
Magnitude (a.u.)       :      0.56614
Magnitude (Debye)      :      1.43903

Rotational constants in cm-1:     0.019326     0.008950     0.007293
Rotational constants in MHz :   579.374576   268.305796   218.647570

                             ****ORCA TERMINATED NORMALLY****
TOTAL RUN TIME: 0 days 0 hours 0 minutes 30 seconds 787 msec
