                         Program Version 4.2.1 -  RELEASE  -
|  1> ! wB97X-D3 SP def2-SVP
|  2> %pal
|  3> nprocs 16
|  4> end
|  5>
|  6> * xyz 0 1
|  7> S 	 4.47519 	 -3.2312 	 98.9639
|  8> C 	 3.07858 	 -4.21814 	 98.3312
|  9> C 	 3.59043 	 -5.44514 	 97.9331
| 10> C 	 5.00529 	 -5.4897 	 97.9568
| 11> C 	 5.66357 	 -4.41036 	 98.5011
| 12> H 	 5.64915 	 -6.31064 	 97.6477
| 13> C 	 2.85136 	 -6.68518 	 97.633
| 14> H 	 3.38317 	 -7.55288 	 98.071
| 15> H 	 2.7342 	 -6.71385 	 96.5401
| 16> C 	 1.44635 	 -6.79237 	 98.306
| 17> H 	 1.42555 	 -6.75732 	 99.4111
| 18> H 	 0.814546 	 -5.9395 	 97.9645
| 19> C 	 0.686954 	 -8.12683 	 97.9892
| 20> H 	 0.776346 	 -8.22932 	 96.8554
| 21> H 	 1.15456 	 -9.02926 	 98.4509
| 22> H 	 -0.284944 	 -8.03353 	 98.3567
| 23> S 	 7.59364 	 -4.07789 	 100.522
| 24> C 	 9.24021 	 -3.82097 	 100.057
| 25> C 	 9.36882 	 -3.89115 	 98.6657
| 26> C 	 8.13425 	 -4.18335 	 97.9783
| 27> C 	 7.0525 	 -4.2778 	 98.8115
| 28> H 	 10.3698 	 -3.48985 	 98.29
| 29> C 	 8.09394 	 -4.32888 	 96.4315
| 30> H 	 7.00078 	 -4.49934 	 96.1644
| 31> H 	 8.72065 	 -5.18596 	 96.2028
| 32> C 	 8.53774 	 -2.99312 	 95.7006
| 33> H 	 9.50967 	 -2.67961 	 95.9953
| 34> H 	 7.78141 	 -2.22916 	 95.9922
| 35> C 	 8.55958 	 -3.25011 	 94.2542
| 36> H 	 8.67607 	 -2.39545 	 93.5888
| 37> H 	 7.61636 	 -3.67511 	 93.9764
| 38> H 	 9.12438 	 -4.07109 	 93.9661
| 39> H 	 1.9854 	 -3.92728 	 98.3445
| 40> H 	 10.0493 	 -3.66652 	 100.721
| 41> *
| 42>
| 43>                          ****END OF INPUT****

CARTESIAN COORDINATES (ANGSTROEM)
---------------------------------
  S      4.475190   -3.231200   98.963900
  C      3.078580   -4.218140   98.331200
  C      3.590430   -5.445140   97.933100
  C      5.005290   -5.489700   97.956800
  C      5.663570   -4.410360   98.501100
  H      5.649150   -6.310640   97.647700
  C      2.851360   -6.685180   97.633000
  H      3.383170   -7.552880   98.071000
  H      2.734200   -6.713850   96.540100
  C      1.446350   -6.792370   98.306000
  H      1.425550   -6.757320   99.411100
  H      0.814546   -5.939500   97.964500
  C      0.686954   -8.126830   97.989200
  H      0.776346   -8.229320   96.855400
  H      1.154560   -9.029260   98.450900
  H     -0.284944   -8.033530   98.356700
  S      7.593640   -4.077890  100.522000
  C      9.240210   -3.820970  100.057000
  C      9.368820   -3.891150   98.665700
  C      8.134250   -4.183350   97.978300
  C      7.052500   -4.277800   98.811500
  H     10.369800   -3.489850   98.290000
  C      8.093940   -4.328880   96.431500
  H      7.000780   -4.499340   96.164400
  H      8.720650   -5.185960   96.202800
  C      8.537740   -2.993120   95.700600
  H      9.509670   -2.679610   95.995300
  H      7.781410   -2.229160   95.992200
  C      8.559580   -3.250110   94.254200
  H      8.676070   -2.395450   93.588800
  H      7.616360   -3.675110   93.976400
  H      9.124380   -4.071090   93.966100
  H      1.985400   -3.927280   98.344500
  H     10.049300   -3.666520  100.721000

 Total Charge           Charge          ....    0
 Multiplicity           Mult            ....    1
 Number of Electrons    NEL             ....  134
 Basis Dimension        Dim             ....  322

ORBITAL ENERGIES
----------------

  NO   OCC          E(Eh)            E(eV)
   0   2.0000     -88.964146     -2420.8375
   1   2.0000     -88.963817     -2420.8285
   2   2.0000     -10.327626      -281.0290
   3   2.0000     -10.327136      -281.0157
   4   2.0000     -10.324999      -280.9575
   5   2.0000     -10.317766      -280.7607
   6   2.0000     -10.307596      -280.4840
   7   2.0000     -10.301105      -280.3073
   8   2.0000     -10.300645      -280.2948
   9   2.0000     -10.300100      -280.2800
  10   2.0000     -10.297031      -280.1965
  11   2.0000     -10.294130      -280.1175
  12   2.0000     -10.290637      -280.0225
  13   2.0000     -10.284538      -279.8565
  14   2.0000     -10.284367      -279.8518
  15   2.0000     -10.263032      -279.2713
  16   2.0000      -8.078495      -219.8270
  17   2.0000      -8.077698      -219.8053
  18   2.0000      -6.037073      -164.2771
  19   2.0000      -6.036407      -164.2590
  20   2.0000      -6.033034      -164.1672
  21   2.0000      -6.032248      -164.1458
  22   2.0000      -6.029212      -164.0632
  23   2.0000      -6.028332      -164.0393
  24   2.0000      -1.004636       -27.3375
  25   2.0000      -0.980676       -26.6855
  26   2.0000      -0.912390       -24.8274
  27   2.0000      -0.909598       -24.7514
  28   2.0000      -0.869991       -23.6737
  29   2.0000      -0.853140       -23.2151
  30   2.0000      -0.842307       -22.9203
  31   2.0000      -0.810711       -22.0606
  32   2.0000      -0.780137       -21.2286
  33   2.0000      -0.770273       -20.9602
  34   2.0000      -0.710474       -19.3330
  35   2.0000      -0.703622       -19.1465
  36   2.0000      -0.693535       -18.8720
  37   2.0000      -0.654174       -17.8010
  38   2.0000      -0.637438       -17.3456
  39   2.0000      -0.610782       -16.6202
  40   2.0000      -0.590425       -16.0663
  41   2.0000      -0.575453       -15.6589
  42   2.0000      -0.568811       -15.4781
  43   2.0000      -0.564147       -15.3512
  44   2.0000      -0.530847       -14.4451
  45   2.0000      -0.524824       -14.2812
  46   2.0000      -0.521793       -14.1987
  47   2.0000      -0.517958       -14.0944
  48   2.0000      -0.507403       -13.8071
  49   2.0000      -0.503560       -13.7026
  50   2.0000      -0.495667       -13.4878
  51   2.0000      -0.481462       -13.1012
  52   2.0000      -0.467522       -12.7219
  53   2.0000      -0.462827       -12.5942
  54   2.0000      -0.451591       -12.2884
  55   2.0000      -0.446823       -12.1587
  56   2.0000      -0.440696       -11.9920
  57   2.0000      -0.431776       -11.7492
  58   2.0000      -0.430416       -11.7122
  59   2.0000      -0.418844       -11.3973
  60   2.0000      -0.417645       -11.3647
  61   2.0000      -0.414068       -11.2674
  62   2.0000      -0.411378       -11.1942
  63   2.0000      -0.342097        -9.3089
  64   2.0000      -0.331149        -9.0110
  65   2.0000      -0.325734        -8.8637
  66   2.0000      -0.297351        -8.0913
  67   0.0000       0.032781         0.8920
  68   0.0000       0.062174         1.6918
  69   0.0000       0.111435         3.0323
  70   0.0000       0.120989         3.2923
  71   0.0000       0.125266         3.4087

MULLIKEN ATOMIC CHARGES
-----------------------
   0 S :    0.097970
   1 C :   -0.151807
   2 C :   -0.065140
   3 C :    0.028417
   4 C :   -0.173192
   5 H :    0.010719
   6 C :    0.064557
   7 H :    0.046395
   8 H :    0.049266
   9 C :   -0.147889
  10 H :    0.042299
  11 H :    0.030375
  12 C :   -0.048640
  13 H :    0.035552
  14 H :    0.041195
  15 H :    0.032254
  16 S :    0.104999
  17 C :   -0.090855
  18 C :   -0.069777
  19 C :   -0.013535
  20 C :   -0.165425
  21 H :    0.051150
  22 C :    0.019652
  23 H :    0.046144
  24 H :    0.042705
  25 C :   -0.073946
  26 H :    0.023151
  27 H :    0.045372
  28 C :    0.035663
  29 H :    0.036745
  30 H :   -0.010418
  31 H :   -0.001277
  32 H :    0.076227
  33 H :    0.051092
Sum of atomic charges:   -0.0000000

LOEWDIN ATOMIC CHARGES
----------------------
   0 S :    0.385724
   1 C :   -0.190246
   2 C :   -0.070160
   3 C :   -0.065068
   4 C :   -0.198685
   5 H :    0.032091
   6 C :   -0.034973
   7 H :    0.040140
   8 H :    0.040196
   9 C :   -0.047237
  10 H :    0.026485
  11 H :    0.020331
  12 C :   -0.064972
  13 H :    0.030458
  14 H :    0.027906
  15 H :    0.018210
  16 S :    0.389117
  17 C :   -0.181236
  18 C :   -0.088972
  19 C :   -0.050846
  20 C :   -0.193346
  21 H :    0.044787
  22 C :   -0.025574
  23 H :    0.037847
  24 H :    0.030425
  25 C :   -0.033088
  26 H :    0.014992
  27 H :    0.034854
  28 C :   -0.067529
  29 H :    0.028071
  30 H :    0.023110
  31 H :    0.017645
  32 H :    0.044744
  33 H :    0.024799

  Mayer bond orders larger than 0.100000
B(  0-S ,  1-C ) :   1.1182 B(  0-S ,  4-C ) :   1.1449 B(  1-C ,  2-C ) :   1.6018
B(  1-C ,  4-C ) :   0.1008 B(  1-C , 32-H ) :   0.9630 B(  2-C ,  3-C ) :   1.2420
B(  2-C ,  6-C ) :   1.0176 B(  3-C ,  4-C ) :   1.5770 B(  3-C ,  5-H ) :   0.9953
B(  4-C , 20-C ) :   1.0576 B(  6-C ,  7-H ) :   0.9546 B(  6-C ,  8-H ) :   0.9220
B(  6-C ,  9-C ) :   1.0697 B(  9-C , 10-H ) :   0.9619 B(  9-C , 11-H ) :   0.9495
B(  9-C , 12-C ) :   1.0818 B( 12-C , 13-H ) :   0.9760 B( 12-C , 14-H ) :   0.9762
B( 12-C , 15-H ) :   0.9739 B( 16-S , 17-C ) :   1.1613 B( 16-S , 20-C ) :   1.1137
B( 17-C , 18-C ) :   1.6270 B( 17-C , 33-H ) :   0.9698 B( 18-C , 19-C ) :   1.2140
B( 18-C , 21-H ) :   0.9768 B( 19-C , 20-C ) :   1.6289 B( 19-C , 22-C ) :   1.0280
B( 22-C , 23-H ) :   0.9325 B( 22-C , 24-H ) :   0.9404 B( 22-C , 25-C ) :   1.0615
B( 25-C , 26-H ) :   0.9577 B( 25-C , 27-H ) :   0.9531 B( 25-C , 28-C ) :   1.0991
B( 28-C , 29-H ) :   0.9697 B( 28-C , 30-H ) :   0.9547 B( 28-C , 31-H ) :   0.9616

Dispersion correction           -0.013477939
FINAL SINGLE POINT ENERGY     -1339.862704064278

DIPOLE MOMENT
-------------
                                X             Y             Z
Electronic contribution:      8.00878      11.02942      19.61289
Nuclear contribution   :     -8.00042     -11.37767     -20.02484
                        -----------------------------------------
Total Dipole Moment    :      0.00836      -0.34824      -0.41195
                        -----------------------------------------
Magnitude (a.u.)       :      0.53949
Magnitude (Debye)      :      1.37126

Rotational constants in cm-1:     0.020072     0.007201     0.006090
Rotational constants in MHz :   601.742263   215.895018   182.570134

                             ****ORCA TERMINATED NORMALLY****
TOTAL RUN TIME: 0 days 0 hours 0 minutes 30 seconds 704 msec
