                         Program Version 4.2.1 -  RELEASE  -
|  1> ! wB97X-D3 SP def2-SVP
|  2> %pal
|  3> nprocs 16
|  4> end
|  5>
|  6> * xyz 0 1
|  7> S 	 -39.1192 	 0.368217 	 97.7738
|  8> C 	 -37.5026 	 1.16949 	 97.5884
|  9> C 	 -37.5069 	 2.07259 	 96.5423
| 10> C 	 -38.8169 	 2.23911 	 95.9191
| 11> C 	 -39.6854 	 1.27592 	 96.3587
| 12> H 	 -38.8869 	 2.77957 	 95.0178
| 13> C 	 -36.3244 	 2.97545 	 96.2068
| 14> H 	 -36.3068 	 2.96577 	 95.1267
| 15> H 	 -35.3686 	 2.58633 	 96.5966
| 16> C 	 -36.4043 	 4.40973 	 96.6748
| 17> H 	 -37.4769 	 4.71133 	 96.7048
| 18> H 	 -36.1566 	 4.39681 	 97.7458
| 19> C 	 -35.5536 	 5.39369 	 95.9276
| 20> H 	 -35.9735 	 5.6429 	 94.985
| 21> H 	 -35.4888 	 6.29754 	 96.5306
| 22> H 	 -34.556 	 4.97279 	 95.719
| 23> S 	 -42.3197 	 0.751882 	 97.1776
| 24> C 	 -43.5049 	 0.381745 	 96.0513
| 25> C 	 -43.037 	 0.362744 	 94.795
| 26> C 	 -41.6341 	 0.596172 	 94.7002
| 27> C 	 -41.0909 	 0.955136 	 95.924
| 28> H 	 -43.6988 	 0.22721 	 93.9717
| 29> C 	 -40.8914 	 0.643891 	 93.3965
| 30> H 	 -40.3938 	 1.55935 	 93.2006
| 31> H 	 -41.711 	 0.648248 	 92.7534
| 32> C 	 -40.1167 	 -0.659016 	 93.0326
| 33> H 	 -40.7517 	 -1.44713 	 92.5277
| 34> H 	 -39.7665 	 -1.13013 	 93.973
| 35> C 	 -38.9778 	 -0.235607 	 92.1341
| 36> H 	 -39.2637 	 0.374104 	 91.1943
| 37> H 	 -38.607 	 -1.27331 	 91.9171
| 38> H 	 -38.1936 	 0.221321 	 92.6736
| 39> H 	 -36.6094 	 0.91292 	 98.1998
| 40> H 	 -44.5837 	 0.217352 	 96.2326
| 41> *
| 42>
| 43>                          ****END OF INPUT****

CARTESIAN COORDINATES (ANGSTROEM)
---------------------------------
  S    -39.119200    0.368217   97.773800
  C    -37.502600    1.169490   97.588400
  C    -37.506900    2.072590   96.542300
  C    -38.816900    2.239110   95.919100
  C    -39.685400    1.275920   96.358700
  H    -38.886900    2.779570   95.017800
  C    -36.324400    2.975450   96.206800
  H    -36.306800    2.965770   95.126700
  H    -35.368600    2.586330   96.596600
  C    -36.404300    4.409730   96.674800
  H    -37.476900    4.711330   96.704800
  H    -36.156600    4.396810   97.745800
  C    -35.553600    5.393690   95.927600
  H    -35.973500    5.642900   94.985000
  H    -35.488800    6.297540   96.530600
  H    -34.556000    4.972790   95.719000
  S    -42.319700    0.751882   97.177600
  C    -43.504900    0.381745   96.051300
  C    -43.037000    0.362744   94.795000
  C    -41.634100    0.596172   94.700200
  C    -41.090900    0.955136   95.924000
  H    -43.698800    0.227210   93.971700
  C    -40.891400    0.643891   93.396500
  H    -40.393800    1.559350   93.200600
  H    -41.711000    0.648248   92.753400
  C    -40.116700   -0.659016   93.032600
  H    -40.751700   -1.447130   92.527700
  H    -39.766500   -1.130130   93.973000
  C    -38.977800   -0.235607   92.134100
  H    -39.263700    0.374104   91.194300
  H    -38.607000   -1.273310   91.917100
  H    -38.193600    0.221321   92.673600
  H    -36.609400    0.912920   98.199800
  H    -44.583700    0.217352   96.232600

 Total Charge           Charge          ....    0
 Multiplicity           Mult            ....    1
 Number of Electrons    NEL             ....  134
 Basis Dimension        Dim             ....  322

ORBITAL ENERGIES
----------------

  NO   OCC          E(Eh)            E(eV)
   0   2.0000     -88.965661     -2420.8787
   1   2.0000     -88.962217     -2420.7850
   2   2.0000     -10.338690      -281.3301
   3   2.0000     -10.325454      -280.9699
   4   2.0000     -10.319273      -280.8017
   5   2.0000     -10.308926      -280.5201
   6   2.0000     -10.304626      -280.4031
   7   2.0000     -10.298485      -280.2360
   8   2.0000     -10.295881      -280.1652
   9   2.0000     -10.291177      -280.0372
  10   2.0000     -10.289791      -279.9995
  11   2.0000     -10.283725      -279.8344
  12   2.0000     -10.283411      -279.8258
  13   2.0000     -10.280491      -279.7464
  14   2.0000     -10.278211      -279.6843
  15   2.0000     -10.276712      -279.6435
  16   2.0000      -8.079250      -219.8476
  17   2.0000      -8.078287      -219.8214
  18   2.0000      -6.037923      -164.3002
  19   2.0000      -6.036740      -164.2680
  20   2.0000      -6.034093      -164.1960
  21   2.0000      -6.032517      -164.1531
  22   2.0000      -6.029709      -164.0767
  23   2.0000      -6.029110      -164.0604
  24   2.0000      -1.008495       -27.4426
  25   2.0000      -0.981494       -26.7078
  26   2.0000      -0.915147       -24.9024
  27   2.0000      -0.912516       -24.8308
  28   2.0000      -0.866564       -23.5804
  29   2.0000      -0.855461       -23.2783
  30   2.0000      -0.843587       -22.9552
  31   2.0000      -0.818515       -22.2729
  32   2.0000      -0.783918       -21.3315
  33   2.0000      -0.771123       -20.9833
  34   2.0000      -0.701237       -19.0816
  35   2.0000      -0.695488       -18.9252
  36   2.0000      -0.689335       -18.7577
  37   2.0000      -0.659781       -17.9536
  38   2.0000      -0.636793       -17.3280
  39   2.0000      -0.627113       -17.0646
  40   2.0000      -0.598966       -16.2987
  41   2.0000      -0.566518       -15.4157
  42   2.0000      -0.564303       -15.3555
  43   2.0000      -0.556047       -15.1308
  44   2.0000      -0.530978       -14.4486
  45   2.0000      -0.525528       -14.3003
  46   2.0000      -0.519879       -14.1466
  47   2.0000      -0.511875       -13.9288
  48   2.0000      -0.503273       -13.6948
  49   2.0000      -0.496787       -13.5183
  50   2.0000      -0.494401       -13.4533
  51   2.0000      -0.481392       -13.0993
  52   2.0000      -0.472504       -12.8575
  53   2.0000      -0.466729       -12.7003
  54   2.0000      -0.459998       -12.5172
  55   2.0000      -0.457123       -12.4390
  56   2.0000      -0.450771       -12.2661
  57   2.0000      -0.436871       -11.8879
  58   2.0000      -0.432892       -11.7796
  59   2.0000      -0.419172       -11.4062
  60   2.0000      -0.412890       -11.2353
  61   2.0000      -0.407634       -11.0923
  62   2.0000      -0.403621       -10.9831
  63   2.0000      -0.345882        -9.4119
  64   2.0000      -0.331330        -9.0160
  65   2.0000      -0.329646        -8.9701
  66   2.0000      -0.295104        -8.0302
  67   0.0000       0.033520         0.9121
  68   0.0000       0.071365         1.9419
  69   0.0000       0.101061         2.7500
  70   0.0000       0.120608         3.2819
  71   0.0000       0.133834         3.6418

MULLIKEN ATOMIC CHARGES
-----------------------
   0 S :    0.088119
   1 C :   -0.134548
   2 C :   -0.116308
   3 C :    0.059178
   4 C :   -0.119531
   5 H :    0.006834
   6 C :    0.066494
   7 H :    0.014317
   8 H :    0.023937
   9 C :   -0.095456
  10 H :    0.030015
  11 H :    0.022910
  12 C :   -0.011608
  13 H :    0.023482
  14 H :    0.037802
  15 H :    0.029534
  16 S :    0.106066
  17 C :   -0.075949
  18 C :   -0.033524
  19 C :   -0.068795
  20 C :   -0.161832
  21 H :    0.003541
  22 C :    0.128549
  23 H :    0.024043
  24 H :   -0.013688
  25 C :   -0.100447
  26 H :    0.041062
  27 H :    0.046908
  28 C :   -0.063455
  29 H :    0.053484
  30 H :    0.031136
  31 H :    0.033221
  32 H :    0.062715
  33 H :    0.061795
Sum of atomic charges:    0.0000000

LOEWDIN ATOMIC CHARGES
----------------------
   0 S :    0.362498
   1 C :   -0.188028
   2 C :   -0.056667
   3 C :   -0.063818
   4 C :   -0.162216
   5 H :    0.025863
   6 C :   -0.033271
   7 H :    0.024615
   8 H :    0.030971
   9 C :   -0.050298
  10 H :    0.026604
  11 H :    0.024646
  12 C :   -0.058986
  13 H :    0.020158
  14 H :    0.031655
  15 H :    0.027383
  16 S :    0.422625
  17 C :   -0.208226
  18 C :   -0.079482
  19 C :   -0.053354
  20 C :   -0.200100
  21 H :    0.026544
  22 C :   -0.032117
  23 H :    0.025303
  24 H :    0.025409
  25 C :   -0.038086
  26 H :    0.028849
  27 H :    0.029327
  28 C :   -0.071878
  29 H :    0.035832
  30 H :    0.033217
  31 H :    0.018390
  32 H :    0.035734
  33 H :    0.040905

  Mayer bond orders larger than 0.100000
B(  0-S ,  1-C ) :   1.0965 B(  0-S ,  4-C ) :   1.1422 B(  1-C ,  2-C ) :   1.6686
B(  1-C , 32-H ) :   0.9618 B(  2-C ,  3-C ) :   1.1895 B(  2-C ,  6-C ) :   1.0378
B(  3-C ,  4-C ) :   1.6330 B(  3-C ,  5-H ) :   0.9870 B(  4-C , 20-C ) :   1.0044
B(  6-C ,  7-H ) :   0.9356 B(  6-C ,  8-H ) :   0.9408 B(  6-C ,  9-C ) :   1.0587
B(  9-C , 10-H ) :   0.9566 B(  9-C , 11-H ) :   0.9532 B(  9-C , 12-C ) :   1.0808
B( 12-C , 13-H ) :   0.9726 B( 12-C , 14-H ) :   0.9712 B( 12-C , 15-H ) :   0.9732
B( 16-S , 17-C ) :   1.1686 B( 16-S , 20-C ) :   1.1387 B( 17-C , 18-C ) :   1.6171
B( 17-C , 33-H ) :   0.9556 B( 18-C , 19-C ) :   1.2598 B( 18-C , 21-H ) :   0.9893
B( 19-C , 20-C ) :   1.5956 B( 19-C , 22-C ) :   1.0293 B( 22-C , 23-H ) :   0.9533
B( 22-C , 24-H ) :   0.9046 B( 22-C , 25-C ) :   1.0324 B( 25-C , 26-H ) :   0.9581
B( 25-C , 27-H ) :   0.9648 B( 25-C , 28-C ) :   1.0717 B( 28-C , 29-H ) :   0.9698
B( 28-C , 30-H ) :   0.9739 B( 28-C , 31-H ) :   0.9779

Dispersion correction           -0.013982136
FINAL SINGLE POINT ENERGY     -1339.864577843367

DIPOLE MOMENT
-------------
                                X             Y             Z
Electronic contribution:    -18.52585     -10.09257      18.76270
Nuclear contribution   :     18.72618      10.30592     -19.34161
                        -----------------------------------------
Total Dipole Moment    :      0.20033       0.21336      -0.57891
                        -----------------------------------------
Magnitude (a.u.)       :      0.64868
Magnitude (Debye)      :      1.64881

Rotational constants in cm-1:     0.018674     0.008252     0.006806
Rotational constants in MHz :   559.827336   247.387331   204.045588

                             ****ORCA TERMINATED NORMALLY****
TOTAL RUN TIME: 0 days 0 hours 0 minutes 29 seconds 757 msec
