                         Program Version 4.2.1 -  RELEASE  -
|  1> ! wB97X-D3 SP def2-SVP
|  2> %pal
|  3> nprocs 16
|  4> end
|  5>
|  6> * xyz 0 1
|  7> S 	 35.2124 	 10.0196 	 89.7097
|  8> C 	 34.0712 	 10.2315 	 88.4058
|  9> C 	 34.2965 	 9.41183 	 87.3063
| 10> C 	 35.5785 	 8.77771 	 87.3807
| 11> C 	 36.2185 	 9.01174 	 88.6145
| 12> H 	 36.0414 	 8.14522 	 86.714
| 13> C 	 33.2884 	 9.35443 	 86.2206
| 14> H 	 32.3667 	 9.63004 	 86.6266
| 15> H 	 33.1599 	 8.32269 	 85.9217
| 16> C 	 33.5189 	 10.2846 	 84.9835
| 17> H 	 34.5327 	 10.2367 	 84.6567
| 18> H 	 32.8104 	 10.0353 	 84.1245
| 19> C 	 33.157 	 11.739 	 85.3202
| 20> H 	 33.2452 	 12.3821 	 84.4216
| 21> H 	 32.0792 	 11.8426 	 85.557
| 22> H 	 33.716 	 12.1574 	 86.114
| 23> S 	 37.5441 	 7.93701 	 90.71
| 24> C 	 39.1165 	 7.06929 	 90.3869
| 25> C 	 39.478 	 7.21875 	 89.0757
| 26> C 	 38.5752 	 8.05993 	 88.2909
| 27> C 	 37.4386 	 8.35244 	 89.0417
| 28> H 	 40.4463 	 6.87377 	 88.7588
| 29> C 	 38.8541 	 8.50414 	 86.9246
| 30> H 	 39.8759 	 8.83214 	 86.9127
| 31> H 	 38.1873 	 9.35984 	 86.6362
| 32> C 	 38.8218 	 7.53332 	 85.7983
| 33> H 	 37.8763 	 7.09676 	 85.8381
| 34> H 	 39.4915 	 6.73882 	 85.9886
| 35> C 	 39.0679 	 8.14916 	 84.3542
| 36> H 	 38.1022 	 8.58988 	 83.9587
| 37> H 	 39.2739 	 7.34174 	 83.7291
| 38> H 	 39.9051 	 8.79698 	 84.268
| 39> H 	 33.15 	 10.8171 	 88.4526
| 40> H 	 39.7569 	 6.68352 	 91.1313
| 41> *
| 42>
| 43>                          ****END OF INPUT****

CARTESIAN COORDINATES (ANGSTROEM)
---------------------------------
  S     35.212400   10.019600   89.709700
  C     34.071200   10.231500   88.405800
  C     34.296500    9.411830   87.306300
  C     35.578500    8.777710   87.380700
  C     36.218500    9.011740   88.614500
  H     36.041400    8.145220   86.714000
  C     33.288400    9.354430   86.220600
  H     32.366700    9.630040   86.626600
  H     33.159900    8.322690   85.921700
  C     33.518900   10.284600   84.983500
  H     34.532700   10.236700   84.656700
  H     32.810400   10.035300   84.124500
  C     33.157000   11.739000   85.320200
  H     33.245200   12.382100   84.421600
  H     32.079200   11.842600   85.557000
  H     33.716000   12.157400   86.114000
  S     37.544100    7.937010   90.710000
  C     39.116500    7.069290   90.386900
  C     39.478000    7.218750   89.075700
  C     38.575200    8.059930   88.290900
  C     37.438600    8.352440   89.041700
  H     40.446300    6.873770   88.758800
  C     38.854100    8.504140   86.924600
  H     39.875900    8.832140   86.912700
  H     38.187300    9.359840   86.636200
  C     38.821800    7.533320   85.798300
  H     37.876300    7.096760   85.838100
  H     39.491500    6.738820   85.988600
  C     39.067900    8.149160   84.354200
  H     38.102200    8.589880   83.958700
  H     39.273900    7.341740   83.729100
  H     39.905100    8.796980   84.268000
  H     33.150000   10.817100   88.452600
  H     39.756900    6.683520   91.131300

 Total Charge           Charge          ....    0
 Multiplicity           Mult            ....    1
 Number of Electrons    NEL             ....  134
 Basis Dimension        Dim             ....  322

ORBITAL ENERGIES
----------------

  NO   OCC          E(Eh)            E(eV)
   0   2.0000     -88.971026     -2421.0247
   1   2.0000     -88.964200     -2420.8389
   2   2.0000     -10.334192      -281.2077
   3   2.0000     -10.325588      -280.9735
   4   2.0000     -10.318649      -280.7847
   5   2.0000     -10.314513      -280.6722
   6   2.0000     -10.302470      -280.3444
   7   2.0000     -10.301797      -280.3261
   8   2.0000     -10.297952      -280.2215
   9   2.0000     -10.295971      -280.1676
  10   2.0000     -10.292557      -280.0747
  11   2.0000     -10.286594      -279.9125
  12   2.0000     -10.284221      -279.8479
  13   2.0000     -10.281265      -279.7674
  14   2.0000     -10.279027      -279.7065
  15   2.0000     -10.276017      -279.6246
  16   2.0000      -8.084897      -220.0012
  17   2.0000      -8.078659      -219.8315
  18   2.0000      -6.043387      -164.4489
  19   2.0000      -6.039697      -164.3485
  20   2.0000      -6.037304      -164.2834
  21   2.0000      -6.035562      -164.2360
  22   2.0000      -6.033426      -164.1779
  23   2.0000      -6.029080      -164.0596
  24   2.0000      -1.004038       -27.3213
  25   2.0000      -0.979264       -26.6471
  26   2.0000      -0.917654       -24.9706
  27   2.0000      -0.911804       -24.8114
  28   2.0000      -0.869845       -23.6697
  29   2.0000      -0.853856       -23.2346
  30   2.0000      -0.845812       -23.0157
  31   2.0000      -0.819391       -22.2968
  32   2.0000      -0.784269       -21.3410
  33   2.0000      -0.772643       -21.0247
  34   2.0000      -0.713879       -19.4256
  35   2.0000      -0.702030       -19.1032
  36   2.0000      -0.693995       -18.8846
  37   2.0000      -0.667440       -18.1620
  38   2.0000      -0.643267       -17.5042
  39   2.0000      -0.621378       -16.9086
  40   2.0000      -0.600159       -16.3311
  41   2.0000      -0.575214       -15.6524
  42   2.0000      -0.570007       -15.5107
  43   2.0000      -0.546640       -14.8748
  44   2.0000      -0.544352       -14.8126
  45   2.0000      -0.523923       -14.2567
  46   2.0000      -0.518471       -14.1083
  47   2.0000      -0.514716       -14.0061
  48   2.0000      -0.507984       -13.8230
  49   2.0000      -0.495777       -13.4908
  50   2.0000      -0.488424       -13.2907
  51   2.0000      -0.477191       -12.9850
  52   2.0000      -0.473402       -12.8819
  53   2.0000      -0.465076       -12.6554
  54   2.0000      -0.463251       -12.6057
  55   2.0000      -0.450792       -12.2667
  56   2.0000      -0.445456       -12.1215
  57   2.0000      -0.438080       -11.9208
  58   2.0000      -0.436943       -11.8898
  59   2.0000      -0.429681       -11.6922
  60   2.0000      -0.424729       -11.5575
  61   2.0000      -0.421258       -11.4630
  62   2.0000      -0.417120       -11.3504
  63   2.0000      -0.356933        -9.7126
  64   2.0000      -0.335695        -9.1347
  65   2.0000      -0.324792        -8.8380
  66   2.0000      -0.281947        -7.6722
  67   0.0000       0.020463         0.5568
  68   0.0000       0.072555         1.9743
  69   0.0000       0.096716         2.6318
  70   0.0000       0.116216         3.1624
  71   0.0000       0.124735         3.3942

MULLIKEN ATOMIC CHARGES
-----------------------
   0 S :    0.114397
   1 C :   -0.110324
   2 C :   -0.099907
   3 C :    0.057986
   4 C :   -0.135854
   5 H :   -0.042613
   6 C :    0.113493
   7 H :   -0.007651
   8 H :    0.026499
   9 C :   -0.058730
  10 H :    0.028005
  11 H :    0.040947
  12 C :   -0.078117
  13 H :    0.035061
  14 H :    0.023037
  15 H :    0.036251
  16 S :    0.084491
  17 C :   -0.077459
  18 C :   -0.010279
  19 C :   -0.048503
  20 C :   -0.133849
  21 H :    0.014224
  22 C :    0.054638
  23 H :    0.011964
  24 H :    0.035645
  25 C :   -0.048342
  26 H :    0.003682
  27 H :    0.009383
  28 C :   -0.027118
  29 H :    0.043081
  30 H :    0.019277
  31 H :    0.030988
  32 H :    0.049943
  33 H :    0.045755
Sum of atomic charges:   -0.0000000

LOEWDIN ATOMIC CHARGES
----------------------
   0 S :    0.387400
   1 C :   -0.198051
   2 C :   -0.059038
   3 C :   -0.044674
   4 C :   -0.171248
   5 H :    0.015697
   6 C :   -0.028398
   7 H :    0.021320
   8 H :    0.032494
   9 C :   -0.033530
  10 H :    0.017968
  11 H :    0.033612
  12 C :   -0.070663
  13 H :    0.029633
  14 H :    0.024525
  15 H :    0.016691
  16 S :    0.376112
  17 C :   -0.158108
  18 C :   -0.056796
  19 C :   -0.060686
  20 C :   -0.196273
  21 H :    0.029342
  22 C :   -0.043159
  23 H :    0.030571
  24 H :    0.037474
  25 C :   -0.030862
  26 H :    0.010994
  27 H :    0.015945
  28 C :   -0.056028
  29 H :    0.034968
  30 H :    0.020221
  31 H :    0.021008
  32 H :    0.029058
  33 H :    0.022480

  Mayer bond orders larger than 0.100000
B(  0-S ,  1-C ) :   1.1319 B(  0-S ,  4-C ) :   1.1336 B(  1-C ,  2-C ) :   1.6163
B(  1-C , 32-H ) :   0.9581 B(  2-C ,  3-C ) :   1.2216 B(  2-C ,  6-C ) :   1.0424
B(  3-C ,  4-C ) :   1.5493 B(  3-C ,  5-H ) :   1.0097 B(  4-C , 20-C ) :   1.0839
B(  6-C ,  7-H ) :   0.9327 B(  6-C ,  8-H ) :   0.9326 B(  6-C ,  9-C ) :   1.0559
B(  9-C , 10-H ) :   0.9604 B(  9-C , 11-H ) :   0.9569 B(  9-C , 12-C ) :   1.0789
B( 12-C , 13-H ) :   0.9732 B( 12-C , 14-H ) :   0.9740 B( 12-C , 15-H ) :   0.9764
B( 16-S , 17-C ) :   1.1073 B( 16-S , 20-C ) :   1.1297 B( 17-C , 18-C ) :   1.6612
B( 17-C , 33-H ) :   0.9733 B( 18-C , 19-C ) :   1.1962 B( 18-C , 21-H ) :   0.9844
B( 19-C , 20-C ) :   1.5889 B( 19-C , 22-C ) :   1.0776 B( 22-C , 23-H ) :   0.9103
B( 22-C , 24-H ) :   0.9283 B( 22-C , 25-C ) :   1.0714 B( 25-C , 26-H ) :   0.9491
B( 25-C , 27-H ) :   0.9489 B( 25-C , 28-C ) :   1.0781 B( 28-C , 29-H ) :   0.9758
B( 28-C , 30-H ) :   0.9736 B( 28-C , 31-H ) :   0.9772

Dispersion correction           -0.014354140
FINAL SINGLE POINT ENERGY     -1339.868928544817

DIPOLE MOMENT
-------------
                                X             Y             Z
Electronic contribution:      2.56463      -3.70355      30.72445
Nuclear contribution   :     -2.45324       3.59172     -31.42243
                        -----------------------------------------
Total Dipole Moment    :      0.11138      -0.11183      -0.69799
                        -----------------------------------------
Magnitude (a.u.)       :      0.71561
Magnitude (Debye)      :      1.81894

Rotational constants in cm-1:     0.017865     0.009458     0.006529
Rotational constants in MHz :   535.585192   283.551883   195.746818

                             ****ORCA TERMINATED NORMALLY****
TOTAL RUN TIME: 0 days 0 hours 0 minutes 30 seconds 547 msec
