                         Program Version 4.2.1 -  RELEASE  -
|  1> ! wB97X-D3 SP def2-SVP
|  2> %pal
|  3> nprocs 16
|  4> end
|  5>
|  6> * xyz 0 1
|  7> S 	 3.89709 	 -14.8756 	 86.3854
|  8> C 	 3.156 	 -13.4928 	 85.5352
|  9> C 	 3.87374 	 -13.3091 	 84.3889
| 10> C 	 5.1452 	 -13.9624 	 84.4364
| 11> C 	 5.4417 	 -14.7483 	 85.5467
| 12> H 	 5.87642 	 -13.9527 	 83.6021
| 13> C 	 3.44479 	 -12.5004 	 83.1286
| 14> H 	 4.35672 	 -11.9641 	 82.9098
| 15> H 	 2.67557 	 -11.827 	 83.3634
| 16> C 	 3.11268 	 -13.2357 	 81.8464
| 17> H 	 2.65702 	 -12.5249 	 81.1835
| 18> H 	 4.09847 	 -13.6712 	 81.4851
| 19> C 	 1.99674 	 -14.2455 	 82.0448
| 20> H 	 2.11562 	 -15.1219 	 81.4192
| 21> H 	 1.91753 	 -14.6175 	 83.0626
| 22> H 	 0.989411 	 -13.8208 	 81.7543
| 23> S 	 6.41989 	 -16.8622 	 87.0102
| 24> C 	 8.148 	 -17.2182 	 86.9878
| 25> C 	 8.91472 	 -16.2993 	 86.3045
| 26> C 	 8.02965 	 -15.2644 	 85.7479
| 27> C 	 6.63016 	 -15.4479 	 85.9807
| 28> H 	 9.96998 	 -16.4351 	 86.2915
| 29> C 	 8.59661 	 -14.0452 	 84.9545
| 30> H 	 9.58408 	 -13.7864 	 85.309
| 31> H 	 8.01404 	 -13.2002 	 85.2363
| 32> C 	 8.67877 	 -14.3331 	 83.4687
| 33> H 	 7.84923 	 -14.9954 	 83.1743
| 34> H 	 9.64029 	 -14.8886 	 83.2957
| 35> C 	 8.81619 	 -12.9465 	 82.6754
| 36> H 	 8.8805 	 -13.3133 	 81.5582
| 37> H 	 9.74912 	 -12.3738 	 82.8283
| 38> H 	 7.99409 	 -12.2559 	 82.7541
| 39> H 	 2.14847 	 -13.2161 	 85.7051
| 40> H 	 8.63897 	 -18.0614 	 87.433
| 41> *
| 42>
| 43>                          ****END OF INPUT****

CARTESIAN COORDINATES (ANGSTROEM)
---------------------------------
  S      3.897090  -14.875600   86.385400
  C      3.156000  -13.492800   85.535200
  C      3.873740  -13.309100   84.388900
  C      5.145200  -13.962400   84.436400
  C      5.441700  -14.748300   85.546700
  H      5.876420  -13.952700   83.602100
  C      3.444790  -12.500400   83.128600
  H      4.356720  -11.964100   82.909800
  H      2.675570  -11.827000   83.363400
  C      3.112680  -13.235700   81.846400
  H      2.657020  -12.524900   81.183500
  H      4.098470  -13.671200   81.485100
  C      1.996740  -14.245500   82.044800
  H      2.115620  -15.121900   81.419200
  H      1.917530  -14.617500   83.062600
  H      0.989411  -13.820800   81.754300
  S      6.419890  -16.862200   87.010200
  C      8.148000  -17.218200   86.987800
  C      8.914720  -16.299300   86.304500
  C      8.029650  -15.264400   85.747900
  C      6.630160  -15.447900   85.980700
  H      9.969980  -16.435100   86.291500
  C      8.596610  -14.045200   84.954500
  H      9.584080  -13.786400   85.309000
  H      8.014040  -13.200200   85.236300
  C      8.678770  -14.333100   83.468700
  H      7.849230  -14.995400   83.174300
  H      9.640290  -14.888600   83.295700
  C      8.816190  -12.946500   82.675400
  H      8.880500  -13.313300   81.558200
  H      9.749120  -12.373800   82.828300
  H      7.994090  -12.255900   82.754100
  H      2.148470  -13.216100   85.705100
  H      8.638970  -18.061400   87.433000

 Total Charge           Charge          ....    0
 Multiplicity           Mult            ....    1
 Number of Electrons    NEL             ....  134
 Basis Dimension        Dim             ....  322

ORBITAL ENERGIES
----------------

  NO   OCC          E(Eh)            E(eV)
   0   2.0000     -88.969917     -2420.9945
   1   2.0000     -88.959386     -2420.7080
   2   2.0000     -10.338312      -281.3198
   3   2.0000     -10.337852      -281.3072
   4   2.0000     -10.321439      -280.8606
   5   2.0000     -10.318636      -280.7844
   6   2.0000     -10.315178      -280.6903
   7   2.0000     -10.305385      -280.4238
   8   2.0000     -10.301385      -280.3149
   9   2.0000     -10.298159      -280.2271
  10   2.0000     -10.297815      -280.2178
  11   2.0000     -10.293538      -280.1014
  12   2.0000     -10.289255      -279.9849
  13   2.0000     -10.287954      -279.9494
  14   2.0000     -10.287029      -279.9243
  15   2.0000     -10.274486      -279.5830
  16   2.0000      -8.084118      -219.9800
  17   2.0000      -8.074020      -219.7052
  18   2.0000      -6.042779      -164.4324
  19   2.0000      -6.038722      -164.3220
  20   2.0000      -6.034723      -164.2132
  21   2.0000      -6.032797      -164.1607
  22   2.0000      -6.028802      -164.0520
  23   2.0000      -6.024203      -163.9269
  24   2.0000      -1.004658       -27.3381
  25   2.0000      -0.981351       -26.7039
  26   2.0000      -0.914948       -24.8970
  27   2.0000      -0.904887       -24.6232
  28   2.0000      -0.875777       -23.8311
  29   2.0000      -0.841346       -22.8942
  30   2.0000      -0.837226       -22.7821
  31   2.0000      -0.817429       -22.2434
  32   2.0000      -0.784213       -21.3395
  33   2.0000      -0.771567       -20.9954
  34   2.0000      -0.712628       -19.3916
  35   2.0000      -0.697245       -18.9730
  36   2.0000      -0.693716       -18.8770
  37   2.0000      -0.662355       -18.0236
  38   2.0000      -0.640260       -17.4224
  39   2.0000      -0.623160       -16.9571
  40   2.0000      -0.590542       -16.0695
  41   2.0000      -0.576481       -15.6868
  42   2.0000      -0.560595       -15.2546
  43   2.0000      -0.554134       -15.0788
  44   2.0000      -0.548754       -14.9324
  45   2.0000      -0.522627       -14.2214
  46   2.0000      -0.516053       -14.0425
  47   2.0000      -0.514261       -13.9937
  48   2.0000      -0.505391       -13.7524
  49   2.0000      -0.495705       -13.4888
  50   2.0000      -0.489902       -13.3309
  51   2.0000      -0.482861       -13.1393
  52   2.0000      -0.474625       -12.9152
  53   2.0000      -0.464635       -12.6434
  54   2.0000      -0.459654       -12.5078
  55   2.0000      -0.453432       -12.3385
  56   2.0000      -0.443228       -12.0608
  57   2.0000      -0.434775       -11.8308
  58   2.0000      -0.430991       -11.7279
  59   2.0000      -0.423496       -11.5239
  60   2.0000      -0.417882       -11.3711
  61   2.0000      -0.408170       -11.1069
  62   2.0000      -0.403068       -10.9680
  63   2.0000      -0.364925        -9.9301
  64   2.0000      -0.333505        -9.0751
  65   2.0000      -0.320401        -8.7185
  66   2.0000      -0.284342        -7.7373
  67   0.0000       0.012003         0.3266
  68   0.0000       0.073289         1.9943
  69   0.0000       0.095020         2.5856
  70   0.0000       0.117412         3.1950
  71   0.0000       0.123489         3.3603

MULLIKEN ATOMIC CHARGES
-----------------------
   0 S :    0.061810
   1 C :   -0.105906
   2 C :   -0.088594
   3 C :   -0.024135
   4 C :   -0.093291
   5 H :    0.007592
   6 C :    0.088384
   7 H :    0.024176
   8 H :    0.007801
   9 C :   -0.060661
  10 H :    0.036121
  11 H :    0.043003
  12 C :   -0.071056
  13 H :    0.031416
  14 H :    0.036965
  15 H :    0.030846
  16 S :    0.101280
  17 C :   -0.075358
  18 C :   -0.015535
  19 C :   -0.088668
  20 C :   -0.116671
  21 H :    0.017818
  22 C :    0.083293
  23 H :    0.011709
  24 H :    0.026914
  25 C :   -0.093633
  26 H :    0.054587
  27 H :    0.038783
  28 C :   -0.092652
  29 H :    0.043458
  30 H :    0.045180
  31 H :    0.040496
  32 H :    0.044135
  33 H :    0.050394
Sum of atomic charges:   -0.0000000

LOEWDIN ATOMIC CHARGES
----------------------
   0 S :    0.369751
   1 C :   -0.175412
   2 C :   -0.061494
   3 C :   -0.080027
   4 C :   -0.177281
   5 H :    0.029755
   6 C :   -0.024789
   7 H :    0.031463
   8 H :    0.020291
   9 C :   -0.042505
  10 H :    0.030174
  11 H :    0.030921
  12 C :   -0.073517
  13 H :    0.026388
  14 H :    0.023436
  15 H :    0.029972
  16 S :    0.396935
  17 C :   -0.170391
  18 C :   -0.068809
  19 C :   -0.039413
  20 C :   -0.199688
  21 H :    0.033093
  22 C :   -0.035544
  23 H :    0.027113
  24 H :    0.024850
  25 C :   -0.041908
  26 H :    0.025201
  27 H :    0.032808
  28 C :   -0.076017
  29 H :    0.037306
  30 H :    0.029333
  31 H :    0.017904
  32 H :    0.021993
  33 H :    0.028107

  Mayer bond orders larger than 0.100000
B(  0-S ,  1-C ) :   1.1185 B(  0-S ,  4-C ) :   1.1321 B(  1-C ,  2-C ) :   1.6076
B(  1-C ,  4-C ) :   0.1028 B(  1-C , 32-H ) :   0.9752 B(  2-C ,  3-C ) :   1.2368
B(  2-C ,  6-C ) :   1.0118 B(  3-C ,  4-C ) :   1.5553 B(  3-C ,  5-H ) :   0.9879
B(  4-C , 20-C ) :   1.1076 B(  6-C ,  7-H ) :   0.9398 B(  6-C ,  8-H ) :   0.9432
B(  6-C ,  9-C ) :   1.0874 B(  9-C , 10-H ) :   0.9568 B(  9-C , 11-H ) :   0.9566
B(  9-C , 12-C ) :   1.0624 B( 12-C , 13-H ) :   0.9741 B( 12-C , 14-H ) :   0.9794
B( 12-C , 15-H ) :   0.9779 B( 16-S , 17-C ) :   1.1542 B( 16-S , 20-C ) :   1.1163
B( 17-C , 18-C ) :   1.6337 B( 17-C , 33-H ) :   0.9641 B( 18-C , 19-C ) :   1.2206
B( 18-C , 21-H ) :   0.9962 B( 19-C , 20-C ) :   1.5730 B( 19-C , 22-C ) :   1.0412
B( 22-C , 23-H ) :   0.9346 B( 22-C , 24-H ) :   0.9470 B( 22-C , 25-C ) :   1.0446
B( 25-C , 26-H ) :   0.9628 B( 25-C , 27-H ) :   0.9520 B( 25-C , 28-C ) :   1.0583
B( 28-C , 29-H ) :   0.9769 B( 28-C , 30-H ) :   0.9753 B( 28-C , 31-H ) :   0.9804

Dispersion correction           -0.014698387
FINAL SINGLE POINT ENERGY     -1339.850261033078

DIPOLE MOMENT
-------------
                                X             Y             Z
Electronic contribution:     -2.54607     -13.72848      25.26472
Nuclear contribution   :      2.95202      13.95496     -25.85558
                        -----------------------------------------
Total Dipole Moment    :      0.40595       0.22648      -0.59086
                        -----------------------------------------
Magnitude (a.u.)       :      0.75180
Magnitude (Debye)      :      1.91092

Rotational constants in cm-1:     0.018185     0.009463     0.006860
Rotational constants in MHz :   545.174288   283.706557   205.644083

                             ****ORCA TERMINATED NORMALLY****
TOTAL RUN TIME: 0 days 0 hours 0 minutes 34 seconds 781 msec
