                         Program Version 4.2.1 -  RELEASE  -
|  1> ! wB97X-D3 SP def2-SVP
|  2> %pal
|  3> nprocs 16
|  4> end
|  5>
|  6> * xyz 0 1
|  7> S 	 -9.60107 	 -9.82539 	 85.3307
|  8> C 	 -10.5783 	 -11.3054 	 85.1314
|  9> C 	 -11.8597 	 -11.0472 	 84.7483
| 10> C 	 -12.1053 	 -9.67572 	 84.6537
| 11> C 	 -11.0439 	 -8.85108 	 85.0083
| 12> H 	 -13.0423 	 -9.1423 	 84.471
| 13> C 	 -12.9299 	 -12.1265 	 84.2805
| 14> H 	 -13.9387 	 -11.7871 	 84.5972
| 15> H 	 -12.8514 	 -12.9854 	 84.9506
| 16> C 	 -12.9194 	 -12.4729 	 82.8151
| 17> H 	 -13.2915 	 -11.6641 	 82.2306
| 18> H 	 -11.8596 	 -12.5106 	 82.4633
| 19> C 	 -13.8352 	 -13.7257 	 82.4643
| 20> H 	 -14.0262 	 -13.834 	 81.3792
| 21> H 	 -13.4224 	 -14.7069 	 82.797
| 22> H 	 -14.791 	 -13.6281 	 82.9171
| 23> S 	 -10.0277 	 -6.92911 	 83.2103
| 24> C 	 -10.3406 	 -5.316 	 83.5965
| 25> C 	 -11.1384 	 -5.16559 	 84.7259
| 26> C 	 -11.4096 	 -6.38973 	 85.3959
| 27> C 	 -10.9191 	 -7.43511 	 84.6684
| 28> H 	 -11.3018 	 -4.21608 	 85.082
| 29> C 	 -12.2904 	 -6.39382 	 86.654
| 30> H 	 -11.6683 	 -6.12496 	 87.5618
| 31> H 	 -12.6642 	 -7.41593 	 86.8089
| 32> C 	 -13.4806 	 -5.44997 	 86.6504
| 33> H 	 -14.1927 	 -5.69785 	 85.8853
| 34> H 	 -13.3274 	 -4.39913 	 86.3888
| 35> C 	 -14.3044 	 -5.51262 	 87.9026
| 36> H 	 -14.9438 	 -4.68137 	 87.8956
| 37> H 	 -13.7016 	 -5.52618 	 88.7661
| 38> H 	 -15.0614 	 -6.30001 	 87.8772
| 39> H 	 -10.1947 	 -12.2497 	 84.9834
| 40> H 	 -10.0332 	 -4.49187 	 82.9103
| 41> *
| 42>
| 43>                          ****END OF INPUT****

CARTESIAN COORDINATES (ANGSTROEM)
---------------------------------
  S     -9.601070   -9.825390   85.330700
  C    -10.578300  -11.305400   85.131400
  C    -11.859700  -11.047200   84.748300
  C    -12.105300   -9.675720   84.653700
  C    -11.043900   -8.851080   85.008300
  H    -13.042300   -9.142300   84.471000
  C    -12.929900  -12.126500   84.280500
  H    -13.938700  -11.787100   84.597200
  H    -12.851400  -12.985400   84.950600
  C    -12.919400  -12.472900   82.815100
  H    -13.291500  -11.664100   82.230600
  H    -11.859600  -12.510600   82.463300
  C    -13.835200  -13.725700   82.464300
  H    -14.026200  -13.834000   81.379200
  H    -13.422400  -14.706900   82.797000
  H    -14.791000  -13.628100   82.917100
  S    -10.027700   -6.929110   83.210300
  C    -10.340600   -5.316000   83.596500
  C    -11.138400   -5.165590   84.725900
  C    -11.409600   -6.389730   85.395900
  C    -10.919100   -7.435110   84.668400
  H    -11.301800   -4.216080   85.082000
  C    -12.290400   -6.393820   86.654000
  H    -11.668300   -6.124960   87.561800
  H    -12.664200   -7.415930   86.808900
  C    -13.480600   -5.449970   86.650400
  H    -14.192700   -5.697850   85.885300
  H    -13.327400   -4.399130   86.388800
  C    -14.304400   -5.512620   87.902600
  H    -14.943800   -4.681370   87.895600
  H    -13.701600   -5.526180   88.766100
  H    -15.061400   -6.300010   87.877200
  H    -10.194700  -12.249700   84.983400
  H    -10.033200   -4.491870   82.910300

 Total Charge           Charge          ....    0
 Multiplicity           Mult            ....    1
 Number of Electrons    NEL             ....  134
 Basis Dimension        Dim             ....  322

ORBITAL ENERGIES
----------------

  NO   OCC          E(Eh)            E(eV)
   0   2.0000     -88.965898     -2420.8852
   1   2.0000     -88.965524     -2420.8750
   2   2.0000     -10.324860      -280.9537
   3   2.0000     -10.321763      -280.8695
   4   2.0000     -10.315887      -280.7096
   5   2.0000     -10.308414      -280.5062
   6   2.0000     -10.300503      -280.2909
   7   2.0000     -10.300421      -280.2887
   8   2.0000     -10.298773      -280.2439
   9   2.0000     -10.298419      -280.2342
  10   2.0000     -10.291647      -280.0499
  11   2.0000     -10.290867      -280.0287
  12   2.0000     -10.285530      -279.8835
  13   2.0000     -10.283353      -279.8243
  14   2.0000     -10.280202      -279.7385
  15   2.0000     -10.267331      -279.3883
  16   2.0000      -8.081464      -219.9078
  17   2.0000      -8.079411      -219.8519
  18   2.0000      -6.039791      -164.3511
  19   2.0000      -6.037884      -164.2992
  20   2.0000      -6.035927      -164.2459
  21   2.0000      -6.034118      -164.1967
  22   2.0000      -6.032299      -164.1472
  23   2.0000      -6.030181      -164.0896
  24   2.0000      -1.006145       -27.3786
  25   2.0000      -0.983970       -26.7752
  26   2.0000      -0.914640       -24.8886
  27   2.0000      -0.904353       -24.6087
  28   2.0000      -0.868404       -23.6305
  29   2.0000      -0.857538       -23.3348
  30   2.0000      -0.841965       -22.9110
  31   2.0000      -0.808495       -22.0003
  32   2.0000      -0.786857       -21.4115
  33   2.0000      -0.775536       -21.1034
  34   2.0000      -0.705882       -19.2080
  35   2.0000      -0.703342       -19.1389
  36   2.0000      -0.696847       -18.9622
  37   2.0000      -0.657656       -17.8957
  38   2.0000      -0.643934       -17.5223
  39   2.0000      -0.614795       -16.7294
  40   2.0000      -0.602181       -16.3862
  41   2.0000      -0.569273       -15.4907
  42   2.0000      -0.564505       -15.3610
  43   2.0000      -0.549092       -14.9416
  44   2.0000      -0.531933       -14.4746
  45   2.0000      -0.524840       -14.2816
  46   2.0000      -0.514737       -14.0067
  47   2.0000      -0.508431       -13.8351
  48   2.0000      -0.505528       -13.7561
  49   2.0000      -0.496075       -13.4989
  50   2.0000      -0.487879       -13.2759
  51   2.0000      -0.472097       -12.8464
  52   2.0000      -0.469999       -12.7893
  53   2.0000      -0.467569       -12.7232
  54   2.0000      -0.457784       -12.4569
  55   2.0000      -0.453849       -12.3499
  56   2.0000      -0.447042       -12.1646
  57   2.0000      -0.440814       -11.9952
  58   2.0000      -0.439038       -11.9468
  59   2.0000      -0.428213       -11.6523
  60   2.0000      -0.420641       -11.4462
  61   2.0000      -0.411528       -11.1982
  62   2.0000      -0.409240       -11.1360
  63   2.0000      -0.338733        -9.2174
  64   2.0000      -0.333779        -9.0826
  65   2.0000      -0.325306        -8.8520
  66   2.0000      -0.302702        -8.2369
  67   0.0000       0.035840         0.9753
  68   0.0000       0.058684         1.5969
  69   0.0000       0.116949         3.1823
  70   0.0000       0.120886         3.2895
  71   0.0000       0.130630         3.5546

MULLIKEN ATOMIC CHARGES
-----------------------
   0 S :    0.097216
   1 C :   -0.078944
   2 C :   -0.085458
   3 C :    0.035370
   4 C :   -0.189519
   5 H :    0.018251
   6 C :    0.056107
   7 H :    0.017747
   8 H :    0.022020
   9 C :   -0.046567
  10 H :    0.021905
  11 H :    0.035728
  12 C :   -0.061290
  13 H :    0.039953
  14 H :    0.038811
  15 H :    0.025262
  16 S :    0.133801
  17 C :   -0.112974
  18 C :   -0.007043
  19 C :   -0.005087
  20 C :   -0.194818
  21 H :   -0.014225
  22 C :    0.091556
  23 H :    0.044545
  24 H :    0.029965
  25 C :   -0.105722
  26 H :    0.013809
  27 H :    0.025634
  28 C :    0.007913
  29 H :    0.006764
  30 H :    0.022043
  31 H :    0.024316
  32 H :    0.019297
  33 H :    0.073634
Sum of atomic charges:   -0.0000000

LOEWDIN ATOMIC CHARGES
----------------------
   0 S :    0.385703
   1 C :   -0.172139
   2 C :   -0.064225
   3 C :   -0.058770
   4 C :   -0.191970
   5 H :    0.034730
   6 C :   -0.031048
   7 H :    0.029892
   8 H :    0.028270
   9 C :   -0.043654
  10 H :    0.022422
  11 H :    0.029950
  12 C :   -0.065809
  13 H :    0.030324
  14 H :    0.027974
  15 H :    0.020072
  16 S :    0.420763
  17 C :   -0.202938
  18 C :   -0.068693
  19 C :   -0.048933
  20 C :   -0.203087
  21 H :    0.014436
  22 C :   -0.027867
  23 H :    0.040967
  24 H :    0.033534
  25 C :   -0.050154
  26 H :    0.024339
  27 H :    0.022623
  28 C :   -0.053703
  29 H :    0.022753
  30 H :    0.017257
  31 H :    0.027134
  32 H :    0.012693
  33 H :    0.037153

  Mayer bond orders larger than 0.100000
B(  0-S ,  1-C ) :   1.1398 B(  0-S ,  4-C ) :   1.1459 B(  1-C ,  2-C ) :   1.6323
B(  1-C , 32-H ) :   0.9684 B(  2-C ,  3-C ) :   1.2487 B(  2-C ,  6-C ) :   1.0063
B(  3-C ,  4-C ) :   1.5883 B(  3-C ,  5-H ) :   0.9888 B(  4-C , 20-C ) :   1.0199
B(  6-C ,  7-H ) :   0.9388 B(  6-C ,  8-H ) :   0.9487 B(  6-C ,  9-C ) :   1.0576
B(  9-C , 10-H ) :   0.9523 B(  9-C , 11-H ) :   0.9595 B(  9-C , 12-C ) :   1.0642
B( 12-C , 13-H ) :   0.9779 B( 12-C , 14-H ) :   0.9792 B( 12-C , 15-H ) :   0.9754
B( 16-S , 17-C ) :   1.1754 B( 16-S , 20-C ) :   1.1379 B( 17-C , 18-C ) :   1.6035
B( 17-C , 33-H ) :   0.9586 B( 18-C , 19-C ) :   1.2371 B( 18-C , 21-H ) :   1.0013
B( 19-C , 20-C ) :   1.6277 B( 19-C , 22-C ) :   1.0355 B( 22-C , 23-H ) :   0.9259
B( 22-C , 24-H ) :   0.9357 B( 22-C , 25-C ) :   1.0680 B( 25-C , 26-H ) :   0.9481
B( 25-C , 27-H ) :   0.9525 B( 25-C , 28-C ) :   1.0974 B( 28-C , 29-H ) :   0.9660
B( 28-C , 30-H ) :   0.9746 B( 28-C , 31-H ) :   0.9736

Dispersion correction           -0.013456752
FINAL SINGLE POINT ENERGY     -1339.864819591390

DIPOLE MOMENT
-------------
                                X             Y             Z
Electronic contribution:     23.91795       6.39519      -4.32350
Nuclear contribution   :    -24.55214      -6.30695       4.20881
                        -----------------------------------------
Total Dipole Moment    :     -0.63418       0.08823      -0.11469
                        -----------------------------------------
Magnitude (a.u.)       :      0.65048
Magnitude (Debye)      :      1.65340

Rotational constants in cm-1:     0.017927     0.007404     0.006346
Rotational constants in MHz :   537.449868   221.970666   190.256258

                             ****ORCA TERMINATED NORMALLY****
TOTAL RUN TIME: 0 days 0 hours 0 minutes 32 seconds 372 msec
