                         Program Version 4.2.1 -  RELEASE  -
|  1> ! wB97X-D3 SP def2-SVP
|  2> %pal
|  3> nprocs 16
|  4> end
|  5>
|  6> * xyz 0 1
|  7> S 	 29.9116 	 18.2065 	 72.4921
|  8> C 	 28.8427 	 16.9337 	 73.0351
|  9> C 	 29.5577 	 15.7586 	 72.8441
| 10> C 	 30.8059 	 15.9336 	 72.1606
| 11> C 	 31.1076 	 17.2091 	 71.8708
| 12> H 	 31.3921 	 15.1297 	 71.7403
| 13> C 	 29.0392 	 14.3618 	 73.2629
| 14> H 	 28.9157 	 14.4386 	 74.3118
| 15> H 	 29.7998 	 13.5449 	 72.858
| 16> C 	 27.6179 	 13.939 	 72.7537
| 17> H 	 26.9798 	 14.7349 	 72.9714
| 18> H 	 27.5251 	 13.8927 	 71.6034
| 19> C 	 27.275 	 12.5921 	 73.436
| 20> H 	 26.2138 	 12.4419 	 73.5736
| 21> H 	 27.6071 	 11.7572 	 72.837
| 22> H 	 27.6511 	 12.5078 	 74.4527
| 23> S 	 32.2665 	 18.4221 	 69.6753
| 24> C 	 33.9846 	 18.605 	 69.7302
| 25> C 	 34.5599 	 18.2297 	 70.8754
| 26> C 	 33.6581 	 17.6413 	 71.7991
| 27> C 	 32.3662 	 17.6449 	 71.2456
| 28> H 	 35.6245 	 18.4791 	 71.0457
| 29> C 	 34.0843 	 17.0132 	 73.1289
| 30> H 	 33.2414 	 17.2287 	 73.8466
| 31> H 	 34.8484 	 17.5526 	 73.5318
| 32> C 	 34.4623 	 15.5051 	 73.1302
| 33> H 	 35.2605 	 15.5192 	 72.3861
| 34> H 	 33.6988 	 14.7761 	 72.7691
| 35> C 	 34.9045 	 14.8908 	 74.4774
| 36> H 	 34.3828 	 15.3638 	 75.3097
| 37> H 	 36.0131 	 15.0058 	 74.6076
| 38> H 	 34.7256 	 13.7753 	 74.45
| 39> H 	 27.8806 	 17.0676 	 73.2898
| 40> H 	 34.4945 	 18.9592 	 68.8894
| 41> *
| 42>
| 43>                          ****END OF INPUT****

CARTESIAN COORDINATES (ANGSTROEM)
---------------------------------
  S     29.911600   18.206500   72.492100
  C     28.842700   16.933700   73.035100
  C     29.557700   15.758600   72.844100
  C     30.805900   15.933600   72.160600
  C     31.107600   17.209100   71.870800
  H     31.392100   15.129700   71.740300
  C     29.039200   14.361800   73.262900
  H     28.915700   14.438600   74.311800
  H     29.799800   13.544900   72.858000
  C     27.617900   13.939000   72.753700
  H     26.979800   14.734900   72.971400
  H     27.525100   13.892700   71.603400
  C     27.275000   12.592100   73.436000
  H     26.213800   12.441900   73.573600
  H     27.607100   11.757200   72.837000
  H     27.651100   12.507800   74.452700
  S     32.266500   18.422100   69.675300
  C     33.984600   18.605000   69.730200
  C     34.559900   18.229700   70.875400
  C     33.658100   17.641300   71.799100
  C     32.366200   17.644900   71.245600
  H     35.624500   18.479100   71.045700
  C     34.084300   17.013200   73.128900
  H     33.241400   17.228700   73.846600
  H     34.848400   17.552600   73.531800
  C     34.462300   15.505100   73.130200
  H     35.260500   15.519200   72.386100
  H     33.698800   14.776100   72.769100
  C     34.904500   14.890800   74.477400
  H     34.382800   15.363800   75.309700
  H     36.013100   15.005800   74.607600
  H     34.725600   13.775300   74.450000
  H     27.880600   17.067600   73.289800
  H     34.494500   18.959200   68.889400

 Total Charge           Charge          ....    0
 Multiplicity           Mult            ....    1
 Number of Electrons    NEL             ....  134
 Basis Dimension        Dim             ....  322

ORBITAL ENERGIES
----------------

  NO   OCC          E(Eh)            E(eV)
   0   2.0000     -88.966716     -2420.9074
   1   2.0000     -88.958585     -2420.6862
   2   2.0000     -10.327163      -281.0164
   3   2.0000     -10.316369      -280.7227
   4   2.0000     -10.307290      -280.4756
   5   2.0000     -10.307257      -280.4747
   6   2.0000     -10.305713      -280.4327
   7   2.0000     -10.300622      -280.2942
   8   2.0000     -10.298900      -280.2473
   9   2.0000     -10.291250      -280.0391
  10   2.0000     -10.291181      -280.0373
  11   2.0000     -10.290691      -280.0239
  12   2.0000     -10.290001      -280.0052
  13   2.0000     -10.286170      -279.9009
  14   2.0000     -10.282685      -279.8061
  15   2.0000     -10.277553      -279.6664
  16   2.0000      -8.082087      -219.9248
  17   2.0000      -8.074833      -219.7274
  18   2.0000      -6.040322      -164.3655
  19   2.0000      -6.036707      -164.2671
  20   2.0000      -6.033262      -164.1734
  21   2.0000      -6.032907      -164.1637
  22   2.0000      -6.028883      -164.0542
  23   2.0000      -6.025797      -163.9703
  24   2.0000      -1.013854       -27.5884
  25   2.0000      -0.991926       -26.9917
  26   2.0000      -0.905691       -24.6451
  27   2.0000      -0.904425       -24.6107
  28   2.0000      -0.870415       -23.6852
  29   2.0000      -0.852196       -23.1894
  30   2.0000      -0.843025       -22.9399
  31   2.0000      -0.818659       -22.2768
  32   2.0000      -0.782549       -21.2943
  33   2.0000      -0.769907       -20.9502
  34   2.0000      -0.708327       -19.2746
  35   2.0000      -0.701163       -19.0796
  36   2.0000      -0.692668       -18.8485
  37   2.0000      -0.658613       -17.9218
  38   2.0000      -0.648221       -17.6390
  39   2.0000      -0.616482       -16.7753
  40   2.0000      -0.599746       -16.3199
  41   2.0000      -0.571316       -15.5463
  42   2.0000      -0.563622       -15.3369
  43   2.0000      -0.558270       -15.1913
  44   2.0000      -0.526778       -14.3343
  45   2.0000      -0.522787       -14.2257
  46   2.0000      -0.518685       -14.1141
  47   2.0000      -0.513751       -13.9799
  48   2.0000      -0.508705       -13.8426
  49   2.0000      -0.498287       -13.5591
  50   2.0000      -0.493657       -13.4331
  51   2.0000      -0.476102       -12.9554
  52   2.0000      -0.471142       -12.8204
  53   2.0000      -0.464543       -12.6409
  54   2.0000      -0.458821       -12.4852
  55   2.0000      -0.451365       -12.2823
  56   2.0000      -0.443165       -12.0591
  57   2.0000      -0.437811       -11.9135
  58   2.0000      -0.433632       -11.7997
  59   2.0000      -0.426299       -11.6002
  60   2.0000      -0.416075       -11.3220
  61   2.0000      -0.410145       -11.1606
  62   2.0000      -0.405332       -11.0296
  63   2.0000      -0.341240        -9.2856
  64   2.0000      -0.329673        -8.9709
  65   2.0000      -0.324440        -8.8285
  66   2.0000      -0.305437        -8.3114
  67   0.0000       0.041063         1.1174
  68   0.0000       0.067274         1.8306
  69   0.0000       0.115339         3.1385
  70   0.0000       0.124970         3.4006
  71   0.0000       0.134091         3.6488

MULLIKEN ATOMIC CHARGES
-----------------------
   0 S :    0.107120
   1 C :   -0.096268
   2 C :   -0.066335
   3 C :    0.015397
   4 C :   -0.129445
   5 H :    0.011849
   6 C :    0.023349
   7 H :    0.035089
   8 H :    0.049099
   9 C :   -0.086192
  10 H :    0.008919
  11 H :    0.043541
  12 C :   -0.033827
  13 H :    0.024585
  14 H :    0.038493
  15 H :    0.026787
  16 S :    0.120133
  17 C :   -0.067704
  18 C :   -0.039471
  19 C :   -0.021535
  20 C :   -0.211509
  21 H :    0.029238
  22 C :    0.122173
  23 H :    0.032279
  24 H :   -0.007279
  25 C :   -0.085465
  26 H :    0.023788
  27 H :    0.035115
  28 C :   -0.067464
  29 H :    0.041935
  30 H :    0.038023
  31 H :    0.044861
  32 H :    0.008329
  33 H :    0.032392
Sum of atomic charges:   -0.0000000

LOEWDIN ATOMIC CHARGES
----------------------
   0 S :    0.435123
   1 C :   -0.187895
   2 C :   -0.059104
   3 C :   -0.075106
   4 C :   -0.223941
   5 H :    0.029791
   6 C :   -0.033870
   7 H :    0.027677
   8 H :    0.041754
   9 C :   -0.042175
  10 H :    0.008552
  11 H :    0.034020
  12 C :   -0.066010
  13 H :    0.025179
  14 H :    0.027904
  15 H :    0.025779
  16 S :    0.415307
  17 C :   -0.176385
  18 C :   -0.077912
  19 C :   -0.043975
  20 C :   -0.194255
  21 H :    0.040002
  22 C :   -0.026337
  23 H :    0.036780
  24 H :    0.016355
  25 C :   -0.045136
  26 H :    0.022871
  27 H :    0.027471
  28 C :   -0.071951
  29 H :    0.026303
  30 H :    0.028456
  31 H :    0.034755
  32 H :    0.004041
  33 H :    0.015932

  Mayer bond orders larger than 0.100000
B(  0-S ,  1-C ) :   1.1410 B(  0-S ,  4-C ) :   1.1834 B(  1-C ,  2-C ) :   1.5617
B(  1-C , 32-H ) :   0.9992 B(  2-C ,  3-C ) :   1.2655 B(  2-C ,  6-C ) :   1.0039
B(  3-C ,  4-C ) :   1.5661 B(  3-C ,  5-H ) :   0.9971 B(  4-C , 20-C ) :   0.9975
B(  6-C ,  7-H ) :   0.9364 B(  6-C ,  8-H ) :   0.9546 B(  6-C ,  9-C ) :   1.0642
B(  9-C , 10-H ) :   0.9583 B(  9-C , 11-H ) :   0.9584 B(  9-C , 12-C ) :   1.0666
B( 12-C , 13-H ) :   0.9734 B( 12-C , 14-H ) :   0.9776 B( 12-C , 15-H ) :   0.9751
B( 16-S , 17-C ) :   1.1530 B( 16-S , 20-C ) :   1.1599 B( 17-C , 18-C ) :   1.6314
B( 17-C , 33-H ) :   0.9714 B( 18-C , 19-C ) :   1.2326 B( 18-C , 21-H ) :   0.9849
B( 19-C , 20-C ) :   1.6015 B( 19-C , 22-C ) :   1.0498 B( 22-C , 23-H ) :   0.9199
B( 22-C , 24-H ) :   0.9282 B( 22-C , 25-C ) :   1.0534 B( 25-C , 26-H ) :   0.9581
B( 25-C , 27-H ) :   0.9619 B( 25-C , 28-C ) :   1.0672 B( 28-C , 29-H ) :   0.9765
B( 28-C , 30-H ) :   0.9767 B( 28-C , 31-H ) :   0.9791

Dispersion correction           -0.013951979
FINAL SINGLE POINT ENERGY     -1339.857014213973

DIPOLE MOMENT
-------------
                                X             Y             Z
Electronic contribution:      0.08050      25.25609     -15.24691
Nuclear contribution   :      0.12408     -25.70380      15.44056
                        -----------------------------------------
Total Dipole Moment    :      0.20458      -0.44771       0.19365
                        -----------------------------------------
Magnitude (a.u.)       :      0.52897
Magnitude (Debye)      :      1.34452

Rotational constants in cm-1:     0.018401     0.008137     0.006386
Rotational constants in MHz :   551.633316   243.938685   191.449370

                             ****ORCA TERMINATED NORMALLY****
TOTAL RUN TIME: 0 days 0 hours 0 minutes 31 seconds 346 msec
