                         Program Version 4.2.1 -  RELEASE  -
|  1> ! wB97X-D3 SP def2-SVP
|  2> %pal
|  3> nprocs 16
|  4> end
|  5>
|  6> * xyz 0 1
|  7> S 	 5.82416 	 79.0742 	 47.2598
|  8> C 	 5.71879 	 77.4588 	 46.4789
|  9> C 	 6.49115 	 76.5757 	 47.1742
| 10> C 	 7.31403 	 77.2119 	 48.1486
| 11> C 	 7.04383 	 78.5846 	 48.2535
| 12> H 	 7.97676 	 76.7385 	 48.8581
| 13> C 	 6.70517 	 75.1492 	 46.8906
| 14> H 	 7.75655 	 74.9634 	 47.1615
| 15> H 	 6.76067 	 74.8824 	 45.8042
| 16> C 	 5.92957 	 74.169 	 47.6893
| 17> H 	 6.08554 	 74.3817 	 48.7294
| 18> H 	 4.87688 	 74.2689 	 47.4814
| 19> C 	 6.26097 	 72.6942 	 47.4856
| 20> H 	 5.81009 	 72.2762 	 46.5877
| 21> H 	 7.38598 	 72.5038 	 47.4706
| 22> H 	 5.88763 	 72.0892 	 48.3043
| 23> S 	 8.91609 	 80.5707 	 48.5786
| 24> C 	 9.36545 	 81.1161 	 50.0776
| 25> C 	 8.7159 	 80.4712 	 51.0925
| 26> C 	 7.64955 	 79.6095 	 50.6057
| 27> C 	 7.69158 	 79.53 	 49.1907
| 28> H 	 8.99832 	 80.5822 	 52.1053
| 29> C 	 6.78316 	 78.761 	 51.4877
| 30> H 	 7.25448 	 78.8548 	 52.4374
| 31> H 	 6.78724 	 77.7272 	 51.2204
| 32> C 	 5.30117 	 79.1864 	 51.6562
| 33> H 	 4.82336 	 78.4965 	 52.3572
| 34> H 	 4.65421 	 79.0189 	 50.7781
| 35> C 	 5.10782 	 80.626 	 52.1659
| 36> H 	 5.50688 	 80.6935 	 53.1444
| 37> H 	 4.04801 	 81.0456 	 52.1502
| 38> H 	 5.55506 	 81.2969 	 51.5335
| 39> H 	 4.89531 	 77.1728 	 45.7594
| 40> H 	 10.1126 	 81.9126 	 50.3832
| 41> *
| 42>
| 43>                          ****END OF INPUT****

CARTESIAN COORDINATES (ANGSTROEM)
---------------------------------
  S      5.824160   79.074200   47.259800
  C      5.718790   77.458800   46.478900
  C      6.491150   76.575700   47.174200
  C      7.314030   77.211900   48.148600
  C      7.043830   78.584600   48.253500
  H      7.976760   76.738500   48.858100
  C      6.705170   75.149200   46.890600
  H      7.756550   74.963400   47.161500
  H      6.760670   74.882400   45.804200
  C      5.929570   74.169000   47.689300
  H      6.085540   74.381700   48.729400
  H      4.876880   74.268900   47.481400
  C      6.260970   72.694200   47.485600
  H      5.810090   72.276200   46.587700
  H      7.385980   72.503800   47.470600
  H      5.887630   72.089200   48.304300
  S      8.916090   80.570700   48.578600
  C      9.365450   81.116100   50.077600
  C      8.715900   80.471200   51.092500
  C      7.649550   79.609500   50.605700
  C      7.691580   79.530000   49.190700
  H      8.998320   80.582200   52.105300
  C      6.783160   78.761000   51.487700
  H      7.254480   78.854800   52.437400
  H      6.787240   77.727200   51.220400
  C      5.301170   79.186400   51.656200
  H      4.823360   78.496500   52.357200
  H      4.654210   79.018900   50.778100
  C      5.107820   80.626000   52.165900
  H      5.506880   80.693500   53.144400
  H      4.048010   81.045600   52.150200
  H      5.555060   81.296900   51.533500
  H      4.895310   77.172800   45.759400
  H     10.112600   81.912600   50.383200

 Total Charge           Charge          ....    0
 Multiplicity           Mult            ....    1
 Number of Electrons    NEL             ....  134
 Basis Dimension        Dim             ....  322

ORBITAL ENERGIES
----------------

  NO   OCC          E(Eh)            E(eV)
   0   2.0000     -88.966523     -2420.9022
   1   2.0000     -88.965725     -2420.8805
   2   2.0000     -10.324976      -280.9569
   3   2.0000     -10.323392      -280.9138
   4   2.0000     -10.317662      -280.7579
   5   2.0000     -10.312645      -280.6213
   6   2.0000     -10.305432      -280.4251
   7   2.0000     -10.298615      -280.2396
   8   2.0000     -10.291717      -280.0518
   9   2.0000     -10.288841      -279.9736
  10   2.0000     -10.287559      -279.9387
  11   2.0000     -10.286497      -279.9098
  12   2.0000     -10.284319      -279.8506
  13   2.0000     -10.282088      -279.7898
  14   2.0000     -10.280357      -279.7427
  15   2.0000     -10.266350      -279.3616
  16   2.0000      -8.082536      -219.9370
  17   2.0000      -8.082508      -219.9362
  18   2.0000      -6.040793      -164.3783
  19   2.0000      -6.040780      -164.3780
  20   2.0000      -6.036770      -164.2689
  21   2.0000      -6.036539      -164.2626
  22   2.0000      -6.033652      -164.1840
  23   2.0000      -6.033474      -164.1792
  24   2.0000      -1.015772       -27.6406
  25   2.0000      -0.994859       -27.0715
  26   2.0000      -0.924059       -25.1449
  27   2.0000      -0.908384       -24.7184
  28   2.0000      -0.871885       -23.7252
  29   2.0000      -0.848787       -23.0967
  30   2.0000      -0.847761       -23.0687
  31   2.0000      -0.811053       -22.0699
  32   2.0000      -0.788108       -21.4455
  33   2.0000      -0.776483       -21.1292
  34   2.0000      -0.708807       -19.2876
  35   2.0000      -0.701333       -19.0843
  36   2.0000      -0.686425       -18.6786
  37   2.0000      -0.658310       -17.9135
  38   2.0000      -0.641182       -17.4474
  39   2.0000      -0.620725       -16.8908
  40   2.0000      -0.592188       -16.1143
  41   2.0000      -0.576182       -15.6787
  42   2.0000      -0.565459       -15.3869
  43   2.0000      -0.553040       -15.0490
  44   2.0000      -0.542061       -14.7502
  45   2.0000      -0.525582       -14.3018
  46   2.0000      -0.516748       -14.0614
  47   2.0000      -0.512924       -13.9574
  48   2.0000      -0.506801       -13.7908
  49   2.0000      -0.499227       -13.5847
  50   2.0000      -0.487074       -13.2540
  51   2.0000      -0.478407       -13.0181
  52   2.0000      -0.475795       -12.9471
  53   2.0000      -0.465024       -12.6539
  54   2.0000      -0.461045       -12.5457
  55   2.0000      -0.452148       -12.3036
  56   2.0000      -0.440043       -11.9742
  57   2.0000      -0.436936       -11.8896
  58   2.0000      -0.433133       -11.7862
  59   2.0000      -0.427500       -11.6329
  60   2.0000      -0.424247       -11.5443
  61   2.0000      -0.411361       -11.1937
  62   2.0000      -0.409032       -11.1303
  63   2.0000      -0.336158        -9.1473
  64   2.0000      -0.331304        -9.0152
  65   2.0000      -0.321747        -8.7552
  66   2.0000      -0.308637        -8.3984
  67   0.0000       0.043486         1.1833
  68   0.0000       0.063097         1.7170
  69   0.0000       0.115194         3.1346
  70   0.0000       0.120146         3.2693
  71   0.0000       0.124452         3.3865

MULLIKEN ATOMIC CHARGES
-----------------------
   0 S :    0.122591
   1 C :   -0.152588
   2 C :   -0.055155
   3 C :    0.041875
   4 C :   -0.165917
   5 H :    0.012252
   6 C :    0.036749
   7 H :    0.010511
   8 H :    0.032278
   9 C :   -0.039725
  10 H :    0.015949
  11 H :    0.021030
  12 C :   -0.060762
  13 H :    0.033718
  14 H :    0.032270
  15 H :    0.033307
  16 S :    0.145662
  17 C :   -0.093201
  18 C :   -0.049782
  19 C :   -0.049017
  20 C :   -0.187603
  21 H :    0.004735
  22 C :    0.125817
  23 H :    0.000896
  24 H :    0.024027
  25 C :   -0.078175
  26 H :    0.022111
  27 H :    0.029758
  28 C :   -0.036942
  29 H :    0.020415
  30 H :    0.035182
  31 H :    0.019871
  32 H :    0.072165
  33 H :    0.075697
Sum of atomic charges:   -0.0000000

LOEWDIN ATOMIC CHARGES
----------------------
   0 S :    0.442752
   1 C :   -0.198549
   2 C :   -0.063866
   3 C :   -0.064937
   4 C :   -0.229307
   5 H :    0.030193
   6 C :   -0.042418
   7 H :    0.032578
   8 H :    0.035099
   9 C :   -0.041021
  10 H :    0.022154
  11 H :    0.022301
  12 C :   -0.067402
  13 H :    0.023516
  14 H :    0.029259
  15 H :    0.026985
  16 S :    0.468053
  17 C :   -0.229644
  18 C :   -0.077724
  19 C :   -0.049015
  20 C :   -0.224897
  21 H :    0.023328
  22 C :   -0.027710
  23 H :    0.026680
  24 H :    0.030515
  25 C :   -0.039131
  26 H :    0.022957
  27 H :    0.024240
  28 C :   -0.063977
  29 H :    0.018079
  30 H :    0.036308
  31 H :    0.013080
  32 H :    0.041845
  33 H :    0.049677

  Mayer bond orders larger than 0.100000
B(  0-S ,  1-C ) :   1.1270 B(  0-S ,  4-C ) :   1.2138 B(  1-C ,  2-C ) :   1.6054
B(  1-C , 32-H ) :   0.9635 B(  2-C ,  3-C ) :   1.2502 B(  2-C ,  6-C ) :   1.0237
B(  3-C ,  4-C ) :   1.5491 B(  3-C ,  5-H ) :   0.9953 B(  4-C , 20-C ) :   0.9808
B(  6-C ,  7-H ) :   0.9304 B(  6-C ,  8-H ) :   0.9459 B(  6-C ,  9-C ) :   1.0717
B(  9-C , 10-H ) :   0.9509 B(  9-C , 11-H ) :   0.9513 B(  9-C , 12-C ) :   1.0873
B( 12-C , 13-H ) :   0.9756 B( 12-C , 14-H ) :   0.9729 B( 12-C , 15-H ) :   0.9741
B( 16-S , 17-C ) :   1.1889 B( 16-S , 20-C ) :   1.1815 B( 17-C , 18-C ) :   1.5856
B( 17-C , 33-H ) :   0.9538 B( 18-C , 19-C ) :   1.2726 B( 18-C , 21-H ) :   0.9927
B( 19-C , 20-C ) :   1.5510 B( 19-C , 22-C ) :   1.0437 B( 22-C , 23-H ) :   0.9271
B( 22-C , 24-H ) :   0.9299 B( 22-C , 25-C ) :   1.0717 B( 25-C , 26-H ) :   0.9561
B( 25-C , 27-H ) :   0.9580 B( 25-C , 28-C ) :   1.0709 B( 28-C , 29-H ) :   0.9772
B( 28-C , 30-H ) :   0.9727 B( 28-C , 31-H ) :   0.9751

Dispersion correction           -0.014459008
FINAL SINGLE POINT ENERGY     -1339.871904513585

DIPOLE MOMENT
-------------
                                X             Y             Z
Electronic contribution:      9.46758      19.91726     -11.32759
Nuclear contribution   :     -9.48699     -20.40659      11.72121
                        -----------------------------------------
Total Dipole Moment    :     -0.01942      -0.48933       0.39362
                        -----------------------------------------
Magnitude (a.u.)       :      0.62830
Magnitude (Debye)      :      1.59701

Rotational constants in cm-1:     0.020271     0.007814     0.007024
Rotational constants in MHz :   607.699929   234.252642   210.564163

                             ****ORCA TERMINATED NORMALLY****
TOTAL RUN TIME: 0 days 0 hours 0 minutes 33 seconds 489 msec
