                         Program Version 4.2.1 -  RELEASE  -
|  1> ! wB97X-D3 SP def2-SVP
|  2> %pal
|  3> nprocs 16
|  4> end
|  5>
|  6> * xyz 0 1
|  7> S 	 -36.3955 	 25.8196 	 83.9399
|  8> C 	 -37.9464 	 24.921 	 84.0315
|  9> C 	 -37.8826 	 23.7812 	 84.7486
| 10> C 	 -36.5007 	 23.5321 	 85.2335
| 11> C 	 -35.6962 	 24.6835 	 85.0611
| 12> H 	 -36.1074 	 22.8262 	 85.793
| 13> C 	 -38.9666 	 22.6981 	 84.7974
| 14> H 	 -39.031 	 22.1906 	 83.8645
| 15> H 	 -39.939 	 23.1914 	 84.9634
| 16> C 	 -38.7662 	 21.5418 	 85.8546
| 17> H 	 -39.3925 	 20.747 	 85.4828
| 18> H 	 -37.7709 	 21.1146 	 86.0101
| 19> C 	 -39.1411 	 22.0577 	 87.276
| 20> H 	 -38.4084 	 22.7427 	 87.6559
| 21> H 	 -40.1701 	 22.5045 	 87.3489
| 22> H 	 -39.063 	 21.278 	 88.0066
| 23> S 	 -33.8441 	 25.2408 	 87.0661
| 24> C 	 -32.1811 	 25.5697 	 86.6376
| 25> C 	 -31.9862 	 25.2594 	 85.2822
| 26> C 	 -33.142 	 24.7257 	 84.6147
| 27> C 	 -34.2792 	 24.8021 	 85.431
| 28> H 	 -30.9753 	 25.2935 	 84.9251
| 29> C 	 -33.1311 	 24.3209 	 83.1715
| 30> H 	 -33.8173 	 23.5145 	 82.9272
| 31> H 	 -32.0822 	 24.0288 	 83.0192
| 32> C 	 -33.4696 	 25.4174 	 82.143
| 33> H 	 -33.0751 	 26.3898 	 82.481
| 34> H 	 -34.474 	 25.4052 	 81.8799
| 35> C 	 -32.6422 	 25.2416 	 80.8464
| 36> H 	 -32.6638 	 26.0263 	 80.1297
| 37> H 	 -32.8834 	 24.4058 	 80.2213
| 38> H 	 -31.5679 	 25.2257 	 80.9596
| 39> H 	 -38.8223 	 25.1743 	 83.5102
| 40> H 	 -31.3938 	 25.8564 	 87.3503
| 41> *
| 42>
| 43>                          ****END OF INPUT****

CARTESIAN COORDINATES (ANGSTROEM)
---------------------------------
  S    -36.395500   25.819600   83.939900
  C    -37.946400   24.921000   84.031500
  C    -37.882600   23.781200   84.748600
  C    -36.500700   23.532100   85.233500
  C    -35.696200   24.683500   85.061100
  H    -36.107400   22.826200   85.793000
  C    -38.966600   22.698100   84.797400
  H    -39.031000   22.190600   83.864500
  H    -39.939000   23.191400   84.963400
  C    -38.766200   21.541800   85.854600
  H    -39.392500   20.747000   85.482800
  H    -37.770900   21.114600   86.010100
  C    -39.141100   22.057700   87.276000
  H    -38.408400   22.742700   87.655900
  H    -40.170100   22.504500   87.348900
  H    -39.063000   21.278000   88.006600
  S    -33.844100   25.240800   87.066100
  C    -32.181100   25.569700   86.637600
  C    -31.986200   25.259400   85.282200
  C    -33.142000   24.725700   84.614700
  C    -34.279200   24.802100   85.431000
  H    -30.975300   25.293500   84.925100
  C    -33.131100   24.320900   83.171500
  H    -33.817300   23.514500   82.927200
  H    -32.082200   24.028800   83.019200
  C    -33.469600   25.417400   82.143000
  H    -33.075100   26.389800   82.481000
  H    -34.474000   25.405200   81.879900
  C    -32.642200   25.241600   80.846400
  H    -32.663800   26.026300   80.129700
  H    -32.883400   24.405800   80.221300
  H    -31.567900   25.225700   80.959600
  H    -38.822300   25.174300   83.510200
  H    -31.393800   25.856400   87.350300

 Total Charge           Charge          ....    0
 Multiplicity           Mult            ....    1
 Number of Electrons    NEL             ....  134
 Basis Dimension        Dim             ....  322

ORBITAL ENERGIES
----------------

  NO   OCC          E(Eh)            E(eV)
   0   2.0000     -88.967869     -2420.9388
   1   2.0000     -88.964303     -2420.8417
   2   2.0000     -10.331189      -281.1259
   3   2.0000     -10.324127      -280.9338
   4   2.0000     -10.321447      -280.8609
   5   2.0000     -10.310097      -280.5520
   6   2.0000     -10.305863      -280.4368
   7   2.0000     -10.303844      -280.3818
   8   2.0000     -10.297453      -280.2079
   9   2.0000     -10.295536      -280.1558
  10   2.0000     -10.292877      -280.0834
  11   2.0000     -10.292757      -280.0802
  12   2.0000     -10.288062      -279.9524
  13   2.0000     -10.280596      -279.7492
  14   2.0000     -10.275983      -279.6237
  15   2.0000     -10.266614      -279.3688
  16   2.0000      -8.081577      -219.9109
  17   2.0000      -8.078985      -219.8404
  18   2.0000      -6.040177      -164.3616
  19   2.0000      -6.037406      -164.2862
  20   2.0000      -6.036355      -164.2576
  21   2.0000      -6.033353      -164.1759
  22   2.0000      -6.032140      -164.1429
  23   2.0000      -6.029990      -164.0844
  24   2.0000      -1.001006       -27.2388
  25   2.0000      -0.978096       -26.6154
  26   2.0000      -0.908021       -24.7085
  27   2.0000      -0.905247       -24.6330
  28   2.0000      -0.866971       -23.5915
  29   2.0000      -0.848340       -23.0845
  30   2.0000      -0.840916       -22.8825
  31   2.0000      -0.814079       -22.1522
  32   2.0000      -0.784560       -21.3490
  33   2.0000      -0.773681       -21.0529
  34   2.0000      -0.712180       -19.3794
  35   2.0000      -0.700365       -19.0579
  36   2.0000      -0.690384       -18.7863
  37   2.0000      -0.660832       -17.9822
  38   2.0000      -0.649244       -17.6668
  39   2.0000      -0.616203       -16.7677
  40   2.0000      -0.597579       -16.2609
  41   2.0000      -0.568291       -15.4640
  42   2.0000      -0.566157       -15.4059
  43   2.0000      -0.552363       -15.0306
  44   2.0000      -0.533438       -14.5156
  45   2.0000      -0.523500       -14.2451
  46   2.0000      -0.519014       -14.1231
  47   2.0000      -0.507473       -13.8091
  48   2.0000      -0.504984       -13.7413
  49   2.0000      -0.496085       -13.4992
  50   2.0000      -0.485464       -13.2101
  51   2.0000      -0.476946       -12.9784
  52   2.0000      -0.468944       -12.7606
  53   2.0000      -0.465736       -12.6733
  54   2.0000      -0.456741       -12.4286
  55   2.0000      -0.447477       -12.1765
  56   2.0000      -0.442238       -12.0339
  57   2.0000      -0.436294       -11.8722
  58   2.0000      -0.435570       -11.8525
  59   2.0000      -0.431195       -11.7334
  60   2.0000      -0.420027       -11.4295
  61   2.0000      -0.414928       -11.2908
  62   2.0000      -0.408679       -11.1207
  63   2.0000      -0.332944        -9.0599
  64   2.0000      -0.328881        -8.9493
  65   2.0000      -0.323288        -8.7971
  66   2.0000      -0.304719        -8.2918
  67   0.0000       0.037725         1.0266
  68   0.0000       0.054626         1.4864
  69   0.0000       0.103154         2.8070
  70   0.0000       0.119920         3.2632
  71   0.0000       0.128795         3.5047

MULLIKEN ATOMIC CHARGES
-----------------------
   0 S :    0.114783
   1 C :   -0.102899
   2 C :   -0.053850
   3 C :    0.096693
   4 C :   -0.164398
   5 H :   -0.048578
   6 C :    0.055309
   7 H :    0.038670
   8 H :    0.034152
   9 C :   -0.081303
  10 H :    0.029051
  11 H :    0.038865
  12 C :   -0.059124
  13 H :    0.032720
  14 H :    0.039178
  15 H :    0.021097
  16 S :    0.114126
  17 C :   -0.116798
  18 C :   -0.038883
  19 C :   -0.027141
  20 C :   -0.191475
  21 H :    0.016665
  22 C :    0.086826
  23 H :    0.033077
  24 H :    0.019281
  25 C :   -0.019885
  26 H :    0.031142
  27 H :    0.029877
  28 C :   -0.063793
  29 H :    0.009847
  30 H :    0.017332
  31 H :    0.013969
  32 H :    0.022463
  33 H :    0.073003
Sum of atomic charges:    0.0000000

LOEWDIN ATOMIC CHARGES
----------------------
   0 S :    0.407928
   1 C :   -0.176281
   2 C :   -0.055567
   3 C :   -0.035844
   4 C :   -0.189398
   5 H :    0.000565
   6 C :   -0.027248
   7 H :    0.029524
   8 H :    0.035538
   9 C :   -0.037992
  10 H :    0.023414
  11 H :    0.027730
  12 C :   -0.069175
  13 H :    0.024491
  14 H :    0.028547
  15 H :    0.020397
  16 S :    0.412709
  17 C :   -0.192950
  18 C :   -0.073061
  19 C :   -0.056036
  20 C :   -0.213369
  21 H :    0.027803
  22 C :   -0.031088
  23 H :    0.035376
  24 H :    0.034265
  25 C :   -0.030493
  26 H :    0.029701
  27 H :    0.008162
  28 C :   -0.073631
  29 H :    0.021141
  30 H :    0.018295
  31 H :    0.021338
  32 H :    0.018206
  33 H :    0.037002

  Mayer bond orders larger than 0.100000
B(  0-S ,  1-C ) :   1.1153 B(  0-S ,  4-C ) :   1.1447 B(  1-C ,  2-C ) :   1.6780
B(  1-C , 32-H ) :   0.9727 B(  2-C ,  3-C ) :   1.1768 B(  2-C ,  6-C ) :   1.0065
B(  3-C ,  4-C ) :   1.6191 B(  3-C ,  5-H ) :   1.0003 B(  4-C , 20-C ) :   1.0154
B(  6-C ,  7-H ) :   0.9450 B(  6-C ,  8-H ) :   0.9424 B(  6-C ,  9-C ) :   1.0747
B(  9-C , 10-H ) :   0.9586 B(  9-C , 11-H ) :   0.9546 B(  9-C , 12-C ) :   1.0734
B( 12-C , 13-H ) :   0.9756 B( 12-C , 14-H ) :   0.9767 B( 12-C , 15-H ) :   0.9746
B( 16-S , 17-C ) :   1.1666 B( 16-S , 20-C ) :   1.1557 B( 17-C , 18-C ) :   1.5872
B( 17-C , 20-C ) :   0.1032 B( 17-C , 33-H ) :   0.9664 B( 18-C , 19-C ) :   1.2499
B( 18-C , 21-H ) :   0.9894 B( 19-C , 20-C ) :   1.5576 B( 19-C , 22-C ) :   1.0674
B( 22-C , 23-H ) :   0.9262 B( 22-C , 24-H ) :   0.9318 B( 22-C , 25-C ) :   1.0643
B( 25-C , 26-H ) :   0.9594 B( 25-C , 27-H ) :   0.9504 B( 25-C , 28-C ) :   1.0764
B( 28-C , 29-H ) :   0.9720 B( 28-C , 30-H ) :   0.9750 B( 28-C , 31-H ) :   0.9733

Dispersion correction           -0.014647173
FINAL SINGLE POINT ENERGY     -1339.851810860860

DIPOLE MOMENT
-------------
                                X             Y             Z
Electronic contribution:      4.95597      11.85792       9.70207
Nuclear contribution   :     -4.98021     -12.29807      -9.99074
                        -----------------------------------------
Total Dipole Moment    :     -0.02425      -0.44016      -0.28867
                        -----------------------------------------
Magnitude (a.u.)       :      0.52693
Magnitude (Debye)      :      1.33935

Rotational constants in cm-1:     0.019161     0.008677     0.006873
Rotational constants in MHz :   574.442273   260.135408   206.039799

                             ****ORCA TERMINATED NORMALLY****
TOTAL RUN TIME: 0 days 0 hours 0 minutes 30 seconds 123 msec
