                         Program Version 4.2.1 -  RELEASE  -
|  1> ! wB97X-D3 SP def2-SVP
|  2> %pal
|  3> nprocs 16
|  4> end
|  5>
|  6> * xyz 0 1
|  7> S 	 26.7678 	 -11.6607 	 78.3938
|  8> C 	 26.9708 	 -11.9153 	 76.6525
|  9> C 	 25.7819 	 -12.1314 	 76.0307
| 10> C 	 24.6794 	 -12.0827 	 76.9904
| 11> C 	 25.0776 	 -12.0471 	 78.302
| 12> H 	 23.6906 	 -12.2983 	 76.6923
| 13> C 	 25.6525 	 -12.3219 	 74.5617
| 14> H 	 25.2433 	 -13.266 	 74.4745
| 15> H 	 26.6395 	 -12.2937 	 74.0343
| 16> C 	 24.647 	 -11.3226 	 73.9736
| 17> H 	 24.619 	 -11.3328 	 72.8551
| 18> H 	 23.6448 	 -11.5834 	 74.2823
| 19> C 	 24.8698 	 -9.8318 	 74.3718
| 20> H 	 24.3535 	 -9.07333 	 73.7817
| 21> H 	 24.8227 	 -9.73416 	 75.4565
| 22> H 	 25.8834 	 -9.6285 	 74.0819
| 23> S 	 24.9552 	 -13.7124 	 80.4926
| 24> C 	 23.5358 	 -13.8209 	 81.434
| 25> C 	 22.5239 	 -13.0341 	 80.9509
| 26> C 	 22.9059 	 -12.2485 	 79.8422
| 27> C 	 24.2466 	 -12.513 	 79.4207
| 28> H 	 21.5361 	 -13.3054 	 81.3282
| 29> C 	 21.9417 	 -11.2351 	 79.259
| 30> H 	 22.55 	 -10.4355 	 78.832
| 31> H 	 21.3488 	 -10.8246 	 80.0413
| 32> C 	 20.9638 	 -11.8306 	 78.2179
| 33> H 	 20.6699 	 -12.7546 	 78.7702
| 34> H 	 21.5414 	 -12.1598 	 77.3723
| 35> C 	 19.834 	 -10.9514 	 77.7238
| 36> H 	 19.4019 	 -10.3639 	 78.4806
| 37> H 	 19.0384 	 -11.5456 	 77.3622
| 38> H 	 20.1078 	 -10.3216 	 76.9279
| 39> H 	 27.9045 	 -11.9595 	 76.1476
| 40> H 	 23.4235 	 -14.5161 	 82.2106
| 41> *
| 42>
| 43>                          ****END OF INPUT****

CARTESIAN COORDINATES (ANGSTROEM)
---------------------------------
  S     26.767800  -11.660700   78.393800
  C     26.970800  -11.915300   76.652500
  C     25.781900  -12.131400   76.030700
  C     24.679400  -12.082700   76.990400
  C     25.077600  -12.047100   78.302000
  H     23.690600  -12.298300   76.692300
  C     25.652500  -12.321900   74.561700
  H     25.243300  -13.266000   74.474500
  H     26.639500  -12.293700   74.034300
  C     24.647000  -11.322600   73.973600
  H     24.619000  -11.332800   72.855100
  H     23.644800  -11.583400   74.282300
  C     24.869800   -9.831800   74.371800
  H     24.353500   -9.073330   73.781700
  H     24.822700   -9.734160   75.456500
  H     25.883400   -9.628500   74.081900
  S     24.955200  -13.712400   80.492600
  C     23.535800  -13.820900   81.434000
  C     22.523900  -13.034100   80.950900
  C     22.905900  -12.248500   79.842200
  C     24.246600  -12.513000   79.420700
  H     21.536100  -13.305400   81.328200
  C     21.941700  -11.235100   79.259000
  H     22.550000  -10.435500   78.832000
  H     21.348800  -10.824600   80.041300
  C     20.963800  -11.830600   78.217900
  H     20.669900  -12.754600   78.770200
  H     21.541400  -12.159800   77.372300
  C     19.834000  -10.951400   77.723800
  H     19.401900  -10.363900   78.480600
  H     19.038400  -11.545600   77.362200
  H     20.107800  -10.321600   76.927900
  H     27.904500  -11.959500   76.147600
  H     23.423500  -14.516100   82.210600

 Total Charge           Charge          ....    0
 Multiplicity           Mult            ....    1
 Number of Electrons    NEL             ....  134
 Basis Dimension        Dim             ....  322

ORBITAL ENERGIES
----------------

  NO   OCC          E(Eh)            E(eV)
   0   2.0000     -88.965880     -2420.8847
   1   2.0000     -88.964427     -2420.8451
   2   2.0000     -10.333330      -281.1842
   3   2.0000     -10.332469      -281.1608
   4   2.0000     -10.309365      -280.5321
   5   2.0000     -10.308992      -280.5219
   6   2.0000     -10.306556      -280.4556
   7   2.0000     -10.299834      -280.2727
   8   2.0000     -10.293653      -280.1045
   9   2.0000     -10.291672      -280.0506
  10   2.0000     -10.290775      -280.0262
  11   2.0000     -10.290289      -280.0130
  12   2.0000     -10.285811      -279.8911
  13   2.0000     -10.285691      -279.8879
  14   2.0000     -10.272251      -279.5221
  15   2.0000     -10.267718      -279.3988
  16   2.0000      -8.081227      -219.9014
  17   2.0000      -8.079279      -219.8484
  18   2.0000      -6.039575      -164.3452
  19   2.0000      -6.037947      -164.3009
  20   2.0000      -6.035483      -164.2338
  21   2.0000      -6.033880      -164.1902
  22   2.0000      -6.032280      -164.1467
  23   2.0000      -6.029737      -164.0775
  24   2.0000      -1.008347       -27.4385
  25   2.0000      -0.987845       -26.8806
  26   2.0000      -0.917661       -24.9708
  27   2.0000      -0.910690       -24.7811
  28   2.0000      -0.869066       -23.6485
  29   2.0000      -0.855211       -23.2715
  30   2.0000      -0.840881       -22.8815
  31   2.0000      -0.818914       -22.2838
  32   2.0000      -0.788992       -21.4696
  33   2.0000      -0.778649       -21.1881
  34   2.0000      -0.711721       -19.3669
  35   2.0000      -0.699568       -19.0362
  36   2.0000      -0.693650       -18.8752
  37   2.0000      -0.659514       -17.9463
  38   2.0000      -0.639382       -17.3985
  39   2.0000      -0.626900       -17.0588
  40   2.0000      -0.597177       -16.2500
  41   2.0000      -0.571842       -15.5606
  42   2.0000      -0.568498       -15.4696
  43   2.0000      -0.558164       -15.1884
  44   2.0000      -0.547121       -14.8879
  45   2.0000      -0.521760       -14.1978
  46   2.0000      -0.521455       -14.1895
  47   2.0000      -0.511949       -13.9308
  48   2.0000      -0.506025       -13.7696
  49   2.0000      -0.501706       -13.6521
  50   2.0000      -0.496693       -13.5157
  51   2.0000      -0.483384       -13.1535
  52   2.0000      -0.472544       -12.8586
  53   2.0000      -0.466384       -12.6910
  54   2.0000      -0.463582       -12.6147
  55   2.0000      -0.449017       -12.2184
  56   2.0000      -0.447996       -12.1906
  57   2.0000      -0.437379       -11.9017
  58   2.0000      -0.431446       -11.7402
  59   2.0000      -0.424706       -11.5568
  60   2.0000      -0.419713       -11.4210
  61   2.0000      -0.416175       -11.3247
  62   2.0000      -0.412975       -11.2376
  63   2.0000      -0.349628        -9.5139
  64   2.0000      -0.332523        -9.0484
  65   2.0000      -0.326126        -8.8744
  66   2.0000      -0.291332        -7.9275
  67   0.0000       0.027268         0.7420
  68   0.0000       0.073196         1.9918
  69   0.0000       0.117752         3.2042
  70   0.0000       0.123015         3.3474
  71   0.0000       0.127494         3.4693

MULLIKEN ATOMIC CHARGES
-----------------------
   0 S :    0.105757
   1 C :   -0.118637
   2 C :   -0.143885
   3 C :    0.065481
   4 C :   -0.130432
   5 H :   -0.022944
   6 C :    0.158820
   7 H :    0.017643
   8 H :    0.030260
   9 C :   -0.129110
  10 H :    0.034844
  11 H :    0.024650
  12 C :   -0.034470
  13 H :    0.035587
  14 H :    0.050927
  15 H :    0.006834
  16 S :    0.115299
  17 C :   -0.079905
  18 C :   -0.044852
  19 C :   -0.051972
  20 C :   -0.156581
  21 H :    0.030106
  22 C :    0.092952
  23 H :    0.024218
  24 H :    0.012108
  25 C :   -0.099627
  26 H :    0.023483
  27 H :    0.018786
  28 C :    0.036895
  29 H :    0.011339
  30 H :    0.020300
  31 H :    0.024205
  32 H :    0.034027
  33 H :    0.037893
Sum of atomic charges:    0.0000000

LOEWDIN ATOMIC CHARGES
----------------------
   0 S :    0.391013
   1 C :   -0.185793
   2 C :   -0.057830
   3 C :   -0.055640
   4 C :   -0.194690
   5 H :    0.017164
   6 C :   -0.023457
   7 H :    0.027264
   8 H :    0.036968
   9 C :   -0.041610
  10 H :    0.028272
  11 H :    0.016355
  12 C :   -0.069068
  13 H :    0.028039
  14 H :    0.027892
  15 H :    0.020518
  16 S :    0.429866
  17 C :   -0.188112
  18 C :   -0.080843
  19 C :   -0.054124
  20 C :   -0.195024
  21 H :    0.036746
  22 C :   -0.028399
  23 H :    0.027835
  24 H :    0.024983
  25 C :   -0.039306
  26 H :    0.026859
  27 H :    0.017597
  28 C :   -0.055132
  29 H :    0.019766
  30 H :    0.027310
  31 H :    0.023765
  32 H :    0.022404
  33 H :    0.018410

  Mayer bond orders larger than 0.100000
B(  0-S ,  1-C ) :   1.1074 B(  0-S ,  4-C ) :   1.1479 B(  1-C ,  2-C ) :   1.6522
B(  1-C , 32-H ) :   0.9706 B(  2-C ,  3-C ) :   1.2128 B(  2-C ,  6-C ) :   1.0254
B(  3-C ,  4-C ) :   1.5781 B(  3-C ,  5-H ) :   0.9960 B(  4-C , 20-C ) :   1.0470
B(  6-C ,  7-H ) :   0.9211 B(  6-C ,  8-H ) :   0.9434 B(  6-C ,  9-C ) :   1.0652
B(  9-C , 10-H ) :   0.9591 B(  9-C , 11-H ) :   0.9545 B(  9-C , 12-C ) :   1.0743
B( 12-C , 13-H ) :   0.9748 B( 12-C , 14-H ) :   0.9680 B( 12-C , 15-H ) :   0.9729
B( 16-S , 17-C ) :   1.1792 B( 16-S , 20-C ) :   1.1580 B( 17-C , 18-C ) :   1.5957
B( 17-C , 20-C ) :   0.1033 B( 17-C , 33-H ) :   0.9703 B( 18-C , 19-C ) :   1.2641
B( 18-C , 21-H ) :   0.9842 B( 19-C , 20-C ) :   1.5523 B( 19-C , 22-C ) :   1.0525
B( 22-C , 23-H ) :   0.9304 B( 22-C , 24-H ) :   0.9320 B( 22-C , 25-C ) :   1.0613
B( 25-C , 26-H ) :   0.9574 B( 25-C , 27-H ) :   0.9527 B( 25-C , 28-C ) :   1.0828
B( 28-C , 29-H ) :   0.9714 B( 28-C , 30-H ) :   0.9683 B( 28-C , 31-H ) :   0.9717

Dispersion correction           -0.014779165
FINAL SINGLE POINT ENERGY     -1339.872133372877

DIPOLE MOMENT
-------------
                                X             Y             Z
Electronic contribution:     19.25938     -10.05516      20.52655
Nuclear contribution   :    -19.77895       9.91072     -21.02144
                        -----------------------------------------
Total Dipole Moment    :     -0.51957      -0.14444      -0.49489
                        -----------------------------------------
Magnitude (a.u.)       :      0.73194
Magnitude (Debye)      :      1.86044

Rotational constants in cm-1:     0.016764     0.010269     0.006944
Rotational constants in MHz :   502.557683   307.852494   208.165168

                             ****ORCA TERMINATED NORMALLY****
TOTAL RUN TIME: 0 days 0 hours 0 minutes 31 seconds 362 msec
