                         Program Version 4.2.1 -  RELEASE  -
|  1> ! wB97X-D3 SP def2-SVP
|  2> %pal
|  3> nprocs 16
|  4> end
|  5>
|  6> * xyz 0 1
|  7> S 	 -14.3201 	 -5.52022 	 83.3243
|  8> C 	 -14.9679 	 -4.33659 	 82.2354
|  9> C 	 -15.5185 	 -3.24055 	 82.8494
| 10> C 	 -15.5704 	 -3.4897 	 84.2598
| 11> C 	 -14.9057 	 -4.63841 	 84.7384
| 12> H 	 -15.9854 	 -2.8003 	 85.0563
| 13> C 	 -16.1887 	 -2.10228 	 82.1067
| 14> H 	 -16.7939 	 -1.53922 	 82.766
| 15> H 	 -16.7997 	 -2.45455 	 81.3327
| 16> C 	 -15.2362 	 -1.05685 	 81.3078
| 17> H 	 -14.6072 	 -1.47685 	 80.5603
| 18> H 	 -15.9534 	 -0.474695 	 80.7558
| 19> C 	 -14.3676 	 -0.130005 	 82.1101
| 20> H 	 -13.9848 	 -0.666104 	 83.0071
| 21> H 	 -13.4883 	 0.141719 	 81.4723
| 22> H 	 -14.859 	 0.864465 	 82.4083
| 23> S 	 -12.9905 	 -5.95671 	 86.1862
| 24> C 	 -13.1516 	 -6.0448 	 87.8988
| 25> C 	 -14.2618 	 -5.39103 	 88.3399
| 26> C 	 -15.082 	 -4.81764 	 87.3439
| 27> C 	 -14.5731 	 -5.0795 	 86.0616
| 28> H 	 -14.3181 	 -5.33288 	 89.4831
| 29> C 	 -16.4001 	 -4.09611 	 87.5857
| 30> H 	 -17.0555 	 -4.32355 	 86.6428
| 31> H 	 -16.1723 	 -3.04064 	 87.6548
| 32> C 	 -17.2217 	 -4.4041 	 88.8569
| 33> H 	 -16.4794 	 -4.46849 	 89.7118
| 34> H 	 -17.745 	 -5.42422 	 88.9008
| 35> C 	 -18.23 	 -3.47871 	 89.3419
| 36> H 	 -18.5737 	 -3.79406 	 90.3834
| 37> H 	 -19.0717 	 -3.48059 	 88.6526
| 38> H 	 -17.8584 	 -2.48189 	 89.4838
| 39> H 	 -14.7866 	 -4.38689 	 81.1909
| 40> H 	 -12.3815 	 -6.43357 	 88.4581
| 41> *
| 42>
| 43>                          ****END OF INPUT****

CARTESIAN COORDINATES (ANGSTROEM)
---------------------------------
  S    -14.320100   -5.520220   83.324300
  C    -14.967900   -4.336590   82.235400
  C    -15.518500   -3.240550   82.849400
  C    -15.570400   -3.489700   84.259800
  C    -14.905700   -4.638410   84.738400
  H    -15.985400   -2.800300   85.056300
  C    -16.188700   -2.102280   82.106700
  H    -16.793900   -1.539220   82.766000
  H    -16.799700   -2.454550   81.332700
  C    -15.236200   -1.056850   81.307800
  H    -14.607200   -1.476850   80.560300
  H    -15.953400   -0.474695   80.755800
  C    -14.367600   -0.130005   82.110100
  H    -13.984800   -0.666104   83.007100
  H    -13.488300    0.141719   81.472300
  H    -14.859000    0.864465   82.408300
  S    -12.990500   -5.956710   86.186200
  C    -13.151600   -6.044800   87.898800
  C    -14.261800   -5.391030   88.339900
  C    -15.082000   -4.817640   87.343900
  C    -14.573100   -5.079500   86.061600
  H    -14.318100   -5.332880   89.483100
  C    -16.400100   -4.096110   87.585700
  H    -17.055500   -4.323550   86.642800
  H    -16.172300   -3.040640   87.654800
  C    -17.221700   -4.404100   88.856900
  H    -16.479400   -4.468490   89.711800
  H    -17.745000   -5.424220   88.900800
  C    -18.230000   -3.478710   89.341900
  H    -18.573700   -3.794060   90.383400
  H    -19.071700   -3.480590   88.652600
  H    -17.858400   -2.481890   89.483800
  H    -14.786600   -4.386890   81.190900
  H    -12.381500   -6.433570   88.458100

 Total Charge           Charge          ....    0
 Multiplicity           Mult            ....    1
 Number of Electrons    NEL             ....  134
 Basis Dimension        Dim             ....  322

ORBITAL ENERGIES
----------------

  NO   OCC          E(Eh)            E(eV)
   0   2.0000     -88.965697     -2420.8797
   1   2.0000     -88.963425     -2420.8179
   2   2.0000     -10.333398      -281.1861
   3   2.0000     -10.332598      -281.1643
   4   2.0000     -10.310631      -280.5665
   5   2.0000     -10.309722      -280.5418
   6   2.0000     -10.309280      -280.5298
   7   2.0000     -10.305291      -280.4212
   8   2.0000     -10.303079      -280.3610
   9   2.0000     -10.302214      -280.3375
  10   2.0000     -10.297903      -280.2202
  11   2.0000     -10.292998      -280.0867
  12   2.0000     -10.292087      -280.0619
  13   2.0000     -10.285128      -279.8726
  14   2.0000     -10.282965      -279.8137
  15   2.0000     -10.278966      -279.7049
  16   2.0000      -8.080481      -219.8811
  17   2.0000      -8.078188      -219.8187
  18   2.0000      -6.039011      -164.3298
  19   2.0000      -6.036638      -164.2653
  20   2.0000      -6.034938      -164.2190
  21   2.0000      -6.032759      -164.1597
  22   2.0000      -6.031267      -164.1191
  23   2.0000      -6.028924      -164.0554
  24   2.0000      -1.006225       -27.3808
  25   2.0000      -0.984224       -26.7821
  26   2.0000      -0.913846       -24.8670
  27   2.0000      -0.906896       -24.6779
  28   2.0000      -0.873658       -23.7734
  29   2.0000      -0.861546       -23.4439
  30   2.0000      -0.844178       -22.9712
  31   2.0000      -0.813347       -22.1323
  32   2.0000      -0.787247       -21.4221
  33   2.0000      -0.775366       -21.0988
  34   2.0000      -0.706718       -19.2308
  35   2.0000      -0.699378       -19.0310
  36   2.0000      -0.691909       -18.8278
  37   2.0000      -0.653937       -17.7945
  38   2.0000      -0.637445       -17.3457
  39   2.0000      -0.614395       -16.7185
  40   2.0000      -0.599535       -16.3142
  41   2.0000      -0.572354       -15.5745
  42   2.0000      -0.570295       -15.5185
  43   2.0000      -0.547066       -14.8864
  44   2.0000      -0.538804       -14.6616
  45   2.0000      -0.532181       -14.4814
  46   2.0000      -0.522599       -14.2207
  47   2.0000      -0.515124       -14.0172
  48   2.0000      -0.503564       -13.7027
  49   2.0000      -0.501671       -13.6511
  50   2.0000      -0.491628       -13.3779
  51   2.0000      -0.476689       -12.9714
  52   2.0000      -0.474076       -12.9003
  53   2.0000      -0.466730       -12.7004
  54   2.0000      -0.464057       -12.6276
  55   2.0000      -0.449028       -12.2187
  56   2.0000      -0.440496       -11.9865
  57   2.0000      -0.437816       -11.9136
  58   2.0000      -0.423753       -11.5309
  59   2.0000      -0.421898       -11.4804
  60   2.0000      -0.419326       -11.4104
  61   2.0000      -0.414142       -11.2694
  62   2.0000      -0.402713       -10.9584
  63   2.0000      -0.359964        -9.7951
  64   2.0000      -0.334644        -9.1061
  65   2.0000      -0.330654        -8.9976
  66   2.0000      -0.279400        -7.6029
  67   0.0000       0.017266         0.4698
  68   0.0000       0.074757         2.0343
  69   0.0000       0.102700         2.7946
  70   0.0000       0.120535         3.2799
  71   0.0000       0.139328         3.7913

MULLIKEN ATOMIC CHARGES
-----------------------
   0 S :    0.101989
   1 C :   -0.101611
   2 C :   -0.067148
   3 C :   -0.016511
   4 C :   -0.151366
   5 H :    0.027307
   6 C :    0.098142
   7 H :    0.010528
   8 H :    0.024552
   9 C :   -0.071601
  10 H :    0.021098
  11 H :    0.018709
  12 C :   -0.089592
  13 H :    0.046527
  14 H :    0.037538
  15 H :    0.043986
  16 S :    0.081287
  17 C :   -0.060779
  18 C :   -0.070366
  19 C :   -0.012170
  20 C :   -0.134082
  21 H :    0.047544
  22 C :    0.048691
  23 H :    0.062575
  24 H :    0.038065
  25 C :   -0.122350
  26 H :    0.022385
  27 H :    0.042625
  28 C :   -0.035844
  29 H :    0.040896
  30 H :    0.032404
  31 H :    0.019737
  32 H :    0.038069
  33 H :    0.028766
Sum of atomic charges:   -0.0000000

LOEWDIN ATOMIC CHARGES
----------------------
   0 S :    0.404899
   1 C :   -0.186629
   2 C :   -0.069927
   3 C :   -0.073966
   4 C :   -0.194278
   5 H :    0.036507
   6 C :   -0.016108
   7 H :    0.025270
   8 H :    0.029290
   9 C :   -0.039751
  10 H :    0.018922
  11 H :    0.022323
  12 C :   -0.079809
  13 H :    0.030400
  14 H :    0.031543
  15 H :    0.031022
  16 S :    0.387602
  17 C :   -0.176419
  18 C :   -0.083554
  19 C :   -0.056780
  20 C :   -0.173649
  21 H :    0.046116
  22 C :   -0.038715
  23 H :    0.047934
  24 H :    0.032868
  25 C :   -0.060519
  26 H :    0.024547
  27 H :    0.034215
  28 C :   -0.065491
  29 H :    0.039002
  30 H :    0.022704
  31 H :    0.017469
  32 H :    0.020205
  33 H :    0.012759

  Mayer bond orders larger than 0.100000
B(  0-S ,  1-C ) :   1.1547 B(  0-S ,  4-C ) :   1.1389 B(  1-C ,  2-C ) :   1.5987
B(  1-C , 32-H ) :   0.9677 B(  2-C ,  3-C ) :   1.2501 B(  2-C ,  6-C ) :   1.0263
B(  3-C ,  4-C ) :   1.5532 B(  3-C ,  5-H ) :   0.9758 B(  4-C , 20-C ) :   1.1041
B(  6-C ,  7-H ) :   0.9439 B(  6-C ,  8-H ) :   0.9436 B(  6-C ,  9-C ) :   1.0613
B(  9-C , 10-H ) :   0.9658 B(  9-C , 11-H ) :   0.9564 B(  9-C , 12-C ) :   1.0726
B( 12-C , 13-H ) :   0.9766 B( 12-C , 14-H ) :   0.9762 B( 12-C , 15-H ) :   0.9767
B( 16-S , 17-C ) :   1.1556 B( 16-S , 20-C ) :   1.1303 B( 17-C , 18-C ) :   1.6163
B( 17-C , 20-C ) :   0.1031 B( 17-C , 33-H ) :   0.9756 B( 18-C , 19-C ) :   1.2346
B( 18-C , 21-H ) :   0.9756 B( 19-C , 20-C ) :   1.5818 B( 19-C , 22-C ) :   1.0312
B( 22-C , 23-H ) :   0.9376 B( 22-C , 24-H ) :   0.9198 B( 22-C , 25-C ) :   1.0607
B( 25-C , 26-H ) :   0.9464 B( 25-C , 27-H ) :   0.9513 B( 25-C , 28-C ) :   1.1077
B( 28-C , 29-H ) :   0.9682 B( 28-C , 30-H ) :   0.9722 B( 28-C , 31-H ) :   0.9678

Dispersion correction           -0.013141668
FINAL SINGLE POINT ENERGY     -1339.861896873868

DIPOLE MOMENT
-------------
                                X             Y             Z
Electronic contribution:     15.72940     -21.83841      -3.72915
Nuclear contribution   :    -16.01375      22.39138       3.89818
                        -----------------------------------------
Total Dipole Moment    :     -0.28435       0.55297       0.16903
                        -----------------------------------------
Magnitude (a.u.)       :      0.64436
Magnitude (Debye)      :      1.63784

Rotational constants in cm-1:     0.017417     0.007957     0.006155
Rotational constants in MHz :   522.143082   238.547691   184.510109

                             ****ORCA TERMINATED NORMALLY****
TOTAL RUN TIME: 0 days 0 hours 0 minutes 33 seconds 727 msec
