                         Program Version 4.2.1 -  RELEASE  -
|  1> ! wB97X-D3 SP def2-SVP
|  2> %pal
|  3> nprocs 16
|  4> end
|  5>
|  6> * xyz 0 1
|  7> S 	 -32.2656 	 64.7604 	 115.296
|  8> C 	 -33.8899 	 64.1523 	 115.174
|  9> C 	 -34.2952 	 64.151 	 113.9
| 10> C 	 -33.4374 	 64.8581 	 113.015
| 11> C 	 -32.3112 	 65.4104 	 113.62
| 12> H 	 -33.7249 	 64.9178 	 112.015
| 13> C 	 -35.5665 	 63.5571 	 113.327
| 14> H 	 -35.7901 	 62.7301 	 113.962
| 15> H 	 -35.3881 	 63.0107 	 112.341
| 16> C 	 -36.7402 	 64.4913 	 113.236
| 17> H 	 -37.5567 	 63.9141 	 112.955
| 18> H 	 -36.9523 	 64.8594 	 114.193
| 19> C 	 -36.5484 	 65.5122 	 112.124
| 20> H 	 -35.665 	 66.1122 	 112.295
| 21> H 	 -36.3492 	 64.9795 	 111.183
| 22> H 	 -37.3445 	 66.1298 	 111.982
| 23> S 	 -29.7596 	 66.3886 	 113.883
| 24> C 	 -29.1252 	 67.4341 	 112.646
| 25> C 	 -30.0495 	 67.8381 	 111.688
| 26> C 	 -31.3033 	 67.2311 	 111.948
| 27> C 	 -31.3074 	 66.3324 	 113.039
| 28> H 	 -29.7919 	 68.6496 	 111.035
| 29> C 	 -32.5022 	 67.5091 	 110.978
| 30> H 	 -32.4989 	 68.5123 	 110.666
| 31> H 	 -33.4538 	 67.2647 	 111.504
| 32> C 	 -32.4611 	 66.6463 	 109.729
| 33> H 	 -32.3962 	 65.6179 	 109.953
| 34> H 	 -31.5458 	 66.7143 	 109.217
| 35> C 	 -33.5391 	 66.9595 	 108.755
| 36> H 	 -33.2172 	 67.7939 	 108.033
| 37> H 	 -34.551 	 67.1509 	 109.146
| 38> H 	 -33.7058 	 65.9901 	 108.266
| 39> H 	 -34.274 	 63.5631 	 116.002
| 40> H 	 -28.0936 	 67.7477 	 112.651
| 41> *
| 42>
| 43>                          ****END OF INPUT****

CARTESIAN COORDINATES (ANGSTROEM)
---------------------------------
  S    -32.265600   64.760400  115.296000
  C    -33.889900   64.152300  115.174000
  C    -34.295200   64.151000  113.900000
  C    -33.437400   64.858100  113.015000
  C    -32.311200   65.410400  113.620000
  H    -33.724900   64.917800  112.015000
  C    -35.566500   63.557100  113.327000
  H    -35.790100   62.730100  113.962000
  H    -35.388100   63.010700  112.341000
  C    -36.740200   64.491300  113.236000
  H    -37.556700   63.914100  112.955000
  H    -36.952300   64.859400  114.193000
  C    -36.548400   65.512200  112.124000
  H    -35.665000   66.112200  112.295000
  H    -36.349200   64.979500  111.183000
  H    -37.344500   66.129800  111.982000
  S    -29.759600   66.388600  113.883000
  C    -29.125200   67.434100  112.646000
  C    -30.049500   67.838100  111.688000
  C    -31.303300   67.231100  111.948000
  C    -31.307400   66.332400  113.039000
  H    -29.791900   68.649600  111.035000
  C    -32.502200   67.509100  110.978000
  H    -32.498900   68.512300  110.666000
  H    -33.453800   67.264700  111.504000
  C    -32.461100   66.646300  109.729000
  H    -32.396200   65.617900  109.953000
  H    -31.545800   66.714300  109.217000
  C    -33.539100   66.959500  108.755000
  H    -33.217200   67.793900  108.033000
  H    -34.551000   67.150900  109.146000
  H    -33.705800   65.990100  108.266000
  H    -34.274000   63.563100  116.002000
  H    -28.093600   67.747700  112.651000

 Total Charge           Charge          ....    0
 Multiplicity           Mult            ....    1
 Number of Electrons    NEL             ....  134
 Basis Dimension        Dim             ....  322

ORBITAL ENERGIES
----------------

  NO   OCC          E(Eh)            E(eV)
   0   2.0000     -88.968471     -2420.9552
   1   2.0000     -88.962282     -2420.7868
   2   2.0000     -10.338859      -281.3347
   3   2.0000     -10.334665      -281.2205
   4   2.0000     -10.319138      -280.7980
   5   2.0000     -10.311258      -280.5836
   6   2.0000     -10.309542      -280.5369
   7   2.0000     -10.296009      -280.1687
   8   2.0000     -10.292515      -280.0736
   9   2.0000     -10.291568      -280.0478
  10   2.0000     -10.289139      -279.9817
  11   2.0000     -10.286943      -279.9219
  12   2.0000     -10.282724      -279.8071
  13   2.0000     -10.274371      -279.5799
  14   2.0000     -10.272630      -279.5325
  15   2.0000     -10.268908      -279.4312
  16   2.0000      -8.083310      -219.9581
  17   2.0000      -8.076890      -219.7834
  18   2.0000      -6.041711      -164.4033
  19   2.0000      -6.037890      -164.2993
  20   2.0000      -6.035659      -164.2386
  21   2.0000      -6.034111      -164.1965
  22   2.0000      -6.031585      -164.1278
  23   2.0000      -6.027226      -164.0092
  24   2.0000      -1.004526       -27.3345
  25   2.0000      -0.986268       -26.8377
  26   2.0000      -0.918797       -25.0017
  27   2.0000      -0.915175       -24.9032
  28   2.0000      -0.870437       -23.6858
  29   2.0000      -0.854965       -23.2648
  30   2.0000      -0.844796       -22.9881
  31   2.0000      -0.816394       -22.2152
  32   2.0000      -0.785832       -21.3836
  33   2.0000      -0.773288       -21.0422
  34   2.0000      -0.707994       -19.2655
  35   2.0000      -0.705473       -19.1969
  36   2.0000      -0.697036       -18.9673
  37   2.0000      -0.667376       -18.1602
  38   2.0000      -0.640132       -17.4189
  39   2.0000      -0.625576       -17.0228
  40   2.0000      -0.596974       -16.2445
  41   2.0000      -0.578642       -15.7456
  42   2.0000      -0.572497       -15.5784
  43   2.0000      -0.557168       -15.1613
  44   2.0000      -0.545124       -14.8336
  45   2.0000      -0.522180       -14.2092
  46   2.0000      -0.514352       -13.9962
  47   2.0000      -0.510636       -13.8951
  48   2.0000      -0.505099       -13.7444
  49   2.0000      -0.498616       -13.5680
  50   2.0000      -0.493583       -13.4311
  51   2.0000      -0.485707       -13.2168
  52   2.0000      -0.475854       -12.9486
  53   2.0000      -0.468574       -12.7506
  54   2.0000      -0.458323       -12.4716
  55   2.0000      -0.453798       -12.3485
  56   2.0000      -0.444399       -12.0927
  57   2.0000      -0.440669       -11.9912
  58   2.0000      -0.436014       -11.8645
  59   2.0000      -0.423750       -11.5308
  60   2.0000      -0.416128       -11.3234
  61   2.0000      -0.413255       -11.2452
  62   2.0000      -0.410868       -11.1803
  63   2.0000      -0.361910        -9.8481
  64   2.0000      -0.337101        -9.1730
  65   2.0000      -0.326944        -8.8966
  66   2.0000      -0.281425        -7.6580
  67   0.0000       0.018128         0.4933
  68   0.0000       0.077407         2.1064
  69   0.0000       0.095832         2.6077
  70   0.0000       0.117998         3.2109
  71   0.0000       0.129370         3.5203

MULLIKEN ATOMIC CHARGES
-----------------------
   0 S :    0.079906
   1 C :   -0.135389
   2 C :   -0.072562
   3 C :    0.014087
   4 C :   -0.069105
   5 H :   -0.031197
   6 C :    0.017594
   7 H :    0.004541
   8 H :    0.033936
   9 C :    0.026621
  10 H :    0.009094
  11 H :    0.011909
  12 C :   -0.024108
  13 H :    0.033476
  14 H :    0.015923
  15 H :    0.014484
  16 S :    0.101990
  17 C :   -0.091251
  18 C :   -0.025106
  19 C :   -0.062330
  20 C :   -0.134321
  21 H :    0.024890
  22 C :    0.088803
  23 H :    0.008749
  24 H :    0.027427
  25 C :   -0.044728
  26 H :    0.007844
  27 H :    0.002363
  28 C :   -0.055503
  29 H :    0.054643
  30 H :    0.028573
  31 H :    0.029391
  32 H :    0.054002
  33 H :    0.055354
Sum of atomic charges:    0.0000000

LOEWDIN ATOMIC CHARGES
----------------------
   0 S :    0.375712
   1 C :   -0.194022
   2 C :   -0.067549
   3 C :   -0.062670
   4 C :   -0.166880
   5 H :    0.015781
   6 C :   -0.032530
   7 H :    0.023106
   8 H :    0.036519
   9 C :   -0.025044
  10 H :    0.018687
  11 H :    0.018839
  12 C :   -0.053621
  13 H :    0.022930
  14 H :    0.026125
  15 H :    0.011903
  16 S :    0.407204
  17 C :   -0.176258
  18 C :   -0.073506
  19 C :   -0.046715
  20 C :   -0.192994
  21 H :    0.035777
  22 C :   -0.020358
  23 H :    0.022052
  24 H :    0.030821
  25 C :   -0.048886
  26 H :    0.017606
  27 H :    0.021727
  28 C :   -0.072756
  29 H :    0.036870
  30 H :    0.024042
  31 H :    0.033101
  32 H :    0.030213
  33 H :    0.024774

  Mayer bond orders larger than 0.100000
B(  0-S ,  1-C ) :   1.1226 B(  0-S ,  4-C ) :   1.1365 B(  1-C ,  2-C ) :   1.6340
B(  1-C , 32-H ) :   0.9658 B(  2-C ,  3-C ) :   1.2515 B(  2-C ,  6-C ) :   1.0162
B(  3-C ,  4-C ) :   1.5337 B(  3-C ,  5-H ) :   1.0063 B(  4-C , 20-C ) :   1.0791
B(  6-C ,  7-H ) :   0.9318 B(  6-C ,  8-H ) :   0.9433 B(  6-C ,  9-C ) :   1.0864
B(  9-C , 10-H ) :   0.9458 B(  9-C , 11-H ) :   0.9483 B(  9-C , 12-C ) :   1.0860
B( 12-C , 13-H ) :   0.9717 B( 12-C , 14-H ) :   0.9681 B( 12-C , 15-H ) :   0.9685
B( 16-S , 17-C ) :   1.1773 B( 16-S , 20-C ) :   1.1334 B( 17-C , 18-C ) :   1.5926
B( 17-C , 20-C ) :   0.1029 B( 17-C , 33-H ) :   0.9662 B( 18-C , 19-C ) :   1.2527
B( 18-C , 21-H ) :   0.9934 B( 19-C , 20-C ) :   1.5744 B( 19-C , 22-C ) :   1.0417
B( 22-C , 23-H ) :   0.9325 B( 22-C , 24-H ) :   0.9350 B( 22-C , 25-C ) :   1.0695
B( 25-C , 26-H ) :   0.9520 B( 25-C , 27-H ) :   0.9392 B( 25-C , 28-C ) :   1.0802
B( 28-C , 29-H ) :   0.9740 B( 28-C , 30-H ) :   0.9734 B( 28-C , 31-H ) :   0.9716

Dispersion correction           -0.015132646
FINAL SINGLE POINT ENERGY     -1339.861975072975

DIPOLE MOMENT
-------------
                                X             Y             Z
Electronic contribution:     23.34969      -1.34253      22.39794
Nuclear contribution   :    -23.73815       1.36711     -22.97559
                        -----------------------------------------
Total Dipole Moment    :     -0.38846       0.02458      -0.57765
                        -----------------------------------------
Magnitude (a.u.)       :      0.69655
Magnitude (Debye)      :      1.77049

Rotational constants in cm-1:     0.016586     0.010989     0.006897
Rotational constants in MHz :   497.231936   329.452135   206.755541

                             ****ORCA TERMINATED NORMALLY****
TOTAL RUN TIME: 0 days 0 hours 0 minutes 29 seconds 804 msec
