                         Program Version 4.2.1 -  RELEASE  -
|  1> ! wB97X-D3 SP def2-SVP
|  2> %pal
|  3> nprocs 16
|  4> end
|  5>
|  6> * xyz 0 1
|  7> S 	 -105.738 	 47.4863 	 123.283
|  8> C 	 -104.758 	 47.674 	 124.775
|  9> C 	 -104.402 	 46.4428 	 125.334
| 10> C 	 -104.892 	 45.3655 	 124.445
| 11> C 	 -105.613 	 45.7564 	 123.327
| 12> H 	 -104.845 	 44.3009 	 124.554
| 13> C 	 -103.808 	 46.0745 	 126.694
| 14> H 	 -104.44 	 45.2466 	 127.19
| 15> H 	 -103.74 	 46.8815 	 127.395
| 16> C 	 -102.409 	 45.5631 	 126.732
| 17> H 	 -102.064 	 45.3464 	 127.727
| 18> H 	 -102.184 	 44.6415 	 126.204
| 19> C 	 -101.38 	 46.5739 	 126.207
| 20> H 	 -101.535 	 46.7955 	 125.091
| 21> H 	 -101.428 	 47.5676 	 126.639
| 22> H 	 -100.376 	 46.2302 	 126.222
| 23> S 	 -107.69 	 44.0219 	 122.757
| 24> C 	 -107.748 	 43.3732 	 121.176
| 25> C 	 -106.594 	 43.5498 	 120.43
| 26> C 	 -105.726 	 44.4826 	 121.061
| 27> C 	 -106.208 	 44.8434 	 122.342
| 28> H 	 -106.434 	 43.071 	 119.45
| 29> C 	 -104.41 	 44.8419 	 120.379
| 30> H 	 -104.28 	 45.9003 	 120.238
| 31> H 	 -104.525 	 44.362 	 119.454
| 32> C 	 -103.147 	 44.3065 	 121.005
| 33> H 	 -103.327 	 43.3348 	 121.423
| 34> H 	 -102.926 	 44.9341 	 121.939
| 35> C 	 -102.018 	 44.386 	 119.929
| 36> H 	 -101.134 	 44.0533 	 120.54
| 37> H 	 -101.87 	 45.4548 	 119.544
| 38> H 	 -102.165 	 43.641 	 119.138
| 39> H 	 -104.695 	 48.5758 	 125.27
| 40> H 	 -108.587 	 42.722 	 120.981
| 41> *
| 42>
| 43>                          ****END OF INPUT****

CARTESIAN COORDINATES (ANGSTROEM)
---------------------------------
  S    -105.738000   47.486300  123.283000
  C    -104.758000   47.674000  124.775000
  C    -104.402000   46.442800  125.334000
  C    -104.892000   45.365500  124.445000
  C    -105.613000   45.756400  123.327000
  H    -104.845000   44.300900  124.554000
  C    -103.808000   46.074500  126.694000
  H    -104.440000   45.246600  127.190000
  H    -103.740000   46.881500  127.395000
  C    -102.409000   45.563100  126.732000
  H    -102.064000   45.346400  127.727000
  H    -102.184000   44.641500  126.204000
  C    -101.380000   46.573900  126.207000
  H    -101.535000   46.795500  125.091000
  H    -101.428000   47.567600  126.639000
  H    -100.376000   46.230200  126.222000
  S    -107.690000   44.021900  122.757000
  C    -107.748000   43.373200  121.176000
  C    -106.594000   43.549800  120.430000
  C    -105.726000   44.482600  121.061000
  C    -106.208000   44.843400  122.342000
  H    -106.434000   43.071000  119.450000
  C    -104.410000   44.841900  120.379000
  H    -104.280000   45.900300  120.238000
  H    -104.525000   44.362000  119.454000
  C    -103.147000   44.306500  121.005000
  H    -103.327000   43.334800  121.423000
  H    -102.926000   44.934100  121.939000
  C    -102.018000   44.386000  119.929000
  H    -101.134000   44.053300  120.540000
  H    -101.870000   45.454800  119.544000
  H    -102.165000   43.641000  119.138000
  H    -104.695000   48.575800  125.270000
  H    -108.587000   42.722000  120.981000

 Total Charge           Charge          ....    0
 Multiplicity           Mult            ....    1
 Number of Electrons    NEL             ....  134
 Basis Dimension        Dim             ....  322

ORBITAL ENERGIES
----------------

  NO   OCC          E(Eh)            E(eV)
   0   2.0000     -88.968714     -2420.9618
   1   2.0000     -88.964511     -2420.8474
   2   2.0000     -10.326256      -280.9917
   3   2.0000     -10.324907      -280.9550
   4   2.0000     -10.316955      -280.7386
   5   2.0000     -10.314981      -280.6849
   6   2.0000     -10.314250      -280.6650
   7   2.0000     -10.304607      -280.4026
   8   2.0000     -10.300804      -280.2991
   9   2.0000     -10.296470      -280.1812
  10   2.0000     -10.293469      -280.0995
  11   2.0000     -10.289304      -279.9862
  12   2.0000     -10.284531      -279.8563
  13   2.0000     -10.282443      -279.7995
  14   2.0000     -10.280139      -279.7368
  15   2.0000     -10.273244      -279.5492
  16   2.0000      -8.084332      -219.9858
  17   2.0000      -8.078728      -219.8334
  18   2.0000      -6.042493      -164.4246
  19   2.0000      -6.038808      -164.3243
  20   2.0000      -6.037337      -164.2843
  21   2.0000      -6.035330      -164.2297
  22   2.0000      -6.033269      -164.1736
  23   2.0000      -6.029444      -164.0695
  24   2.0000      -1.004399       -27.3311
  25   2.0000      -0.979588       -26.6559
  26   2.0000      -0.916059       -24.9272
  27   2.0000      -0.911926       -24.8148
  28   2.0000      -0.866162       -23.5695
  29   2.0000      -0.851341       -23.1662
  30   2.0000      -0.839536       -22.8449
  31   2.0000      -0.806689       -21.9511
  32   2.0000      -0.783947       -21.3323
  33   2.0000      -0.772546       -21.0220
  34   2.0000      -0.702948       -19.1282
  35   2.0000      -0.699334       -19.0298
  36   2.0000      -0.686301       -18.6752
  37   2.0000      -0.663356       -18.0508
  38   2.0000      -0.645269       -17.5587
  39   2.0000      -0.616347       -16.7717
  40   2.0000      -0.602937       -16.4067
  41   2.0000      -0.566327       -15.4106
  42   2.0000      -0.561877       -15.2894
  43   2.0000      -0.552509       -15.0345
  44   2.0000      -0.538406       -14.6508
  45   2.0000      -0.518776       -14.1166
  46   2.0000      -0.514640       -14.0041
  47   2.0000      -0.511313       -13.9135
  48   2.0000      -0.499506       -13.5922
  49   2.0000      -0.497033       -13.5249
  50   2.0000      -0.484961       -13.1965
  51   2.0000      -0.475093       -12.9279
  52   2.0000      -0.473350       -12.8805
  53   2.0000      -0.462078       -12.5738
  54   2.0000      -0.459259       -12.4971
  55   2.0000      -0.454747       -12.3743
  56   2.0000      -0.441957       -12.0263
  57   2.0000      -0.437573       -11.9070
  58   2.0000      -0.432788       -11.7767
  59   2.0000      -0.420776       -11.4499
  60   2.0000      -0.415782       -11.3140
  61   2.0000      -0.414360       -11.2753
  62   2.0000      -0.411260       -11.1909
  63   2.0000      -0.336517        -9.1571
  64   2.0000      -0.326587        -8.8869
  65   2.0000      -0.325275        -8.8512
  66   2.0000      -0.305102        -8.3023
  67   0.0000       0.045001         1.2245
  68   0.0000       0.052756         1.4356
  69   0.0000       0.102906         2.8002
  70   0.0000       0.119028         3.2389
  71   0.0000       0.129007         3.5105

MULLIKEN ATOMIC CHARGES
-----------------------
   0 S :    0.104712
   1 C :   -0.101201
   2 C :   -0.046294
   3 C :    0.029864
   4 C :   -0.164796
   5 H :    0.001476
   6 C :    0.065607
   7 H :    0.054419
   8 H :    0.016188
   9 C :   -0.047977
  10 H :    0.022504
  11 H :    0.022747
  12 C :   -0.090942
  13 H :    0.037652
  14 H :    0.021910
  15 H :    0.026726
  16 S :    0.132779
  17 C :   -0.099715
  18 C :   -0.036795
  19 C :   -0.039309
  20 C :   -0.206641
  21 H :    0.034932
  22 C :    0.134992
  23 H :    0.029018
  24 H :   -0.013705
  25 C :   -0.106060
  26 H :    0.021220
  27 H :    0.049365
  28 C :   -0.073805
  29 H :    0.041938
  30 H :    0.055125
  31 H :    0.043269
  32 H :    0.025154
  33 H :    0.055643
Sum of atomic charges:    0.0000000

LOEWDIN ATOMIC CHARGES
----------------------
   0 S :    0.392425
   1 C :   -0.171352
   2 C :   -0.051816
   3 C :   -0.062528
   4 C :   -0.206846
   5 H :    0.024630
   6 C :   -0.033307
   7 H :    0.047831
   8 H :    0.028431
   9 C :   -0.044107
  10 H :    0.024109
  11 H :    0.022276
  12 C :   -0.073775
  13 H :    0.031930
  14 H :    0.018658
  15 H :    0.019574
  16 S :    0.437352
  17 C :   -0.192034
  18 C :   -0.076324
  19 C :   -0.043954
  20 C :   -0.217452
  21 H :    0.038409
  22 C :   -0.028659
  23 H :    0.031608
  24 H :    0.019549
  25 C :   -0.043967
  26 H :    0.018152
  27 H :    0.033288
  28 C :   -0.070919
  29 H :    0.033328
  30 H :    0.037163
  31 H :    0.025069
  32 H :    0.011337
  33 H :    0.021921

  Mayer bond orders larger than 0.100000
B(  0-S ,  1-C ) :   1.1348 B(  0-S ,  4-C ) :   1.1347 B(  1-C ,  2-C ) :   1.6242
B(  1-C , 32-H ) :   0.9772 B(  2-C ,  3-C ) :   1.1857 B(  2-C ,  6-C ) :   1.0247
B(  3-C ,  4-C ) :   1.6324 B(  3-C ,  5-H ) :   0.9900 B(  4-C , 20-C ) :   1.0212
B(  6-C ,  7-H ) :   0.9423 B(  6-C ,  8-H ) :   0.9418 B(  6-C ,  9-C ) :   1.0748
B(  9-C , 10-H ) :   0.9536 B(  9-C , 11-H ) :   0.9526 B(  9-C , 12-C ) :   1.0747
B( 12-C , 13-H ) :   0.9717 B( 12-C , 14-H ) :   0.9754 B( 12-C , 15-H ) :   0.9751
B( 16-S , 17-C ) :   1.1919 B( 16-S , 20-C ) :   1.1641 B( 17-C , 18-C ) :   1.5665
B( 17-C , 20-C ) :   0.1020 B( 17-C , 33-H ) :   0.9680 B( 18-C , 19-C ) :   1.2779
B( 18-C , 21-H ) :   0.9830 B( 19-C , 20-C ) :   1.5615 B( 19-C , 22-C ) :   1.0395
B( 22-C , 23-H ) :   0.9217 B( 22-C , 24-H ) :   0.9292 B( 22-C , 25-C ) :   1.0688
B( 25-C , 26-H ) :   0.9561 B( 25-C , 27-H ) :   0.9516 B( 25-C , 28-C ) :   1.0698
B( 28-C , 29-H ) :   0.9750 B( 28-C , 30-H ) :   0.9718 B( 28-C , 31-H ) :   0.9754

Dispersion correction           -0.014642058
FINAL SINGLE POINT ENERGY     -1339.867958479520

DIPOLE MOMENT
-------------
                                X             Y             Z
Electronic contribution:    -27.20350       2.86779      -2.66788
Nuclear contribution   :     27.55592      -3.24044       2.78195
                        -----------------------------------------
Total Dipole Moment    :      0.35242      -0.37264       0.11407
                        -----------------------------------------
Magnitude (a.u.)       :      0.52543
Magnitude (Debye)      :      1.33554

Rotational constants in cm-1:     0.017659     0.008922     0.007215
Rotational constants in MHz :   529.405747   267.472885   216.286346

                             ****ORCA TERMINATED NORMALLY****
TOTAL RUN TIME: 0 days 0 hours 0 minutes 33 seconds 298 msec
