                         Program Version 4.2.1 -  RELEASE  -
|  1> ! wB97X-D3 SP def2-SVP
|  2> %pal
|  3> nprocs 16
|  4> end
|  5>
|  6> * xyz 0 1
|  7> S 	 46.7258 	 15.7201 	 77.9446
|  8> C 	 46.6767 	 16.0643 	 79.6372
|  9> C 	 47.9576 	 16.1814 	 80.2367
| 10> C 	 48.965 	 15.9139 	 79.231
| 11> C 	 48.516 	 15.8465 	 77.9484
| 12> H 	 50.0732 	 15.7531 	 79.4898
| 13> C 	 48.2801 	 16.6818 	 81.6505
| 14> H 	 49.3307 	 16.3629 	 81.8426
| 15> H 	 47.5674 	 16.2315 	 82.3389
| 16> C 	 48.0157 	 18.2339 	 81.848
| 17> H 	 47.1876 	 18.5479 	 81.2208
| 18> H 	 47.8322 	 18.534 	 82.8777
| 19> C 	 49.1067 	 19.1145 	 81.3171
| 20> H 	 49.954 	 19.1727 	 81.9746
| 21> H 	 49.6112 	 18.8976 	 80.3962
| 22> H 	 48.6488 	 20.1041 	 81.0308
| 23> S 	 49.174 	 14.1287 	 75.8746
| 24> C 	 50.6372 	 14.3715 	 74.9674
| 25> C 	 51.1171 	 15.6258 	 75.2162
| 26> C 	 50.4816 	 16.3154 	 76.3072
| 27> C 	 49.3266 	 15.6313 	 76.7408
| 28> H 	 52.0501 	 15.9487 	 74.6554
| 29> C 	 50.9445 	 17.7175 	 76.8049
| 30> H 	 50.2555 	 18.0808 	 77.528
| 31> H 	 50.7867 	 18.442 	 75.9477
| 32> C 	 52.3762 	 17.8025 	 77.4637
| 33> H 	 52.5547 	 18.731 	 77.8108
| 34> H 	 53.1533 	 17.6954 	 76.6567
| 35> C 	 52.5304 	 16.8105 	 78.6909
| 36> H 	 53.5617 	 16.8046 	 78.9229
| 37> H 	 52.2767 	 15.7734 	 78.4778
| 38> H 	 52.0048 	 17.1684 	 79.5509
| 39> H 	 45.7193 	 16.2386 	 80.1791
| 40> H 	 51.2033 	 13.6446 	 74.3684
| 41> *
| 42>
| 43>                          ****END OF INPUT****

CARTESIAN COORDINATES (ANGSTROEM)
---------------------------------
  S     46.725800   15.720100   77.944600
  C     46.676700   16.064300   79.637200
  C     47.957600   16.181400   80.236700
  C     48.965000   15.913900   79.231000
  C     48.516000   15.846500   77.948400
  H     50.073200   15.753100   79.489800
  C     48.280100   16.681800   81.650500
  H     49.330700   16.362900   81.842600
  H     47.567400   16.231500   82.338900
  C     48.015700   18.233900   81.848000
  H     47.187600   18.547900   81.220800
  H     47.832200   18.534000   82.877700
  C     49.106700   19.114500   81.317100
  H     49.954000   19.172700   81.974600
  H     49.611200   18.897600   80.396200
  H     48.648800   20.104100   81.030800
  S     49.174000   14.128700   75.874600
  C     50.637200   14.371500   74.967400
  C     51.117100   15.625800   75.216200
  C     50.481600   16.315400   76.307200
  C     49.326600   15.631300   76.740800
  H     52.050100   15.948700   74.655400
  C     50.944500   17.717500   76.804900
  H     50.255500   18.080800   77.528000
  H     50.786700   18.442000   75.947700
  C     52.376200   17.802500   77.463700
  H     52.554700   18.731000   77.810800
  H     53.153300   17.695400   76.656700
  C     52.530400   16.810500   78.690900
  H     53.561700   16.804600   78.922900
  H     52.276700   15.773400   78.477800
  H     52.004800   17.168400   79.550900
  H     45.719300   16.238600   80.179100
  H     51.203300   13.644600   74.368400

 Total Charge           Charge          ....    0
 Multiplicity           Mult            ....    1
 Number of Electrons    NEL             ....  134
 Basis Dimension        Dim             ....  322

ORBITAL ENERGIES
----------------

  NO   OCC          E(Eh)            E(eV)
   0   2.0000     -88.966791     -2420.9095
   1   2.0000     -88.964143     -2420.8374
   2   2.0000     -10.330473      -281.1065
   3   2.0000     -10.328512      -281.0531
   4   2.0000     -10.319597      -280.8105
   5   2.0000     -10.317469      -280.7526
   6   2.0000     -10.309870      -280.5458
   7   2.0000     -10.306783      -280.4618
   8   2.0000     -10.302259      -280.3387
   9   2.0000     -10.300003      -280.2773
  10   2.0000     -10.296804      -280.1903
  11   2.0000     -10.296595      -280.1846
  12   2.0000     -10.290009      -280.0054
  13   2.0000     -10.289087      -279.9803
  14   2.0000     -10.277112      -279.6544
  15   2.0000     -10.272676      -279.5337
  16   2.0000      -8.081202      -219.9007
  17   2.0000      -8.079289      -219.8486
  18   2.0000      -6.039726      -164.3493
  19   2.0000      -6.037761      -164.2958
  20   2.0000      -6.035872      -164.2444
  21   2.0000      -6.033679      -164.1848
  22   2.0000      -6.031863      -164.1353
  23   2.0000      -6.030092      -164.0872
  24   2.0000      -1.003410       -27.3042
  25   2.0000      -0.981246       -26.7011
  26   2.0000      -0.907057       -24.6823
  27   2.0000      -0.898151       -24.4399
  28   2.0000      -0.867469       -23.6050
  29   2.0000      -0.848747       -23.0956
  30   2.0000      -0.842483       -22.9251
  31   2.0000      -0.814477       -22.1630
  32   2.0000      -0.781859       -21.2755
  33   2.0000      -0.769977       -20.9521
  34   2.0000      -0.709507       -19.3067
  35   2.0000      -0.702938       -19.1279
  36   2.0000      -0.692697       -18.8492
  37   2.0000      -0.648756       -17.6536
  38   2.0000      -0.634827       -17.2745
  39   2.0000      -0.613683       -16.6992
  40   2.0000      -0.590622       -16.0716
  41   2.0000      -0.571547       -15.5526
  42   2.0000      -0.546670       -14.8756
  43   2.0000      -0.544459       -14.8155
  44   2.0000      -0.541447       -14.7335
  45   2.0000      -0.539353       -14.6765
  46   2.0000      -0.518941       -14.1211
  47   2.0000      -0.515340       -14.0231
  48   2.0000      -0.497730       -13.5439
  49   2.0000      -0.494830       -13.4650
  50   2.0000      -0.487396       -13.2627
  51   2.0000      -0.477255       -12.9868
  52   2.0000      -0.473062       -12.8727
  53   2.0000      -0.461562       -12.5597
  54   2.0000      -0.456296       -12.4164
  55   2.0000      -0.446530       -12.1507
  56   2.0000      -0.439884       -11.9699
  57   2.0000      -0.437898       -11.9158
  58   2.0000      -0.431964       -11.7543
  59   2.0000      -0.422846       -11.5062
  60   2.0000      -0.422034       -11.4841
  61   2.0000      -0.416096       -11.3225
  62   2.0000      -0.414682       -11.2841
  63   2.0000      -0.348936        -9.4950
  64   2.0000      -0.328710        -8.9447
  65   2.0000      -0.324381        -8.8268
  66   2.0000      -0.291896        -7.9429
  67   0.0000       0.033898         0.9224
  68   0.0000       0.060229         1.6389
  69   0.0000       0.110113         2.9963
  70   0.0000       0.119428         3.2498
  71   0.0000       0.124593         3.3903

MULLIKEN ATOMIC CHARGES
-----------------------
   0 S :    0.107844
   1 C :   -0.130478
   2 C :   -0.120434
   3 C :    0.009291
   4 C :   -0.162844
   5 H :    0.037950
   6 C :    0.078285
   7 H :    0.034628
   8 H :    0.030780
   9 C :   -0.045694
  10 H :    0.029688
  11 H :    0.037175
  12 C :   -0.071624
  13 H :    0.022374
  14 H :    0.017589
  15 H :    0.032682
  16 S :    0.107809
  17 C :   -0.109626
  18 C :   -0.047703
  19 C :   -0.064505
  20 C :   -0.131752
  21 H :    0.041315
  22 C :    0.050223
  23 H :    0.014199
  24 H :    0.047309
  25 C :   -0.040250
  26 H :    0.003203
  27 H :    0.029891
  28 C :   -0.050759
  29 H :    0.021880
  30 H :    0.054026
  31 H :    0.032999
  32 H :    0.064990
  33 H :    0.069541
Sum of atomic charges:   -0.0000000

LOEWDIN ATOMIC CHARGES
----------------------
   0 S :    0.393993
   1 C :   -0.206754
   2 C :   -0.067996
   3 C :   -0.066818
   4 C :   -0.188717
   5 H :    0.046211
   6 C :   -0.028200
   7 H :    0.033466
   8 H :    0.032488
   9 C :   -0.038047
  10 H :    0.028556
  11 H :    0.027070
  12 C :   -0.075825
  13 H :    0.018419
  14 H :    0.019800
  15 H :    0.034412
  16 S :    0.414564
  17 C :   -0.195828
  18 C :   -0.083616
  19 C :   -0.054814
  20 C :   -0.207779
  21 H :    0.041202
  22 C :   -0.032704
  23 H :    0.022253
  24 H :    0.040408
  25 C :   -0.026749
  26 H :    0.008198
  27 H :    0.025954
  28 C :   -0.058864
  29 H :    0.023429
  30 H :    0.027012
  31 H :    0.020912
  32 H :    0.034085
  33 H :    0.040279

  Mayer bond orders larger than 0.100000
B(  0-S ,  1-C ) :   1.1556 B(  0-S ,  4-C ) :   1.1258 B(  1-C ,  2-C ) :   1.6046
B(  1-C , 32-H ) :   0.9600 B(  2-C ,  3-C ) :   1.2356 B(  2-C ,  6-C ) :   1.0300
B(  3-C ,  4-C ) :   1.6129 B(  3-C ,  5-H ) :   0.9675 B(  4-C , 20-C ) :   1.0182
B(  6-C ,  7-H ) :   0.9485 B(  6-C ,  8-H ) :   0.9353 B(  6-C ,  9-C ) :   1.0527
B(  9-C , 10-H ) :   0.9624 B(  9-C , 11-H ) :   0.9579 B(  9-C , 12-C ) :   1.0716
B( 12-C , 13-H ) :   0.9745 B( 12-C , 14-H ) :   0.9752 B( 12-C , 15-H ) :   0.9729
B( 16-S , 17-C ) :   1.1586 B( 16-S , 20-C ) :   1.1503 B( 17-C , 18-C ) :   1.6154
B( 17-C , 33-H ) :   0.9644 B( 18-C , 19-C ) :   1.2429 B( 18-C , 21-H ) :   0.9783
B( 19-C , 20-C ) :   1.5855 B( 19-C , 22-C ) :   1.0354 B( 22-C , 23-H ) :   0.9375
B( 22-C , 24-H ) :   0.9437 B( 22-C , 25-C ) :   1.0638 B( 25-C , 26-H ) :   0.9550
B( 25-C , 27-H ) :   0.9608 B( 25-C , 28-C ) :   1.0686 B( 28-C , 29-H ) :   0.9685
B( 28-C , 30-H ) :   0.9725 B( 28-C , 31-H ) :   0.9727

Dispersion correction           -0.015977863
FINAL SINGLE POINT ENERGY     -1339.861763818355

DIPOLE MOMENT
-------------
                                X             Y             Z
Electronic contribution:    -15.75185     -18.59689     -17.98172
Nuclear contribution   :     16.32686      18.99348      18.38359
                        -----------------------------------------
Total Dipole Moment    :      0.57500       0.39659       0.40187
                        -----------------------------------------
Magnitude (a.u.)       :      0.80586
Magnitude (Debye)      :      2.04833

Rotational constants in cm-1:     0.018651     0.010231     0.007271
Rotational constants in MHz :   559.131930   306.719437   217.974143

                             ****ORCA TERMINATED NORMALLY****
TOTAL RUN TIME: 0 days 0 hours 0 minutes 32 seconds 396 msec
