                         Program Version 4.2.1 -  RELEASE  -
|  1> ! wB97X-D3 SP def2-SVP
|  2> %pal
|  3> nprocs 16
|  4> end
|  5>
|  6> * xyz 0 1
|  7> S 	 -48.7133 	 16.3166 	 78.4344
|  8> C 	 -47.2641 	 16.5679 	 79.3855
|  9> C 	 -46.1302 	 16.3516 	 78.6414
| 10> C 	 -46.3897 	 15.974 	 77.285
| 11> C 	 -47.76 	 15.9314 	 76.989
| 12> H 	 -45.6452 	 15.6967 	 76.5672
| 13> C 	 -44.7217 	 16.2958 	 79.1815
| 14> H 	 -44.1561 	 15.6609 	 78.5328
| 15> H 	 -44.6981 	 15.808 	 80.1393
| 16> C 	 -44.0985 	 17.7005 	 79.2975
| 17> H 	 -44.1183 	 18.1719 	 78.3376
| 18> H 	 -44.6706 	 18.3987 	 80.042
| 19> C 	 -42.6309 	 17.702 	 79.6473
| 20> H 	 -42.3932 	 18.6927 	 80.0856
| 21> H 	 -42.4532 	 16.9191 	 80.3351
| 22> H 	 -41.9507 	 17.4986 	 78.7848
| 23> S 	 -49.688 	 14.3914 	 75.8587
| 24> C 	 -49.8667 	 14.5536 	 74.1211
| 25> C 	 -49.0438 	 15.3978 	 73.5364
| 26> C 	 -48.1256 	 15.9481 	 74.4194
| 27> C 	 -48.3656 	 15.5699 	 75.7107
| 28> H 	 -48.9762 	 15.4169 	 72.4594
| 29> C 	 -47.07 	 16.8354 	 73.7943
| 30> H 	 -47.3497 	 17.0665 	 72.7558
| 31> H 	 -46.1584 	 16.2249 	 73.6778
| 32> C 	 -46.8117 	 18.1619 	 74.5272
| 33> H 	 -46.8492 	 17.7964 	 75.5201
| 34> H 	 -47.6278 	 18.8478 	 74.3436
| 35> C 	 -45.4751 	 18.8666 	 74.1863
| 36> H 	 -45.3067 	 19.5409 	 74.9899
| 37> H 	 -45.5074 	 19.4114 	 73.2195
| 38> H 	 -44.6109 	 18.2226 	 74.2611
| 39> H 	 -47.1502 	 16.6311 	 80.4516
| 40> H 	 -50.5538 	 14.0241 	 73.5917
| 41> *
| 42>
| 43>                          ****END OF INPUT****

CARTESIAN COORDINATES (ANGSTROEM)
---------------------------------
  S    -48.713300   16.316600   78.434400
  C    -47.264100   16.567900   79.385500
  C    -46.130200   16.351600   78.641400
  C    -46.389700   15.974000   77.285000
  C    -47.760000   15.931400   76.989000
  H    -45.645200   15.696700   76.567200
  C    -44.721700   16.295800   79.181500
  H    -44.156100   15.660900   78.532800
  H    -44.698100   15.808000   80.139300
  C    -44.098500   17.700500   79.297500
  H    -44.118300   18.171900   78.337600
  H    -44.670600   18.398700   80.042000
  C    -42.630900   17.702000   79.647300
  H    -42.393200   18.692700   80.085600
  H    -42.453200   16.919100   80.335100
  H    -41.950700   17.498600   78.784800
  S    -49.688000   14.391400   75.858700
  C    -49.866700   14.553600   74.121100
  C    -49.043800   15.397800   73.536400
  C    -48.125600   15.948100   74.419400
  C    -48.365600   15.569900   75.710700
  H    -48.976200   15.416900   72.459400
  C    -47.070000   16.835400   73.794300
  H    -47.349700   17.066500   72.755800
  H    -46.158400   16.224900   73.677800
  C    -46.811700   18.161900   74.527200
  H    -46.849200   17.796400   75.520100
  H    -47.627800   18.847800   74.343600
  C    -45.475100   18.866600   74.186300
  H    -45.306700   19.540900   74.989900
  H    -45.507400   19.411400   73.219500
  H    -44.610900   18.222600   74.261100
  H    -47.150200   16.631100   80.451600
  H    -50.553800   14.024100   73.591700

 Total Charge           Charge          ....    0
 Multiplicity           Mult            ....    1
 Number of Electrons    NEL             ....  134
 Basis Dimension        Dim             ....  322

ORBITAL ENERGIES
----------------

  NO   OCC          E(Eh)            E(eV)
   0   2.0000     -88.968928     -2420.9676
   1   2.0000     -88.965380     -2420.8711
   2   2.0000     -10.332523      -281.1623
   3   2.0000     -10.326344      -280.9941
   4   2.0000     -10.309604      -280.5386
   5   2.0000     -10.303442      -280.3709
   6   2.0000     -10.297891      -280.2198
   7   2.0000     -10.296917      -280.1934
   8   2.0000     -10.293535      -280.1013
   9   2.0000     -10.290488      -280.0184
  10   2.0000     -10.288761      -279.9714
  11   2.0000     -10.288691      -279.9695
  12   2.0000     -10.280564      -279.7484
  13   2.0000     -10.276415      -279.6355
  14   2.0000     -10.275805      -279.6189
  15   2.0000     -10.275181      -279.6019
  16   2.0000      -8.082802      -219.9442
  17   2.0000      -8.080160      -219.8723
  18   2.0000      -6.041476      -164.3969
  19   2.0000      -6.038557      -164.3175
  20   2.0000      -6.037398      -164.2859
  21   2.0000      -6.034935      -164.2189
  22   2.0000      -6.033470      -164.1791
  23   2.0000      -6.030755      -164.1052
  24   2.0000      -1.010559       -27.4987
  25   2.0000      -0.985948       -26.8290
  26   2.0000      -0.913550       -24.8590
  27   2.0000      -0.907356       -24.6904
  28   2.0000      -0.874163       -23.7872
  29   2.0000      -0.852506       -23.1979
  30   2.0000      -0.849461       -23.1150
  31   2.0000      -0.817146       -22.2357
  32   2.0000      -0.783543       -21.3213
  33   2.0000      -0.773422       -21.0459
  34   2.0000      -0.715066       -19.4579
  35   2.0000      -0.694866       -18.9083
  36   2.0000      -0.693176       -18.8623
  37   2.0000      -0.666234       -18.1291
  38   2.0000      -0.638950       -17.3867
  39   2.0000      -0.620001       -16.8711
  40   2.0000      -0.599693       -16.3185
  41   2.0000      -0.569536       -15.4979
  42   2.0000      -0.567898       -15.4533
  43   2.0000      -0.559404       -15.2222
  44   2.0000      -0.531747       -14.4696
  45   2.0000      -0.521893       -14.2014
  46   2.0000      -0.517638       -14.0857
  47   2.0000      -0.507099       -13.7989
  48   2.0000      -0.502295       -13.6681
  49   2.0000      -0.501324       -13.6417
  50   2.0000      -0.493853       -13.4384
  51   2.0000      -0.490297       -13.3417
  52   2.0000      -0.473287       -12.8788
  53   2.0000      -0.466651       -12.6982
  54   2.0000      -0.461826       -12.5669
  55   2.0000      -0.451865       -12.2959
  56   2.0000      -0.444154       -12.0860
  57   2.0000      -0.435656       -11.8548
  58   2.0000      -0.433858       -11.8059
  59   2.0000      -0.423913       -11.5353
  60   2.0000      -0.421086       -11.4583
  61   2.0000      -0.414930       -11.2908
  62   2.0000      -0.406147       -11.0518
  63   2.0000      -0.348930        -9.4949
  64   2.0000      -0.336171        -9.1477
  65   2.0000      -0.330874        -9.0035
  66   2.0000      -0.290284        -7.8990
  67   0.0000       0.027231         0.7410
  68   0.0000       0.071108         1.9349
  69   0.0000       0.104025         2.8307
  70   0.0000       0.123875         3.3708
  71   0.0000       0.128814         3.5052

MULLIKEN ATOMIC CHARGES
-----------------------
   0 S :    0.115574
   1 C :   -0.095405
   2 C :   -0.106702
   3 C :    0.033727
   4 C :   -0.155536
   5 H :    0.007480
   6 C :    0.087775
   7 H :    0.009848
   8 H :    0.020994
   9 C :   -0.107349
  10 H :    0.021812
  11 H :    0.045502
  12 C :   -0.029837
  13 H :    0.040475
  14 H :    0.013574
  15 H :    0.036357
  16 S :    0.101057
  17 C :   -0.030105
  18 C :   -0.036343
  19 C :   -0.010922
  20 C :   -0.181724
  21 H :    0.018078
  22 C :    0.061752
  23 H :    0.012775
  24 H :    0.034544
  25 C :   -0.077768
  26 H :    0.034733
  27 H :    0.033165
  28 C :   -0.026011
  29 H :    0.024363
  30 H :    0.044788
  31 H :    0.016198
  32 H :    0.037487
  33 H :    0.005641
Sum of atomic charges:    0.0000000

LOEWDIN ATOMIC CHARGES
----------------------
   0 S :    0.399391
   1 C :   -0.203203
   2 C :   -0.059704
   3 C :   -0.064471
   4 C :   -0.187648
   5 H :    0.027948
   6 C :   -0.027828
   7 H :    0.026096
   8 H :    0.027131
   9 C :   -0.045661
  10 H :    0.020535
  11 H :    0.034346
  12 C :   -0.068246
  13 H :    0.032469
  14 H :    0.014382
  15 H :    0.028562
  16 S :    0.387560
  17 C :   -0.150781
  18 C :   -0.071413
  19 C :   -0.053179
  20 C :   -0.188647
  21 H :    0.036165
  22 C :   -0.029890
  23 H :    0.025793
  24 H :    0.033185
  25 C :   -0.037808
  26 H :    0.020580
  27 H :    0.026938
  28 C :   -0.063898
  29 H :    0.025202
  30 H :    0.030194
  31 H :    0.020509
  32 H :    0.028853
  33 H :    0.006537

  Mayer bond orders larger than 0.100000
B(  0-S ,  1-C ) :   1.1203 B(  0-S ,  4-C ) :   1.1530 B(  1-C ,  2-C ) :   1.6306
B(  1-C , 32-H ) :   0.9622 B(  2-C ,  3-C ) :   1.2493 B(  2-C ,  6-C ) :   1.0280
B(  3-C ,  4-C ) :   1.5465 B(  3-C ,  5-H ) :   0.9964 B(  4-C , 20-C ) :   1.0499
B(  6-C ,  7-H ) :   0.9425 B(  6-C ,  8-H ) :   0.9335 B(  6-C ,  9-C ) :   1.0629
B(  9-C , 10-H ) :   0.9562 B(  9-C , 11-H ) :   0.9592 B(  9-C , 12-C ) :   1.0792
B( 12-C , 13-H ) :   0.9735 B( 12-C , 14-H ) :   0.9731 B( 12-C , 15-H ) :   0.9750
B( 16-S , 17-C ) :   1.1374 B( 16-S , 20-C ) :   1.1257 B( 17-C , 18-C ) :   1.6642
B( 17-C , 33-H ) :   0.9691 B( 18-C , 19-C ) :   1.2328 B( 18-C , 21-H ) :   0.9852
B( 19-C , 20-C ) :   1.6247 B( 19-C , 22-C ) :   1.0316 B( 22-C , 23-H ) :   0.9356
B( 22-C , 24-H ) :   0.9281 B( 22-C , 25-C ) :   1.0524 B( 25-C , 26-H ) :   0.9604
B( 25-C , 27-H ) :   0.9523 B( 25-C , 28-C ) :   1.0896 B( 28-C , 29-H ) :   0.9717
B( 28-C , 30-H ) :   0.9759 B( 28-C , 31-H ) :   0.9730

Dispersion correction           -0.014333106
FINAL SINGLE POINT ENERGY     -1339.869734733870

DIPOLE MOMENT
-------------
                                X             Y             Z
Electronic contribution:    -28.07159     -15.63563       1.36741
Nuclear contribution   :     28.66106      15.65435      -1.64657
                        -----------------------------------------
Total Dipole Moment    :      0.58947       0.01872      -0.27916
                        -----------------------------------------
Magnitude (a.u.)       :      0.65250
Magnitude (Debye)      :      1.65853

Rotational constants in cm-1:     0.019761     0.008833     0.006674
Rotational constants in MHz :   592.427112   264.811456   200.077360

                             ****ORCA TERMINATED NORMALLY****
TOTAL RUN TIME: 0 days 0 hours 0 minutes 32 seconds 951 msec
