                         Program Version 4.2.1 -  RELEASE  -
|  1> ! wB97X-D3 SP def2-SVP
|  2> %pal
|  3> nprocs 16
|  4> end
|  5>
|  6> * xyz 0 1
|  7> S 	 -18.6551 	 -8.51407 	 82.4144
|  8> C 	 -17.4029 	 -8.54491 	 81.1932
|  9> C 	 -16.1731 	 -8.78595 	 81.7575
| 10> C 	 -16.2 	 -8.8893 	 83.1954
| 11> C 	 -17.4469 	 -8.62099 	 83.7413
| 12> H 	 -15.4038 	 -9.05199 	 83.8783
| 13> C 	 -14.9524 	 -8.88961 	 80.9328
| 14> H 	 -15.1783 	 -9.14024 	 79.9145
| 15> H 	 -14.296 	 -9.6929 	 81.3448
| 16> C 	 -14.1981 	 -7.59622 	 80.6855
| 17> H 	 -14.8456 	 -6.9211 	 80.06
| 18> H 	 -14.1634 	 -7.16834 	 81.7012
| 19> C 	 -12.7968 	 -7.69091 	 80.0578
| 20> H 	 -12.2585 	 -6.77467 	 80.0819
| 21> H 	 -12.2492 	 -8.55261 	 80.4396
| 22> H 	 -12.9626 	 -7.83777 	 79.0479
| 23> S 	 -19.0859 	 -9.7576 	 85.5472
| 24> C 	 -19.1854 	 -9.12561 	 87.1565
| 25> C 	 -18.3439 	 -8.03702 	 87.3001
| 26> C 	 -17.5249 	 -7.75528 	 86.1623
| 27> C 	 -17.7914 	 -8.66019 	 85.1092
| 28> H 	 -18.3318 	 -7.58118 	 88.283
| 29> C 	 -16.5199 	 -6.58509 	 86.1313
| 30> H 	 -15.6335 	 -6.99853 	 85.6326
| 31> H 	 -16.1783 	 -6.41432 	 87.1664
| 32> C 	 -17.1746 	 -5.40168 	 85.3254
| 33> H 	 -18.1733 	 -5.29166 	 85.7388
| 34> H 	 -17.3905 	 -5.74086 	 84.2754
| 35> C 	 -16.348 	 -4.06756 	 85.3969
| 36> H 	 -16.039 	 -3.65731 	 86.3839
| 37> H 	 -16.9117 	 -3.25751 	 84.8053
| 38> H 	 -15.3118 	 -4.21404 	 85.0251
| 39> H 	 -17.4603 	 -8.41975 	 80.1567
| 40> H 	 -19.9835 	 -9.37387 	 87.873
| 41> *
| 42>
| 43>                          ****END OF INPUT****

CARTESIAN COORDINATES (ANGSTROEM)
---------------------------------
  S    -18.655100   -8.514070   82.414400
  C    -17.402900   -8.544910   81.193200
  C    -16.173100   -8.785950   81.757500
  C    -16.200000   -8.889300   83.195400
  C    -17.446900   -8.620990   83.741300
  H    -15.403800   -9.051990   83.878300
  C    -14.952400   -8.889610   80.932800
  H    -15.178300   -9.140240   79.914500
  H    -14.296000   -9.692900   81.344800
  C    -14.198100   -7.596220   80.685500
  H    -14.845600   -6.921100   80.060000
  H    -14.163400   -7.168340   81.701200
  C    -12.796800   -7.690910   80.057800
  H    -12.258500   -6.774670   80.081900
  H    -12.249200   -8.552610   80.439600
  H    -12.962600   -7.837770   79.047900
  S    -19.085900   -9.757600   85.547200
  C    -19.185400   -9.125610   87.156500
  C    -18.343900   -8.037020   87.300100
  C    -17.524900   -7.755280   86.162300
  C    -17.791400   -8.660190   85.109200
  H    -18.331800   -7.581180   88.283000
  C    -16.519900   -6.585090   86.131300
  H    -15.633500   -6.998530   85.632600
  H    -16.178300   -6.414320   87.166400
  C    -17.174600   -5.401680   85.325400
  H    -18.173300   -5.291660   85.738800
  H    -17.390500   -5.740860   84.275400
  C    -16.348000   -4.067560   85.396900
  H    -16.039000   -3.657310   86.383900
  H    -16.911700   -3.257510   84.805300
  H    -15.311800   -4.214040   85.025100
  H    -17.460300   -8.419750   80.156700
  H    -19.983500   -9.373870   87.873000

 Total Charge           Charge          ....    0
 Multiplicity           Mult            ....    1
 Number of Electrons    NEL             ....  134
 Basis Dimension        Dim             ....  322

ORBITAL ENERGIES
----------------

  NO   OCC          E(Eh)            E(eV)
   0   2.0000     -88.967385     -2420.9256
   1   2.0000     -88.965407     -2420.8718
   2   2.0000     -10.330188      -281.0987
   3   2.0000     -10.324220      -280.9363
   4   2.0000     -10.317365      -280.7498
   5   2.0000     -10.310280      -280.5570
   6   2.0000     -10.309576      -280.5378
   7   2.0000     -10.298990      -280.2498
   8   2.0000     -10.298385      -280.2333
   9   2.0000     -10.295387      -280.1517
  10   2.0000     -10.295221      -280.1472
  11   2.0000     -10.293654      -280.1046
  12   2.0000     -10.289607      -279.9945
  13   2.0000     -10.287203      -279.9290
  14   2.0000     -10.286544      -279.9111
  15   2.0000     -10.272011      -279.5156
  16   2.0000      -8.081102      -219.8980
  17   2.0000      -8.080482      -219.8811
  18   2.0000      -6.039800      -164.3513
  19   2.0000      -6.038922      -164.3274
  20   2.0000      -6.035717      -164.2402
  21   2.0000      -6.034813      -164.2156
  22   2.0000      -6.031750      -164.1323
  23   2.0000      -6.031411      -164.1230
  24   2.0000      -1.006835       -27.3974
  25   2.0000      -0.982458       -26.7340
  26   2.0000      -0.916282       -24.9333
  27   2.0000      -0.899045       -24.4642
  28   2.0000      -0.875442       -23.8220
  29   2.0000      -0.848856       -23.0986
  30   2.0000      -0.841678       -22.9032
  31   2.0000      -0.817683       -22.2503
  32   2.0000      -0.782694       -21.2982
  33   2.0000      -0.769241       -20.9321
  34   2.0000      -0.712378       -19.3848
  35   2.0000      -0.697741       -18.9865
  36   2.0000      -0.695369       -18.9220
  37   2.0000      -0.659364       -17.9422
  38   2.0000      -0.645320       -17.5601
  39   2.0000      -0.619846       -16.8669
  40   2.0000      -0.590204       -16.0603
  41   2.0000      -0.571709       -15.5570
  42   2.0000      -0.564156       -15.3515
  43   2.0000      -0.547951       -14.9105
  44   2.0000      -0.527435       -14.3522
  45   2.0000      -0.522065       -14.2061
  46   2.0000      -0.517335       -14.0774
  47   2.0000      -0.509843       -13.8735
  48   2.0000      -0.508736       -13.8434
  49   2.0000      -0.504971       -13.7410
  50   2.0000      -0.491207       -13.3664
  51   2.0000      -0.487886       -13.2761
  52   2.0000      -0.468494       -12.7484
  53   2.0000      -0.465309       -12.6617
  54   2.0000      -0.456799       -12.4301
  55   2.0000      -0.450277       -12.2527
  56   2.0000      -0.445731       -12.1290
  57   2.0000      -0.439471       -11.9586
  58   2.0000      -0.436113       -11.8672
  59   2.0000      -0.420952       -11.4547
  60   2.0000      -0.415913       -11.3176
  61   2.0000      -0.411095       -11.1865
  62   2.0000      -0.405901       -11.0451
  63   2.0000      -0.344540        -9.3754
  64   2.0000      -0.332239        -9.0407
  65   2.0000      -0.326958        -8.8970
  66   2.0000      -0.293328        -7.9819
  67   0.0000       0.027087         0.7371
  68   0.0000       0.059140         1.6093
  69   0.0000       0.115707         3.1485
  70   0.0000       0.125656         3.4193
  71   0.0000       0.129405         3.5213

MULLIKEN ATOMIC CHARGES
-----------------------
   0 S :    0.112835
   1 C :   -0.080362
   2 C :   -0.078339
   3 C :    0.051947
   4 C :   -0.161347
   5 H :    0.005342
   6 C :    0.058058
   7 H :    0.002894
   8 H :    0.032043
   9 C :   -0.111483
  10 H :    0.027457
  11 H :    0.020190
  12 C :    0.019374
  13 H :    0.033541
  14 H :    0.031929
  15 H :    0.006422
  16 S :    0.107779
  17 C :   -0.102635
  18 C :   -0.050795
  19 C :   -0.055890
  20 C :   -0.184353
  21 H :    0.020562
  22 C :    0.096081
  23 H :    0.020845
  24 H :    0.027263
  25 C :   -0.076676
  26 H :    0.032866
  27 H :    0.054255
  28 C :   -0.068572
  29 H :    0.031263
  30 H :    0.056213
  31 H :    0.029028
  32 H :    0.021561
  33 H :    0.070701
Sum of atomic charges:   -0.0000000

LOEWDIN ATOMIC CHARGES
----------------------
   0 S :    0.384513
   1 C :   -0.184676
   2 C :   -0.062316
   3 C :   -0.050148
   4 C :   -0.183643
   5 H :    0.027509
   6 C :   -0.040447
   7 H :    0.023643
   8 H :    0.034263
   9 C :   -0.042297
  10 H :    0.025516
  11 H :    0.017641
  12 C :   -0.057344
  13 H :    0.027987
  14 H :    0.027887
  15 H :    0.016960
  16 S :    0.419101
  17 C :   -0.196823
  18 C :   -0.079341
  19 C :   -0.046115
  20 C :   -0.211468
  21 H :    0.032084
  22 C :   -0.030522
  23 H :    0.028748
  24 H :    0.031532
  25 C :   -0.038789
  26 H :    0.024317
  27 H :    0.037295
  28 C :   -0.084953
  29 H :    0.026898
  30 H :    0.037650
  31 H :    0.027323
  32 H :    0.020940
  33 H :    0.037073

  Mayer bond orders larger than 0.100000
B(  0-S ,  1-C ) :   1.1233 B(  0-S ,  4-C ) :   1.1160 B(  1-C ,  2-C ) :   1.6290
B(  1-C , 32-H ) :   0.9703 B(  2-C ,  3-C ) :   1.2038 B(  2-C ,  6-C ) :   1.0532
B(  3-C ,  4-C ) :   1.5870 B(  3-C ,  5-H ) :   0.9989 B(  4-C , 20-C ) :   1.0866
B(  6-C ,  7-H ) :   0.9346 B(  6-C ,  8-H ) :   0.9355 B(  6-C ,  9-C ) :   1.0537
B(  9-C , 10-H ) :   0.9561 B(  9-C , 11-H ) :   0.9600 B(  9-C , 12-C ) :   1.0755
B( 12-C , 13-H ) :   0.9712 B( 12-C , 14-H ) :   0.9742 B( 12-C , 15-H ) :   0.9706
B( 16-S , 17-C ) :   1.1655 B( 16-S , 20-C ) :   1.1516 B( 17-C , 18-C ) :   1.5972
B( 17-C , 20-C ) :   0.1024 B( 17-C , 33-H ) :   0.9619 B( 18-C , 19-C ) :   1.2645
B( 18-C , 21-H ) :   0.9902 B( 19-C , 20-C ) :   1.5470 B( 19-C , 22-C ) :   1.0316
B( 22-C , 23-H ) :   0.9328 B( 22-C , 24-H ) :   0.9414 B( 22-C , 25-C ) :   1.0387
B( 25-C , 26-H ) :   0.9608 B( 25-C , 27-H ) :   0.9537 B( 25-C , 28-C ) :   1.0649
B( 28-C , 29-H ) :   0.9760 B( 28-C , 30-H ) :   0.9748 B( 28-C , 31-H ) :   0.9720

Dispersion correction           -0.014312723
FINAL SINGLE POINT ENERGY     -1339.869922627996

DIPOLE MOMENT
-------------
                                X             Y             Z
Electronic contribution:    -23.12081     -17.51587       7.31919
Nuclear contribution   :     23.59171      17.84707      -7.29008
                        -----------------------------------------
Total Dipole Moment    :      0.47090       0.33120       0.02911
                        -----------------------------------------
Magnitude (a.u.)       :      0.57644
Magnitude (Debye)      :      1.46519

Rotational constants in cm-1:     0.018694     0.008553     0.006750
Rotational constants in MHz :   560.426078   256.411473   202.366067

                             ****ORCA TERMINATED NORMALLY****
TOTAL RUN TIME: 0 days 0 hours 0 minutes 31 seconds 509 msec
