                         Program Version 4.2.1 -  RELEASE  -
|  1> ! wB97X-D3 SP def2-SVP
|  2> %pal
|  3> nprocs 16
|  4> end
|  5>
|  6> * xyz 0 1
|  7> S 	 -42.289 	 26.9312 	 76.9683
|  8> C 	 -41.3804 	 28.324 	 77.626
|  9> C 	 -40.2369 	 27.9248 	 78.3281
| 10> C 	 -40.3012 	 26.5256 	 78.5768
| 11> C 	 -41.266 	 25.8037 	 77.8747
| 12> H 	 -39.5471 	 26.0505 	 79.1506
| 13> C 	 -39.1631 	 28.9277 	 78.9512
| 14> H 	 -39.6262 	 29.5041 	 79.7679
| 15> H 	 -38.8379 	 29.6017 	 78.2223
| 16> C 	 -37.9441 	 28.3158 	 79.6212
| 17> H 	 -38.2411 	 27.3652 	 80.1793
| 18> H 	 -37.2327 	 28.0234 	 78.9148
| 19> C 	 -37.0943 	 29.396 	 80.4167
| 20> H 	 -36.7888 	 30.145 	 79.6903
| 21> H 	 -37.6621 	 29.8837 	 81.268
| 22> H 	 -36.177 	 28.9672 	 80.8019
| 23> S 	 -43.1919 	 23.8664 	 77.6704
| 24> C 	 -42.7591 	 22.226 	 77.9109
| 25> C 	 -41.4193 	 22.0774 	 78.2028
| 26> C 	 -40.6948 	 23.2589 	 78.1639
| 27> C 	 -41.5055 	 24.3221 	 77.8386
| 28> H 	 -41.0032 	 21.1373 	 78.4461
| 29> C 	 -39.173 	 23.3001 	 78.1974
| 30> H 	 -38.7985 	 22.3056 	 78.1495
| 31> H 	 -38.8532 	 23.6603 	 79.1853
| 32> C 	 -38.4111 	 24.1413 	 77.1292
| 33> H 	 -38.7655 	 25.1945 	 77.0339
| 34> H 	 -38.5583 	 23.6148 	 76.1858
| 35> C 	 -36.8847 	 23.9707 	 77.2729
| 36> H 	 -36.6089 	 22.9001 	 77.0313
| 37> H 	 -36.4487 	 24.3025 	 78.1961
| 38> H 	 -36.478 	 24.4955 	 76.4019
| 39> H 	 -41.6272 	 29.3162 	 77.3616
| 40> H 	 -43.3194 	 21.3067 	 77.8316
| 41> *
| 42>
| 43>                          ****END OF INPUT****

CARTESIAN COORDINATES (ANGSTROEM)
---------------------------------
  S    -42.289000   26.931200   76.968300
  C    -41.380400   28.324000   77.626000
  C    -40.236900   27.924800   78.328100
  C    -40.301200   26.525600   78.576800
  C    -41.266000   25.803700   77.874700
  H    -39.547100   26.050500   79.150600
  C    -39.163100   28.927700   78.951200
  H    -39.626200   29.504100   79.767900
  H    -38.837900   29.601700   78.222300
  C    -37.944100   28.315800   79.621200
  H    -38.241100   27.365200   80.179300
  H    -37.232700   28.023400   78.914800
  C    -37.094300   29.396000   80.416700
  H    -36.788800   30.145000   79.690300
  H    -37.662100   29.883700   81.268000
  H    -36.177000   28.967200   80.801900
  S    -43.191900   23.866400   77.670400
  C    -42.759100   22.226000   77.910900
  C    -41.419300   22.077400   78.202800
  C    -40.694800   23.258900   78.163900
  C    -41.505500   24.322100   77.838600
  H    -41.003200   21.137300   78.446100
  C    -39.173000   23.300100   78.197400
  H    -38.798500   22.305600   78.149500
  H    -38.853200   23.660300   79.185300
  C    -38.411100   24.141300   77.129200
  H    -38.765500   25.194500   77.033900
  H    -38.558300   23.614800   76.185800
  C    -36.884700   23.970700   77.272900
  H    -36.608900   22.900100   77.031300
  H    -36.448700   24.302500   78.196100
  H    -36.478000   24.495500   76.401900
  H    -41.627200   29.316200   77.361600
  H    -43.319400   21.306700   77.831600

 Total Charge           Charge          ....    0
 Multiplicity           Mult            ....    1
 Number of Electrons    NEL             ....  134
 Basis Dimension        Dim             ....  322

ORBITAL ENERGIES
----------------

  NO   OCC          E(Eh)            E(eV)
   0   2.0000     -88.969682     -2420.9881
   1   2.0000     -88.967578     -2420.9309
   2   2.0000     -10.335740      -281.2498
   3   2.0000     -10.327397      -281.0228
   4   2.0000     -10.315194      -280.6907
   5   2.0000     -10.312297      -280.6119
   6   2.0000     -10.309301      -280.5304
   7   2.0000     -10.298363      -280.2327
   8   2.0000     -10.297132      -280.1992
   9   2.0000     -10.292100      -280.0623
  10   2.0000     -10.291912      -280.0572
  11   2.0000     -10.291853      -280.0556
  12   2.0000     -10.289698      -279.9969
  13   2.0000     -10.286189      -279.9014
  14   2.0000     -10.285082      -279.8713
  15   2.0000     -10.281331      -279.7692
  16   2.0000      -8.084667      -219.9950
  17   2.0000      -8.081172      -219.8999
  18   2.0000      -6.043108      -164.4413
  19   2.0000      -6.039805      -164.3515
  20   2.0000      -6.039168      -164.3341
  21   2.0000      -6.035833      -164.2434
  22   2.0000      -6.035463      -164.2333
  23   2.0000      -6.031906      -164.1365
  24   2.0000      -1.008496       -27.4426
  25   2.0000      -0.980908       -26.6919
  26   2.0000      -0.908226       -24.7141
  27   2.0000      -0.906972       -24.6800
  28   2.0000      -0.865298       -23.5459
  29   2.0000      -0.856179       -23.2978
  30   2.0000      -0.841131       -22.8883
  31   2.0000      -0.812110       -22.0986
  32   2.0000      -0.783638       -21.3239
  33   2.0000      -0.773919       -21.0594
  34   2.0000      -0.709282       -19.3005
  35   2.0000      -0.698358       -19.0033
  36   2.0000      -0.684417       -18.6239
  37   2.0000      -0.664313       -18.0769
  38   2.0000      -0.641188       -17.4476
  39   2.0000      -0.625362       -17.0170
  40   2.0000      -0.596276       -16.2255
  41   2.0000      -0.574079       -15.6215
  42   2.0000      -0.567183       -15.4338
  43   2.0000      -0.562008       -15.2930
  44   2.0000      -0.522214       -14.2102
  45   2.0000      -0.521939       -14.2027
  46   2.0000      -0.508964       -13.8496
  47   2.0000      -0.504012       -13.7149
  48   2.0000      -0.502292       -13.6681
  49   2.0000      -0.497831       -13.5467
  50   2.0000      -0.492026       -13.3887
  51   2.0000      -0.483889       -13.1673
  52   2.0000      -0.473915       -12.8959
  53   2.0000      -0.468223       -12.7410
  54   2.0000      -0.459976       -12.5166
  55   2.0000      -0.453448       -12.3390
  56   2.0000      -0.446072       -12.1382
  57   2.0000      -0.433895       -11.8069
  58   2.0000      -0.429941       -11.6993
  59   2.0000      -0.426224       -11.5981
  60   2.0000      -0.425207       -11.5705
  61   2.0000      -0.417416       -11.3585
  62   2.0000      -0.416771       -11.3409
  63   2.0000      -0.349897        -9.5212
  64   2.0000      -0.336574        -9.1586
  65   2.0000      -0.332868        -9.0578
  66   2.0000      -0.282638        -7.6910
  67   0.0000       0.020787         0.5657
  68   0.0000       0.080575         2.1926
  69   0.0000       0.096301         2.6205
  70   0.0000       0.124354         3.3839
  71   0.0000       0.128146         3.4870

MULLIKEN ATOMIC CHARGES
-----------------------
   0 S :    0.091650
   1 C :   -0.109800
   2 C :   -0.079703
   3 C :    0.012208
   4 C :   -0.120582
   5 H :   -0.014064
   6 C :    0.083329
   7 H :    0.043985
   8 H :    0.020581
   9 C :   -0.119111
  10 H :    0.051850
  11 H :    0.021534
  12 C :   -0.070047
  13 H :    0.033325
  14 H :    0.047972
  15 H :    0.036893
  16 S :    0.119096
  17 C :   -0.060581
  18 C :   -0.049960
  19 C :   -0.011121
  20 C :   -0.139247
  21 H :   -0.005330
  22 C :    0.071744
  23 H :   -0.000333
  24 H :    0.026193
  25 C :   -0.100983
  26 H :    0.068546
  27 H :    0.028199
  28 C :   -0.058049
  29 H :    0.031845
  30 H :    0.034943
  31 H :    0.034001
  32 H :    0.033045
  33 H :    0.047971
Sum of atomic charges:   -0.0000000

LOEWDIN ATOMIC CHARGES
----------------------
   0 S :    0.379121
   1 C :   -0.176819
   2 C :   -0.055231
   3 C :   -0.070814
   4 C :   -0.181357
   5 H :    0.018937
   6 C :   -0.024348
   7 H :    0.037485
   8 H :    0.022869
   9 C :   -0.046285
  10 H :    0.029456
  11 H :    0.015803
  12 C :   -0.063445
  13 H :    0.026127
  14 H :    0.029658
  15 H :    0.025957
  16 S :    0.425959
  17 C :   -0.197158
  18 C :   -0.067090
  19 C :   -0.059130
  20 C :   -0.192183
  21 H :    0.024022
  22 C :   -0.030071
  23 H :    0.024468
  24 H :    0.028078
  25 C :   -0.043663
  26 H :    0.031238
  27 H :    0.027857
  28 C :   -0.065561
  29 H :    0.030537
  30 H :    0.016161
  31 H :    0.030486
  32 H :    0.016259
  33 H :    0.032679

  Mayer bond orders larger than 0.100000
B(  0-S ,  1-C ) :   1.1382 B(  0-S ,  4-C ) :   1.1483 B(  1-C ,  2-C ) :   1.6063
B(  1-C ,  4-C ) :   0.1062 B(  1-C , 32-H ) :   0.9769 B(  2-C ,  3-C ) :   1.2704
B(  2-C ,  6-C ) :   0.9918 B(  3-C ,  4-C ) :   1.5666 B(  3-C ,  5-H ) :   0.9835
B(  4-C , 20-C ) :   1.0302 B(  6-C ,  7-H ) :   0.9504 B(  6-C ,  8-H ) :   0.9420
B(  6-C ,  9-C ) :   1.0720 B(  9-C , 10-H ) :   0.9501 B(  9-C , 11-H ) :   0.9563
B(  9-C , 12-C ) :   1.0731 B( 12-C , 13-H ) :   0.9749 B( 12-C , 14-H ) :   0.9774
B( 12-C , 15-H ) :   0.9757 B( 16-S , 17-C ) :   1.1613 B( 16-S , 20-C ) :   1.1469
B( 17-C , 18-C ) :   1.5941 B( 17-C , 33-H ) :   0.9628 B( 18-C , 19-C ) :   1.2827
B( 18-C , 21-H ) :   0.9933 B( 19-C , 20-C ) :   1.5804 B( 19-C , 22-C ) :   1.0277
B( 22-C , 23-H ) :   0.9391 B( 22-C , 24-H ) :   0.9216 B( 22-C , 25-C ) :   1.0652
B( 25-C , 26-H ) :   0.9505 B( 25-C , 27-H ) :   0.9543 B( 25-C , 28-C ) :   1.0778
B( 28-C , 29-H ) :   0.9746 B( 28-C , 30-H ) :   0.9776 B( 28-C , 31-H ) :   0.9736

Dispersion correction           -0.014281839
FINAL SINGLE POINT ENERGY     -1339.867873748118

DIPOLE MOMENT
-------------
                                X             Y             Z
Electronic contribution:    -31.91614      -6.87563      -8.04333
Nuclear contribution   :     32.67365       6.85722       8.20064
                        -----------------------------------------
Total Dipole Moment    :      0.75751      -0.01841       0.15731
                        -----------------------------------------
Magnitude (a.u.)       :      0.77389
Magnitude (Debye)      :      1.96706

Rotational constants in cm-1:     0.018349     0.009130     0.006752
Rotational constants in MHz :   550.097613   273.698250   202.427822

                             ****ORCA TERMINATED NORMALLY****
TOTAL RUN TIME: 0 days 0 hours 0 minutes 29 seconds 550 msec
