                         Program Version 4.2.1 -  RELEASE  -
|  1> ! wB97X-D3 SP def2-SVP
|  2> %pal
|  3> nprocs 16
|  4> end
|  5>
|  6> * xyz 0 1
|  7> S 	 58.9603 	 22.1741 	 82.7448
|  8> C 	 58.6153 	 22.4452 	 84.4461
|  9> C 	 57.7502 	 21.5864 	 84.9869
| 10> C 	 57.1874 	 20.7409 	 84.0028
| 11> C 	 57.6986 	 20.9633 	 82.7084
| 12> H 	 56.3962 	 20.0271 	 84.1945
| 13> C 	 57.3578 	 21.6346 	 86.4798
| 14> H 	 58.2743 	 21.997 	 87.0054
| 15> H 	 57.0177 	 20.637 	 86.8859
| 16> C 	 56.1085 	 22.629 	 86.6566
| 17> H 	 56.0264 	 22.7727 	 87.7435
| 18> H 	 56.3697 	 23.5343 	 86.1994
| 19> C 	 54.7532 	 22.1749 	 86.1436
| 20> H 	 54.1236 	 21.6139 	 86.8433
| 21> H 	 54.2253 	 23.1067 	 85.8721
| 22> H 	 54.7503 	 21.6814 	 85.1719
| 23> S 	 58.2881 	 18.9436 	 80.9602
| 24> C 	 57.199 	 18.7008 	 79.5739
| 25> C 	 56.064 	 19.5107 	 79.612
| 26> C 	 56.2177 	 20.4751 	 80.6844
| 27> C 	 57.3736 	 20.2905 	 81.4908
| 28> H 	 55.213 	 19.4265 	 78.8787
| 29> C 	 55.1068 	 21.5772 	 81.0726
| 30> H 	 54.7679 	 21.9802 	 80.1586
| 31> H 	 55.6135 	 22.2349 	 81.7008
| 32> C 	 53.8136 	 21.115 	 81.7997
| 33> H 	 54.0937 	 20.4355 	 82.6385
| 34> H 	 53.2503 	 20.4372 	 81.1437
| 35> C 	 53.0041 	 22.2674 	 82.4364
| 36> H 	 52.312 	 21.8268 	 83.1577
| 37> H 	 52.3982 	 22.9179 	 81.7936
| 38> H 	 53.5542 	 22.8515 	 83.1536
| 39> H 	 59.0817 	 23.2052 	 85.0213
| 40> H 	 57.0521 	 17.8093 	 78.9704
| 41> *
| 42>
| 43>                          ****END OF INPUT****

CARTESIAN COORDINATES (ANGSTROEM)
---------------------------------
  S     58.960300   22.174100   82.744800
  C     58.615300   22.445200   84.446100
  C     57.750200   21.586400   84.986900
  C     57.187400   20.740900   84.002800
  C     57.698600   20.963300   82.708400
  H     56.396200   20.027100   84.194500
  C     57.357800   21.634600   86.479800
  H     58.274300   21.997000   87.005400
  H     57.017700   20.637000   86.885900
  C     56.108500   22.629000   86.656600
  H     56.026400   22.772700   87.743500
  H     56.369700   23.534300   86.199400
  C     54.753200   22.174900   86.143600
  H     54.123600   21.613900   86.843300
  H     54.225300   23.106700   85.872100
  H     54.750300   21.681400   85.171900
  S     58.288100   18.943600   80.960200
  C     57.199000   18.700800   79.573900
  C     56.064000   19.510700   79.612000
  C     56.217700   20.475100   80.684400
  C     57.373600   20.290500   81.490800
  H     55.213000   19.426500   78.878700
  C     55.106800   21.577200   81.072600
  H     54.767900   21.980200   80.158600
  H     55.613500   22.234900   81.700800
  C     53.813600   21.115000   81.799700
  H     54.093700   20.435500   82.638500
  H     53.250300   20.437200   81.143700
  C     53.004100   22.267400   82.436400
  H     52.312000   21.826800   83.157700
  H     52.398200   22.917900   81.793600
  H     53.554200   22.851500   83.153600
  H     59.081700   23.205200   85.021300
  H     57.052100   17.809300   78.970400

 Total Charge           Charge          ....    0
 Multiplicity           Mult            ....    1
 Number of Electrons    NEL             ....  134
 Basis Dimension        Dim             ....  322

ORBITAL ENERGIES
----------------

  NO   OCC          E(Eh)            E(eV)
   0   2.0000     -88.970057     -2420.9983
   1   2.0000     -88.966376     -2420.8982
   2   2.0000     -10.328677      -281.0576
   3   2.0000     -10.322408      -280.8870
   4   2.0000     -10.318533      -280.7815
   5   2.0000     -10.309751      -280.5426
   6   2.0000     -10.307088      -280.4701
   7   2.0000     -10.306480      -280.4536
   8   2.0000     -10.304002      -280.3862
   9   2.0000     -10.297384      -280.2061
  10   2.0000     -10.295743      -280.1614
  11   2.0000     -10.291496      -280.0458
  12   2.0000     -10.289862      -280.0014
  13   2.0000     -10.284101      -279.8446
  14   2.0000     -10.282200      -279.7929
  15   2.0000     -10.279889      -279.7300
  16   2.0000      -8.084535      -219.9914
  17   2.0000      -8.081167      -219.8997
  18   2.0000      -6.043042      -164.4395
  19   2.0000      -6.039514      -164.3435
  20   2.0000      -6.039078      -164.3317
  21   2.0000      -6.035739      -164.2408
  22   2.0000      -6.035291      -164.2286
  23   2.0000      -6.032023      -164.1397
  24   2.0000      -1.007020       -27.4024
  25   2.0000      -0.982248       -26.7283
  26   2.0000      -0.907199       -24.6862
  27   2.0000      -0.897156       -24.4128
  28   2.0000      -0.872342       -23.7376
  29   2.0000      -0.847476       -23.0610
  30   2.0000      -0.843064       -22.9409
  31   2.0000      -0.815096       -22.1799
  32   2.0000      -0.784816       -21.3559
  33   2.0000      -0.770191       -20.9580
  34   2.0000      -0.707209       -19.2441
  35   2.0000      -0.700262       -19.0551
  36   2.0000      -0.694138       -18.8885
  37   2.0000      -0.654233       -17.8026
  38   2.0000      -0.642514       -17.4837
  39   2.0000      -0.614966       -16.7341
  40   2.0000      -0.584921       -15.9165
  41   2.0000      -0.574968       -15.6457
  42   2.0000      -0.566827       -15.4241
  43   2.0000      -0.544886       -14.8271
  44   2.0000      -0.540003       -14.6942
  45   2.0000      -0.519648       -14.1403
  46   2.0000      -0.510900       -13.9023
  47   2.0000      -0.508876       -13.8472
  48   2.0000      -0.497923       -13.5492
  49   2.0000      -0.495433       -13.4814
  50   2.0000      -0.488086       -13.2815
  51   2.0000      -0.485862       -13.2210
  52   2.0000      -0.479477       -13.0472
  53   2.0000      -0.466221       -12.6865
  54   2.0000      -0.461094       -12.5470
  55   2.0000      -0.448912       -12.2155
  56   2.0000      -0.444306       -12.0902
  57   2.0000      -0.441007       -12.0004
  58   2.0000      -0.428853       -11.6697
  59   2.0000      -0.425805       -11.5867
  60   2.0000      -0.420776       -11.4499
  61   2.0000      -0.417166       -11.3517
  62   2.0000      -0.408780       -11.1235
  63   2.0000      -0.340061        -9.2535
  64   2.0000      -0.333527        -9.0757
  65   2.0000      -0.318781        -8.6745
  66   2.0000      -0.304581        -8.2881
  67   0.0000       0.042592         1.1590
  68   0.0000       0.048681         1.3247
  69   0.0000       0.113442         3.0869
  70   0.0000       0.115741         3.1495
  71   0.0000       0.122489         3.3331

MULLIKEN ATOMIC CHARGES
-----------------------
   0 S :    0.126482
   1 C :   -0.119850
   2 C :   -0.066498
   3 C :    0.050156
   4 C :   -0.209763
   5 H :    0.013184
   6 C :    0.031455
   7 H :    0.040562
   8 H :    0.040074
   9 C :   -0.044457
  10 H :    0.036052
  11 H :    0.014066
  12 C :   -0.062618
  13 H :    0.043463
  14 H :    0.034109
  15 H :    0.023237
  16 S :    0.131218
  17 C :   -0.086740
  18 C :   -0.073927
  19 C :   -0.057600
  20 C :   -0.163198
  21 H :    0.050650
  22 C :    0.131570
  23 H :    0.013413
  24 H :    0.013848
  25 C :   -0.084951
  26 H :    0.020571
  27 H :    0.024291
  28 C :   -0.039008
  29 H :    0.021018
  30 H :    0.041813
  31 H :    0.019664
  32 H :    0.026376
  33 H :    0.061341
Sum of atomic charges:    0.0000000

LOEWDIN ATOMIC CHARGES
----------------------
   0 S :    0.408057
   1 C :   -0.185526
   2 C :   -0.072334
   3 C :   -0.052408
   4 C :   -0.202050
   5 H :    0.029442
   6 C :   -0.028500
   7 H :    0.035366
   8 H :    0.034239
   9 C :   -0.032418
  10 H :    0.027839
  11 H :    0.015110
  12 C :   -0.073762
  13 H :    0.027625
  14 H :    0.034698
  15 H :    0.023158
  16 S :    0.424621
  17 C :   -0.193113
  18 C :   -0.074626
  19 C :   -0.046137
  20 C :   -0.232785
  21 H :    0.044914
  22 C :   -0.016792
  23 H :    0.021893
  24 H :    0.018439
  25 C :   -0.041903
  26 H :    0.023796
  27 H :    0.021960
  28 C :   -0.070691
  29 H :    0.030441
  30 H :    0.026278
  31 H :    0.023563
  32 H :    0.018663
  33 H :    0.032943

  Mayer bond orders larger than 0.100000
B(  0-S ,  1-C ) :   1.1401 B(  0-S ,  4-C ) :   1.1524 B(  1-C ,  2-C ) :   1.6391
B(  1-C , 32-H ) :   0.9636 B(  2-C ,  3-C ) :   1.2415 B(  2-C ,  6-C ) :   1.0136
B(  3-C ,  4-C ) :   1.5732 B(  3-C ,  5-H ) :   0.9950 B(  4-C , 20-C ) :   1.0315
B(  6-C ,  7-H ) :   0.9436 B(  6-C ,  8-H ) :   0.9481 B(  6-C ,  9-C ) :   1.0559
B(  9-C , 10-H ) :   0.9569 B(  9-C , 11-H ) :   0.9617 B(  9-C , 12-C ) :   1.0786
B( 12-C , 13-H ) :   0.9741 B( 12-C , 14-H ) :   0.9701 B( 12-C , 15-H ) :   0.9700
B( 16-S , 17-C ) :   1.1546 B( 16-S , 20-C ) :   1.1552 B( 17-C , 18-C ) :   1.6185
B( 17-C , 33-H ) :   0.9572 B( 18-C , 19-C ) :   1.2566 B( 18-C , 21-H ) :   0.9772
B( 19-C , 20-C ) :   1.5780 B( 19-C , 22-C ) :   1.0389 B( 22-C , 23-H ) :   0.9367
B( 22-C , 24-H ) :   0.9314 B( 22-C , 25-C ) :   1.0669 B( 25-C , 26-H ) :   0.9534
B( 25-C , 27-H ) :   0.9545 B( 25-C , 28-C ) :   1.0802 B( 28-C , 29-H ) :   0.9708
B( 28-C , 30-H ) :   0.9764 B( 28-C , 31-H ) :   0.9688

Dispersion correction           -0.016038961
FINAL SINGLE POINT ENERGY     -1339.863286643408

DIPOLE MOMENT
-------------
                                X             Y             Z
Electronic contribution:     25.93612      -9.28711     -15.37900
Nuclear contribution   :    -26.62384       9.35783      15.84440
                        -----------------------------------------
Total Dipole Moment    :     -0.68772       0.07072       0.46540
                        -----------------------------------------
Magnitude (a.u.)       :      0.83340
Magnitude (Debye)      :      2.11833

Rotational constants in cm-1:     0.017687     0.010312     0.007456
Rotational constants in MHz :   530.251383   309.131292   223.537399

                             ****ORCA TERMINATED NORMALLY****
TOTAL RUN TIME: 0 days 0 hours 0 minutes 32 seconds 545 msec
