                         Program Version 4.2.1 -  RELEASE  -
|  1> ! wB97X-D3 SP def2-SVP
|  2> %pal
|  3> nprocs 16
|  4> end
|  5>
|  6> * xyz 0 1
|  7> S 	 40.2683 	 30.9429 	 57.9044
|  8> C 	 39.4773 	 31.7697 	 56.603
|  9> C 	 38.0735 	 31.693 	 56.7376
| 10> C 	 37.657 	 31.3634 	 58.0605
| 11> C 	 38.7437 	 31.0439 	 58.8117
| 12> H 	 36.6641 	 31.2789 	 58.3478
| 13> C 	 37.1487 	 32.1158 	 55.6213
| 14> H 	 36.5709 	 31.2267 	 55.3368
| 15> H 	 37.7654 	 32.4042 	 54.7559
| 16> C 	 36.1408 	 33.226 	 55.9962
| 17> H 	 35.3254 	 32.7146 	 56.4956
| 18> H 	 36.5803 	 33.9661 	 56.6803
| 19> C 	 35.5226 	 34.0091 	 54.8448
| 20> H 	 36.3202 	 34.6066 	 54.412
| 21> H 	 35.1028 	 33.4408 	 54.011
| 22> H 	 34.7587 	 34.6754 	 55.1873
| 23> S 	 40.0234 	 31.0384 	 61.2392
| 24> C 	 39.2226 	 30.1897 	 62.6415
| 25> C 	 38.0469 	 29.6289 	 62.2577
| 26> C 	 37.7774 	 29.6818 	 60.8983
| 27> C 	 38.6496 	 30.5536 	 60.181
| 28> H 	 37.3252 	 29.2308 	 63.012
| 29> C 	 36.5882 	 29.0229 	 60.2405
| 30> H 	 36.3876 	 28.0514 	 60.6191
| 31> H 	 36.8337 	 28.8717 	 59.1774
| 32> C 	 35.264 	 29.8653 	 60.3787
| 33> H 	 35.5135 	 30.9731 	 60.1936
| 34> H 	 35.0778 	 29.9753 	 61.436
| 35> C 	 33.9617 	 29.5336 	 59.5048
| 36> H 	 33.0422 	 30.1105 	 59.814
| 37> H 	 33.799 	 28.4809 	 59.7726
| 38> H 	 34.0649 	 29.5485 	 58.4151
| 39> H 	 39.9715 	 32.1417 	 55.7401
| 40> H 	 39.5315 	 30.2074 	 63.7008
| 41> *
| 42>
| 43>                          ****END OF INPUT****

CARTESIAN COORDINATES (ANGSTROEM)
---------------------------------
  S     40.268300   30.942900   57.904400
  C     39.477300   31.769700   56.603000
  C     38.073500   31.693000   56.737600
  C     37.657000   31.363400   58.060500
  C     38.743700   31.043900   58.811700
  H     36.664100   31.278900   58.347800
  C     37.148700   32.115800   55.621300
  H     36.570900   31.226700   55.336800
  H     37.765400   32.404200   54.755900
  C     36.140800   33.226000   55.996200
  H     35.325400   32.714600   56.495600
  H     36.580300   33.966100   56.680300
  C     35.522600   34.009100   54.844800
  H     36.320200   34.606600   54.412000
  H     35.102800   33.440800   54.011000
  H     34.758700   34.675400   55.187300
  S     40.023400   31.038400   61.239200
  C     39.222600   30.189700   62.641500
  C     38.046900   29.628900   62.257700
  C     37.777400   29.681800   60.898300
  C     38.649600   30.553600   60.181000
  H     37.325200   29.230800   63.012000
  C     36.588200   29.022900   60.240500
  H     36.387600   28.051400   60.619100
  H     36.833700   28.871700   59.177400
  C     35.264000   29.865300   60.378700
  H     35.513500   30.973100   60.193600
  H     35.077800   29.975300   61.436000
  C     33.961700   29.533600   59.504800
  H     33.042200   30.110500   59.814000
  H     33.799000   28.480900   59.772600
  H     34.064900   29.548500   58.415100
  H     39.971500   32.141700   55.740100
  H     39.531500   30.207400   63.700800

 Total Charge           Charge          ....    0
 Multiplicity           Mult            ....    1
 Number of Electrons    NEL             ....  134
 Basis Dimension        Dim             ....  322

ORBITAL ENERGIES
----------------

  NO   OCC          E(Eh)            E(eV)
   0   2.0000     -88.968652     -2420.9601
   1   2.0000     -88.965291     -2420.8686
   2   2.0000     -10.332712      -281.1674
   3   2.0000     -10.329430      -281.0781
   4   2.0000     -10.321411      -280.8599
   5   2.0000     -10.310780      -280.5706
   6   2.0000     -10.305769      -280.4342
   7   2.0000     -10.301691      -280.3233
   8   2.0000     -10.299719      -280.2696
   9   2.0000     -10.294772      -280.1350
  10   2.0000     -10.294290      -280.1219
  11   2.0000     -10.293598      -280.1031
  12   2.0000     -10.293047      -280.0880
  13   2.0000     -10.289285      -279.9857
  14   2.0000     -10.285982      -279.8958
  15   2.0000     -10.275333      -279.6060
  16   2.0000      -8.083163      -219.9541
  17   2.0000      -8.078098      -219.8162
  18   2.0000      -6.041640      -164.4014
  19   2.0000      -6.038059      -164.3039
  20   2.0000      -6.036722      -164.2676
  21   2.0000      -6.033602      -164.1827
  22   2.0000      -6.032940      -164.1647
  23   2.0000      -6.028781      -164.0515
  24   2.0000      -1.004163       -27.3247
  25   2.0000      -0.979084       -26.6422
  26   2.0000      -0.910002       -24.7624
  27   2.0000      -0.898268       -24.4431
  28   2.0000      -0.869962       -23.6729
  29   2.0000      -0.854841       -23.2614
  30   2.0000      -0.841024       -22.8854
  31   2.0000      -0.818094       -22.2615
  32   2.0000      -0.780894       -21.2492
  33   2.0000      -0.766465       -20.8566
  34   2.0000      -0.710336       -19.3292
  35   2.0000      -0.700218       -19.0539
  36   2.0000      -0.692292       -18.8382
  37   2.0000      -0.660576       -17.9752
  38   2.0000      -0.643030       -17.4977
  39   2.0000      -0.625036       -17.0081
  40   2.0000      -0.593349       -16.1458
  41   2.0000      -0.572553       -15.5799
  42   2.0000      -0.557836       -15.1795
  43   2.0000      -0.549600       -14.9554
  44   2.0000      -0.526136       -14.3169
  45   2.0000      -0.521304       -14.1854
  46   2.0000      -0.514667       -14.0048
  47   2.0000      -0.509919       -13.8756
  48   2.0000      -0.504773       -13.7356
  49   2.0000      -0.499817       -13.6007
  50   2.0000      -0.494654       -13.4602
  51   2.0000      -0.483443       -13.1552
  52   2.0000      -0.475187       -12.9305
  53   2.0000      -0.467773       -12.7287
  54   2.0000      -0.457820       -12.4579
  55   2.0000      -0.453721       -12.3464
  56   2.0000      -0.440451       -11.9853
  57   2.0000      -0.436480       -11.8772
  58   2.0000      -0.433876       -11.8064
  59   2.0000      -0.427494       -11.6327
  60   2.0000      -0.425155       -11.5690
  61   2.0000      -0.415893       -11.3170
  62   2.0000      -0.404953       -11.0193
  63   2.0000      -0.349460        -9.5093
  64   2.0000      -0.332828        -9.0567
  65   2.0000      -0.326957        -8.8970
  66   2.0000      -0.284062        -7.7297
  67   0.0000       0.018031         0.4906
  68   0.0000       0.070728         1.9246
  69   0.0000       0.094777         2.5790
  70   0.0000       0.109196         2.9714
  71   0.0000       0.128550         3.4980

MULLIKEN ATOMIC CHARGES
-----------------------
   0 S :    0.121770
   1 C :   -0.113486
   2 C :   -0.103817
   3 C :    0.044449
   4 C :   -0.078729
   5 H :   -0.026671
   6 C :    0.080235
   7 H :    0.035817
   8 H :    0.013792
   9 C :   -0.095741
  10 H :    0.026593
  11 H :    0.042897
  12 C :   -0.042096
  13 H :    0.025419
  14 H :    0.027912
  15 H :    0.032804
  16 S :    0.080387
  17 C :   -0.092335
  18 C :   -0.049103
  19 C :   -0.033754
  20 C :   -0.176986
  21 H :    0.038859
  22 C :    0.088326
  23 H :    0.016417
  24 H :    0.031123
  25 C :   -0.119991
  26 H :    0.031685
  27 H :    0.016925
  28 C :   -0.052366
  29 H :    0.054936
  30 H :    0.029991
  31 H :    0.042383
  32 H :    0.037021
  33 H :    0.065335
Sum of atomic charges:   -0.0000000

LOEWDIN ATOMIC CHARGES
----------------------
   0 S :    0.400899
   1 C :   -0.201383
   2 C :   -0.052077
   3 C :   -0.048622
   4 C :   -0.179775
   5 H :    0.022704
   6 C :   -0.034093
   7 H :    0.036122
   8 H :    0.027466
   9 C :   -0.044268
  10 H :    0.020519
  11 H :    0.029420
  12 C :   -0.065435
  13 H :    0.024034
  14 H :    0.024138
  15 H :    0.025384
  16 S :    0.356772
  17 C :   -0.167641
  18 C :   -0.079494
  19 C :   -0.057098
  20 C :   -0.171177
  21 H :    0.042331
  22 C :   -0.029655
  23 H :    0.024127
  24 H :    0.032717
  25 C :   -0.052348
  26 H :    0.024111
  27 H :    0.021076
  28 C :   -0.074479
  29 H :    0.038067
  30 H :    0.025986
  31 H :    0.025146
  32 H :    0.019126
  33 H :    0.037401

  Mayer bond orders larger than 0.100000
B(  0-S ,  1-C ) :   1.1292 B(  0-S ,  4-C ) :   1.1451 B(  1-C ,  2-C ) :   1.5938
B(  1-C , 32-H ) :   0.9727 B(  2-C ,  3-C ) :   1.2216 B(  2-C ,  6-C ) :   1.0487
B(  3-C ,  4-C ) :   1.5499 B(  3-C ,  5-H ) :   1.0179 B(  4-C , 20-C ) :   1.0695
B(  6-C ,  7-H ) :   0.9249 B(  6-C ,  8-H ) :   0.9460 B(  6-C ,  9-C ) :   1.0526
B(  9-C , 10-H ) :   0.9498 B(  9-C , 11-H ) :   0.9634 B(  9-C , 12-C ) :   1.0937
B( 12-C , 13-H ) :   0.9746 B( 12-C , 14-H ) :   0.9741 B( 12-C , 15-H ) :   0.9738
B( 16-S , 17-C ) :   1.1292 B( 16-S , 20-C ) :   1.1304 B( 17-C , 18-C ) :   1.6332
B( 17-C , 20-C ) :   0.1126 B( 17-C , 33-H ) :   0.9614 B( 18-C , 19-C ) :   1.2506
B( 18-C , 21-H ) :   0.9742 B( 19-C , 20-C ) :   1.5583 B( 19-C , 22-C ) :   1.0586
B( 22-C , 23-H ) :   0.9296 B( 22-C , 24-H ) :   0.9342 B( 22-C , 25-C ) :   1.0400
B( 25-C , 26-H ) :   0.9558 B( 25-C , 27-H ) :   0.9535 B( 25-C , 28-C ) :   1.0526
B( 28-C , 29-H ) :   0.9747 B( 28-C , 30-H ) :   0.9760 B( 28-C , 31-H ) :   0.9782

Dispersion correction           -0.014446353
FINAL SINGLE POINT ENERGY     -1339.863615473176

DIPOLE MOMENT
-------------
                                X             Y             Z
Electronic contribution:     29.76865      -3.78207      12.69688
Nuclear contribution   :    -30.56257       3.68435     -12.85901
                        -----------------------------------------
Total Dipole Moment    :     -0.79392      -0.09772      -0.16212
                        -----------------------------------------
Magnitude (a.u.)       :      0.81618
Magnitude (Debye)      :      2.07456

Rotational constants in cm-1:     0.017315     0.009269     0.006613
Rotational constants in MHz :   519.102931   277.878454   198.261481

                             ****ORCA TERMINATED NORMALLY****
TOTAL RUN TIME: 0 days 0 hours 0 minutes 33 seconds 675 msec
