                         Program Version 4.2.1 -  RELEASE  -
|  1> ! wB97X-D3 SP def2-SVP
|  2> %pal
|  3> nprocs 16
|  4> end
|  5>
|  6> * xyz 0 1
|  7> S 	 -93.4951 	 37.6516 	 123.782
|  8> C 	 -93.841 	 36.632 	 122.42
|  9> C 	 -95.1514 	 36.8938 	 121.923
| 10> C 	 -95.8173 	 37.972 	 122.656
| 11> C 	 -95.0612 	 38.3387 	 123.73
| 12> H 	 -96.814 	 38.4112 	 122.509
| 13> C 	 -95.6531 	 36.2656 	 120.634
| 14> H 	 -96.3268 	 35.437 	 120.921
| 15> H 	 -94.9095 	 35.6824 	 120.181
| 16> C 	 -96.2444 	 37.314 	 119.58
| 17> H 	 -96.9648 	 36.808 	 118.919
| 18> H 	 -96.8179 	 38.1038 	 120.057
| 19> C 	 -95.167 	 38.036 	 118.798
| 20> H 	 -94.6468 	 37.2462 	 118.226
| 21> H 	 -95.4909 	 38.8011 	 118.078
| 22> H 	 -94.27 	 38.4025 	 119.312
| 23> S 	 -96.4383 	 39.3835 	 125.894
| 24> C 	 -96.4028 	 41.0733 	 126.233
| 25> C 	 -95.5185 	 41.6946 	 125.427
| 26> C 	 -94.956 	 40.8311 	 124.434
| 27> C 	 -95.3624 	 39.4978 	 124.558
| 28> H 	 -95.343 	 42.7195 	 125.59
| 29> C 	 -94.0217 	 41.2963 	 123.344
| 30> H 	 -93.3396 	 40.52 	 123.007
| 31> H 	 -93.3527 	 42.0346 	 123.771
| 32> C 	 -94.6671 	 41.9316 	 122.114
| 33> H 	 -95.6462 	 41.4262 	 121.921
| 34> H 	 -94.0254 	 41.8211 	 121.218
| 35> C 	 -94.887 	 43.4043 	 122.288
| 36> H 	 -95.6578 	 43.8865 	 121.653
| 37> H 	 -93.987 	 43.9713 	 122.124
| 38> H 	 -95.2165 	 43.5307 	 123.293
| 39> H 	 -93.105 	 36.0246 	 121.971
| 40> H 	 -96.9346 	 41.4122 	 127.123
| 41> *
| 42>
| 43>                          ****END OF INPUT****

CARTESIAN COORDINATES (ANGSTROEM)
---------------------------------
  S    -93.495100   37.651600  123.782000
  C    -93.841000   36.632000  122.420000
  C    -95.151400   36.893800  121.923000
  C    -95.817300   37.972000  122.656000
  C    -95.061200   38.338700  123.730000
  H    -96.814000   38.411200  122.509000
  C    -95.653100   36.265600  120.634000
  H    -96.326800   35.437000  120.921000
  H    -94.909500   35.682400  120.181000
  C    -96.244400   37.314000  119.580000
  H    -96.964800   36.808000  118.919000
  H    -96.817900   38.103800  120.057000
  C    -95.167000   38.036000  118.798000
  H    -94.646800   37.246200  118.226000
  H    -95.490900   38.801100  118.078000
  H    -94.270000   38.402500  119.312000
  S    -96.438300   39.383500  125.894000
  C    -96.402800   41.073300  126.233000
  C    -95.518500   41.694600  125.427000
  C    -94.956000   40.831100  124.434000
  C    -95.362400   39.497800  124.558000
  H    -95.343000   42.719500  125.590000
  C    -94.021700   41.296300  123.344000
  H    -93.339600   40.520000  123.007000
  H    -93.352700   42.034600  123.771000
  C    -94.667100   41.931600  122.114000
  H    -95.646200   41.426200  121.921000
  H    -94.025400   41.821100  121.218000
  C    -94.887000   43.404300  122.288000
  H    -95.657800   43.886500  121.653000
  H    -93.987000   43.971300  122.124000
  H    -95.216500   43.530700  123.293000
  H    -93.105000   36.024600  121.971000
  H    -96.934600   41.412200  127.123000

 Total Charge           Charge          ....    0
 Multiplicity           Mult            ....    1
 Number of Electrons    NEL             ....  134
 Basis Dimension        Dim             ....  322

ORBITAL ENERGIES
----------------

  NO   OCC          E(Eh)            E(eV)
   0   2.0000     -88.968077     -2420.9445
   1   2.0000     -88.958852     -2420.6934
   2   2.0000     -10.323294      -280.9111
   3   2.0000     -10.320603      -280.8379
   4   2.0000     -10.314699      -280.6772
   5   2.0000     -10.312447      -280.6160
   6   2.0000     -10.311502      -280.5902
   7   2.0000     -10.302059      -280.3333
   8   2.0000     -10.299802      -280.2718
   9   2.0000     -10.295170      -280.1458
  10   2.0000     -10.294360      -280.1238
  11   2.0000     -10.288911      -279.9755
  12   2.0000     -10.282213      -279.7933
  13   2.0000     -10.281404      -279.7712
  14   2.0000     -10.277899      -279.6759
  15   2.0000     -10.267580      -279.3951
  16   2.0000      -8.083346      -219.9590
  17   2.0000      -8.075027      -219.7327
  18   2.0000      -6.041650      -164.4017
  19   2.0000      -6.037755      -164.2957
  20   2.0000      -6.034307      -164.2018
  21   2.0000      -6.033295      -164.1743
  22   2.0000      -6.029139      -164.0612
  23   2.0000      -6.026156      -163.9800
  24   2.0000      -1.012240       -27.5444
  25   2.0000      -0.988579       -26.9006
  26   2.0000      -0.910929       -24.7876
  27   2.0000      -0.906743       -24.6737
  28   2.0000      -0.872404       -23.7393
  29   2.0000      -0.849204       -23.1080
  30   2.0000      -0.846232       -23.0271
  31   2.0000      -0.820704       -22.3325
  32   2.0000      -0.782293       -21.2873
  33   2.0000      -0.768978       -20.9250
  34   2.0000      -0.711044       -19.3485
  35   2.0000      -0.696620       -18.9560
  36   2.0000      -0.685188       -18.6449
  37   2.0000      -0.662696       -18.0329
  38   2.0000      -0.648605       -17.6494
  39   2.0000      -0.620818       -16.8933
  40   2.0000      -0.600713       -16.3462
  41   2.0000      -0.569671       -15.5015
  42   2.0000      -0.553443       -15.0599
  43   2.0000      -0.549849       -14.9622
  44   2.0000      -0.544360       -14.8128
  45   2.0000      -0.530357       -14.4317
  46   2.0000      -0.519690       -14.1415
  47   2.0000      -0.512583       -13.9481
  48   2.0000      -0.506080       -13.7711
  49   2.0000      -0.494404       -13.4534
  50   2.0000      -0.487293       -13.2599
  51   2.0000      -0.483068       -13.1449
  52   2.0000      -0.472866       -12.8673
  53   2.0000      -0.470170       -12.7940
  54   2.0000      -0.462028       -12.5724
  55   2.0000      -0.448071       -12.1926
  56   2.0000      -0.445046       -12.1103
  57   2.0000      -0.439168       -11.9504
  58   2.0000      -0.424414       -11.5489
  59   2.0000      -0.421078       -11.4581
  60   2.0000      -0.416453       -11.3323
  61   2.0000      -0.411331       -11.1929
  62   2.0000      -0.408990       -11.1292
  63   2.0000      -0.337351        -9.1798
  64   2.0000      -0.334245        -9.0953
  65   2.0000      -0.318871        -8.6769
  66   2.0000      -0.308790        -8.4026
  67   0.0000       0.045612         1.2412
  68   0.0000       0.062272         1.6945
  69   0.0000       0.112120         3.0510
  70   0.0000       0.127119         3.4591
  71   0.0000       0.132962         3.6181

MULLIKEN ATOMIC CHARGES
-----------------------
   0 S :    0.124654
   1 C :   -0.113531
   2 C :   -0.100584
   3 C :    0.038501
   4 C :   -0.159332
   5 H :    0.036406
   6 C :    0.086270
   7 H :    0.040022
   8 H :   -0.006943
   9 C :   -0.058793
  10 H :    0.035238
  11 H :    0.031519
  12 C :   -0.068335
  13 H :    0.011172
  14 H :    0.046180
  15 H :    0.035754
  16 S :    0.101539
  17 C :   -0.105829
  18 C :   -0.013147
  19 C :   -0.021387
  20 C :   -0.184656
  21 H :    0.010732
  22 C :    0.072783
  23 H :    0.016396
  24 H :    0.013365
  25 C :   -0.062796
  26 H :    0.033150
  27 H :    0.030366
  28 C :   -0.038223
  29 H :    0.031073
  30 H :    0.026343
  31 H :    0.005916
  32 H :    0.039902
  33 H :    0.066276
Sum of atomic charges:   -0.0000000

LOEWDIN ATOMIC CHARGES
----------------------
   0 S :    0.439047
   1 C :   -0.203232
   2 C :   -0.052199
   3 C :   -0.055730
   4 C :   -0.210654
   5 H :    0.041220
   6 C :   -0.031401
   7 H :    0.038976
   8 H :    0.019781
   9 C :   -0.036778
  10 H :    0.028218
  11 H :    0.021135
  12 C :   -0.078304
  13 H :    0.024223
  14 H :    0.029695
  15 H :    0.029631
  16 S :    0.426428
  17 C :   -0.189223
  18 C :   -0.074479
  19 C :   -0.053760
  20 C :   -0.217398
  21 H :    0.026153
  22 C :   -0.036343
  23 H :    0.026252
  24 H :    0.028391
  25 C :   -0.041834
  26 H :    0.027624
  27 H :    0.025813
  28 C :   -0.067816
  29 H :    0.028369
  30 H :    0.021823
  31 H :    0.016173
  32 H :    0.018372
  33 H :    0.031826

  Mayer bond orders larger than 0.100000
B(  0-S ,  1-C ) :   1.1500 B(  0-S ,  4-C ) :   1.1743 B(  1-C ,  2-C ) :   1.5849
B(  1-C , 32-H ) :   0.9774 B(  2-C ,  3-C ) :   1.2272 B(  2-C ,  6-C ) :   1.0332
B(  3-C ,  4-C ) :   1.5987 B(  3-C ,  5-H ) :   0.9855 B(  4-C , 20-C ) :   0.9872
B(  6-C ,  7-H ) :   0.9322 B(  6-C ,  8-H ) :   0.9430 B(  6-C ,  9-C ) :   1.0467
B(  9-C , 10-H ) :   0.9573 B(  9-C , 11-H ) :   0.9634 B(  9-C , 12-C ) :   1.0650
B( 12-C , 13-H ) :   0.9705 B( 12-C , 14-H ) :   0.9753 B( 12-C , 15-H ) :   0.9761
B( 16-S , 17-C ) :   1.1801 B( 16-S , 20-C ) :   1.1654 B( 17-C , 18-C ) :   1.5761
B( 17-C , 33-H ) :   0.9678 B( 18-C , 19-C ) :   1.2461 B( 18-C , 21-H ) :   1.0006
B( 19-C , 20-C ) :   1.5807 B( 19-C , 22-C ) :   1.0590 B( 22-C , 23-H ) :   0.9237
B( 22-C , 24-H ) :   0.9350 B( 22-C , 25-C ) :   1.0590 B( 25-C , 26-H ) :   0.9550
B( 25-C , 27-H ) :   0.9578 B( 25-C , 28-C ) :   1.0821 B( 28-C , 29-H ) :   0.9711
B( 28-C , 30-H ) :   0.9725 B( 28-C , 31-H ) :   0.9744

Dispersion correction           -0.015269522
FINAL SINGLE POINT ENERGY     -1339.881830437746

DIPOLE MOMENT
-------------
                                X             Y             Z
Electronic contribution:      0.42235     -10.14050      25.39053
Nuclear contribution   :     -0.40434      10.31875     -25.91018
                        -----------------------------------------
Total Dipole Moment    :      0.01802       0.17825      -0.51965
                        -----------------------------------------
Magnitude (a.u.)       :      0.54966
Magnitude (Debye)      :      1.39714

Rotational constants in cm-1:     0.018299     0.009533     0.007664
Rotational constants in MHz :   548.592935   285.785293   229.751060

                             ****ORCA TERMINATED NORMALLY****
TOTAL RUN TIME: 0 days 0 hours 0 minutes 33 seconds 404 msec
