                         Program Version 4.2.1 -  RELEASE  -
|  1> ! wB97X-D3 SP def2-SVP
|  2> %pal
|  3> nprocs 16
|  4> end
|  5>
|  6> * xyz 0 1
|  7> S 	 -98.1818 	 44.3072 	 117.795
|  8> C 	 -98.4086 	 45.0928 	 119.33
|  9> C 	 -97.3261 	 44.9353 	 120.185
| 10> C 	 -96.4599 	 43.9429 	 119.661
| 11> C 	 -96.6774 	 43.6815 	 118.318
| 12> H 	 -95.5888 	 43.5388 	 120.201
| 13> C 	 -97.0888 	 45.4273 	 121.602
| 14> H 	 -96.9671 	 44.5149 	 122.174
| 15> H 	 -98.0449 	 45.905 	 121.817
| 16> C 	 -95.7516 	 46.2016 	 121.736
| 17> H 	 -94.9324 	 45.7292 	 121.257
| 18> H 	 -95.6366 	 47.1589 	 121.156
| 19> C 	 -95.5165 	 46.4852 	 123.263
| 20> H 	 -96.2313 	 47.3025 	 123.579
| 21> H 	 -95.6987 	 45.6362 	 123.879
| 22> H 	 -94.4669 	 46.8441 	 123.519
| 23> S 	 -96.8096 	 41.4874 	 116.749
| 24> C 	 -95.5485 	 41.1336 	 115.629
| 25> C 	 -94.4204 	 41.8452 	 115.988
| 26> C 	 -94.601 	 42.7257 	 117.1
| 27> C 	 -95.9144 	 42.7295 	 117.509
| 28> H 	 -93.5714 	 41.7819 	 115.309
| 29> C 	 -93.4512 	 43.6448 	 117.625
| 30> H 	 -92.6164 	 42.9596 	 117.916
| 31> H 	 -93.8821 	 44.1662 	 118.482
| 32> C 	 -92.9443 	 44.6962 	 116.614
| 33> H 	 -92.4885 	 44.1021 	 115.837
| 34> H 	 -92.115 	 45.208 	 117.089
| 35> C 	 -93.9687 	 45.6347 	 115.931
| 36> H 	 -93.4075 	 46.2348 	 115.22
| 37> H 	 -94.408 	 46.3526 	 116.612
| 38> H 	 -94.8488 	 45.1671 	 115.387
| 39> H 	 -99.1587 	 45.7751 	 119.614
| 40> H 	 -95.5059 	 40.459 	 114.806
| 41> *
| 42>
| 43>                          ****END OF INPUT****

CARTESIAN COORDINATES (ANGSTROEM)
---------------------------------
  S    -98.181800   44.307200  117.795000
  C    -98.408600   45.092800  119.330000
  C    -97.326100   44.935300  120.185000
  C    -96.459900   43.942900  119.661000
  C    -96.677400   43.681500  118.318000
  H    -95.588800   43.538800  120.201000
  C    -97.088800   45.427300  121.602000
  H    -96.967100   44.514900  122.174000
  H    -98.044900   45.905000  121.817000
  C    -95.751600   46.201600  121.736000
  H    -94.932400   45.729200  121.257000
  H    -95.636600   47.158900  121.156000
  C    -95.516500   46.485200  123.263000
  H    -96.231300   47.302500  123.579000
  H    -95.698700   45.636200  123.879000
  H    -94.466900   46.844100  123.519000
  S    -96.809600   41.487400  116.749000
  C    -95.548500   41.133600  115.629000
  C    -94.420400   41.845200  115.988000
  C    -94.601000   42.725700  117.100000
  C    -95.914400   42.729500  117.509000
  H    -93.571400   41.781900  115.309000
  C    -93.451200   43.644800  117.625000
  H    -92.616400   42.959600  117.916000
  H    -93.882100   44.166200  118.482000
  C    -92.944300   44.696200  116.614000
  H    -92.488500   44.102100  115.837000
  H    -92.115000   45.208000  117.089000
  C    -93.968700   45.634700  115.931000
  H    -93.407500   46.234800  115.220000
  H    -94.408000   46.352600  116.612000
  H    -94.848800   45.167100  115.387000
  H    -99.158700   45.775100  119.614000
  H    -95.505900   40.459000  114.806000

 Total Charge           Charge          ....    0
 Multiplicity           Mult            ....    1
 Number of Electrons    NEL             ....  134
 Basis Dimension        Dim             ....  322

ORBITAL ENERGIES
----------------

  NO   OCC          E(Eh)            E(eV)
   0   2.0000     -88.970258     -2421.0038
   1   2.0000     -88.961844     -2420.7748
   2   2.0000     -10.324841      -280.9532
   3   2.0000     -10.319897      -280.8187
   4   2.0000     -10.309669      -280.5404
   5   2.0000     -10.308630      -280.5121
   6   2.0000     -10.301239      -280.3110
   7   2.0000     -10.298244      -280.2295
   8   2.0000     -10.296458      -280.1809
   9   2.0000     -10.295498      -280.1547
  10   2.0000     -10.295144      -280.1451
  11   2.0000     -10.289818      -280.0002
  12   2.0000     -10.289398      -279.9888
  13   2.0000     -10.287900      -279.9480
  14   2.0000     -10.285491      -279.8824
  15   2.0000     -10.278093      -279.6811
  16   2.0000      -8.085357      -220.0137
  17   2.0000      -8.077810      -219.8084
  18   2.0000      -6.043832      -164.4610
  19   2.0000      -6.039794      -164.3512
  20   2.0000      -6.036235      -164.2543
  21   2.0000      -6.036137      -164.2516
  22   2.0000      -6.032038      -164.1401
  23   2.0000      -6.028672      -164.0485
  24   2.0000      -1.014491       -27.6057
  25   2.0000      -0.990317       -26.9479
  26   2.0000      -0.912882       -24.8408
  27   2.0000      -0.901327       -24.5263
  28   2.0000      -0.868441       -23.6315
  29   2.0000      -0.849540       -23.1172
  30   2.0000      -0.841263       -22.8919
  31   2.0000      -0.812323       -22.1044
  32   2.0000      -0.781330       -21.2611
  33   2.0000      -0.773957       -21.0604
  34   2.0000      -0.714282       -19.4366
  35   2.0000      -0.702295       -19.1104
  36   2.0000      -0.693928       -18.8827
  37   2.0000      -0.655789       -17.8449
  38   2.0000      -0.637579       -17.3494
  39   2.0000      -0.620961       -16.8972
  40   2.0000      -0.588754       -16.0208
  41   2.0000      -0.572379       -15.5752
  42   2.0000      -0.556227       -15.1357
  43   2.0000      -0.547366       -14.8946
  44   2.0000      -0.536125       -14.5887
  45   2.0000      -0.526791       -14.3347
  46   2.0000      -0.518217       -14.1014
  47   2.0000      -0.507704       -13.8153
  48   2.0000      -0.502151       -13.6642
  49   2.0000      -0.497118       -13.5273
  50   2.0000      -0.496180       -13.5018
  51   2.0000      -0.477781       -13.0011
  52   2.0000      -0.468101       -12.7377
  53   2.0000      -0.462798       -12.5934
  54   2.0000      -0.456992       -12.4354
  55   2.0000      -0.450571       -12.2607
  56   2.0000      -0.445432       -12.1208
  57   2.0000      -0.441836       -12.0230
  58   2.0000      -0.434507       -11.8235
  59   2.0000      -0.422108       -11.4861
  60   2.0000      -0.418815       -11.3965
  61   2.0000      -0.417650       -11.3648
  62   2.0000      -0.411094       -11.1864
  63   2.0000      -0.342632        -9.3235
  64   2.0000      -0.333148        -9.0654
  65   2.0000      -0.326060        -8.8725
  66   2.0000      -0.293148        -7.9770
  67   0.0000       0.033544         0.9128
  68   0.0000       0.077057         2.0968
  69   0.0000       0.117705         3.2029
  70   0.0000       0.121498         3.3061
  71   0.0000       0.126364         3.4385

MULLIKEN ATOMIC CHARGES
-----------------------
   0 S :    0.135027
   1 C :   -0.103911
   2 C :   -0.119274
   3 C :    0.006735
   4 C :   -0.144667
   5 H :    0.029448
   6 C :    0.102992
   7 H :    0.037292
   8 H :    0.022940
   9 C :   -0.077374
  10 H :    0.018142
  11 H :    0.032623
  12 C :   -0.066320
  13 H :    0.043131
  14 H :    0.027225
  15 H :    0.041744
  16 S :    0.115677
  17 C :   -0.080254
  18 C :   -0.068740
  19 C :   -0.035750
  20 C :   -0.181970
  21 H :    0.021768
  22 C :    0.082281
  23 H :    0.044929
  24 H :    0.013671
  25 C :   -0.067326
  26 H :    0.016227
  27 H :    0.029681
  28 C :   -0.056805
  29 H :    0.029187
  30 H :    0.029741
  31 H :    0.056265
  32 H :    0.023450
  33 H :    0.042215
Sum of atomic charges:   -0.0000000

LOEWDIN ATOMIC CHARGES
----------------------
   0 S :    0.434454
   1 C :   -0.205376
   2 C :   -0.062377
   3 C :   -0.064945
   4 C :   -0.209235
   5 H :    0.032407
   6 C :   -0.023689
   7 H :    0.037590
   8 H :    0.031849
   9 C :   -0.044016
  10 H :    0.018010
  11 H :    0.033267
  12 C :   -0.071456
  13 H :    0.033007
  14 H :    0.016647
  15 H :    0.031086
  16 S :    0.428844
  17 C :   -0.196370
  18 C :   -0.075827
  19 C :   -0.059082
  20 C :   -0.213809
  21 H :    0.030100
  22 C :   -0.029082
  23 H :    0.039816
  24 H :    0.023058
  25 C :   -0.041991
  26 H :    0.018901
  27 H :    0.025823
  28 C :   -0.070045
  29 H :    0.026721
  30 H :    0.022646
  31 H :    0.038027
  32 H :    0.017954
  33 H :    0.027095

  Mayer bond orders larger than 0.100000
B(  0-S ,  1-C ) :   1.1383 B(  0-S ,  4-C ) :   1.1620 B(  1-C ,  2-C ) :   1.6169
B(  1-C , 32-H ) :   0.9646 B(  2-C ,  3-C ) :   1.2454 B(  2-C ,  6-C ) :   1.0176
B(  3-C ,  4-C ) :   1.5704 B(  3-C ,  5-H ) :   0.9796 B(  4-C , 20-C ) :   1.0202
B(  6-C ,  7-H ) :   0.9397 B(  6-C ,  8-H ) :   0.9429 B(  6-C ,  9-C ) :   1.0413
B(  9-C , 10-H ) :   0.9599 B(  9-C , 11-H ) :   0.9532 B(  9-C , 12-C ) :   1.0683
B( 12-C , 13-H ) :   0.9770 B( 12-C , 14-H ) :   0.9779 B( 12-C , 15-H ) :   0.9757
B( 16-S , 17-C ) :   1.1459 B( 16-S , 20-C ) :   1.1673 B( 17-C , 18-C ) :   1.6219
B( 17-C , 33-H ) :   0.9713 B( 18-C , 19-C ) :   1.2358 B( 18-C , 21-H ) :   0.9887
B( 19-C , 20-C ) :   1.5918 B( 19-C , 22-C ) :   1.0277 B( 22-C , 23-H ) :   0.9365
B( 22-C , 24-H ) :   0.9328 B( 22-C , 25-C ) :   1.0753 B( 25-C , 26-H ) :   0.9549
B( 25-C , 27-H ) :   0.9552 B( 25-C , 28-C ) :   1.0709 B( 28-C , 29-H ) :   0.9730
B( 28-C , 30-H ) :   0.9768 B( 28-C , 31-H ) :   0.9725

Dispersion correction           -0.014715362
FINAL SINGLE POINT ENERGY     -1339.871102599989

DIPOLE MOMENT
-------------
                                X             Y             Z
Electronic contribution:    -17.29746     -17.40373     -13.36205
Nuclear contribution   :     17.79409      17.71349      13.60692
                        -----------------------------------------
Total Dipole Moment    :      0.49663       0.30976       0.24487
                        -----------------------------------------
Magnitude (a.u.)       :      0.63447
Magnitude (Debye)      :      1.61270

Rotational constants in cm-1:     0.019345     0.008858     0.007196
Rotational constants in MHz :   579.944006   265.559439   215.743701

                             ****ORCA TERMINATED NORMALLY****
TOTAL RUN TIME: 0 days 0 hours 0 minutes 33 seconds 624 msec
