                         Program Version 4.2.1 -  RELEASE  -
|  1> ! wB97X-D3 SP def2-SVP
|  2> %pal
|  3> nprocs 16
|  4> end
|  5>
|  6> * xyz 0 1
|  7> S 	 41.6304 	 20.3056 	 80.7986
|  8> C 	 39.9713 	 20.8636 	 80.9693
|  9> C 	 39.4405 	 21.1799 	 79.7275
| 10> C 	 40.3435 	 20.9171 	 78.6768
| 11> C 	 41.5545 	 20.3742 	 79.0626
| 12> H 	 40.1559 	 21.1863 	 77.6256
| 13> C 	 38.0306 	 21.7809 	 79.5917
| 14> H 	 37.2741 	 21.195 	 80.0686
| 15> H 	 37.6913 	 21.6906 	 78.5262
| 16> C 	 37.9139 	 23.2462 	 80.1075
| 17> H 	 38.179 	 23.2891 	 81.1604
| 18> H 	 38.6468 	 23.9867 	 79.7018
| 19> C 	 36.5351 	 23.7651 	 79.8182
| 20> H 	 36.3705 	 23.8102 	 78.7372
| 21> H 	 35.6865 	 23.2898 	 80.3494
| 22> H 	 36.5586 	 24.827 	 80.1257
| 23> S 	 44.298 	 20.6279 	 78.7654
| 24> C 	 45.0073 	 20.3386 	 77.197
| 25> C 	 44.1478 	 19.5285 	 76.4533
| 26> C 	 42.7924 	 19.4636 	 77.0152
| 27> C 	 42.71 	 20.1436 	 78.2003
| 28> H 	 44.4513 	 19.1266 	 75.5433
| 29> C 	 41.7687 	 18.6459 	 76.2628
| 30> H 	 42.1656 	 18.4877 	 75.2696
| 31> H 	 40.7865 	 19.2195 	 76.1803
| 32> C 	 41.4009 	 17.2997 	 76.9374
| 33> H 	 40.5597 	 16.8724 	 76.3493
| 34> H 	 41.0583 	 17.5195 	 77.9527
| 35> C 	 42.5182 	 16.2153 	 76.978
| 36> H 	 42.1333 	 15.2579 	 77.3415
| 37> H 	 43.4337 	 16.4557 	 77.5977
| 38> H 	 42.9513 	 16.0404 	 76.0188
| 39> H 	 39.4366 	 20.9769 	 81.8697
| 40> H 	 46.0547 	 20.2359 	 76.9666
| 41> *
| 42>
| 43>                          ****END OF INPUT****

CARTESIAN COORDINATES (ANGSTROEM)
---------------------------------
  S     41.630400   20.305600   80.798600
  C     39.971300   20.863600   80.969300
  C     39.440500   21.179900   79.727500
  C     40.343500   20.917100   78.676800
  C     41.554500   20.374200   79.062600
  H     40.155900   21.186300   77.625600
  C     38.030600   21.780900   79.591700
  H     37.274100   21.195000   80.068600
  H     37.691300   21.690600   78.526200
  C     37.913900   23.246200   80.107500
  H     38.179000   23.289100   81.160400
  H     38.646800   23.986700   79.701800
  C     36.535100   23.765100   79.818200
  H     36.370500   23.810200   78.737200
  H     35.686500   23.289800   80.349400
  H     36.558600   24.827000   80.125700
  S     44.298000   20.627900   78.765400
  C     45.007300   20.338600   77.197000
  C     44.147800   19.528500   76.453300
  C     42.792400   19.463600   77.015200
  C     42.710000   20.143600   78.200300
  H     44.451300   19.126600   75.543300
  C     41.768700   18.645900   76.262800
  H     42.165600   18.487700   75.269600
  H     40.786500   19.219500   76.180300
  C     41.400900   17.299700   76.937400
  H     40.559700   16.872400   76.349300
  H     41.058300   17.519500   77.952700
  C     42.518200   16.215300   76.978000
  H     42.133300   15.257900   77.341500
  H     43.433700   16.455700   77.597700
  H     42.951300   16.040400   76.018800
  H     39.436600   20.976900   81.869700
  H     46.054700   20.235900   76.966600

 Total Charge           Charge          ....    0
 Multiplicity           Mult            ....    1
 Number of Electrons    NEL             ....  134
 Basis Dimension        Dim             ....  322

ORBITAL ENERGIES
----------------

  NO   OCC          E(Eh)            E(eV)
   0   2.0000     -88.968448     -2420.9545
   1   2.0000     -88.964644     -2420.8510
   2   2.0000     -10.329920      -281.0914
   3   2.0000     -10.327969      -281.0383
   4   2.0000     -10.315263      -280.6926
   5   2.0000     -10.311997      -280.6037
   6   2.0000     -10.303149      -280.3629
   7   2.0000     -10.301120      -280.3077
   8   2.0000     -10.296580      -280.1842
   9   2.0000     -10.296311      -280.1769
  10   2.0000     -10.294378      -280.1243
  11   2.0000     -10.293454      -280.0991
  12   2.0000     -10.290089      -280.0076
  13   2.0000     -10.289538      -279.9926
  14   2.0000     -10.280527      -279.7474
  15   2.0000     -10.276925      -279.6494
  16   2.0000      -8.083025      -219.9503
  17   2.0000      -8.079459      -219.8533
  18   2.0000      -6.041511      -164.3979
  19   2.0000      -6.038174      -164.3071
  20   2.0000      -6.037537      -164.2897
  21   2.0000      -6.034122      -164.1968
  22   2.0000      -6.033845      -164.1893
  23   2.0000      -6.029833      -164.0801
  24   2.0000      -1.008318       -27.4377
  25   2.0000      -0.984649       -26.7937
  26   2.0000      -0.910634       -24.7796
  27   2.0000      -0.903407       -24.5829
  28   2.0000      -0.870902       -23.6984
  29   2.0000      -0.850409       -23.1408
  30   2.0000      -0.841100       -22.8875
  31   2.0000      -0.815742       -22.1975
  32   2.0000      -0.781076       -21.2542
  33   2.0000      -0.771909       -21.0047
  34   2.0000      -0.709953       -19.3188
  35   2.0000      -0.700933       -19.0734
  36   2.0000      -0.687483       -18.7074
  37   2.0000      -0.666910       -18.1475
  38   2.0000      -0.642077       -17.4718
  39   2.0000      -0.619608       -16.8604
  40   2.0000      -0.588087       -16.0027
  41   2.0000      -0.569836       -15.5060
  42   2.0000      -0.558559       -15.1992
  43   2.0000      -0.545185       -14.8352
  44   2.0000      -0.538605       -14.6562
  45   2.0000      -0.526578       -14.3289
  46   2.0000      -0.517707       -14.0875
  47   2.0000      -0.513621       -13.9763
  48   2.0000      -0.503927       -13.7126
  49   2.0000      -0.499553       -13.5935
  50   2.0000      -0.487267       -13.2592
  51   2.0000      -0.476307       -12.9610
  52   2.0000      -0.472620       -12.8607
  53   2.0000      -0.464354       -12.6357
  54   2.0000      -0.460197       -12.5226
  55   2.0000      -0.453977       -12.3534
  56   2.0000      -0.442367       -12.0374
  57   2.0000      -0.437919       -11.9164
  58   2.0000      -0.429021       -11.6743
  59   2.0000      -0.424019       -11.5381
  60   2.0000      -0.417805       -11.3690
  61   2.0000      -0.415189       -11.2979
  62   2.0000      -0.412236       -11.2175
  63   2.0000      -0.352600        -9.5947
  64   2.0000      -0.333790        -9.0829
  65   2.0000      -0.324799        -8.8382
  66   2.0000      -0.290193        -7.8966
  67   0.0000       0.023918         0.6509
  68   0.0000       0.066629         1.8131
  69   0.0000       0.104614         2.8467
  70   0.0000       0.121930         3.3179
  71   0.0000       0.137182         3.7329

MULLIKEN ATOMIC CHARGES
-----------------------
   0 S :    0.107295
   1 C :   -0.107116
   2 C :   -0.065797
   3 C :    0.009468
   4 C :   -0.141727
   5 H :    0.021744
   6 C :    0.057056
   7 H :    0.023292
   8 H :    0.017953
   9 C :   -0.084005
  10 H :    0.023026
  11 H :    0.036753
  12 C :   -0.053131
  13 H :    0.033775
  14 H :    0.042536
  15 H :    0.030112
  16 S :    0.098859
  17 C :   -0.068394
  18 C :   -0.045547
  19 C :   -0.045566
  20 C :   -0.145521
  21 H :    0.000185
  22 C :    0.064874
  23 H :    0.015809
  24 H :    0.038866
  25 C :   -0.070318
  26 H :    0.036229
  27 H :    0.044953
  28 C :   -0.063476
  29 H :    0.036107
  30 H :    0.044401
  31 H :    0.012709
  32 H :    0.032982
  33 H :    0.061613
Sum of atomic charges:    0.0000000

LOEWDIN ATOMIC CHARGES
----------------------
   0 S :    0.408908
   1 C :   -0.187278
   2 C :   -0.062573
   3 C :   -0.067486
   4 C :   -0.196958
   5 H :    0.035031
   6 C :   -0.032528
   7 H :    0.028072
   8 H :    0.031148
   9 C :   -0.044712
  10 H :    0.020875
  11 H :    0.032298
  12 C :   -0.071216
  13 H :    0.026551
  14 H :    0.027450
  15 H :    0.030193
  16 S :    0.399913
  17 C :   -0.194570
  18 C :   -0.054835
  19 C :   -0.057785
  20 C :   -0.192747
  21 H :    0.017091
  22 C :   -0.034282
  23 H :    0.025524
  24 H :    0.039756
  25 C :   -0.036146
  26 H :    0.028551
  27 H :    0.027901
  28 C :   -0.074167
  29 H :    0.027562
  30 H :    0.032635
  31 H :    0.015883
  32 H :    0.020309
  33 H :    0.031632

  Mayer bond orders larger than 0.100000
B(  0-S ,  1-C ) :   1.1414 B(  0-S ,  4-C ) :   1.1531 B(  1-C ,  2-C ) :   1.5831
B(  1-C ,  4-C ) :   0.1019 B(  1-C , 32-H ) :   0.9778 B(  2-C ,  3-C ) :   1.2848
B(  2-C ,  6-C ) :   1.0131 B(  3-C ,  4-C ) :   1.5493 B(  3-C ,  5-H ) :   0.9882
B(  4-C , 20-C ) :   1.0559 B(  6-C ,  7-H ) :   0.9417 B(  6-C ,  8-H ) :   0.9481
B(  6-C ,  9-C ) :   1.0507 B(  9-C , 10-H ) :   0.9540 B(  9-C , 11-H ) :   0.9554
B(  9-C , 12-C ) :   1.0897 B( 12-C , 13-H ) :   0.9733 B( 12-C , 14-H ) :   0.9733
B( 12-C , 15-H ) :   0.9711 B( 16-S , 17-C ) :   1.1432 B( 16-S , 20-C ) :   1.1272
B( 17-C , 18-C ) :   1.6310 B( 17-C , 33-H ) :   0.9599 B( 18-C , 19-C ) :   1.2255
B( 18-C , 21-H ) :   0.9916 B( 19-C , 20-C ) :   1.6042 B( 19-C , 22-C ) :   1.0477
B( 22-C , 23-H ) :   0.9339 B( 22-C , 24-H ) :   0.9308 B( 22-C , 25-C ) :   1.0709
B( 25-C , 26-H ) :   0.9561 B( 25-C , 27-H ) :   0.9577 B( 25-C , 28-C ) :   1.0688
B( 28-C , 29-H ) :   0.9758 B( 28-C , 30-H ) :   0.9755 B( 28-C , 31-H ) :   0.9749

Dispersion correction           -0.014229651
FINAL SINGLE POINT ENERGY     -1339.883036202797

DIPOLE MOMENT
-------------
                                X             Y             Z
Electronic contribution:     20.73645       1.96865       8.51573
Nuclear contribution   :    -21.22626      -2.05719      -8.87026
                        -----------------------------------------
Total Dipole Moment    :     -0.48981      -0.08855      -0.35453
                        -----------------------------------------
Magnitude (a.u.)       :      0.61110
Magnitude (Debye)      :      1.55329

Rotational constants in cm-1:     0.022180     0.007295     0.006563
Rotational constants in MHz :   664.946811   218.691138   196.766438

                             ****ORCA TERMINATED NORMALLY****
TOTAL RUN TIME: 0 days 0 hours 0 minutes 29 seconds 530 msec
