                         Program Version 4.2.1 -  RELEASE  -
|  1> ! wB97X-D3 SP def2-SVP
|  2> %pal
|  3> nprocs 16
|  4> end
|  5>
|  6> * xyz 0 1
|  7> S 	 -65.7891 	 40.6254 	 137.078
|  8> C 	 -65.9566 	 39.6989 	 138.514
|  9> C 	 -66.0674 	 38.3164 	 138.259
| 10> C 	 -66.0694 	 38.0124 	 136.863
| 11> C 	 -65.9536 	 39.1517 	 136.051
| 12> H 	 -66.2604 	 37.0259 	 136.499
| 13> C 	 -66.3915 	 37.2895 	 139.321
| 14> H 	 -66.1321 	 37.6074 	 140.314
| 15> H 	 -65.8019 	 36.393 	 139.207
| 16> C 	 -67.8425 	 36.7407 	 139.327
| 17> H 	 -67.9824 	 36.0471 	 138.545
| 18> H 	 -67.9843 	 36.2565 	 140.299
| 19> C 	 -68.8703 	 37.9072 	 139.184
| 20> H 	 -68.9001 	 38.4375 	 140.182
| 21> H 	 -68.5207 	 38.7507 	 138.547
| 22> H 	 -69.9042 	 37.554 	 138.946
| 23> S 	 -67.2876 	 39.4031 	 133.627
| 24> C 	 -66.3905 	 39.3943 	 132.152
| 25> C 	 -65.1581 	 38.9544 	 132.35
| 26> C 	 -64.8031 	 38.8731 	 133.737
| 27> C 	 -65.8434 	 39.2182 	 134.575
| 28> H 	 -64.4476 	 38.9553 	 131.58
| 29> C 	 -63.4803 	 38.3709 	 134.219
| 30> H 	 -63.3414 	 37.4488 	 133.721
| 31> H 	 -63.4902 	 38.2523 	 135.271
| 32> C 	 -62.2815 	 39.3209 	 134.039
| 33> H 	 -62.1791 	 39.5481 	 132.972
| 34> H 	 -61.3931 	 38.7846 	 134.242
| 35> C 	 -62.3307 	 40.5884 	 134.845
| 36> H 	 -63.2524 	 41.2265 	 134.618
| 37> H 	 -61.5508 	 41.2632 	 134.618
| 38> H 	 -62.3313 	 40.4547 	 135.945
| 39> H 	 -65.9482 	 40.053 	 139.539
| 40> H 	 -66.8497 	 39.473 	 131.2
| 41> *
| 42>
| 43>                          ****END OF INPUT****

CARTESIAN COORDINATES (ANGSTROEM)
---------------------------------
  S    -65.789100   40.625400  137.078000
  C    -65.956600   39.698900  138.514000
  C    -66.067400   38.316400  138.259000
  C    -66.069400   38.012400  136.863000
  C    -65.953600   39.151700  136.051000
  H    -66.260400   37.025900  136.499000
  C    -66.391500   37.289500  139.321000
  H    -66.132100   37.607400  140.314000
  H    -65.801900   36.393000  139.207000
  C    -67.842500   36.740700  139.327000
  H    -67.982400   36.047100  138.545000
  H    -67.984300   36.256500  140.299000
  C    -68.870300   37.907200  139.184000
  H    -68.900100   38.437500  140.182000
  H    -68.520700   38.750700  138.547000
  H    -69.904200   37.554000  138.946000
  S    -67.287600   39.403100  133.627000
  C    -66.390500   39.394300  132.152000
  C    -65.158100   38.954400  132.350000
  C    -64.803100   38.873100  133.737000
  C    -65.843400   39.218200  134.575000
  H    -64.447600   38.955300  131.580000
  C    -63.480300   38.370900  134.219000
  H    -63.341400   37.448800  133.721000
  H    -63.490200   38.252300  135.271000
  C    -62.281500   39.320900  134.039000
  H    -62.179100   39.548100  132.972000
  H    -61.393100   38.784600  134.242000
  C    -62.330700   40.588400  134.845000
  H    -63.252400   41.226500  134.618000
  H    -61.550800   41.263200  134.618000
  H    -62.331300   40.454700  135.945000
  H    -65.948200   40.053000  139.539000
  H    -66.849700   39.473000  131.200000

 Total Charge           Charge          ....    0
 Multiplicity           Mult            ....    1
 Number of Electrons    NEL             ....  134
 Basis Dimension        Dim             ....  322

ORBITAL ENERGIES
----------------

  NO   OCC          E(Eh)            E(eV)
   0   2.0000     -88.971607     -2421.0405
   1   2.0000     -88.957984     -2420.6698
   2   2.0000     -10.337322      -281.2928
   3   2.0000     -10.322064      -280.8776
   4   2.0000     -10.316698      -280.7316
   5   2.0000     -10.308817      -280.5172
   6   2.0000     -10.302195      -280.3370
   7   2.0000     -10.299512      -280.2640
   8   2.0000     -10.298490      -280.2362
   9   2.0000     -10.288797      -279.9724
  10   2.0000     -10.285416      -279.8804
  11   2.0000     -10.283119      -279.8179
  12   2.0000     -10.278813      -279.7007
  13   2.0000     -10.278759      -279.6993
  14   2.0000     -10.278431      -279.6903
  15   2.0000     -10.272634      -279.5326
  16   2.0000      -8.085457      -220.0165
  17   2.0000      -8.074029      -219.7055
  18   2.0000      -6.043918      -164.4634
  19   2.0000      -6.039975      -164.3561
  20   2.0000      -6.036422      -164.2594
  21   2.0000      -6.032506      -164.1528
  22   2.0000      -6.028466      -164.0429
  23   2.0000      -6.024621      -163.9383
  24   2.0000      -1.008572       -27.4446
  25   2.0000      -0.985573       -26.8188
  26   2.0000      -0.911531       -24.8040
  27   2.0000      -0.907904       -24.7053
  28   2.0000      -0.869847       -23.6697
  29   2.0000      -0.847226       -23.0542
  30   2.0000      -0.843628       -22.9563
  31   2.0000      -0.815159       -22.1816
  32   2.0000      -0.782163       -21.2837
  33   2.0000      -0.771424       -20.9915
  34   2.0000      -0.708534       -19.2802
  35   2.0000      -0.697779       -18.9875
  36   2.0000      -0.690426       -18.7875
  37   2.0000      -0.659523       -17.9465
  38   2.0000      -0.639898       -17.4125
  39   2.0000      -0.623645       -16.9702
  40   2.0000      -0.601958       -16.3801
  41   2.0000      -0.570982       -15.5372
  42   2.0000      -0.560269       -15.2457
  43   2.0000      -0.550516       -14.9803
  44   2.0000      -0.542028       -14.7493
  45   2.0000      -0.538702       -14.6588
  46   2.0000      -0.514897       -14.0111
  47   2.0000      -0.508259       -13.8304
  48   2.0000      -0.501917       -13.6579
  49   2.0000      -0.492688       -13.4067
  50   2.0000      -0.489533       -13.3209
  51   2.0000      -0.475770       -12.9464
  52   2.0000      -0.467697       -12.7267
  53   2.0000      -0.461699       -12.5635
  54   2.0000      -0.458053       -12.4643
  55   2.0000      -0.450472       -12.2580
  56   2.0000      -0.447174       -12.1682
  57   2.0000      -0.433143       -11.7864
  58   2.0000      -0.431136       -11.7318
  59   2.0000      -0.421439       -11.4679
  60   2.0000      -0.416993       -11.3470
  61   2.0000      -0.414209       -11.2712
  62   2.0000      -0.409216       -11.1353
  63   2.0000      -0.339731        -9.2446
  64   2.0000      -0.332639        -9.0516
  65   2.0000      -0.318105        -8.6561
  66   2.0000      -0.309374        -8.4185
  67   0.0000       0.040966         1.1147
  68   0.0000       0.056590         1.5399
  69   0.0000       0.111617         3.0373
  70   0.0000       0.120014         3.2657
  71   0.0000       0.125662         3.4194

MULLIKEN ATOMIC CHARGES
-----------------------
   0 S :    0.129182
   1 C :   -0.108508
   2 C :   -0.127155
   3 C :    0.081464
   4 C :   -0.187732
   5 H :    0.009677
   6 C :    0.074473
   7 H :    0.010510
   8 H :    0.020630
   9 C :   -0.058592
  10 H :    0.024982
  11 H :    0.036988
  12 C :   -0.103169
  13 H :    0.021272
  14 H :    0.062631
  15 H :    0.047048
  16 S :    0.096408
  17 C :   -0.063942
  18 C :   -0.001009
  19 C :   -0.055231
  20 C :   -0.174881
  21 H :    0.002510
  22 C :    0.122016
  23 H :    0.020978
  24 H :    0.010912
  25 C :   -0.047130
  26 H :    0.012894
  27 H :    0.015526
  28 C :   -0.062307
  29 H :    0.036989
  30 H :    0.022718
  31 H :    0.035622
  32 H :    0.048095
  33 H :    0.046132
Sum of atomic charges:    0.0000000

LOEWDIN ATOMIC CHARGES
----------------------
   0 S :    0.414246
   1 C :   -0.209034
   2 C :   -0.068740
   3 C :   -0.045532
   4 C :   -0.183978
   5 H :    0.030998
   6 C :   -0.033282
   7 H :    0.024558
   8 H :    0.030743
   9 C :   -0.033558
  10 H :    0.013058
  11 H :    0.029374
  12 C :   -0.082183
  13 H :    0.026508
  14 H :    0.032051
  15 H :    0.028110
  16 S :    0.409989
  17 C :   -0.171135
  18 C :   -0.071204
  19 C :   -0.046186
  20 C :   -0.215836
  21 H :    0.023459
  22 C :   -0.023061
  23 H :    0.029785
  24 H :    0.026080
  25 C :   -0.037771
  26 H :    0.019885
  27 H :    0.019246
  28 C :   -0.072090
  29 H :    0.032706
  30 H :    0.020620
  31 H :    0.026745
  32 H :    0.030237
  33 H :    0.025194

  Mayer bond orders larger than 0.100000
B(  0-S ,  1-C ) :   1.1582 B(  0-S ,  4-C ) :   1.1521 B(  1-C ,  2-C ) :   1.5800
B(  1-C ,  4-C ) :   0.1040 B(  1-C , 32-H ) :   0.9653 B(  2-C ,  3-C ) :   1.2540
B(  2-C ,  6-C ) :   1.0457 B(  3-C ,  4-C ) :   1.5617 B(  3-C ,  5-H ) :   1.0004
B(  4-C , 20-C ) :   1.0076 B(  6-C ,  7-H ) :   0.9441 B(  6-C ,  8-H ) :   0.9350
B(  6-C ,  9-C ) :   1.0620 B(  9-C , 10-H ) :   0.9607 B(  9-C , 11-H ) :   0.9591
B(  9-C , 12-C ) :   1.0663 B( 12-C , 13-H ) :   0.9760 B( 12-C , 14-H ) :   0.9721
B( 12-C , 15-H ) :   0.9768 B( 16-S , 17-C ) :   1.1575 B( 16-S , 20-C ) :   1.1429
B( 17-C , 18-C ) :   1.6287 B( 17-C , 33-H ) :   0.9687 B( 18-C , 19-C ) :   1.2282
B( 18-C , 21-H ) :   0.9937 B( 19-C , 20-C ) :   1.6109 B( 19-C , 22-C ) :   1.0513
B( 22-C , 23-H ) :   0.9286 B( 22-C , 24-H ) :   0.9267 B( 22-C , 25-C ) :   1.0784
B( 25-C , 26-H ) :   0.9539 B( 25-C , 27-H ) :   0.9511 B( 25-C , 28-C ) :   1.0826
B( 28-C , 29-H ) :   0.9709 B( 28-C , 30-H ) :   0.9703 B( 28-C , 31-H ) :   0.9719

Dispersion correction           -0.015814834
FINAL SINGLE POINT ENERGY     -1339.881632757954

DIPOLE MOMENT
-------------
                                X             Y             Z
Electronic contribution:     -6.94645       7.97629     -10.39331
Nuclear contribution   :      7.26519      -8.44012      10.45966
                        -----------------------------------------
Total Dipole Moment    :      0.31875      -0.46384       0.06636
                        -----------------------------------------
Magnitude (a.u.)       :      0.56670
Magnitude (Debye)      :      1.44043

Rotational constants in cm-1:     0.021301     0.008726     0.007449
Rotational constants in MHz :   638.596426   261.584388   223.327543

                             ****ORCA TERMINATED NORMALLY****
TOTAL RUN TIME: 0 days 0 hours 0 minutes 35 seconds 938 msec
