                         Program Version 4.2.1 -  RELEASE  -
|  1> ! wB97X-D3 SP def2-SVP
|  2> %pal
|  3> nprocs 16
|  4> end
|  5>
|  6> * xyz 0 1
|  7> S 	 -1.46201 	 -19.9701 	 90.9687
|  8> C 	 -2.19042 	 -18.9736 	 89.7313
|  9> C 	 -1.19429 	 -18.5422 	 88.9321
| 10> C 	 0.148574 	 -18.9905 	 89.2805
| 11> C 	 0.0943068 	 -19.9927 	 90.2371
| 12> H 	 1.11877 	 -18.8006 	 88.8305
| 13> C 	 -1.39292 	 -17.6705 	 87.6889
| 14> H 	 -0.585884 	 -16.9423 	 87.5338
| 15> H 	 -2.31522 	 -17.1633 	 87.7047
| 16> C 	 -1.38746 	 -18.5631 	 86.4382
| 17> H 	 -1.46618 	 -18.0984 	 85.5286
| 18> H 	 -0.499449 	 -19.122 	 86.2351
| 19> C 	 -2.55047 	 -19.5658 	 86.4747
| 20> H 	 -2.61341 	 -20.1243 	 85.534
| 21> H 	 -2.44502 	 -20.2987 	 87.3115
| 22> H 	 -3.54682 	 -19.0647 	 86.4852
| 23> S 	 1.56651 	 -20.7308 	 92.5951
| 24> C 	 3.03113 	 -21.5464 	 92.4245
| 25> C 	 3.28693 	 -21.856 	 91.1054
| 26> C 	 2.20115 	 -21.4484 	 90.2152
| 27> C 	 1.14437 	 -20.8337 	 90.8789
| 28> H 	 4.25277 	 -22.3535 	 90.8768
| 29> C 	 2.18806 	 -21.715 	 88.6768
| 30> H 	 1.35276 	 -21.2921 	 88.1666
| 31> H 	 1.9861 	 -22.789 	 88.6032
| 32> C 	 3.48303 	 -21.3328 	 87.9128
| 33> H 	 4.21762 	 -22.1203 	 88.1452
| 34> H 	 3.78544 	 -20.2959 	 88.1584
| 35> C 	 3.18193 	 -21.4154 	 86.3909
| 36> H 	 2.70785 	 -20.5081 	 85.95
| 37> H 	 2.52934 	 -22.2211 	 86.1922
| 38> H 	 4.1081 	 -21.5498 	 85.8038
| 39> H 	 -3.14699 	 -18.6297 	 89.5334
| 40> H 	 3.74527 	 -21.7922 	 93.2185
| 41> *
| 42>
| 43>                          ****END OF INPUT****

CARTESIAN COORDINATES (ANGSTROEM)
---------------------------------
  S     -1.462010  -19.970100   90.968700
  C     -2.190420  -18.973600   89.731300
  C     -1.194290  -18.542200   88.932100
  C      0.148574  -18.990500   89.280500
  C      0.094307  -19.992700   90.237100
  H      1.118770  -18.800600   88.830500
  C     -1.392920  -17.670500   87.688900
  H     -0.585884  -16.942300   87.533800
  H     -2.315220  -17.163300   87.704700
  C     -1.387460  -18.563100   86.438200
  H     -1.466180  -18.098400   85.528600
  H     -0.499449  -19.122000   86.235100
  C     -2.550470  -19.565800   86.474700
  H     -2.613410  -20.124300   85.534000
  H     -2.445020  -20.298700   87.311500
  H     -3.546820  -19.064700   86.485200
  S      1.566510  -20.730800   92.595100
  C      3.031130  -21.546400   92.424500
  C      3.286930  -21.856000   91.105400
  C      2.201150  -21.448400   90.215200
  C      1.144370  -20.833700   90.878900
  H      4.252770  -22.353500   90.876800
  C      2.188060  -21.715000   88.676800
  H      1.352760  -21.292100   88.166600
  H      1.986100  -22.789000   88.603200
  C      3.483030  -21.332800   87.912800
  H      4.217620  -22.120300   88.145200
  H      3.785440  -20.295900   88.158400
  C      3.181930  -21.415400   86.390900
  H      2.707850  -20.508100   85.950000
  H      2.529340  -22.221100   86.192200
  H      4.108100  -21.549800   85.803800
  H     -3.146990  -18.629700   89.533400
  H      3.745270  -21.792200   93.218500

 Total Charge           Charge          ....    0
 Multiplicity           Mult            ....    1
 Number of Electrons    NEL             ....  134
 Basis Dimension        Dim             ....  322

ORBITAL ENERGIES
----------------

  NO   OCC          E(Eh)            E(eV)
   0   2.0000     -88.966387     -2420.8985
   1   2.0000     -88.960648     -2420.7423
   2   2.0000     -10.333064      -281.1770
   3   2.0000     -10.329936      -281.0919
   4   2.0000     -10.318813      -280.7892
   5   2.0000     -10.312447      -280.6159
   6   2.0000     -10.305895      -280.4377
   7   2.0000     -10.300823      -280.2997
   8   2.0000     -10.299911      -280.2748
   9   2.0000     -10.297786      -280.2170
  10   2.0000     -10.294817      -280.1362
  11   2.0000     -10.291958      -280.0584
  12   2.0000     -10.290692      -280.0240
  13   2.0000     -10.280519      -279.7471
  14   2.0000     -10.276211      -279.6299
  15   2.0000     -10.275086      -279.5993
  16   2.0000      -8.081955      -219.9212
  17   2.0000      -8.076171      -219.7638
  18   2.0000      -6.040487      -164.3700
  19   2.0000      -6.036215      -164.2538
  20   2.0000      -6.034833      -164.2162
  21   2.0000      -6.032736      -164.1591
  22   2.0000      -6.030517      -164.0987
  23   2.0000      -6.026742      -163.9960
  24   2.0000      -1.010053       -27.4849
  25   2.0000      -0.990517       -26.9534
  26   2.0000      -0.914515       -24.8852
  27   2.0000      -0.906971       -24.6799
  28   2.0000      -0.871031       -23.7020
  29   2.0000      -0.847822       -23.0704
  30   2.0000      -0.837503       -22.7896
  31   2.0000      -0.818716       -22.2784
  32   2.0000      -0.781807       -21.2740
  33   2.0000      -0.774511       -21.0755
  34   2.0000      -0.709583       -19.3087
  35   2.0000      -0.700747       -19.0683
  36   2.0000      -0.696209       -18.9448
  37   2.0000      -0.651845       -17.7376
  38   2.0000      -0.643609       -17.5135
  39   2.0000      -0.618737       -16.8367
  40   2.0000      -0.596928       -16.2432
  41   2.0000      -0.575880       -15.6705
  42   2.0000      -0.569005       -15.4834
  43   2.0000      -0.553023       -15.0485
  44   2.0000      -0.542966       -14.7749
  45   2.0000      -0.525099       -14.2887
  46   2.0000      -0.519306       -14.1310
  47   2.0000      -0.512106       -13.9351
  48   2.0000      -0.510118       -13.8810
  49   2.0000      -0.497113       -13.5271
  50   2.0000      -0.482192       -13.1211
  51   2.0000      -0.481437       -13.1006
  52   2.0000      -0.468309       -12.7433
  53   2.0000      -0.468194       -12.7402
  54   2.0000      -0.461838       -12.5672
  55   2.0000      -0.447565       -12.1789
  56   2.0000      -0.441056       -12.0018
  57   2.0000      -0.438619       -11.9354
  58   2.0000      -0.429778       -11.6948
  59   2.0000      -0.427814       -11.6414
  60   2.0000      -0.426639       -11.6094
  61   2.0000      -0.411572       -11.1994
  62   2.0000      -0.407646       -11.0926
  63   2.0000      -0.351164        -9.5557
  64   2.0000      -0.329381        -8.9629
  65   2.0000      -0.324254        -8.8234
  66   2.0000      -0.299784        -8.1575
  67   0.0000       0.032722         0.8904
  68   0.0000       0.072022         1.9598
  69   0.0000       0.115728         3.1491
  70   0.0000       0.117523         3.1980
  71   0.0000       0.125784         3.4228

MULLIKEN ATOMIC CHARGES
-----------------------
   0 S :    0.095011
   1 C :   -0.042887
   2 C :   -0.143965
   3 C :    0.059898
   4 C :   -0.190221
   5 H :    0.014797
   6 C :    0.112051
   7 H :    0.031038
   8 H :    0.008047
   9 C :   -0.023610
  10 H :   -0.000507
  11 H :    0.011284
  12 C :   -0.109195
  13 H :    0.025228
  14 H :    0.062511
  15 H :    0.025147
  16 S :    0.116446
  17 C :   -0.096390
  18 C :   -0.052361
  19 C :   -0.058872
  20 C :   -0.096204
  21 H :    0.034086
  22 C :    0.042733
  23 H :    0.018565
  24 H :    0.039691
  25 C :   -0.081671
  26 H :    0.042395
  27 H :    0.045089
  28 C :   -0.060983
  29 H :    0.038003
  30 H :    0.022533
  31 H :    0.035545
  32 H :    0.007613
  33 H :    0.069153
Sum of atomic charges:    0.0000000

LOEWDIN ATOMIC CHARGES
----------------------
   0 S :    0.412625
   1 C :   -0.190913
   2 C :   -0.058322
   3 C :   -0.063153
   4 C :   -0.187966
   5 H :    0.032417
   6 C :   -0.020322
   7 H :    0.033557
   8 H :    0.020930
   9 C :   -0.038870
  10 H :    0.012362
  11 H :    0.020453
  12 C :   -0.073257
  13 H :    0.023902
  14 H :    0.030057
  15 H :    0.022985
  16 S :    0.425604
  17 C :   -0.202648
  18 C :   -0.086636
  19 C :   -0.045449
  20 C :   -0.214422
  21 H :    0.037711
  22 C :   -0.033445
  23 H :    0.021821
  24 H :    0.036627
  25 C :   -0.038376
  26 H :    0.027675
  27 H :    0.028366
  28 C :   -0.068518
  29 H :    0.028408
  30 H :    0.017367
  31 H :    0.028276
  32 H :    0.021187
  33 H :    0.039967

  Mayer bond orders larger than 0.100000
B(  0-S ,  1-C ) :   1.1096 B(  0-S ,  4-C ) :   1.1651 B(  1-C ,  2-C ) :   1.6461
B(  1-C , 32-H ) :   0.9775 B(  2-C ,  3-C ) :   1.1924 B(  2-C ,  6-C ) :   1.0363
B(  3-C ,  4-C ) :   1.5804 B(  3-C ,  5-H ) :   0.9962 B(  4-C , 20-C ) :   1.0068
B(  6-C ,  7-H ) :   0.9420 B(  6-C ,  8-H ) :   0.9434 B(  6-C ,  9-C ) :   1.0623
B(  9-C , 10-H ) :   0.9525 B(  9-C , 11-H ) :   0.9525 B(  9-C , 12-C ) :   1.0776
B( 12-C , 13-H ) :   0.9721 B( 12-C , 14-H ) :   0.9735 B( 12-C , 15-H ) :   0.9752
B( 16-S , 17-C ) :   1.1848 B( 16-S , 20-C ) :   1.1253 B( 17-C , 18-C ) :   1.6008
B( 17-C , 33-H ) :   0.9617 B( 18-C , 19-C ) :   1.2365 B( 18-C , 21-H ) :   0.9890
B( 19-C , 20-C ) :   1.6059 B( 19-C , 22-C ) :   1.0289 B( 22-C , 23-H ) :   0.9458
B( 22-C , 24-H ) :   0.9304 B( 22-C , 25-C ) :   1.0580 B( 25-C , 26-H ) :   0.9517
B( 25-C , 27-H ) :   0.9636 B( 25-C , 28-C ) :   1.0823 B( 28-C , 29-H ) :   0.9755
B( 28-C , 30-H ) :   0.9731 B( 28-C , 31-H ) :   0.9747

Dispersion correction           -0.014916824
FINAL SINGLE POINT ENERGY     -1339.866871863808

DIPOLE MOMENT
-------------
                                X             Y             Z
Electronic contribution:     -2.68532      -0.69357      31.06087
Nuclear contribution   :      3.14112       0.74913     -31.77500
                        -----------------------------------------
Total Dipole Moment    :      0.45580       0.05556      -0.71412
                        -----------------------------------------
Magnitude (a.u.)       :      0.84900
Magnitude (Debye)      :      2.15800

Rotational constants in cm-1:     0.017634     0.010114     0.006908
Rotational constants in MHz :   528.650146   303.217081   207.083161

                             ****ORCA TERMINATED NORMALLY****
TOTAL RUN TIME: 0 days 0 hours 0 minutes 35 seconds 385 msec
