                         Program Version 4.2.1 -  RELEASE  -
|  1> ! wB97X-D3 SP def2-SVP
|  2> %pal
|  3> nprocs 16
|  4> end
|  5>
|  6> * xyz 0 1
|  7> S 	 6.75291 	 -27.8044 	 82.091
|  8> C 	 7.6463 	 -28.4638 	 83.4552
|  9> C 	 8.45351 	 -27.4841 	 83.9721
| 10> C 	 8.34975 	 -26.1759 	 83.3394
| 11> C 	 7.47151 	 -26.1768 	 82.307
| 12> H 	 8.8095 	 -25.2461 	 83.7224
| 13> C 	 9.11161 	 -27.6987 	 85.3065
| 14> H 	 9.84475 	 -26.8665 	 85.4349
| 15> H 	 9.64532 	 -28.6077 	 85.3768
| 16> C 	 8.18701 	 -27.5096 	 86.4975
| 17> H 	 7.46398 	 -26.7085 	 86.4205
| 18> H 	 7.44843 	 -28.2799 	 86.6962
| 19> C 	 8.97229 	 -27.3107 	 87.8584
| 20> H 	 8.34371 	 -27.112 	 88.692
| 21> H 	 9.63105 	 -28.1583 	 88.1923
| 22> H 	 9.57421 	 -26.34 	 87.7403
| 23> S 	 5.62306 	 -24.4752 	 81.5671
| 24> C 	 6.12657 	 -23.0968 	 80.4855
| 25> C 	 7.41068 	 -23.2026 	 80.053
| 26> C 	 8.09674 	 -24.3829 	 80.568
| 27> C 	 7.21666 	 -25.1012 	 81.4117
| 28> H 	 7.85954 	 -22.4793 	 79.3776
| 29> C 	 9.58072 	 -24.7571 	 80.3571
| 30> H 	 9.7791 	 -24.5521 	 79.3235
| 31> H 	 9.66532 	 -25.8153 	 80.3885
| 32> C 	 10.7178 	 -24.0717 	 81.1832
| 33> H 	 10.6094 	 -24.5674 	 82.1046
| 34> H 	 10.4787 	 -23.0519 	 81.2963
| 35> C 	 12.1468 	 -24.2186 	 80.6004
| 36> H 	 12.3473 	 -23.5046 	 79.7853
| 37> H 	 12.3002 	 -25.2464 	 80.2321
| 38> H 	 12.8919 	 -24.0813 	 81.3961
| 39> H 	 7.492 	 -29.433 	 83.941
| 40> H 	 5.40577 	 -22.3101 	 80.0651
| 41> *
| 42>
| 43>                          ****END OF INPUT****

CARTESIAN COORDINATES (ANGSTROEM)
---------------------------------
  S      6.752910  -27.804400   82.091000
  C      7.646300  -28.463800   83.455200
  C      8.453510  -27.484100   83.972100
  C      8.349750  -26.175900   83.339400
  C      7.471510  -26.176800   82.307000
  H      8.809500  -25.246100   83.722400
  C      9.111610  -27.698700   85.306500
  H      9.844750  -26.866500   85.434900
  H      9.645320  -28.607700   85.376800
  C      8.187010  -27.509600   86.497500
  H      7.463980  -26.708500   86.420500
  H      7.448430  -28.279900   86.696200
  C      8.972290  -27.310700   87.858400
  H      8.343710  -27.112000   88.692000
  H      9.631050  -28.158300   88.192300
  H      9.574210  -26.340000   87.740300
  S      5.623060  -24.475200   81.567100
  C      6.126570  -23.096800   80.485500
  C      7.410680  -23.202600   80.053000
  C      8.096740  -24.382900   80.568000
  C      7.216660  -25.101200   81.411700
  H      7.859540  -22.479300   79.377600
  C      9.580720  -24.757100   80.357100
  H      9.779100  -24.552100   79.323500
  H      9.665320  -25.815300   80.388500
  C     10.717800  -24.071700   81.183200
  H     10.609400  -24.567400   82.104600
  H     10.478700  -23.051900   81.296300
  C     12.146800  -24.218600   80.600400
  H     12.347300  -23.504600   79.785300
  H     12.300200  -25.246400   80.232100
  H     12.891900  -24.081300   81.396100
  H      7.492000  -29.433000   83.941000
  H      5.405770  -22.310100   80.065100

 Total Charge           Charge          ....    0
 Multiplicity           Mult            ....    1
 Number of Electrons    NEL             ....  134
 Basis Dimension        Dim             ....  322

ORBITAL ENERGIES
----------------

  NO   OCC          E(Eh)            E(eV)
   0   2.0000     -88.967877     -2420.9390
   1   2.0000     -88.962941     -2420.8047
   2   2.0000     -10.326622      -281.0017
   3   2.0000     -10.326347      -280.9942
   4   2.0000     -10.323422      -280.9146
   5   2.0000     -10.314781      -280.6795
   6   2.0000     -10.312680      -280.6223
   7   2.0000     -10.299801      -280.2718
   8   2.0000     -10.299555      -280.2651
   9   2.0000     -10.297907      -280.2203
  10   2.0000     -10.289872      -280.0017
  11   2.0000     -10.288436      -279.9626
  12   2.0000     -10.286404      -279.9073
  13   2.0000     -10.285865      -279.8926
  14   2.0000     -10.284956      -279.8679
  15   2.0000     -10.281992      -279.7872
  16   2.0000      -8.082217      -219.9283
  17   2.0000      -8.077083      -219.7886
  18   2.0000      -6.040774      -164.3778
  19   2.0000      -6.036910      -164.2727
  20   2.0000      -6.035775      -164.2418
  21   2.0000      -6.032800      -164.1608
  22   2.0000      -6.031634      -164.1291
  23   2.0000      -6.027706      -164.0222
  24   2.0000      -1.005526       -27.3618
  25   2.0000      -0.978177       -26.6175
  26   2.0000      -0.909844       -24.7581
  27   2.0000      -0.902690       -24.5634
  28   2.0000      -0.873640       -23.7730
  29   2.0000      -0.848028       -23.0760
  30   2.0000      -0.840430       -22.8693
  31   2.0000      -0.818039       -22.2600
  32   2.0000      -0.779152       -21.2018
  33   2.0000      -0.765067       -20.8185
  34   2.0000      -0.709895       -19.3172
  35   2.0000      -0.704219       -19.1628
  36   2.0000      -0.695881       -18.9359
  37   2.0000      -0.660046       -17.9608
  38   2.0000      -0.642088       -17.4721
  39   2.0000      -0.618082       -16.8189
  40   2.0000      -0.591311       -16.0904
  41   2.0000      -0.568249       -15.4628
  42   2.0000      -0.565123       -15.3778
  43   2.0000      -0.551987       -15.0203
  44   2.0000      -0.521376       -14.1874
  45   2.0000      -0.519470       -14.1355
  46   2.0000      -0.516305       -14.0494
  47   2.0000      -0.510219       -13.8838
  48   2.0000      -0.506444       -13.7811
  49   2.0000      -0.502246       -13.6668
  50   2.0000      -0.493841       -13.4381
  51   2.0000      -0.471944       -12.8423
  52   2.0000      -0.467561       -12.7230
  53   2.0000      -0.461600       -12.5608
  54   2.0000      -0.456512       -12.4223
  55   2.0000      -0.453617       -12.3435
  56   2.0000      -0.442195       -12.0327
  57   2.0000      -0.441587       -12.0162
  58   2.0000      -0.433488       -11.7958
  59   2.0000      -0.429210       -11.6794
  60   2.0000      -0.420303       -11.4370
  61   2.0000      -0.416812       -11.3420
  62   2.0000      -0.406707       -11.0671
  63   2.0000      -0.347725        -9.4621
  64   2.0000      -0.330119        -8.9830
  65   2.0000      -0.322936        -8.7875
  66   2.0000      -0.301863        -8.2141
  67   0.0000       0.033074         0.9000
  68   0.0000       0.064322         1.7503
  69   0.0000       0.102010         2.7758
  70   0.0000       0.119098         3.2408
  71   0.0000       0.126279         3.4362

MULLIKEN ATOMIC CHARGES
-----------------------
   0 S :    0.098064
   1 C :   -0.116043
   2 C :   -0.093007
   3 C :    0.035161
   4 C :   -0.154864
   5 H :    0.039626
   6 C :    0.082321
   7 H :    0.015549
   8 H :    0.024601
   9 C :   -0.058587
  10 H :    0.021008
  11 H :    0.014266
  12 C :   -0.093706
  13 H :    0.026500
  14 H :    0.045366
  15 H :    0.036439
  16 S :    0.109165
  17 C :   -0.115495
  18 C :   -0.029615
  19 C :   -0.032765
  20 C :   -0.184051
  21 H :    0.024831
  22 C :    0.069780
  23 H :    0.004622
  24 H :    0.025171
  25 C :   -0.015690
  26 H :    0.011257
  27 H :    0.018579
  28 C :   -0.066333
  29 H :    0.043301
  30 H :    0.034041
  31 H :    0.038817
  32 H :    0.059858
  33 H :    0.081835
Sum of atomic charges:   -0.0000000

LOEWDIN ATOMIC CHARGES
----------------------
   0 S :    0.376165
   1 C :   -0.192102
   2 C :   -0.066661
   3 C :   -0.061783
   4 C :   -0.188430
   5 H :    0.040518
   6 C :   -0.031269
   7 H :    0.032617
   8 H :    0.026361
   9 C :   -0.044517
  10 H :    0.025966
  11 H :    0.019630
  12 C :   -0.074406
  13 H :    0.019047
  14 H :    0.029093
  15 H :    0.029659
  16 S :    0.396528
  17 C :   -0.178863
  18 C :   -0.068110
  19 C :   -0.045931
  20 C :   -0.209009
  21 H :    0.035390
  22 C :   -0.030798
  23 H :    0.024810
  24 H :    0.028506
  25 C :   -0.029959
  26 H :    0.016293
  27 H :    0.018100
  28 C :   -0.065325
  29 H :    0.028196
  30 H :    0.027542
  31 H :    0.030500
  32 H :    0.036887
  33 H :    0.045353

  Mayer bond orders larger than 0.100000
B(  0-S ,  1-C ) :   1.1180 B(  0-S ,  4-C ) :   1.1292 B(  1-C ,  2-C ) :   1.6323
B(  1-C , 32-H ) :   0.9700 B(  2-C ,  3-C ) :   1.2075 B(  2-C ,  6-C ) :   1.0426
B(  3-C ,  4-C ) :   1.6143 B(  3-C ,  5-H ) :   0.9847 B(  4-C , 20-C ) :   1.0202
B(  6-C ,  7-H ) :   0.9420 B(  6-C ,  8-H ) :   0.9397 B(  6-C ,  9-C ) :   1.0493
B(  9-C , 10-H ) :   0.9549 B(  9-C , 11-H ) :   0.9515 B(  9-C , 12-C ) :   1.0765
B( 12-C , 13-H ) :   0.9754 B( 12-C , 14-H ) :   0.9772 B( 12-C , 15-H ) :   0.9762
B( 16-S , 17-C ) :   1.1160 B( 16-S , 20-C ) :   1.1570 B( 17-C , 18-C ) :   1.6608
B( 17-C , 33-H ) :   0.9552 B( 18-C , 19-C ) :   1.2066 B( 18-C , 21-H ) :   0.9853
B( 19-C , 20-C ) :   1.5998 B( 19-C , 22-C ) :   1.0484 B( 22-C , 23-H ) :   0.9308
B( 22-C , 24-H ) :   0.9293 B( 22-C , 25-C ) :   1.0514 B( 25-C , 26-H ) :   0.9525
B( 25-C , 27-H ) :   0.9582 B( 25-C , 28-C ) :   1.0815 B( 28-C , 29-H ) :   0.9761
B( 28-C , 30-H ) :   0.9763 B( 28-C , 31-H ) :   0.9741

Dispersion correction           -0.014205271
FINAL SINGLE POINT ENERGY     -1339.869590516921

DIPOLE MOMENT
-------------
                                X             Y             Z
Electronic contribution:    -23.66620      -1.75688     -13.97973
Nuclear contribution   :     24.14351       2.00852      14.21482
                        -----------------------------------------
Total Dipole Moment    :      0.47731       0.25164       0.23510
                        -----------------------------------------
Magnitude (a.u.)       :      0.58857
Magnitude (Debye)      :      1.49603

Rotational constants in cm-1:     0.016631     0.008544     0.006838
Rotational constants in MHz :   498.594135   256.136641   205.007970

                             ****ORCA TERMINATED NORMALLY****
TOTAL RUN TIME: 0 days 0 hours 0 minutes 33 seconds 569 msec
