                         Program Version 4.2.1 -  RELEASE  -
|  1> ! wB97X-D3 SP def2-SVP
|  2> %pal
|  3> nprocs 16
|  4> end
|  5>
|  6> * xyz 0 1
|  7> S 	 -3.03402 	 39.9938 	 33.3771
|  8> C 	 -4.17959 	 38.6675 	 33.7123
|  9> C 	 -4.83242 	 38.8683 	 34.9038
| 10> C 	 -4.31299 	 39.984 	 35.6806
| 11> C 	 -3.39496 	 40.7256 	 35.0028
| 12> H 	 -4.56423 	 40.2851 	 36.6321
| 13> C 	 -5.68633 	 37.8298 	 35.5946
| 14> H 	 -6.3985 	 37.3929 	 34.855
| 15> H 	 -6.11968 	 38.3043 	 36.4053
| 16> C 	 -4.80263 	 36.8078 	 36.3291
| 17> H 	 -4.10946 	 36.2236 	 35.6548
| 18> H 	 -4.10118 	 37.5259 	 36.7615
| 19> C 	 -5.52005 	 35.9816 	 37.4275
| 20> H 	 -4.87603 	 35.4314 	 38.1277
| 21> H 	 -6.28618 	 36.607 	 37.9387
| 22> H 	 -6.20266 	 35.2676 	 36.9295
| 23> S 	 -2.7285 	 42.4245 	 37.1394
| 24> C 	 -2.20156 	 44.0505 	 36.8152
| 25> C 	 -2.01466 	 44.284 	 35.4709
| 26> C 	 -2.27376 	 43.1355 	 34.6813
| 27> C 	 -2.84324 	 42.0747 	 35.3804
| 28> H 	 -1.7135 	 45.3187 	 35.153
| 29> C 	 -1.98186 	 43.2354 	 33.1649
| 30> H 	 -1.6068 	 42.3243 	 32.7795
| 31> H 	 -1.17005 	 43.8691 	 33.1026
| 32> C 	 -3.11207 	 43.8234 	 32.2545
| 33> H 	 -3.45723 	 44.6486 	 32.906
| 34> H 	 -3.98822 	 43.1626 	 32.0681
| 35> C 	 -2.75874 	 44.3387 	 30.9099
| 36> H 	 -3.66831 	 44.3666 	 30.3084
| 37> H 	 -1.95923 	 43.9104 	 30.321
| 38> H 	 -2.49586 	 45.3977 	 30.8835
| 39> H 	 -4.30571 	 37.783 	 33.1339
| 40> H 	 -2.04699 	 44.7687 	 37.5908
| 41> *
| 42>
| 43>                          ****END OF INPUT****

CARTESIAN COORDINATES (ANGSTROEM)
---------------------------------
  S     -3.034020   39.993800   33.377100
  C     -4.179590   38.667500   33.712300
  C     -4.832420   38.868300   34.903800
  C     -4.312990   39.984000   35.680600
  C     -3.394960   40.725600   35.002800
  H     -4.564230   40.285100   36.632100
  C     -5.686330   37.829800   35.594600
  H     -6.398500   37.392900   34.855000
  H     -6.119680   38.304300   36.405300
  C     -4.802630   36.807800   36.329100
  H     -4.109460   36.223600   35.654800
  H     -4.101180   37.525900   36.761500
  C     -5.520050   35.981600   37.427500
  H     -4.876030   35.431400   38.127700
  H     -6.286180   36.607000   37.938700
  H     -6.202660   35.267600   36.929500
  S     -2.728500   42.424500   37.139400
  C     -2.201560   44.050500   36.815200
  C     -2.014660   44.284000   35.470900
  C     -2.273760   43.135500   34.681300
  C     -2.843240   42.074700   35.380400
  H     -1.713500   45.318700   35.153000
  C     -1.981860   43.235400   33.164900
  H     -1.606800   42.324300   32.779500
  H     -1.170050   43.869100   33.102600
  C     -3.112070   43.823400   32.254500
  H     -3.457230   44.648600   32.906000
  H     -3.988220   43.162600   32.068100
  C     -2.758740   44.338700   30.909900
  H     -3.668310   44.366600   30.308400
  H     -1.959230   43.910400   30.321000
  H     -2.495860   45.397700   30.883500
  H     -4.305710   37.783000   33.133900
  H     -2.046990   44.768700   37.590800

 Total Charge           Charge          ....    0
 Multiplicity           Mult            ....    1
 Number of Electrons    NEL             ....  134
 Basis Dimension        Dim             ....  322

ORBITAL ENERGIES
----------------

  NO   OCC          E(Eh)            E(eV)
   0   2.0000     -88.967670     -2420.9334
   1   2.0000     -88.966896     -2420.9123
   2   2.0000     -10.340880      -281.3897
   3   2.0000     -10.338498      -281.3248
   4   2.0000     -10.318124      -280.7704
   5   2.0000     -10.316027      -280.7134
   6   2.0000     -10.309060      -280.5238
   7   2.0000     -10.303212      -280.3647
   8   2.0000     -10.299454      -280.2624
   9   2.0000     -10.292643      -280.0771
  10   2.0000     -10.290515      -280.0192
  11   2.0000     -10.289295      -279.9859
  12   2.0000     -10.286618      -279.9131
  13   2.0000     -10.285967      -279.8954
  14   2.0000     -10.285123      -279.8724
  15   2.0000     -10.271354      -279.4977
  16   2.0000      -8.081917      -219.9201
  17   2.0000      -8.079654      -219.8586
  18   2.0000      -6.040500      -164.3704
  19   2.0000      -6.038516      -164.3164
  20   2.0000      -6.036564      -164.2633
  21   2.0000      -6.034506      -164.2073
  22   2.0000      -6.032590      -164.1551
  23   2.0000      -6.030103      -164.0875
  24   2.0000      -1.001042       -27.2398
  25   2.0000      -0.981454       -26.7067
  26   2.0000      -0.912854       -24.8400
  27   2.0000      -0.906279       -24.6611
  28   2.0000      -0.867054       -23.5938
  29   2.0000      -0.855287       -23.2735
  30   2.0000      -0.842321       -22.9207
  31   2.0000      -0.816885       -22.2286
  32   2.0000      -0.786862       -21.4116
  33   2.0000      -0.772599       -21.0235
  34   2.0000      -0.704994       -19.1839
  35   2.0000      -0.699539       -19.0354
  36   2.0000      -0.693074       -18.8595
  37   2.0000      -0.668602       -18.1936
  38   2.0000      -0.641876       -17.4663
  39   2.0000      -0.617248       -16.7962
  40   2.0000      -0.597567       -16.2606
  41   2.0000      -0.575222       -15.6526
  42   2.0000      -0.560348       -15.2479
  43   2.0000      -0.557536       -15.1713
  44   2.0000      -0.527069       -14.3423
  45   2.0000      -0.522192       -14.2096
  46   2.0000      -0.516625       -14.0581
  47   2.0000      -0.515004       -14.0140
  48   2.0000      -0.511413       -13.9162
  49   2.0000      -0.502262       -13.6673
  50   2.0000      -0.490036       -13.3345
  51   2.0000      -0.479069       -13.0361
  52   2.0000      -0.469137       -12.7659
  53   2.0000      -0.467633       -12.7249
  54   2.0000      -0.456299       -12.4165
  55   2.0000      -0.451558       -12.2875
  56   2.0000      -0.447342       -12.1728
  57   2.0000      -0.438696       -11.9375
  58   2.0000      -0.428647       -11.6641
  59   2.0000      -0.423920       -11.5354
  60   2.0000      -0.416113       -11.3230
  61   2.0000      -0.409268       -11.1368
  62   2.0000      -0.403577       -10.9819
  63   2.0000      -0.360906        -9.8208
  64   2.0000      -0.335069        -9.1177
  65   2.0000      -0.329982        -8.9793
  66   2.0000      -0.287156        -7.8139
  67   0.0000       0.020021         0.5448
  68   0.0000       0.079954         2.1757
  69   0.0000       0.104313         2.8385
  70   0.0000       0.106733         2.9044
  71   0.0000       0.125374         3.4116

MULLIKEN ATOMIC CHARGES
-----------------------
   0 S :    0.076558
   1 C :   -0.093932
   2 C :   -0.087301
   3 C :    0.007740
   4 C :   -0.080684
   5 H :   -0.013863
   6 C :    0.090705
   7 H :    0.041230
   8 H :   -0.002601
   9 C :   -0.099238
  10 H :    0.030975
  11 H :    0.021964
  12 C :   -0.038536
  13 H :    0.053601
  14 H :    0.026195
  15 H :    0.026755
  16 S :    0.079206
  17 C :   -0.079425
  18 C :   -0.052760
  19 C :   -0.089326
  20 C :   -0.115947
  21 H :    0.042924
  22 C :    0.125905
  23 H :    0.012260
  24 H :   -0.006780
  25 C :   -0.072014
  26 H :    0.025073
  27 H :    0.042627
  28 C :   -0.039499
  29 H :    0.027291
  30 H :    0.032058
  31 H :    0.015246
  32 H :    0.042097
  33 H :    0.051499
Sum of atomic charges:   -0.0000000

LOEWDIN ATOMIC CHARGES
----------------------
   0 S :    0.362973
   1 C :   -0.176484
   2 C :   -0.056984
   3 C :   -0.061147
   4 C :   -0.151811
   5 H :    0.014651
   6 C :   -0.026462
   7 H :    0.031761
   8 H :    0.020016
   9 C :   -0.047533
  10 H :    0.025634
  11 H :    0.024814
  12 C :   -0.072693
  13 H :    0.031364
  14 H :    0.028381
  15 H :    0.027569
  16 S :    0.388225
  17 C :   -0.178252
  18 C :   -0.078464
  19 C :   -0.057770
  20 C :   -0.174320
  21 H :    0.044203
  22 C :   -0.023446
  23 H :    0.013530
  24 H :    0.021407
  25 C :   -0.044496
  26 H :    0.029306
  27 H :    0.030503
  28 C :   -0.076941
  29 H :    0.031933
  30 H :    0.024942
  31 H :    0.024369
  32 H :    0.026104
  33 H :    0.025117

  Mayer bond orders larger than 0.100000
B(  0-S ,  1-C ) :   1.1080 B(  0-S ,  4-C ) :   1.1127 B(  1-C ,  2-C ) :   1.6517
B(  1-C , 32-H ) :   0.9711 B(  2-C ,  3-C ) :   1.1847 B(  2-C ,  6-C ) :   1.0564
B(  3-C ,  4-C ) :   1.6207 B(  3-C ,  5-H ) :   0.9982 B(  4-C , 20-C ) :   1.0445
B(  6-C ,  7-H ) :   0.9387 B(  6-C ,  8-H ) :   0.9294 B(  6-C ,  9-C ) :   1.0449
B(  9-C , 10-H ) :   0.9546 B(  9-C , 11-H ) :   0.9559 B(  9-C , 12-C ) :   1.0690
B( 12-C , 13-H ) :   0.9760 B( 12-C , 14-H ) :   0.9718 B( 12-C , 15-H ) :   0.9728
B( 16-S , 17-C ) :   1.1560 B( 16-S , 20-C ) :   1.1259 B( 17-C , 18-C ) :   1.6190
B( 17-C , 33-H ) :   0.9684 B( 18-C , 19-C ) :   1.2345 B( 18-C , 21-H ) :   0.9823
B( 19-C , 20-C ) :   1.6021 B( 19-C , 22-C ) :   1.0389 B( 22-C , 23-H ) :   0.9299
B( 22-C , 24-H ) :   0.9247 B( 22-C , 25-C ) :   1.0541 B( 25-C , 26-H ) :   0.9541
B( 25-C , 27-H ) :   0.9639 B( 25-C , 28-C ) :   1.0809 B( 28-C , 29-H ) :   0.9731
B( 28-C , 30-H ) :   0.9760 B( 28-C , 31-H ) :   0.9697

Dispersion correction           -0.013750500
FINAL SINGLE POINT ENERGY     -1339.858288349063

DIPOLE MOMENT
-------------
                                X             Y             Z
Electronic contribution:      7.13510       5.57705       6.33717
Nuclear contribution   :     -7.24699      -5.46865      -6.32475
                        -----------------------------------------
Total Dipole Moment    :     -0.11189       0.10841       0.01242
                        -----------------------------------------
Magnitude (a.u.)       :      0.15629
Magnitude (Debye)      :      0.39725

Rotational constants in cm-1:     0.021456     0.007680     0.005927
Rotational constants in MHz :   643.223193   230.240351   177.701902

                             ****ORCA TERMINATED NORMALLY****
TOTAL RUN TIME: 0 days 0 hours 0 minutes 34 seconds 857 msec
