                         Program Version 4.2.1 -  RELEASE  -
|  1> ! wB97X-D3 SP def2-SVP
|  2> %pal
|  3> nprocs 16
|  4> end
|  5>
|  6> * xyz 0 1
|  7> S 	 39.8549 	 13.3584 	 85.8115
|  8> C 	 40.7915 	 14.831 	 86.2301
|  9> C 	 42.0494 	 14.4126 	 86.642
| 10> C 	 42.2807 	 12.9682 	 86.6886
| 11> C 	 41.1724 	 12.2695 	 86.3357
| 12> H 	 43.1571 	 12.4682 	 87.0227
| 13> C 	 43.1216 	 15.3826 	 87.099
| 14> H 	 43.6912 	 15.0868 	 87.921
| 15> H 	 42.6588 	 16.3071 	 87.4927
| 16> C 	 44.0886 	 15.9068 	 86.035
| 17> H 	 44.6937 	 16.6504 	 86.6611
| 18> H 	 44.7552 	 15.0919 	 85.6541
| 19> C 	 43.3941 	 16.6361 	 84.877
| 20> H 	 42.8644 	 15.8394 	 84.3327
| 21> H 	 42.6892 	 17.3625 	 85.2526
| 22> H 	 44.0121 	 17.2537 	 84.2257
| 23> S 	 40.2504 	 10.172 	 85.0185
| 24> C 	 40.2452 	 8.51743 	 85.6838
| 25> C 	 40.7332 	 8.57847 	 86.9643
| 26> C 	 41.3386 	 9.86035 	 87.388
| 27> C 	 40.9475 	 10.8456 	 86.4658
| 28> H 	 40.9147 	 7.58966 	 87.5
| 29> C 	 42.1519 	 10.0781 	 88.678
| 30> H 	 41.5359 	 9.58816 	 89.4462
| 31> H 	 42.1808 	 11.1436 	 88.9544
| 32> C 	 43.6024 	 9.45625 	 88.6722
| 33> H 	 44.2199 	 9.97671 	 88.0027
| 34> H 	 43.4365 	 8.52569 	 88.1436
| 35> C 	 44.2204 	 9.24682 	 90.0593
| 36> H 	 45.1685 	 8.75516 	 90.0047
| 37> H 	 43.6348 	 8.68065 	 90.6767
| 38> H 	 44.4826 	 10.2488 	 90.4871
| 39> H 	 40.4605 	 15.879 	 86.2381
| 40> H 	 40.0662 	 7.6045 	 85.169
| 41> *
| 42>
| 43>                          ****END OF INPUT****

CARTESIAN COORDINATES (ANGSTROEM)
---------------------------------
  S     39.854900   13.358400   85.811500
  C     40.791500   14.831000   86.230100
  C     42.049400   14.412600   86.642000
  C     42.280700   12.968200   86.688600
  C     41.172400   12.269500   86.335700
  H     43.157100   12.468200   87.022700
  C     43.121600   15.382600   87.099000
  H     43.691200   15.086800   87.921000
  H     42.658800   16.307100   87.492700
  C     44.088600   15.906800   86.035000
  H     44.693700   16.650400   86.661100
  H     44.755200   15.091900   85.654100
  C     43.394100   16.636100   84.877000
  H     42.864400   15.839400   84.332700
  H     42.689200   17.362500   85.252600
  H     44.012100   17.253700   84.225700
  S     40.250400   10.172000   85.018500
  C     40.245200    8.517430   85.683800
  C     40.733200    8.578470   86.964300
  C     41.338600    9.860350   87.388000
  C     40.947500   10.845600   86.465800
  H     40.914700    7.589660   87.500000
  C     42.151900   10.078100   88.678000
  H     41.535900    9.588160   89.446200
  H     42.180800   11.143600   88.954400
  C     43.602400    9.456250   88.672200
  H     44.219900    9.976710   88.002700
  H     43.436500    8.525690   88.143600
  C     44.220400    9.246820   90.059300
  H     45.168500    8.755160   90.004700
  H     43.634800    8.680650   90.676700
  H     44.482600   10.248800   90.487100
  H     40.460500   15.879000   86.238100
  H     40.066200    7.604500   85.169000

 Total Charge           Charge          ....    0
 Multiplicity           Mult            ....    1
 Number of Electrons    NEL             ....  134
 Basis Dimension        Dim             ....  322

ORBITAL ENERGIES
----------------

  NO   OCC          E(Eh)            E(eV)
   0   2.0000     -88.965306     -2420.8690
   1   2.0000     -88.963739     -2420.8264
   2   2.0000     -10.332018      -281.1485
   3   2.0000     -10.330790      -281.1151
   4   2.0000     -10.321728      -280.8685
   5   2.0000     -10.319671      -280.8125
   6   2.0000     -10.316946      -280.7384
   7   2.0000     -10.306217      -280.4464
   8   2.0000     -10.305354      -280.4229
   9   2.0000     -10.301112      -280.3075
  10   2.0000     -10.295067      -280.1430
  11   2.0000     -10.293020      -280.0873
  12   2.0000     -10.287853      -279.9467
  13   2.0000     -10.286148      -279.9003
  14   2.0000     -10.277808      -279.6734
  15   2.0000     -10.274521      -279.5839
  16   2.0000      -8.078802      -219.8354
  17   2.0000      -8.078322      -219.8223
  18   2.0000      -6.037667      -164.2933
  19   2.0000      -6.037073      -164.2771
  20   2.0000      -6.033502      -164.1799
  21   2.0000      -6.032774      -164.1601
  22   2.0000      -6.029196      -164.0628
  23   2.0000      -6.028879      -164.0542
  24   2.0000      -1.003745       -27.3133
  25   2.0000      -0.976564       -26.5737
  26   2.0000      -0.911271       -24.7970
  27   2.0000      -0.905485       -24.6395
  28   2.0000      -0.870404       -23.6849
  29   2.0000      -0.850716       -23.1492
  30   2.0000      -0.839090       -22.8328
  31   2.0000      -0.817587       -22.2477
  32   2.0000      -0.783146       -21.3105
  33   2.0000      -0.776405       -21.1270
  34   2.0000      -0.713374       -19.4119
  35   2.0000      -0.701745       -19.0955
  36   2.0000      -0.688574       -18.7370
  37   2.0000      -0.658271       -17.9125
  38   2.0000      -0.640976       -17.4418
  39   2.0000      -0.620179       -16.8759
  40   2.0000      -0.594253       -16.1704
  41   2.0000      -0.569215       -15.4891
  42   2.0000      -0.565515       -15.3884
  43   2.0000      -0.548698       -14.9308
  44   2.0000      -0.539270       -14.6743
  45   2.0000      -0.525667       -14.3041
  46   2.0000      -0.518031       -14.0963
  47   2.0000      -0.513482       -13.9725
  48   2.0000      -0.509290       -13.8585
  49   2.0000      -0.500118       -13.6089
  50   2.0000      -0.492393       -13.3987
  51   2.0000      -0.486065       -13.2265
  52   2.0000      -0.469721       -12.7818
  53   2.0000      -0.464253       -12.6330
  54   2.0000      -0.460831       -12.5399
  55   2.0000      -0.446569       -12.1518
  56   2.0000      -0.441928       -12.0255
  57   2.0000      -0.436315       -11.8727
  58   2.0000      -0.435712       -11.8563
  59   2.0000      -0.423308       -11.5188
  60   2.0000      -0.418606       -11.3909
  61   2.0000      -0.416364       -11.3298
  62   2.0000      -0.404886       -11.0175
  63   2.0000      -0.355051        -9.6614
  64   2.0000      -0.329118        -8.9558
  65   2.0000      -0.326658        -8.8888
  66   2.0000      -0.293039        -7.9740
  67   0.0000       0.027049         0.7360
  68   0.0000       0.066620         1.8128
  69   0.0000       0.106417         2.8958
  70   0.0000       0.110475         3.0062
  71   0.0000       0.124107         3.3771

MULLIKEN ATOMIC CHARGES
-----------------------
   0 S :    0.095302
   1 C :   -0.115966
   2 C :   -0.094156
   3 C :    0.037149
   4 C :   -0.109707
   5 H :    0.002402
   6 C :    0.065669
   7 H :    0.009087
   8 H :    0.012896
   9 C :   -0.108388
  10 H :    0.033684
  11 H :    0.040548
  12 C :   -0.044171
  13 H :    0.052987
  14 H :    0.009968
  15 H :    0.036249
  16 S :    0.085936
  17 C :   -0.078041
  18 C :   -0.050989
  19 C :   -0.057286
  20 C :   -0.138996
  21 H :    0.043382
  22 C :    0.032215
  23 H :    0.031430
  24 H :    0.034149
  25 C :   -0.053396
  26 H :    0.014762
  27 H :    0.016352
  28 C :   -0.001900
  29 H :    0.027209
  30 H :    0.018016
  31 H :    0.034336
  32 H :    0.064040
  33 H :    0.055228
Sum of atomic charges:    0.0000000

LOEWDIN ATOMIC CHARGES
----------------------
   0 S :    0.368089
   1 C :   -0.187435
   2 C :   -0.058642
   3 C :   -0.061173
   4 C :   -0.177449
   5 H :    0.028901
   6 C :   -0.037175
   7 H :    0.021196
   8 H :    0.031219
   9 C :   -0.042349
  10 H :    0.028225
  11 H :    0.024449
  12 C :   -0.070853
  13 H :    0.032212
  14 H :    0.018493
  15 H :    0.026592
  16 S :    0.393427
  17 C :   -0.176422
  18 C :   -0.077565
  19 C :   -0.054801
  20 C :   -0.192720
  21 H :    0.039399
  22 C :   -0.032235
  23 H :    0.034507
  24 H :    0.029685
  25 C :   -0.034893
  26 H :    0.015554
  27 H :    0.022595
  28 C :   -0.054092
  29 H :    0.027446
  30 H :    0.013188
  31 H :    0.033177
  32 H :    0.039673
  33 H :    0.029776

  Mayer bond orders larger than 0.100000
B(  0-S ,  1-C ) :   1.1012 B(  0-S ,  4-C ) :   1.1273 B(  1-C ,  2-C ) :   1.6418
B(  1-C , 32-H ) :   0.9685 B(  2-C ,  3-C ) :   1.1844 B(  2-C ,  6-C ) :   1.0277
B(  3-C ,  4-C ) :   1.6101 B(  3-C ,  5-H ) :   1.0053 B(  4-C , 20-C ) :   1.0262
B(  6-C ,  7-H ) :   0.9431 B(  6-C ,  8-H ) :   0.9418 B(  6-C ,  9-C ) :   1.0689
B(  9-C , 10-H ) :   0.9565 B(  9-C , 11-H ) :   0.9579 B(  9-C , 12-C ) :   1.0737
B( 12-C , 13-H ) :   0.9715 B( 12-C , 14-H ) :   0.9717 B( 12-C , 15-H ) :   0.9746
B( 16-S , 17-C ) :   1.1228 B( 16-S , 20-C ) :   1.1445 B( 17-C , 18-C ) :   1.6532
B( 17-C , 33-H ) :   0.9729 B( 18-C , 19-C ) :   1.2051 B( 18-C , 21-H ) :   0.9672
B( 19-C , 20-C ) :   1.6063 B( 19-C , 22-C ) :   1.0427 B( 22-C , 23-H ) :   0.9382
B( 22-C , 24-H ) :   0.9408 B( 22-C , 25-C ) :   1.0445 B( 25-C , 26-H ) :   0.9539
B( 25-C , 27-H ) :   0.9564 B( 25-C , 28-C ) :   1.0846 B( 28-C , 29-H ) :   0.9712
B( 28-C , 30-H ) :   0.9762 B( 28-C , 31-H ) :   0.9738

Dispersion correction           -0.014115605
FINAL SINGLE POINT ENERGY     -1339.866826557412

DIPOLE MOMENT
-------------
                                X             Y             Z
Electronic contribution:    -22.30497      -7.34089     -12.80859
Nuclear contribution   :     22.98813       7.23508      13.32222
                        -----------------------------------------
Total Dipole Moment    :      0.68317      -0.10581       0.51363
                        -----------------------------------------
Magnitude (a.u.)       :      0.86124
Magnitude (Debye)      :      2.18909

Rotational constants in cm-1:     0.017944     0.008577     0.006342
Rotational constants in MHz :   537.949836   257.140584   190.133215

                             ****ORCA TERMINATED NORMALLY****
TOTAL RUN TIME: 0 days 0 hours 0 minutes 27 seconds 767 msec
