                         Program Version 4.2.1 -  RELEASE  -
|  1> ! wB97X-D3 SP def2-SVP
|  2> %pal
|  3> nprocs 16
|  4> end
|  5>
|  6> * xyz 0 1
|  7> S 	 7.06844 	 -13.0662 	 63.4863
|  8> C 	 7.1694 	 -13.1191 	 65.214
|  9> C 	 6.01643 	 -12.6413 	 65.8539
| 10> C 	 4.95728 	 -12.3308 	 64.8987
| 11> C 	 5.34595 	 -12.622 	 63.5755
| 12> H 	 3.92406 	 -12.0473 	 65.132
| 13> C 	 5.67516 	 -12.652 	 67.3243
| 14> H 	 4.66756 	 -12.2685 	 67.3705
| 15> H 	 6.35716 	 -12.0013 	 67.7913
| 16> C 	 5.89467 	 -14.0145 	 67.9929
| 17> H 	 6.92073 	 -14.2259 	 68.1288
| 18> H 	 5.48482 	 -13.9561 	 68.92
| 19> C 	 5.28372 	 -15.1864 	 67.159
| 20> H 	 5.5235 	 -16.1921 	 67.6145
| 21> H 	 4.20341 	 -15.0728 	 67.1487
| 22> H 	 5.45296 	 -15.1849 	 66.0499
| 23> S 	 5.36015 	 -11.5057 	 61.0307
| 24> C 	 3.9658 	 -11.7805 	 59.9912
| 25> C 	 3.20306 	 -12.7179 	 60.5346
| 26> C 	 3.50012 	 -13.1247 	 61.9212
| 27> C 	 4.61952 	 -12.4444 	 62.3727
| 28> H 	 2.31683 	 -13.0202 	 59.9323
| 29> C 	 2.66364 	 -14.1031 	 62.7364
| 30> H 	 1.7018 	 -14.1018 	 62.196
| 31> H 	 2.50236 	 -13.7095 	 63.6735
| 32> C 	 3.22875 	 -15.5764 	 62.9674
| 33> H 	 4.29358 	 -15.6508 	 63.2701
| 34> H 	 3.27062 	 -16.1995 	 62.0911
| 35> C 	 2.62351 	 -16.3641 	 64.1622
| 36> H 	 3.04314 	 -17.3807 	 64.2815
| 37> H 	 1.5596 	 -16.4016 	 64.2073
| 38> H 	 2.77805 	 -15.7823 	 65.1182
| 39> H 	 8.0937 	 -13.3544 	 65.7723
| 40> H 	 4.04179 	 -11.4974 	 58.9181
| 41> *
| 42>
| 43>                          ****END OF INPUT****

CARTESIAN COORDINATES (ANGSTROEM)
---------------------------------
  S      7.068440  -13.066200   63.486300
  C      7.169400  -13.119100   65.214000
  C      6.016430  -12.641300   65.853900
  C      4.957280  -12.330800   64.898700
  C      5.345950  -12.622000   63.575500
  H      3.924060  -12.047300   65.132000
  C      5.675160  -12.652000   67.324300
  H      4.667560  -12.268500   67.370500
  H      6.357160  -12.001300   67.791300
  C      5.894670  -14.014500   67.992900
  H      6.920730  -14.225900   68.128800
  H      5.484820  -13.956100   68.920000
  C      5.283720  -15.186400   67.159000
  H      5.523500  -16.192100   67.614500
  H      4.203410  -15.072800   67.148700
  H      5.452960  -15.184900   66.049900
  S      5.360150  -11.505700   61.030700
  C      3.965800  -11.780500   59.991200
  C      3.203060  -12.717900   60.534600
  C      3.500120  -13.124700   61.921200
  C      4.619520  -12.444400   62.372700
  H      2.316830  -13.020200   59.932300
  C      2.663640  -14.103100   62.736400
  H      1.701800  -14.101800   62.196000
  H      2.502360  -13.709500   63.673500
  C      3.228750  -15.576400   62.967400
  H      4.293580  -15.650800   63.270100
  H      3.270620  -16.199500   62.091100
  C      2.623510  -16.364100   64.162200
  H      3.043140  -17.380700   64.281500
  H      1.559600  -16.401600   64.207300
  H      2.778050  -15.782300   65.118200
  H      8.093700  -13.354400   65.772300
  H      4.041790  -11.497400   58.918100

 Total Charge           Charge          ....    0
 Multiplicity           Mult            ....    1
 Number of Electrons    NEL             ....  134
 Basis Dimension        Dim             ....  322

ORBITAL ENERGIES
----------------

  NO   OCC          E(Eh)            E(eV)
   0   2.0000     -88.969564     -2420.9849
   1   2.0000     -88.957771     -2420.6640
   2   2.0000     -10.331048      -281.1221
   3   2.0000     -10.326315      -280.9933
   4   2.0000     -10.316040      -280.7137
   5   2.0000     -10.315545      -280.7002
   6   2.0000     -10.310022      -280.5500
   7   2.0000     -10.303524      -280.3731
   8   2.0000     -10.302320      -280.3404
   9   2.0000     -10.297332      -280.2046
  10   2.0000     -10.296378      -280.1787
  11   2.0000     -10.290779      -280.0263
  12   2.0000     -10.287269      -279.9308
  13   2.0000     -10.280931      -279.7584
  14   2.0000     -10.279820      -279.7281
  15   2.0000     -10.279605      -279.7223
  16   2.0000      -8.083814      -219.9718
  17   2.0000      -8.072398      -219.6611
  18   2.0000      -6.042346      -164.4206
  19   2.0000      -6.038393      -164.3130
  20   2.0000      -6.034579      -164.2092
  21   2.0000      -6.031072      -164.1138
  22   2.0000      -6.027093      -164.0055
  23   2.0000      -6.022802      -163.8888
  24   2.0000      -1.002962       -27.2920
  25   2.0000      -0.978723       -26.6324
  26   2.0000      -0.915447       -24.9106
  27   2.0000      -0.899702       -24.4821
  28   2.0000      -0.870985       -23.7007
  29   2.0000      -0.848006       -23.0754
  30   2.0000      -0.842107       -22.9149
  31   2.0000      -0.810666       -22.0593
  32   2.0000      -0.782436       -21.2912
  33   2.0000      -0.771918       -21.0050
  34   2.0000      -0.711767       -19.3682
  35   2.0000      -0.709180       -19.2978
  36   2.0000      -0.697067       -18.9682
  37   2.0000      -0.656294       -17.8587
  38   2.0000      -0.636102       -17.3092
  39   2.0000      -0.610624       -16.6159
  40   2.0000      -0.594339       -16.1728
  41   2.0000      -0.572865       -15.5884
  42   2.0000      -0.554723       -15.0948
  43   2.0000      -0.551801       -15.0153
  44   2.0000      -0.535882       -14.5821
  45   2.0000      -0.528685       -14.3862
  46   2.0000      -0.514256       -13.9936
  47   2.0000      -0.510968       -13.9041
  48   2.0000      -0.501646       -13.6505
  49   2.0000      -0.497607       -13.5406
  50   2.0000      -0.490425       -13.3451
  51   2.0000      -0.477602       -12.9962
  52   2.0000      -0.472426       -12.8554
  53   2.0000      -0.464668       -12.6443
  54   2.0000      -0.449932       -12.2433
  55   2.0000      -0.448031       -12.1915
  56   2.0000      -0.447092       -12.1660
  57   2.0000      -0.440960       -11.9991
  58   2.0000      -0.434428       -11.8214
  59   2.0000      -0.424467       -11.5503
  60   2.0000      -0.421041       -11.4571
  61   2.0000      -0.415852       -11.3159
  62   2.0000      -0.403694       -10.9851
  63   2.0000      -0.348102        -9.4723
  64   2.0000      -0.328538        -8.9400
  65   2.0000      -0.326023        -8.8715
  66   2.0000      -0.292414        -7.9570
  67   0.0000       0.026517         0.7216
  68   0.0000       0.059992         1.6325
  69   0.0000       0.107980         2.9383
  70   0.0000       0.121157         3.2969
  71   0.0000       0.128285         3.4908

MULLIKEN ATOMIC CHARGES
-----------------------
   0 S :    0.123671
   1 C :   -0.129065
   2 C :   -0.139421
   3 C :    0.021572
   4 C :   -0.172715
   5 H :    0.028609
   6 C :    0.120292
   7 H :    0.018122
   8 H :    0.022152
   9 C :   -0.007291
  10 H :    0.017960
  11 H :    0.009516
  12 C :   -0.104336
  13 H :    0.043629
  14 H :    0.021672
  15 H :    0.059942
  16 S :    0.069125
  17 C :   -0.103005
  18 C :   -0.040219
  19 C :   -0.056903
  20 C :   -0.154013
  21 H :    0.032663
  22 C :    0.155542
  23 H :    0.027493
  24 H :   -0.007162
  25 C :   -0.072070
  26 H :    0.037962
  27 H :    0.025096
  28 C :   -0.077341
  29 H :    0.048683
  30 H :    0.015987
  31 H :    0.024181
  32 H :    0.058576
  33 H :    0.081094
Sum of atomic charges:   -0.0000000

LOEWDIN ATOMIC CHARGES
----------------------
   0 S :    0.409754
   1 C :   -0.213098
   2 C :   -0.060114
   3 C :   -0.060963
   4 C :   -0.184318
   5 H :    0.034058
   6 C :   -0.023212
   7 H :    0.028724
   8 H :    0.029860
   9 C :   -0.023580
  10 H :    0.018807
  11 H :    0.014380
  12 C :   -0.077100
  13 H :    0.030572
  14 H :    0.017932
  15 H :    0.034081
  16 S :    0.361603
  17 C :   -0.185955
  18 C :   -0.079141
  19 C :   -0.050206
  20 C :   -0.184247
  21 H :    0.037052
  22 C :   -0.019736
  23 H :    0.037923
  24 H :    0.018807
  25 C :   -0.042329
  26 H :    0.032934
  27 H :    0.020369
  28 C :   -0.073688
  29 H :    0.033381
  30 H :    0.013641
  31 H :    0.027995
  32 H :    0.033336
  33 H :    0.042478

  Mayer bond orders larger than 0.100000
B(  0-S ,  1-C ) :   1.1409 B(  0-S ,  4-C ) :   1.1410 B(  1-C ,  2-C ) :   1.6078
B(  1-C ,  4-C ) :   0.1005 B(  1-C , 32-H ) :   0.9631 B(  2-C ,  3-C ) :   1.2337
B(  2-C ,  6-C ) :   1.0247 B(  3-C ,  4-C ) :   1.5756 B(  3-C ,  5-H ) :   0.9834
B(  4-C , 20-C ) :   1.0887 B(  6-C ,  7-H ) :   0.9441 B(  6-C ,  8-H ) :   0.9214
B(  6-C ,  9-C ) :   1.0814 B(  9-C , 10-H ) :   0.9519 B(  9-C , 11-H ) :   0.9522
B(  9-C , 12-C ) :   1.0716 B( 12-C , 13-H ) :   0.9742 B( 12-C , 14-H ) :   0.9743
B( 12-C , 15-H ) :   0.9708 B( 16-S , 17-C ) :   1.1193 B( 16-S , 20-C ) :   1.1173
B( 17-C , 18-C ) :   1.6795 B( 17-C , 33-H ) :   0.9575 B( 18-C , 19-C ) :   1.2003
B( 18-C , 21-H ) :   0.9754 B( 19-C , 20-C ) :   1.6137 B( 19-C , 22-C ) :   1.0456
B( 22-C , 23-H ) :   0.9280 B( 22-C , 24-H ) :   0.9315 B( 22-C , 25-C ) :   1.0366
B( 25-C , 26-H ) :   0.9608 B( 25-C , 27-H ) :   0.9586 B( 25-C , 28-C ) :   1.0710
B( 28-C , 29-H ) :   0.9747 B( 28-C , 30-H ) :   0.9744 B( 28-C , 31-H ) :   0.9717

Dispersion correction           -0.016097021
FINAL SINGLE POINT ENERGY     -1339.858105158641

DIPOLE MOMENT
-------------
                                X             Y             Z
Electronic contribution:     12.28089      18.32383     -20.21493
Nuclear contribution   :    -12.64638     -18.65991      20.62977
                        -----------------------------------------
Total Dipole Moment    :     -0.36549      -0.33608       0.41484
                        -----------------------------------------
Magnitude (a.u.)       :      0.64701
Magnitude (Debye)      :      1.64457

Rotational constants in cm-1:     0.019904     0.009933     0.007458
Rotational constants in MHz :   596.710035   297.796160   223.581296

                             ****ORCA TERMINATED NORMALLY****
TOTAL RUN TIME: 0 days 0 hours 0 minutes 30 seconds 957 msec
