                         Program Version 4.2.1 -  RELEASE  -
|  1> ! wB97X-D3 SP def2-SVP
|  2> %pal
|  3> nprocs 16
|  4> end
|  5>
|  6> * xyz 0 1
|  7> S 	 -41.5268 	 35.3272 	 82.6772
|  8> C 	 -42.4447 	 35.3807 	 81.1731
|  9> C 	 -42.5625 	 34.0635 	 80.684
| 10> C 	 -41.9919 	 33.0665 	 81.5984
| 11> C 	 -41.5136 	 33.5965 	 82.7147
| 12> H 	 -41.9887 	 31.9799 	 81.5366
| 13> C 	 -43.043 	 33.7225 	 79.2708
| 14> H 	 -42.317 	 34.0399 	 78.6436
| 15> H 	 -43.8697 	 34.3941 	 78.995
| 16> C 	 -43.5037 	 32.3447 	 78.9522
| 17> H 	 -43.744 	 32.3973 	 77.8552
| 18> H 	 -42.743 	 31.6096 	 78.8678
| 19> C 	 -44.729 	 31.8215 	 79.7515
| 20> H 	 -45.1816 	 30.9513 	 79.3489
| 21> H 	 -44.3186 	 31.5198 	 80.7851
| 22> H 	 -45.5492 	 32.5877 	 79.914
| 23> S 	 -39.3409 	 33.2975 	 84.4246
| 24> C 	 -39.374 	 32.0109 	 85.725
| 25> C 	 -40.5854 	 31.3295 	 85.5874
| 26> C 	 -41.5219 	 31.8679 	 84.6391
| 27> C 	 -41.0069 	 32.9255 	 83.8832
| 28> H 	 -40.7978 	 30.4263 	 86.1573
| 29> C 	 -42.8028 	 31.0442 	 84.4366
| 30> H 	 -42.5239 	 30.0671 	 84.0803
| 31> H 	 -43.181 	 31.5001 	 83.5378
| 32> C 	 -43.8415 	 31.0728 	 85.6239
| 33> H 	 -44.3589 	 31.9827 	 85.7199
| 34> H 	 -43.2942 	 31.0004 	 86.5728
| 35> C 	 -44.9742 	 30.0246 	 85.5297
| 36> H 	 -44.5833 	 29.0356 	 85.5684
| 37> H 	 -45.468 	 30.2575 	 84.5876
| 38> H 	 -45.6411 	 30.1796 	 86.3115
| 39> H 	 -42.681 	 36.2194 	 80.5902
| 40> H 	 -38.4812 	 31.7326 	 86.3308
| 41> *
| 42>
| 43>                          ****END OF INPUT****

CARTESIAN COORDINATES (ANGSTROEM)
---------------------------------
  S    -41.526800   35.327200   82.677200
  C    -42.444700   35.380700   81.173100
  C    -42.562500   34.063500   80.684000
  C    -41.991900   33.066500   81.598400
  C    -41.513600   33.596500   82.714700
  H    -41.988700   31.979900   81.536600
  C    -43.043000   33.722500   79.270800
  H    -42.317000   34.039900   78.643600
  H    -43.869700   34.394100   78.995000
  C    -43.503700   32.344700   78.952200
  H    -43.744000   32.397300   77.855200
  H    -42.743000   31.609600   78.867800
  C    -44.729000   31.821500   79.751500
  H    -45.181600   30.951300   79.348900
  H    -44.318600   31.519800   80.785100
  H    -45.549200   32.587700   79.914000
  S    -39.340900   33.297500   84.424600
  C    -39.374000   32.010900   85.725000
  C    -40.585400   31.329500   85.587400
  C    -41.521900   31.867900   84.639100
  C    -41.006900   32.925500   83.883200
  H    -40.797800   30.426300   86.157300
  C    -42.802800   31.044200   84.436600
  H    -42.523900   30.067100   84.080300
  H    -43.181000   31.500100   83.537800
  C    -43.841500   31.072800   85.623900
  H    -44.358900   31.982700   85.719900
  H    -43.294200   31.000400   86.572800
  C    -44.974200   30.024600   85.529700
  H    -44.583300   29.035600   85.568400
  H    -45.468000   30.257500   84.587600
  H    -45.641100   30.179600   86.311500
  H    -42.681000   36.219400   80.590200
  H    -38.481200   31.732600   86.330800

 Total Charge           Charge          ....    0
 Multiplicity           Mult            ....    1
 Number of Electrons    NEL             ....  134
 Basis Dimension        Dim             ....  322

ORBITAL ENERGIES
----------------

  NO   OCC          E(Eh)            E(eV)
   0   2.0000     -88.963735     -2420.8263
   1   2.0000     -88.962448     -2420.7913
   2   2.0000     -10.332823      -281.1704
   3   2.0000     -10.330031      -281.0944
   4   2.0000     -10.323011      -280.9034
   5   2.0000     -10.314388      -280.6688
   6   2.0000     -10.309489      -280.5354
   7   2.0000     -10.306649      -280.4582
   8   2.0000     -10.297903      -280.2202
   9   2.0000     -10.293844      -280.1097
  10   2.0000     -10.293190      -280.0919
  11   2.0000     -10.288970      -279.9771
  12   2.0000     -10.288464      -279.9633
  13   2.0000     -10.285487      -279.8823
  14   2.0000     -10.285380      -279.8794
  15   2.0000     -10.271209      -279.4938
  16   2.0000      -8.077512      -219.8003
  17   2.0000      -8.076796      -219.7808
  18   2.0000      -6.036157      -164.2522
  19   2.0000      -6.035569      -164.2362
  20   2.0000      -6.031946      -164.1376
  21   2.0000      -6.031480      -164.1249
  22   2.0000      -6.028113      -164.0333
  23   2.0000      -6.027416      -164.0143
  24   2.0000      -1.006122       -27.3780
  25   2.0000      -0.974206       -26.5095
  26   2.0000      -0.916353       -24.9352
  27   2.0000      -0.900702       -24.5093
  28   2.0000      -0.871374       -23.7113
  29   2.0000      -0.850299       -23.1378
  30   2.0000      -0.839655       -22.8482
  31   2.0000      -0.818810       -22.2809
  32   2.0000      -0.785561       -21.3762
  33   2.0000      -0.772418       -21.0186
  34   2.0000      -0.711610       -19.3639
  35   2.0000      -0.702614       -19.1191
  36   2.0000      -0.696767       -18.9600
  37   2.0000      -0.659044       -17.9335
  38   2.0000      -0.648205       -17.6385
  39   2.0000      -0.620082       -16.8733
  40   2.0000      -0.590665       -16.0728
  41   2.0000      -0.568609       -15.4726
  42   2.0000      -0.562026       -15.2935
  43   2.0000      -0.559503       -15.2249
  44   2.0000      -0.531378       -14.4595
  45   2.0000      -0.528518       -14.3817
  46   2.0000      -0.522833       -14.2270
  47   2.0000      -0.518310       -14.1039
  48   2.0000      -0.506798       -13.7907
  49   2.0000      -0.499318       -13.5871
  50   2.0000      -0.493887       -13.4393
  51   2.0000      -0.482589       -13.1319
  52   2.0000      -0.467555       -12.7228
  53   2.0000      -0.460853       -12.5404
  54   2.0000      -0.456539       -12.4231
  55   2.0000      -0.449133       -12.2215
  56   2.0000      -0.442504       -12.0411
  57   2.0000      -0.440885       -11.9971
  58   2.0000      -0.435738       -11.8570
  59   2.0000      -0.428394       -11.6572
  60   2.0000      -0.418791       -11.3959
  61   2.0000      -0.412348       -11.2206
  62   2.0000      -0.402683       -10.9576
  63   2.0000      -0.347656        -9.4602
  64   2.0000      -0.327804        -8.9200
  65   2.0000      -0.326807        -8.8929
  66   2.0000      -0.296616        -8.0713
  67   0.0000       0.029525         0.8034
  68   0.0000       0.065118         1.7719
  69   0.0000       0.103015         2.8032
  70   0.0000       0.121499         3.3062
  71   0.0000       0.127199         3.4613

MULLIKEN ATOMIC CHARGES
-----------------------
   0 S :    0.106872
   1 C :   -0.088629
   2 C :   -0.117081
   3 C :    0.029969
   4 C :   -0.153010
   5 H :    0.017472
   6 C :    0.106000
   7 H :    0.014862
   8 H :    0.020697
   9 C :   -0.075155
  10 H :    0.023639
  11 H :    0.017817
  12 C :   -0.066297
  13 H :    0.032499
  14 H :    0.037029
  15 H :    0.045903
  16 S :    0.076581
  17 C :   -0.111507
  18 C :   -0.030604
  19 C :   -0.055993
  20 C :   -0.139880
  21 H :    0.030248
  22 C :    0.086638
  23 H :    0.028707
  24 H :    0.000880
  25 C :   -0.070923
  26 H :    0.021240
  27 H :    0.024076
  28 C :   -0.009729
  29 H :    0.027810
  30 H :    0.031549
  31 H :    0.023037
  32 H :    0.030622
  33 H :    0.084658
Sum of atomic charges:    0.0000000

LOEWDIN ATOMIC CHARGES
----------------------
   0 S :    0.406029
   1 C :   -0.189686
   2 C :   -0.049619
   3 C :   -0.068925
   4 C :   -0.197481
   5 H :    0.034303
   6 C :   -0.032107
   7 H :    0.023072
   8 H :    0.036940
   9 C :   -0.049849
  10 H :    0.033350
  11 H :    0.018163
  12 C :   -0.068774
  13 H :    0.020026
  14 H :    0.031427
  15 H :    0.033595
  16 S :    0.355522
  17 C :   -0.170110
  18 C :   -0.068390
  19 C :   -0.056690
  20 C :   -0.184906
  21 H :    0.031936
  22 C :   -0.030818
  23 H :    0.030071
  24 H :    0.024726
  25 C :   -0.032544
  26 H :    0.021723
  27 H :    0.020774
  28 C :   -0.051318
  29 H :    0.019188
  30 H :    0.028572
  31 H :    0.019220
  32 H :    0.020246
  33 H :    0.042335

  Mayer bond orders larger than 0.100000
B(  0-S ,  1-C ) :   1.1238 B(  0-S ,  4-C ) :   1.1422 B(  1-C ,  2-C ) :   1.6312
B(  1-C , 32-H ) :   0.9806 B(  2-C ,  3-C ) :   1.1919 B(  2-C ,  6-C ) :   1.0031
B(  3-C ,  4-C ) :   1.6289 B(  3-C ,  5-H ) :   0.9898 B(  4-C , 20-C ) :   1.0165
B(  6-C ,  7-H ) :   0.9293 B(  6-C ,  8-H ) :   0.9335 B(  6-C ,  9-C ) :   1.1012
B(  9-C , 10-H ) :   0.9457 B(  9-C , 11-H ) :   0.9453 B(  9-C , 12-C ) :   1.0686
B( 12-C , 13-H ) :   0.9751 B( 12-C , 14-H ) :   0.9728 B( 12-C , 15-H ) :   0.9761
B( 16-S , 17-C ) :   1.1246 B( 16-S , 20-C ) :   1.1311 B( 17-C , 18-C ) :   1.6139
B( 17-C , 20-C ) :   0.1043 B( 17-C , 33-H ) :   0.9651 B( 18-C , 19-C ) :   1.2302
B( 18-C , 21-H ) :   0.9809 B( 19-C , 20-C ) :   1.6062 B( 19-C , 22-C ) :   1.0346
B( 22-C , 23-H ) :   0.9453 B( 22-C , 24-H ) :   0.9244 B( 22-C , 25-C ) :   1.0398
B( 25-C , 26-H ) :   0.9550 B( 25-C , 27-H ) :   0.9648 B( 25-C , 28-C ) :   1.0833
B( 28-C , 29-H ) :   0.9789 B( 28-C , 30-H ) :   0.9754 B( 28-C , 31-H ) :   0.9743

Dispersion correction           -0.014166104
FINAL SINGLE POINT ENERGY     -1339.857276900007

DIPOLE MOMENT
-------------
                                X             Y             Z
Electronic contribution:     23.21307      18.12845       7.53693
Nuclear contribution   :    -23.60002     -18.74576      -7.92730
                        -----------------------------------------
Total Dipole Moment    :     -0.38696      -0.61731      -0.39037
                        -----------------------------------------
Magnitude (a.u.)       :      0.82656
Magnitude (Debye)      :      2.10095

Rotational constants in cm-1:     0.015507     0.009834     0.006882
Rotational constants in MHz :   464.901422   294.814421   206.308016

                             ****ORCA TERMINATED NORMALLY****
TOTAL RUN TIME: 0 days 0 hours 0 minutes 28 seconds 481 msec
