                         Program Version 4.2.1 -  RELEASE  -
|  1> ! wB97X-D3 SP def2-SVP
|  2> %pal
|  3> nprocs 16
|  4> end
|  5>
|  6> * xyz 0 1
|  7> S 	 -32.1585 	 59.7327 	 116.476
|  8> C 	 -33.7947 	 59.0051 	 116.545
|  9> C 	 -34.863 	 59.8431 	 116.392
| 10> C 	 -34.2794 	 61.1407 	 116.284
| 11> C 	 -32.8988 	 61.3257 	 116.385
| 12> H 	 -34.8406 	 62.0239 	 116.118
| 13> C 	 -36.3071 	 59.555 	 116.14
| 14> H 	 -36.6237 	 58.6826 	 116.663
| 15> H 	 -36.5059 	 59.3093 	 115.052
| 16> C 	 -37.3171 	 60.6545 	 116.517
| 17> H 	 -38.1364 	 60.2609 	 117.104
| 18> H 	 -36.8923 	 61.3883 	 117.256
| 19> C 	 -38.005 	 61.4565 	 115.326
| 20> H 	 -38.4752 	 62.2735 	 115.724
| 21> H 	 -37.0818 	 61.8364 	 114.788
| 22> H 	 -38.6845 	 60.8893 	 114.603
| 23> S 	 -30.9688 	 62.7279 	 115.03
| 24> C 	 -30.4069 	 64.3052 	 115.561
| 25> C 	 -31.2173 	 64.754 	 116.553
| 26> C 	 -32.2174 	 63.8543 	 116.932
| 27> C 	 -32.1332 	 62.6163 	 116.313
| 28> H 	 -30.9933 	 65.7565 	 116.873
| 29> C 	 -33.226 	 64.3022 	 118.038
| 30> H 	 -34.0576 	 63.6524 	 117.976
| 31> H 	 -33.6323 	 65.2855 	 117.897
| 32> C 	 -32.7869 	 64.2885 	 119.487
| 33> H 	 -32.0136 	 65.0848 	 119.709
| 34> H 	 -32.2418 	 63.3821 	 119.631
| 35> C 	 -33.9012 	 64.3624 	 120.485
| 36> H 	 -34.3187 	 65.3928 	 120.574
| 37> H 	 -33.4948 	 64.1294 	 121.459
| 38> H 	 -34.6105 	 63.6263 	 120.33
| 39> H 	 -33.9292 	 57.9523 	 116.495
| 40> H 	 -29.4874 	 64.8066 	 115.264
| 41> *
| 42>
| 43>                          ****END OF INPUT****

CARTESIAN COORDINATES (ANGSTROEM)
---------------------------------
  S    -32.158500   59.732700  116.476000
  C    -33.794700   59.005100  116.545000
  C    -34.863000   59.843100  116.392000
  C    -34.279400   61.140700  116.284000
  C    -32.898800   61.325700  116.385000
  H    -34.840600   62.023900  116.118000
  C    -36.307100   59.555000  116.140000
  H    -36.623700   58.682600  116.663000
  H    -36.505900   59.309300  115.052000
  C    -37.317100   60.654500  116.517000
  H    -38.136400   60.260900  117.104000
  H    -36.892300   61.388300  117.256000
  C    -38.005000   61.456500  115.326000
  H    -38.475200   62.273500  115.724000
  H    -37.081800   61.836400  114.788000
  H    -38.684500   60.889300  114.603000
  S    -30.968800   62.727900  115.030000
  C    -30.406900   64.305200  115.561000
  C    -31.217300   64.754000  116.553000
  C    -32.217400   63.854300  116.932000
  C    -32.133200   62.616300  116.313000
  H    -30.993300   65.756500  116.873000
  C    -33.226000   64.302200  118.038000
  H    -34.057600   63.652400  117.976000
  H    -33.632300   65.285500  117.897000
  C    -32.786900   64.288500  119.487000
  H    -32.013600   65.084800  119.709000
  H    -32.241800   63.382100  119.631000
  C    -33.901200   64.362400  120.485000
  H    -34.318700   65.392800  120.574000
  H    -33.494800   64.129400  121.459000
  H    -34.610500   63.626300  120.330000
  H    -33.929200   57.952300  116.495000
  H    -29.487400   64.806600  115.264000

 Total Charge           Charge          ....    0
 Multiplicity           Mult            ....    1
 Number of Electrons    NEL             ....  134
 Basis Dimension        Dim             ....  322

ORBITAL ENERGIES
----------------

  NO   OCC          E(Eh)            E(eV)
   0   2.0000     -88.969959     -2420.9957
   1   2.0000     -88.961826     -2420.7744
   2   2.0000     -10.335269      -281.2370
   3   2.0000     -10.332657      -281.1659
   4   2.0000     -10.316083      -280.7149
   5   2.0000     -10.313700      -280.6500
   6   2.0000     -10.305360      -280.4231
   7   2.0000     -10.304549      -280.4010
   8   2.0000     -10.301484      -280.3176
   9   2.0000     -10.295295      -280.1492
  10   2.0000     -10.292430      -280.0713
  11   2.0000     -10.287184      -279.9285
  12   2.0000     -10.286857      -279.9196
  13   2.0000     -10.282909      -279.8122
  14   2.0000     -10.277959      -279.6775
  15   2.0000     -10.270264      -279.4681
  16   2.0000      -8.083769      -219.9705
  17   2.0000      -8.076969      -219.7855
  18   2.0000      -6.042400      -164.4221
  19   2.0000      -6.038546      -164.3172
  20   2.0000      -6.035438      -164.2326
  21   2.0000      -6.034299      -164.2016
  22   2.0000      -6.031326      -164.1207
  23   2.0000      -6.027832      -164.0257
  24   2.0000      -1.006812       -27.3968
  25   2.0000      -0.987194       -26.8629
  26   2.0000      -0.912390       -24.8274
  27   2.0000      -0.909848       -24.7582
  28   2.0000      -0.869439       -23.6586
  29   2.0000      -0.849545       -23.1173
  30   2.0000      -0.844564       -22.9817
  31   2.0000      -0.815992       -22.2043
  32   2.0000      -0.789214       -21.4756
  33   2.0000      -0.777819       -21.1655
  34   2.0000      -0.708484       -19.2788
  35   2.0000      -0.696063       -18.9408
  36   2.0000      -0.691503       -18.8168
  37   2.0000      -0.658816       -17.9273
  38   2.0000      -0.644452       -17.5364
  39   2.0000      -0.626852       -17.0575
  40   2.0000      -0.598364       -16.2823
  41   2.0000      -0.576419       -15.6852
  42   2.0000      -0.568162       -15.4605
  43   2.0000      -0.555217       -15.1082
  44   2.0000      -0.529419       -14.4062
  45   2.0000      -0.521156       -14.1814
  46   2.0000      -0.518592       -14.1116
  47   2.0000      -0.509246       -13.8573
  48   2.0000      -0.502653       -13.6779
  49   2.0000      -0.497168       -13.5286
  50   2.0000      -0.496312       -13.5053
  51   2.0000      -0.486077       -13.2268
  52   2.0000      -0.481558       -13.1039
  53   2.0000      -0.467682       -12.7263
  54   2.0000      -0.457910       -12.4604
  55   2.0000      -0.445122       -12.1124
  56   2.0000      -0.440124       -11.9764
  57   2.0000      -0.438309       -11.9270
  58   2.0000      -0.430334       -11.7100
  59   2.0000      -0.426668       -11.6102
  60   2.0000      -0.418790       -11.3959
  61   2.0000      -0.410913       -11.1815
  62   2.0000      -0.410103       -11.1595
  63   2.0000      -0.343605        -9.3500
  64   2.0000      -0.334844        -9.1116
  65   2.0000      -0.328855        -8.9486
  66   2.0000      -0.298078        -8.1111
  67   0.0000       0.028185         0.7669
  68   0.0000       0.068248         1.8571
  69   0.0000       0.110128         2.9967
  70   0.0000       0.121098         3.2953
  71   0.0000       0.126105         3.4315

MULLIKEN ATOMIC CHARGES
-----------------------
   0 S :    0.114353
   1 C :   -0.114546
   2 C :   -0.057870
   3 C :    0.022807
   4 C :   -0.149867
   5 H :   -0.003980
   6 C :    0.105717
   7 H :    0.019899
   8 H :    0.058398
   9 C :   -0.138088
  10 H :    0.026947
  11 H :    0.040632
  12 C :   -0.061767
  13 H :    0.023087
  14 H :    0.036302
  15 H :    0.057957
  16 S :    0.092190
  17 C :   -0.099304
  18 C :   -0.034292
  19 C :   -0.018936
  20 C :   -0.155711
  21 H :    0.015379
  22 C :    0.114250
  23 H :   -0.014678
  24 H :    0.013309
  25 C :   -0.087783
  26 H :    0.025210
  27 H :    0.018206
  28 C :   -0.012303
  29 H :    0.036015
  30 H :    0.022590
  31 H :    0.016147
  32 H :    0.028811
  33 H :    0.060919
Sum of atomic charges:   -0.0000000

LOEWDIN ATOMIC CHARGES
----------------------
   0 S :    0.390017
   1 C :   -0.166654
   2 C :   -0.064597
   3 C :   -0.054212
   4 C :   -0.200779
   5 H :    0.018114
   6 C :   -0.033354
   7 H :    0.032730
   8 H :    0.048460
   9 C :   -0.048875
  10 H :    0.021339
  11 H :    0.031127
  12 C :   -0.067228
  13 H :    0.012552
  14 H :    0.030900
  15 H :    0.034742
  16 S :    0.405999
  17 C :   -0.183100
  18 C :   -0.072907
  19 C :   -0.056328
  20 C :   -0.197825
  21 H :    0.033627
  22 C :   -0.026842
  23 H :    0.018315
  24 H :    0.026954
  25 C :   -0.044889
  26 H :    0.025038
  27 H :    0.020067
  28 C :   -0.057644
  29 H :    0.029845
  30 H :    0.029305
  31 H :    0.015114
  32 H :    0.016845
  33 H :    0.034144

  Mayer bond orders larger than 0.100000
B(  0-S ,  1-C ) :   1.1466 B(  0-S ,  4-C ) :   1.1291 B(  1-C ,  2-C ) :   1.6287
B(  1-C , 32-H ) :   0.9630 B(  2-C ,  3-C ) :   1.2301 B(  2-C ,  6-C ) :   1.0342
B(  3-C ,  4-C ) :   1.6014 B(  3-C ,  5-H ) :   0.9862 B(  4-C , 20-C ) :   1.0092
B(  6-C ,  7-H ) :   0.9315 B(  6-C ,  8-H ) :   0.9399 B(  6-C ,  9-C ) :   1.0394
B(  9-C , 10-H ) :   0.9606 B(  9-C , 11-H ) :   0.9634 B(  9-C , 12-C ) :   1.0686
B( 12-C , 13-H ) :   0.9742 B( 12-C , 14-H ) :   0.9793 B( 12-C , 15-H ) :   0.9746
B( 16-S , 17-C ) :   1.1519 B( 16-S , 20-C ) :   1.1583 B( 17-C , 18-C ) :   1.6151
B( 17-C , 20-C ) :   0.1044 B( 17-C , 33-H ) :   0.9650 B( 18-C , 19-C ) :   1.2359
B( 18-C , 21-H ) :   0.9981 B( 19-C , 20-C ) :   1.5962 B( 19-C , 22-C ) :   1.0396
B( 22-C , 23-H ) :   0.9276 B( 22-C , 24-H ) :   0.9351 B( 22-C , 25-C ) :   1.0711
B( 25-C , 26-H ) :   0.9507 B( 25-C , 27-H ) :   0.9502 B( 25-C , 28-C ) :   1.1001
B( 28-C , 29-H ) :   0.9740 B( 28-C , 30-H ) :   0.9689 B( 28-C , 31-H ) :   0.9711

Dispersion correction           -0.013637053
FINAL SINGLE POINT ENERGY     -1339.853804552625

DIPOLE MOMENT
-------------
                                X             Y             Z
Electronic contribution:     24.37932      -8.83714     -12.62208
Nuclear contribution   :    -24.97868       9.03745      12.82901
                        -----------------------------------------
Total Dipole Moment    :     -0.59936       0.20031       0.20694
                        -----------------------------------------
Magnitude (a.u.)       :      0.66497
Magnitude (Debye)      :      1.69021

Rotational constants in cm-1:     0.015362     0.009082     0.007185
Rotational constants in MHz :   460.529707   272.285793   215.412590

                             ****ORCA TERMINATED NORMALLY****
TOTAL RUN TIME: 0 days 0 hours 0 minutes 29 seconds 912 msec
