                         Program Version 4.2.1 -  RELEASE  -
|  1> ! wB97X-D3 SP def2-SVP
|  2> %pal
|  3> nprocs 16
|  4> end
|  5>
|  6> * xyz 0 1
|  7> S 	 -0.16127 	 -17.2819 	 83.9966
|  8> C 	 -1.37198 	 -18.5238 	 84.3596
|  9> C 	 -2.56809 	 -17.8766 	 84.6236
| 10> C 	 -2.50398 	 -16.4416 	 84.4985
| 11> C 	 -1.30006 	 -15.9209 	 84.2265
| 12> H 	 -3.29551 	 -15.7051 	 84.6377
| 13> C 	 -3.82976 	 -18.5883 	 85.0356
| 14> H 	 -4.35241 	 -18.1342 	 85.8537
| 15> H 	 -3.53625 	 -19.6387 	 85.4433
| 16> C 	 -4.94234 	 -18.6348 	 83.9637
| 17> H 	 -5.72818 	 -19.2645 	 84.3918
| 18> H 	 -5.40649 	 -17.6473 	 83.9572
| 19> C 	 -4.60803 	 -19.3188 	 82.6542
| 20> H 	 -3.67785 	 -18.9608 	 82.1783
| 21> H 	 -4.35393 	 -20.3097 	 82.9304
| 22> H 	 -5.49558 	 -19.2908 	 82.0001
| 23> S 	 0.102801 	 -14.1048 	 82.7159
| 24> C 	 -0.0772684 	 -12.438 	 83.0915
| 25> C 	 -0.871771 	 -12.1901 	 84.1477
| 26> C 	 -1.32885 	 -13.4149 	 84.7515
| 27> C 	 -0.900726 	 -14.5468 	 84.103
| 28> H 	 -1.03369 	 -11.2491 	 84.6228
| 29> C 	 -2.02058 	 -13.4035 	 86.1378
| 30> H 	 -1.27355 	 -12.8427 	 86.7783
| 31> H 	 -2.01587 	 -14.3909 	 86.495
| 32> C 	 -3.41844 	 -12.8152 	 86.2049
| 33> H 	 -4.08577 	 -13.5956 	 85.8893
| 34> H 	 -3.63048 	 -11.9032 	 85.6657
| 35> C 	 -3.92868 	 -12.5734 	 87.6036
| 36> H 	 -3.8707 	 -13.4155 	 88.3156
| 37> H 	 -5.0055 	 -12.3043 	 87.5383
| 38> H 	 -3.32382 	 -11.7918 	 88.0943
| 39> H 	 -1.17203 	 -19.5836 	 84.4261
| 40> H 	 0.382534 	 -11.6382 	 82.471
| 41> *
| 42>
| 43>                          ****END OF INPUT****

CARTESIAN COORDINATES (ANGSTROEM)
---------------------------------
  S     -0.161270  -17.281900   83.996600
  C     -1.371980  -18.523800   84.359600
  C     -2.568090  -17.876600   84.623600
  C     -2.503980  -16.441600   84.498500
  C     -1.300060  -15.920900   84.226500
  H     -3.295510  -15.705100   84.637700
  C     -3.829760  -18.588300   85.035600
  H     -4.352410  -18.134200   85.853700
  H     -3.536250  -19.638700   85.443300
  C     -4.942340  -18.634800   83.963700
  H     -5.728180  -19.264500   84.391800
  H     -5.406490  -17.647300   83.957200
  C     -4.608030  -19.318800   82.654200
  H     -3.677850  -18.960800   82.178300
  H     -4.353930  -20.309700   82.930400
  H     -5.495580  -19.290800   82.000100
  S      0.102801  -14.104800   82.715900
  C     -0.077268  -12.438000   83.091500
  C     -0.871771  -12.190100   84.147700
  C     -1.328850  -13.414900   84.751500
  C     -0.900726  -14.546800   84.103000
  H     -1.033690  -11.249100   84.622800
  C     -2.020580  -13.403500   86.137800
  H     -1.273550  -12.842700   86.778300
  H     -2.015870  -14.390900   86.495000
  C     -3.418440  -12.815200   86.204900
  H     -4.085770  -13.595600   85.889300
  H     -3.630480  -11.903200   85.665700
  C     -3.928680  -12.573400   87.603600
  H     -3.870700  -13.415500   88.315600
  H     -5.005500  -12.304300   87.538300
  H     -3.323820  -11.791800   88.094300
  H     -1.172030  -19.583600   84.426100
  H      0.382534  -11.638200   82.471000

 Total Charge           Charge          ....    0
 Multiplicity           Mult            ....    1
 Number of Electrons    NEL             ....  134
 Basis Dimension        Dim             ....  322

ORBITAL ENERGIES
----------------

  NO   OCC          E(Eh)            E(eV)
   0   2.0000     -88.964630     -2420.8507
   1   2.0000     -88.959628     -2420.7146
   2   2.0000     -10.328543      -281.0539
   3   2.0000     -10.325362      -280.9674
   4   2.0000     -10.319577      -280.8100
   5   2.0000     -10.318717      -280.7866
   6   2.0000     -10.305067      -280.4151
   7   2.0000     -10.304472      -280.3989
   8   2.0000     -10.295739      -280.1613
   9   2.0000     -10.295023      -280.1418
  10   2.0000     -10.291983      -280.0591
  11   2.0000     -10.290952      -280.0310
  12   2.0000     -10.285236      -279.8755
  13   2.0000     -10.284723      -279.8615
  14   2.0000     -10.281806      -279.7822
  15   2.0000     -10.272951      -279.5412
  16   2.0000      -8.080158      -219.8723
  17   2.0000      -8.073901      -219.7020
  18   2.0000      -6.038697      -164.3213
  19   2.0000      -6.034615      -164.2102
  20   2.0000      -6.032696      -164.1580
  21   2.0000      -6.030764      -164.1054
  22   2.0000      -6.028424      -164.0418
  23   2.0000      -6.024409      -163.9325
  24   2.0000      -1.010307       -27.4918
  25   2.0000      -0.985690       -26.8220
  26   2.0000      -0.914713       -24.8906
  27   2.0000      -0.911136       -24.7933
  28   2.0000      -0.876105       -23.8400
  29   2.0000      -0.856687       -23.3116
  30   2.0000      -0.840858       -22.8809
  31   2.0000      -0.821174       -22.3453
  32   2.0000      -0.784069       -21.3356
  33   2.0000      -0.773926       -21.0596
  34   2.0000      -0.708623       -19.2826
  35   2.0000      -0.696733       -18.9591
  36   2.0000      -0.693052       -18.8589
  37   2.0000      -0.664028       -18.0691
  38   2.0000      -0.644154       -17.5283
  39   2.0000      -0.617381       -16.7998
  40   2.0000      -0.600748       -16.3472
  41   2.0000      -0.571880       -15.5616
  42   2.0000      -0.564429       -15.3589
  43   2.0000      -0.549775       -14.9602
  44   2.0000      -0.542650       -14.7663
  45   2.0000      -0.535474       -14.5710
  46   2.0000      -0.522295       -14.2124
  47   2.0000      -0.518772       -14.1165
  48   2.0000      -0.505811       -13.7638
  49   2.0000      -0.503225       -13.6934
  50   2.0000      -0.489608       -13.3229
  51   2.0000      -0.481820       -13.1110
  52   2.0000      -0.468982       -12.7617
  53   2.0000      -0.465055       -12.6548
  54   2.0000      -0.458153       -12.4670
  55   2.0000      -0.453479       -12.3398
  56   2.0000      -0.441486       -12.0135
  57   2.0000      -0.436947       -11.8899
  58   2.0000      -0.431850       -11.7512
  59   2.0000      -0.425038       -11.5659
  60   2.0000      -0.418158       -11.3787
  61   2.0000      -0.411683       -11.2025
  62   2.0000      -0.405693       -11.0395
  63   2.0000      -0.359223        -9.7750
  64   2.0000      -0.332757        -9.0548
  65   2.0000      -0.326343        -8.8802
  66   2.0000      -0.294168        -8.0047
  67   0.0000       0.029419         0.8005
  68   0.0000       0.075657         2.0587
  69   0.0000       0.109263         2.9732
  70   0.0000       0.121238         3.2991
  71   0.0000       0.124198         3.3796

MULLIKEN ATOMIC CHARGES
-----------------------
   0 S :    0.074165
   1 C :   -0.116619
   2 C :   -0.061489
   3 C :    0.020527
   4 C :   -0.130708
   5 H :    0.004709
   6 C :    0.028155
   7 H :    0.021921
   8 H :    0.028238
   9 C :   -0.089887
  10 H :    0.022512
  11 H :    0.027477
  12 C :   -0.022453
  13 H :    0.044749
  14 H :    0.009709
  15 H :    0.045808
  16 S :    0.106792
  17 C :   -0.086144
  18 C :   -0.002822
  19 C :   -0.059838
  20 C :   -0.135145
  21 H :    0.009384
  22 C :    0.045634
  23 H :    0.040461
  24 H :    0.015198
  25 C :   -0.043151
  26 H :    0.021784
  27 H :    0.035301
  28 C :   -0.078189
  29 H :    0.027823
  30 H :    0.041461
  31 H :    0.028153
  32 H :    0.055160
  33 H :    0.071325
Sum of atomic charges:    0.0000000

LOEWDIN ATOMIC CHARGES
----------------------
   0 S :    0.363701
   1 C :   -0.183937
   2 C :   -0.064845
   3 C :   -0.068166
   4 C :   -0.173921
   5 H :    0.032512
   6 C :   -0.038021
   7 H :    0.028314
   8 H :    0.034029
   9 C :   -0.045008
  10 H :    0.026405
  11 H :    0.020429
  12 C :   -0.065188
  13 H :    0.028562
  14 H :    0.019928
  15 H :    0.032433
  16 S :    0.407687
  17 C :   -0.184734
  18 C :   -0.072995
  19 C :   -0.048329
  20 C :   -0.198249
  21 H :    0.029572
  22 C :   -0.026120
  23 H :    0.038077
  24 H :    0.023657
  25 C :   -0.044382
  26 H :    0.024071
  27 H :    0.026060
  28 C :   -0.068524
  29 H :    0.023462
  30 H :    0.031199
  31 H :    0.021736
  32 H :    0.032474
  33 H :    0.038111

  Mayer bond orders larger than 0.100000
B(  0-S ,  1-C ) :   1.1189 B(  0-S ,  4-C ) :   1.1181 B(  1-C ,  2-C ) :   1.6171
B(  1-C , 32-H ) :   0.9753 B(  2-C ,  3-C ) :   1.1875 B(  2-C ,  6-C ) :   1.0344
B(  3-C ,  4-C ) :   1.6366 B(  3-C ,  5-H ) :   0.9940 B(  4-C , 20-C ) :   1.0409
B(  6-C ,  7-H ) :   0.9400 B(  6-C ,  8-H ) :   0.9445 B(  6-C ,  9-C ) :   1.0779
B(  9-C , 10-H ) :   0.9532 B(  9-C , 11-H ) :   0.9564 B(  9-C , 12-C ) :   1.0668
B( 12-C , 13-H ) :   0.9754 B( 12-C , 14-H ) :   0.9703 B( 12-C , 15-H ) :   0.9736
B( 16-S , 17-C ) :   1.1588 B( 16-S , 20-C ) :   1.1173 B( 17-C , 18-C ) :   1.6187
B( 17-C , 33-H ) :   0.9586 B( 18-C , 19-C ) :   1.2289 B( 18-C , 21-H ) :   0.9961
B( 19-C , 20-C ) :   1.6303 B( 19-C , 22-C ) :   1.0270 B( 22-C , 23-H ) :   0.9461
B( 22-C , 24-H ) :   0.9359 B( 22-C , 25-C ) :   1.0612 B( 25-C , 26-H ) :   0.9473
B( 25-C , 27-H ) :   0.9593 B( 25-C , 28-C ) :   1.0878 B( 28-C , 29-H ) :   0.9731
B( 28-C , 30-H ) :   0.9741 B( 28-C , 31-H ) :   0.9747

Dispersion correction           -0.014126952
FINAL SINGLE POINT ENERGY     -1339.883940465195

DIPOLE MOMENT
-------------
                                X             Y             Z
Electronic contribution:     25.06049       1.95322     -11.94882
Nuclear contribution   :    -25.68133      -1.72910      12.36017
                        -----------------------------------------
Total Dipole Moment    :     -0.62084       0.22412       0.41135
                        -----------------------------------------
Magnitude (a.u.)       :      0.77774
Magnitude (Debye)      :      1.97686

Rotational constants in cm-1:     0.016823     0.009123     0.006781
Rotational constants in MHz :   504.349872   273.487234   203.300670

                             ****ORCA TERMINATED NORMALLY****
TOTAL RUN TIME: 0 days 0 hours 0 minutes 33 seconds 756 msec
