                         Program Version 4.2.1 -  RELEASE  -
|  1> ! wB97X-D3 SP def2-SVP
|  2> %pal
|  3> nprocs 16
|  4> end
|  5>
|  6> * xyz 0 1
|  7> S 	 -114.927 	 50.6839 	 130.655
|  8> C 	 -113.813 	 52.047 	 130.433
|  9> C 	 -112.863 	 52.0511 	 131.457
| 10> C 	 -113.065 	 51.039 	 132.38
| 11> C 	 -114.18 	 50.2333 	 132.168
| 12> H 	 -112.504 	 50.876 	 133.302
| 13> C 	 -111.788 	 53.0664 	 131.719
| 14> H 	 -111.222 	 53.32 	 130.801
| 15> H 	 -111.036 	 52.685 	 132.433
| 16> C 	 -112.265 	 54.4519 	 132.288
| 17> H 	 -113.237 	 54.6687 	 131.676
| 18> H 	 -112.513 	 54.4572 	 133.326
| 19> C 	 -111.083 	 55.4754 	 132.32
| 20> H 	 -110.163 	 55.1901 	 132.881
| 21> H 	 -110.842 	 55.7288 	 131.33
| 22> H 	 -111.589 	 56.3399 	 132.758
| 23> S 	 -114.821 	 47.5175 	 132.504
| 24> C 	 -115.485 	 47.0195 	 133.997
| 25> C 	 -115.621 	 48.0824 	 134.859
| 26> C 	 -115.185 	 49.2983 	 134.33
| 27> C 	 -114.697 	 49.2356 	 133.03
| 28> H 	 -115.977 	 47.9251 	 135.899
| 29> C 	 -115.434 	 50.6056 	 135.115
| 30> H 	 -114.988 	 51.4828 	 134.637
| 31> H 	 -114.769 	 50.346 	 135.97
| 32> C 	 -116.846 	 50.9666 	 135.472
| 33> H 	 -117.253 	 50.1796 	 136.147
| 34> H 	 -117.57 	 50.9886 	 134.676
| 35> C 	 -116.833 	 52.2003 	 136.37
| 36> H 	 -116.923 	 53.0689 	 135.734
| 37> H 	 -115.893 	 52.3312 	 136.962
| 38> H 	 -117.705 	 52.1967 	 137.014
| 39> H 	 -113.904 	 52.8947 	 129.819
| 40> H 	 -115.59 	 46.02 	 134.401
| 41> *
| 42>
| 43>                          ****END OF INPUT****

CARTESIAN COORDINATES (ANGSTROEM)
---------------------------------
  S    -114.927000   50.683900  130.655000
  C    -113.813000   52.047000  130.433000
  C    -112.863000   52.051100  131.457000
  C    -113.065000   51.039000  132.380000
  C    -114.180000   50.233300  132.168000
  H    -112.504000   50.876000  133.302000
  C    -111.788000   53.066400  131.719000
  H    -111.222000   53.320000  130.801000
  H    -111.036000   52.685000  132.433000
  C    -112.265000   54.451900  132.288000
  H    -113.237000   54.668700  131.676000
  H    -112.513000   54.457200  133.326000
  C    -111.083000   55.475400  132.320000
  H    -110.163000   55.190100  132.881000
  H    -110.842000   55.728800  131.330000
  H    -111.589000   56.339900  132.758000
  S    -114.821000   47.517500  132.504000
  C    -115.485000   47.019500  133.997000
  C    -115.621000   48.082400  134.859000
  C    -115.185000   49.298300  134.330000
  C    -114.697000   49.235600  133.030000
  H    -115.977000   47.925100  135.899000
  C    -115.434000   50.605600  135.115000
  H    -114.988000   51.482800  134.637000
  H    -114.769000   50.346000  135.970000
  C    -116.846000   50.966600  135.472000
  H    -117.253000   50.179600  136.147000
  H    -117.570000   50.988600  134.676000
  C    -116.833000   52.200300  136.370000
  H    -116.923000   53.068900  135.734000
  H    -115.893000   52.331200  136.962000
  H    -117.705000   52.196700  137.014000
  H    -113.904000   52.894700  129.819000
  H    -115.590000   46.020000  134.401000

 Total Charge           Charge          ....    0
 Multiplicity           Mult            ....    1
 Number of Electrons    NEL             ....  134
 Basis Dimension        Dim             ....  322

ORBITAL ENERGIES
----------------

  NO   OCC          E(Eh)            E(eV)
   0   2.0000     -88.969130     -2420.9731
   1   2.0000     -88.963737     -2420.8263
   2   2.0000     -10.326188      -280.9899
   3   2.0000     -10.325244      -280.9642
   4   2.0000     -10.314825      -280.6807
   5   2.0000     -10.314140      -280.6620
   6   2.0000     -10.301087      -280.3068
   7   2.0000     -10.297725      -280.2153
   8   2.0000     -10.296379      -280.1787
   9   2.0000     -10.294277      -280.1215
  10   2.0000     -10.291450      -280.0446
  11   2.0000     -10.289931      -280.0032
  12   2.0000     -10.289240      -279.9845
  13   2.0000     -10.284270      -279.8492
  14   2.0000     -10.281985      -279.7870
  15   2.0000     -10.277454      -279.6638
  16   2.0000      -8.083164      -219.9541
  17   2.0000      -8.078508      -219.8274
  18   2.0000      -6.041641      -164.4014
  19   2.0000      -6.037655      -164.2930
  20   2.0000      -6.036950      -164.2738
  21   2.0000      -6.034099      -164.1962
  22   2.0000      -6.032938      -164.1646
  23   2.0000      -6.029396      -164.0682
  24   2.0000      -1.007584       -27.4177
  25   2.0000      -0.986344       -26.8398
  26   2.0000      -0.912244       -24.8234
  27   2.0000      -0.908745       -24.7282
  28   2.0000      -0.872427       -23.7399
  29   2.0000      -0.853983       -23.2381
  30   2.0000      -0.848189       -23.0804
  31   2.0000      -0.811077       -22.0705
  32   2.0000      -0.781250       -21.2589
  33   2.0000      -0.770533       -20.9673
  34   2.0000      -0.711602       -19.3637
  35   2.0000      -0.700050       -19.0493
  36   2.0000      -0.696152       -18.9432
  37   2.0000      -0.655743       -17.8437
  38   2.0000      -0.642523       -17.4839
  39   2.0000      -0.618383       -16.8271
  40   2.0000      -0.598126       -16.2758
  41   2.0000      -0.572999       -15.5921
  42   2.0000      -0.561546       -15.2804
  43   2.0000      -0.560517       -15.2524
  44   2.0000      -0.527794       -14.3620
  45   2.0000      -0.525174       -14.2907
  46   2.0000      -0.516533       -14.0556
  47   2.0000      -0.513201       -13.9649
  48   2.0000      -0.510231       -13.8841
  49   2.0000      -0.503751       -13.7078
  50   2.0000      -0.491805       -13.3827
  51   2.0000      -0.472958       -12.8698
  52   2.0000      -0.471389       -12.8271
  53   2.0000      -0.468434       -12.7467
  54   2.0000      -0.463115       -12.6020
  55   2.0000      -0.451589       -12.2884
  56   2.0000      -0.446821       -12.1586
  57   2.0000      -0.441428       -12.0119
  58   2.0000      -0.434560       -11.8250
  59   2.0000      -0.425434       -11.5766
  60   2.0000      -0.410449       -11.1689
  61   2.0000      -0.406008       -11.0480
  62   2.0000      -0.402420       -10.9504
  63   2.0000      -0.340128        -9.2554
  64   2.0000      -0.335174        -9.1205
  65   2.0000      -0.330108        -8.9827
  66   2.0000      -0.291279        -7.9261
  67   0.0000       0.030973         0.8428
  68   0.0000       0.055475         1.5096
  69   0.0000       0.117155         3.1880
  70   0.0000       0.128604         3.4995
  71   0.0000       0.130231         3.5438

MULLIKEN ATOMIC CHARGES
-----------------------
   0 S :    0.123172
   1 C :   -0.098715
   2 C :   -0.063164
   3 C :    0.036269
   4 C :   -0.177135
   5 H :    0.012298
   6 C :    0.039626
   7 H :    0.030483
   8 H :    0.023501
   9 C :   -0.116168
  10 H :    0.044098
  11 H :    0.026321
  12 C :   -0.040536
  13 H :    0.053082
  14 H :    0.020322
  15 H :    0.036515
  16 S :    0.106932
  17 C :   -0.070841
  18 C :   -0.080756
  19 C :   -0.004432
  20 C :   -0.173345
  21 H :    0.031424
  22 C :    0.034742
  23 H :    0.025957
  24 H :    0.037542
  25 C :   -0.049898
  26 H :    0.017418
  27 H :    0.037113
  28 C :   -0.051041
  29 H :    0.029175
  30 H :    0.039015
  31 H :    0.031581
  32 H :    0.030344
  33 H :    0.059101
Sum of atomic charges:    0.0000000

LOEWDIN ATOMIC CHARGES
----------------------
   0 S :    0.411973
   1 C :   -0.190647
   2 C :   -0.066402
   3 C :   -0.058995
   4 C :   -0.199472
   5 H :    0.033780
   6 C :   -0.039929
   7 H :    0.031897
   8 H :    0.030651
   9 C :   -0.042630
  10 H :    0.034125
  11 H :    0.017222
  12 C :   -0.063262
  13 H :    0.035085
  14 H :    0.013761
  15 H :    0.031437
  16 S :    0.402801
  17 C :   -0.194675
  18 C :   -0.085145
  19 C :   -0.053596
  20 C :   -0.196975
  21 H :    0.037220
  22 C :   -0.034536
  23 H :    0.027293
  24 H :    0.039058
  25 C :   -0.042601
  26 H :    0.023496
  27 H :    0.027000
  28 C :   -0.063363
  29 H :    0.022843
  30 H :    0.031738
  31 H :    0.024930
  32 H :    0.020302
  33 H :    0.035617

  Mayer bond orders larger than 0.100000
B(  0-S ,  1-C ) :   1.1437 B(  0-S ,  4-C ) :   1.1565 B(  1-C ,  2-C ) :   1.5740
B(  1-C ,  4-C ) :   0.1123 B(  1-C , 32-H ) :   0.9730 B(  2-C ,  3-C ) :   1.2740
B(  2-C ,  6-C ) :   1.0311 B(  3-C ,  4-C ) :   1.5463 B(  3-C ,  5-H ) :   0.9959
B(  4-C , 20-C ) :   1.0648 B(  6-C ,  7-H ) :   0.9425 B(  6-C ,  8-H ) :   0.9419
B(  6-C ,  9-C ) :   1.0508 B(  9-C , 10-H ) :   0.9589 B(  9-C , 11-H ) :   0.9617
B(  9-C , 12-C ) :   1.0566 B( 12-C , 13-H ) :   0.9740 B( 12-C , 14-H ) :   0.9779
B( 12-C , 15-H ) :   0.9762 B( 16-S , 17-C ) :   1.1738 B( 16-S , 20-C ) :   1.1196
B( 17-C , 18-C ) :   1.5911 B( 17-C , 20-C ) :   0.1029 B( 17-C , 33-H ) :   0.9614
B( 18-C , 19-C ) :   1.2695 B( 18-C , 21-H ) :   0.9833 B( 19-C , 20-C ) :   1.5833
B( 19-C , 22-C ) :   1.0153 B( 22-C , 23-H ) :   0.9416 B( 22-C , 24-H ) :   0.9310
B( 22-C , 25-C ) :   1.0730 B( 25-C , 26-H ) :   0.9520 B( 25-C , 27-H ) :   0.9571
B( 25-C , 28-C ) :   1.0705 B( 28-C , 29-H ) :   0.9760 B( 28-C , 30-H ) :   0.9740
B( 28-C , 31-H ) :   0.9767

Dispersion correction           -0.013731245
FINAL SINGLE POINT ENERGY     -1339.862289279246

DIPOLE MOMENT
-------------
                                X             Y             Z
Electronic contribution:     -4.78752     -26.08776     -16.07362
Nuclear contribution   :      4.90535      26.62194      16.74794
                        -----------------------------------------
Total Dipole Moment    :      0.11783       0.53418       0.67433
                        -----------------------------------------
Magnitude (a.u.)       :      0.86830
Magnitude (Debye)      :      2.20705

Rotational constants in cm-1:     0.017696     0.008371     0.006489
Rotational constants in MHz :   530.501640   250.943517   194.543229

                             ****ORCA TERMINATED NORMALLY****
TOTAL RUN TIME: 0 days 0 hours 0 minutes 33 seconds 343 msec
