                         Program Version 4.2.1 -  RELEASE  -
|  1> ! wB97X-D3 SP def2-SVP
|  2> %pal
|  3> nprocs 16
|  4> end
|  5>
|  6> * xyz 0 1
|  7> S 	 66.2818 	 22.2124 	 71.8771
|  8> C 	 65.3385 	 21.9885 	 73.354
|  9> C 	 65.8786 	 22.7427 	 74.3755
| 10> C 	 67.0164 	 23.5069 	 73.9724
| 11> C 	 67.3974 	 23.3433 	 72.6863
| 12> H 	 67.5955 	 24.0976 	 74.509
| 13> C 	 65.4005 	 22.745 	 75.8424
| 14> H 	 64.2837 	 22.7727 	 75.854
| 15> H 	 65.677 	 23.7134 	 76.2162
| 16> C 	 65.9558 	 21.4913 	 76.6333
| 17> H 	 65.3512 	 20.5741 	 76.353
| 18> H 	 67.0276 	 21.3331 	 76.2121
| 19> C 	 65.9254 	 21.6211 	 78.1028
| 20> H 	 66.7103 	 22.2319 	 78.5008
| 21> H 	 65.0379 	 22.1361 	 78.4267
| 22> H 	 65.9646 	 20.6569 	 78.6307
| 23> S 	 67.3495 	 25.401 	 70.9715
| 24> C 	 68.7545 	 26.3418 	 70.6804
| 25> C 	 69.8851 	 25.7942 	 71.2815
| 26> C 	 69.4814 	 24.6993 	 72.1026
| 27> C 	 68.1853 	 24.3402 	 72.0166
| 28> H 	 70.8365 	 26.2184 	 71.1884
| 29> C 	 70.4311 	 23.7225 	 72.7219
| 30> H 	 71.3363 	 23.4357 	 72.1776
| 31> H 	 70.0201 	 22.6492 	 72.8084
| 32> C 	 70.923 	 24.1221 	 74.104
| 33> H 	 70.0803 	 24.3268 	 74.7489
| 34> H 	 71.3831 	 25.1096 	 74.0541
| 35> C 	 71.904 	 23.1729 	 74.6997
| 36> H 	 72.2902 	 23.5825 	 75.6511
| 37> H 	 72.8123 	 23.0739 	 74.1481
| 38> H 	 71.5415 	 22.1344 	 74.7704
| 39> H 	 64.3958 	 21.432 	 73.5128
| 40> H 	 68.8671 	 27.1253 	 69.9615
| 41> *
| 42>
| 43>                          ****END OF INPUT****

CARTESIAN COORDINATES (ANGSTROEM)
---------------------------------
  S     66.281800   22.212400   71.877100
  C     65.338500   21.988500   73.354000
  C     65.878600   22.742700   74.375500
  C     67.016400   23.506900   73.972400
  C     67.397400   23.343300   72.686300
  H     67.595500   24.097600   74.509000
  C     65.400500   22.745000   75.842400
  H     64.283700   22.772700   75.854000
  H     65.677000   23.713400   76.216200
  C     65.955800   21.491300   76.633300
  H     65.351200   20.574100   76.353000
  H     67.027600   21.333100   76.212100
  C     65.925400   21.621100   78.102800
  H     66.710300   22.231900   78.500800
  H     65.037900   22.136100   78.426700
  H     65.964600   20.656900   78.630700
  S     67.349500   25.401000   70.971500
  C     68.754500   26.341800   70.680400
  C     69.885100   25.794200   71.281500
  C     69.481400   24.699300   72.102600
  C     68.185300   24.340200   72.016600
  H     70.836500   26.218400   71.188400
  C     70.431100   23.722500   72.721900
  H     71.336300   23.435700   72.177600
  H     70.020100   22.649200   72.808400
  C     70.923000   24.122100   74.104000
  H     70.080300   24.326800   74.748900
  H     71.383100   25.109600   74.054100
  C     71.904000   23.172900   74.699700
  H     72.290200   23.582500   75.651100
  H     72.812300   23.073900   74.148100
  H     71.541500   22.134400   74.770400
  H     64.395800   21.432000   73.512800
  H     68.867100   27.125300   69.961500

 Total Charge           Charge          ....    0
 Multiplicity           Mult            ....    1
 Number of Electrons    NEL             ....  134
 Basis Dimension        Dim             ....  322

ORBITAL ENERGIES
----------------

  NO   OCC          E(Eh)            E(eV)
   0   2.0000     -88.967673     -2420.9335
   1   2.0000     -88.963069     -2420.8082
   2   2.0000     -10.325356      -280.9672
   3   2.0000     -10.319732      -280.8142
   4   2.0000     -10.317199      -280.7453
   5   2.0000     -10.312852      -280.6270
   6   2.0000     -10.301303      -280.3127
   7   2.0000     -10.298603      -280.2392
   8   2.0000     -10.298157      -280.2271
   9   2.0000     -10.294723      -280.1336
  10   2.0000     -10.291353      -280.0420
  11   2.0000     -10.286785      -279.9176
  12   2.0000     -10.282363      -279.7973
  13   2.0000     -10.276292      -279.6321
  14   2.0000     -10.273248      -279.5493
  15   2.0000     -10.272945      -279.5410
  16   2.0000      -8.081461      -219.9077
  17   2.0000      -8.079378      -219.8511
  18   2.0000      -6.040170      -164.3614
  19   2.0000      -6.037796      -164.2968
  20   2.0000      -6.036011      -164.2482
  21   2.0000      -6.033509      -164.1801
  22   2.0000      -6.032137      -164.1428
  23   2.0000      -6.030271      -164.0920
  24   2.0000      -1.017492       -27.6874
  25   2.0000      -0.987317       -26.8663
  26   2.0000      -0.912617       -24.8336
  27   2.0000      -0.907547       -24.6956
  28   2.0000      -0.877404       -23.8754
  29   2.0000      -0.855759       -23.2864
  30   2.0000      -0.850464       -23.1423
  31   2.0000      -0.821764       -22.3613
  32   2.0000      -0.779313       -21.2062
  33   2.0000      -0.769637       -20.9429
  34   2.0000      -0.705874       -19.2078
  35   2.0000      -0.696995       -18.9662
  36   2.0000      -0.695405       -18.9229
  37   2.0000      -0.671252       -18.2657
  38   2.0000      -0.649834       -17.6829
  39   2.0000      -0.619471       -16.8567
  40   2.0000      -0.603192       -16.4137
  41   2.0000      -0.570040       -15.5116
  42   2.0000      -0.558395       -15.1947
  43   2.0000      -0.556055       -15.1310
  44   2.0000      -0.529547       -14.4097
  45   2.0000      -0.526449       -14.3254
  46   2.0000      -0.524401       -14.2697
  47   2.0000      -0.513137       -13.9632
  48   2.0000      -0.507642       -13.8136
  49   2.0000      -0.504762       -13.7353
  50   2.0000      -0.498131       -13.5548
  51   2.0000      -0.485518       -13.2116
  52   2.0000      -0.472625       -12.8608
  53   2.0000      -0.459332       -12.4991
  54   2.0000      -0.455287       -12.3890
  55   2.0000      -0.452348       -12.3090
  56   2.0000      -0.445856       -12.1324
  57   2.0000      -0.437551       -11.9064
  58   2.0000      -0.430459       -11.7134
  59   2.0000      -0.420888       -11.4529
  60   2.0000      -0.418194       -11.3796
  61   2.0000      -0.412510       -11.2250
  62   2.0000      -0.401116       -10.9149
  63   2.0000      -0.347179        -9.4472
  64   2.0000      -0.330387        -8.9903
  65   2.0000      -0.326181        -8.8758
  66   2.0000      -0.302335        -8.2270
  67   0.0000       0.034830         0.9478
  68   0.0000       0.064770         1.7625
  69   0.0000       0.120093         3.2679
  70   0.0000       0.122618         3.3366
  71   0.0000       0.132409         3.6030

MULLIKEN ATOMIC CHARGES
-----------------------
   0 S :    0.099650
   1 C :   -0.120508
   2 C :   -0.100169
   3 C :    0.111503
   4 C :   -0.142509
   5 H :   -0.059159
   6 C :    0.062551
   7 H :    0.030652
   8 H :    0.018236
   9 C :   -0.106072
  10 H :    0.039020
  11 H :    0.050588
  12 C :   -0.012588
  13 H :    0.024705
  14 H :    0.018764
  15 H :    0.037745
  16 S :    0.128013
  17 C :   -0.081866
  18 C :   -0.012597
  19 C :    0.012528
  20 C :   -0.159035
  21 H :    0.002309
  22 C :   -0.018186
  23 H :    0.016473
  24 H :    0.034731
  25 C :   -0.067798
  26 H :    0.014131
  27 H :    0.014339
  28 C :   -0.019363
  29 H :    0.030071
  30 H :    0.013531
  31 H :    0.032152
  32 H :    0.060604
  33 H :    0.047556
Sum of atomic charges:   -0.0000000

LOEWDIN ATOMIC CHARGES
----------------------
   0 S :    0.382642
   1 C :   -0.192542
   2 C :   -0.064133
   3 C :   -0.033760
   4 C :   -0.185144
   5 H :    0.005515
   6 C :   -0.032224
   7 H :    0.031723
   8 H :    0.024301
   9 C :   -0.047821
  10 H :    0.031336
  11 H :    0.034773
  12 C :   -0.071299
  13 H :    0.023394
  14 H :    0.024073
  15 H :    0.031543
  16 S :    0.443418
  17 C :   -0.191224
  18 C :   -0.057672
  19 C :   -0.066661
  20 C :   -0.205234
  21 H :    0.024581
  22 C :   -0.041696
  23 H :    0.027728
  24 H :    0.036226
  25 C :   -0.048165
  26 H :    0.017001
  27 H :    0.022191
  28 C :   -0.067620
  29 H :    0.031488
  30 H :    0.020171
  31 H :    0.027368
  32 H :    0.040581
  33 H :    0.025142

  Mayer bond orders larger than 0.100000
B(  0-S ,  1-C ) :   1.1294 B(  0-S ,  4-C ) :   1.1228 B(  1-C ,  2-C ) :   1.6244
B(  1-C , 32-H ) :   0.9628 B(  2-C ,  3-C ) :   1.2260 B(  2-C ,  6-C ) :   1.0238
B(  3-C ,  4-C ) :   1.5947 B(  3-C ,  5-H ) :   1.0134 B(  4-C , 20-C ) :   1.0166
B(  6-C ,  7-H ) :   0.9372 B(  6-C ,  8-H ) :   0.9486 B(  6-C ,  9-C ) :   1.0395
B(  9-C , 10-H ) :   0.9536 B(  9-C , 11-H ) :   0.9613 B(  9-C , 12-C ) :   1.0870
B( 12-C , 13-H ) :   0.9723 B( 12-C , 14-H ) :   0.9675 B( 12-C , 15-H ) :   0.9718
B( 16-S , 17-C ) :   1.1770 B( 16-S , 20-C ) :   1.1448 B( 17-C , 18-C ) :   1.5894
B( 17-C , 33-H ) :   0.9679 B( 18-C , 19-C ) :   1.2431 B( 18-C , 21-H ) :   1.0039
B( 19-C , 20-C ) :   1.6183 B( 19-C , 22-C ) :   1.0260 B( 22-C , 23-H ) :   0.9497
B( 22-C , 24-H ) :   0.9440 B( 22-C , 25-C ) :   1.0491 B( 25-C , 26-H ) :   0.9492
B( 25-C , 27-H ) :   0.9500 B( 25-C , 28-C ) :   1.0967 B( 28-C , 29-H ) :   0.9678
B( 28-C , 30-H ) :   0.9670 B( 28-C , 31-H ) :   0.9711

Dispersion correction           -0.014154585
FINAL SINGLE POINT ENERGY     -1339.860011499348

DIPOLE MOMENT
-------------
                                X             Y             Z
Electronic contribution:    -10.88807       7.49134     -27.16830
Nuclear contribution   :     11.06380      -7.41701      27.70072
                        -----------------------------------------
Total Dipole Moment    :      0.17574       0.07433       0.53242
                        -----------------------------------------
Magnitude (a.u.)       :      0.56558
Magnitude (Debye)      :      1.43759

Rotational constants in cm-1:     0.017471     0.009050     0.006755
Rotational constants in MHz :   523.769415   271.305138   202.510155

                             ****ORCA TERMINATED NORMALLY****
TOTAL RUN TIME: 0 days 0 hours 0 minutes 28 seconds 663 msec
