                         Program Version 4.2.1 -  RELEASE  -
|  1> ! wB97X-D3 SP def2-SVP
|  2> %pal
|  3> nprocs 16
|  4> end
|  5>
|  6> * xyz 0 1
|  7> S 	 26.6406 	 -11.4957 	 81.5122
|  8> C 	 26.5962 	 -11.4508 	 79.7808
|  9> C 	 25.8332 	 -10.3896 	 79.404
| 10> C 	 25.3903 	 -9.54253 	 80.4563
| 11> C 	 25.6426 	 -10.0219 	 81.6628
| 12> H 	 24.8116 	 -8.61963 	 80.3207
| 13> C 	 25.4566 	 -10.0403 	 77.9937
| 14> H 	 24.7509 	 -9.24692 	 77.9658
| 15> H 	 24.8255 	 -10.899 	 77.6722
| 16> C 	 26.6379 	 -9.64212 	 77.1538
| 17> H 	 26.2584 	 -9.23306 	 76.2709
| 18> H 	 27.0498 	 -8.8069 	 77.7421
| 19> C 	 27.5748 	 -10.7875 	 76.7912
| 20> H 	 28.029 	 -10.4486 	 75.8716
| 21> H 	 28.3648 	 -10.8567 	 77.586
| 22> H 	 27.0885 	 -11.7013 	 76.698
| 23> S 	 24.8437 	 -10.8543 	 84.2547
| 24> C 	 23.9058 	 -9.68263 	 85.279
| 25> C 	 24.2275 	 -8.41744 	 84.8158
| 26> C 	 24.8124 	 -8.37847 	 83.5584
| 27> C 	 25.1137 	 -9.59887 	 83.0068
| 28> H 	 23.9588 	 -7.52502 	 85.3214
| 29> C 	 25.0466 	 -7.10063 	 82.756
| 30> H 	 24.5086 	 -6.29684 	 83.191
| 31> H 	 24.5955 	 -7.15529 	 81.76
| 32> C 	 26.5025 	 -6.65961 	 82.7605
| 33> H 	 27.0014 	 -7.59367 	 82.4806
| 34> H 	 26.7817 	 -6.41104 	 83.7721
| 35> C 	 26.6746 	 -5.50116 	 81.7948
| 36> H 	 27.6544 	 -5.36755 	 81.3709
| 37> H 	 26.4348 	 -4.56279 	 82.3304
| 38> H 	 25.9941 	 -5.71688 	 80.9515
| 39> H 	 26.954 	 -12.2145 	 79.1043
| 40> H 	 23.4212 	 -9.8601 	 86.1945
| 41> *
| 42>
| 43>                          ****END OF INPUT****

CARTESIAN COORDINATES (ANGSTROEM)
---------------------------------
  S     26.640600  -11.495700   81.512200
  C     26.596200  -11.450800   79.780800
  C     25.833200  -10.389600   79.404000
  C     25.390300   -9.542530   80.456300
  C     25.642600  -10.021900   81.662800
  H     24.811600   -8.619630   80.320700
  C     25.456600  -10.040300   77.993700
  H     24.750900   -9.246920   77.965800
  H     24.825500  -10.899000   77.672200
  C     26.637900   -9.642120   77.153800
  H     26.258400   -9.233060   76.270900
  H     27.049800   -8.806900   77.742100
  C     27.574800  -10.787500   76.791200
  H     28.029000  -10.448600   75.871600
  H     28.364800  -10.856700   77.586000
  H     27.088500  -11.701300   76.698000
  S     24.843700  -10.854300   84.254700
  C     23.905800   -9.682630   85.279000
  C     24.227500   -8.417440   84.815800
  C     24.812400   -8.378470   83.558400
  C     25.113700   -9.598870   83.006800
  H     23.958800   -7.525020   85.321400
  C     25.046600   -7.100630   82.756000
  H     24.508600   -6.296840   83.191000
  H     24.595500   -7.155290   81.760000
  C     26.502500   -6.659610   82.760500
  H     27.001400   -7.593670   82.480600
  H     26.781700   -6.411040   83.772100
  C     26.674600   -5.501160   81.794800
  H     27.654400   -5.367550   81.370900
  H     26.434800   -4.562790   82.330400
  H     25.994100   -5.716880   80.951500
  H     26.954000  -12.214500   79.104300
  H     23.421200   -9.860100   86.194500

 Total Charge           Charge          ....    0
 Multiplicity           Mult            ....    1
 Number of Electrons    NEL             ....  134
 Basis Dimension        Dim             ....  322

ORBITAL ENERGIES
----------------

  NO   OCC          E(Eh)            E(eV)
   0   2.0000     -88.964665     -2420.8516
   1   2.0000     -88.962090     -2420.7815
   2   2.0000     -10.333682      -281.1938
   3   2.0000     -10.333544      -281.1900
   4   2.0000     -10.322323      -280.8847
   5   2.0000     -10.310618      -280.5662
   6   2.0000     -10.298000      -280.2228
   7   2.0000     -10.293696      -280.1057
   8   2.0000     -10.292457      -280.0720
   9   2.0000     -10.289446      -279.9901
  10   2.0000     -10.286103      -279.8991
  11   2.0000     -10.282350      -279.7970
  12   2.0000     -10.279779      -279.7270
  13   2.0000     -10.279179      -279.7107
  14   2.0000     -10.279017      -279.7063
  15   2.0000     -10.275664      -279.6150
  16   2.0000      -8.077805      -219.8083
  17   2.0000      -8.076857      -219.7824
  18   2.0000      -6.036530      -164.2623
  19   2.0000      -6.035590      -164.2368
  20   2.0000      -6.032706      -164.1583
  21   2.0000      -6.031389      -164.1224
  22   2.0000      -6.028227      -164.0364
  23   2.0000      -6.027343      -164.0124
  24   2.0000      -1.008941       -27.4547
  25   2.0000      -0.987314       -26.8662
  26   2.0000      -0.919359       -25.0170
  27   2.0000      -0.913859       -24.8674
  28   2.0000      -0.869336       -23.6558
  29   2.0000      -0.853226       -23.2175
  30   2.0000      -0.845044       -22.9948
  31   2.0000      -0.821088       -22.3429
  32   2.0000      -0.783905       -21.3311
  33   2.0000      -0.773449       -21.0466
  34   2.0000      -0.708588       -19.2817
  35   2.0000      -0.701363       -19.0850
  36   2.0000      -0.696188       -18.9442
  37   2.0000      -0.669203       -18.2099
  38   2.0000      -0.645067       -17.5532
  39   2.0000      -0.620184       -16.8761
  40   2.0000      -0.599819       -16.3219
  41   2.0000      -0.580123       -15.7859
  42   2.0000      -0.572973       -15.5914
  43   2.0000      -0.546732       -14.8773
  44   2.0000      -0.545258       -14.8372
  45   2.0000      -0.527381       -14.3508
  46   2.0000      -0.525044       -14.2872
  47   2.0000      -0.515196       -14.0192
  48   2.0000      -0.510066       -13.8796
  49   2.0000      -0.500232       -13.6120
  50   2.0000      -0.494971       -13.4688
  51   2.0000      -0.486099       -13.2274
  52   2.0000      -0.475493       -12.9388
  53   2.0000      -0.467169       -12.7123
  54   2.0000      -0.460023       -12.5179
  55   2.0000      -0.446678       -12.1547
  56   2.0000      -0.444617       -12.0987
  57   2.0000      -0.439063       -11.9475
  58   2.0000      -0.432910       -11.7801
  59   2.0000      -0.421520       -11.4701
  60   2.0000      -0.412394       -11.2218
  61   2.0000      -0.410792       -11.1782
  62   2.0000      -0.405497       -11.0341
  63   2.0000      -0.359435        -9.7807
  64   2.0000      -0.334430        -9.1003
  65   2.0000      -0.325449        -8.8559
  66   2.0000      -0.289637        -7.8814
  67   0.0000       0.020357         0.5539
  68   0.0000       0.068410         1.8615
  69   0.0000       0.104340         2.8392
  70   0.0000       0.126736         3.4486
  71   0.0000       0.131948         3.5905

MULLIKEN ATOMIC CHARGES
-----------------------
   0 S :    0.088960
   1 C :   -0.110908
   2 C :   -0.113309
   3 C :   -0.011839
   4 C :   -0.084161
   5 H :    0.010779
   6 C :    0.054739
   7 H :   -0.003546
   8 H :    0.035011
   9 C :   -0.043063
  10 H :    0.010388
  11 H :    0.029390
  12 C :   -0.023704
  13 H :    0.033786
  14 H :    0.046712
  15 H :    0.022799
  16 S :    0.079661
  17 C :   -0.070572
  18 C :   -0.006580
  19 C :   -0.046052
  20 C :   -0.128344
  21 H :    0.002508
  22 C :    0.035933
  23 H :   -0.007941
  24 H :    0.024901
  25 C :   -0.053511
  26 H :    0.036718
  27 H :    0.023995
  28 C :   -0.022057
  29 H :    0.032864
  30 H :    0.037690
  31 H :    0.023047
  32 H :    0.049970
  33 H :    0.045735
Sum of atomic charges:    0.0000000

LOEWDIN ATOMIC CHARGES
----------------------
   0 S :    0.386151
   1 C :   -0.200884
   2 C :   -0.063853
   3 C :   -0.074627
   4 C :   -0.166391
   5 H :    0.034317
   6 C :   -0.036401
   7 H :    0.021045
   8 H :    0.033200
   9 C :   -0.034230
  10 H :    0.013767
  11 H :    0.031821
  12 C :   -0.058475
  13 H :    0.029465
  14 H :    0.034168
  15 H :    0.013891
  16 S :    0.361097
  17 C :   -0.152136
  18 C :   -0.061287
  19 C :   -0.064521
  20 C :   -0.171505
  21 H :    0.026406
  22 C :   -0.029908
  23 H :    0.018975
  24 H :    0.025470
  25 C :   -0.037672
  26 H :    0.025568
  27 H :    0.022517
  28 C :   -0.063132
  29 H :    0.024006
  30 H :    0.030995
  31 H :    0.026433
  32 H :    0.032950
  33 H :    0.022781

  Mayer bond orders larger than 0.100000
B(  0-S ,  1-C ) :   1.1140 B(  0-S ,  4-C ) :   1.1311 B(  1-C ,  2-C ) :   1.6466
B(  1-C , 32-H ) :   0.9637 B(  2-C ,  3-C ) :   1.2287 B(  2-C ,  6-C ) :   1.0160
B(  3-C ,  4-C ) :   1.6099 B(  3-C ,  5-H ) :   0.9907 B(  4-C , 20-C ) :   1.0294
B(  6-C ,  7-H ) :   0.9366 B(  6-C ,  8-H ) :   0.9367 B(  6-C ,  9-C ) :   1.0796
B(  9-C , 10-H ) :   0.9584 B(  9-C , 11-H ) :   0.9486 B(  9-C , 12-C ) :   1.0769
B( 12-C , 13-H ) :   0.9726 B( 12-C , 14-H ) :   0.9698 B( 12-C , 15-H ) :   0.9754
B( 16-S , 17-C ) :   1.1367 B( 16-S , 20-C ) :   1.1233 B( 17-C , 18-C ) :   1.5861
B( 17-C , 20-C ) :   0.1120 B( 17-C , 33-H ) :   0.9762 B( 18-C , 19-C ) :   1.2806
B( 18-C , 21-H ) :   0.9872 B( 19-C , 20-C ) :   1.5948 B( 19-C , 22-C ) :   1.0329
B( 22-C , 23-H ) :   0.9221 B( 22-C , 24-H ) :   0.9417 B( 22-C , 25-C ) :   1.0511
B( 25-C , 26-H ) :   0.9616 B( 25-C , 27-H ) :   0.9529 B( 25-C , 28-C ) :   1.0719
B( 28-C , 29-H ) :   0.9740 B( 28-C , 30-H ) :   0.9738 B( 28-C , 31-H ) :   0.9749

Dispersion correction           -0.014607174
FINAL SINGLE POINT ENERGY     -1339.857696049055

DIPOLE MOMENT
-------------
                                X             Y             Z
Electronic contribution:     -5.44573     -18.08198      20.32271
Nuclear contribution   :      5.24770      18.73333     -20.73887
                        -----------------------------------------
Total Dipole Moment    :     -0.19803       0.65135      -0.41615
                        -----------------------------------------
Magnitude (a.u.)       :      0.79791
Magnitude (Debye)      :      2.02813

Rotational constants in cm-1:     0.020573     0.008794     0.006736
Rotational constants in MHz :   616.776383   263.639284   201.931440

                             ****ORCA TERMINATED NORMALLY****
TOTAL RUN TIME: 0 days 0 hours 0 minutes 31 seconds 401 msec
