                         Program Version 4.2.1 -  RELEASE  -
|  1> ! wB97X-D3 SP def2-SVP
|  2> %pal
|  3> nprocs 16
|  4> end
|  5>
|  6> * xyz 0 1
|  7> S 	 22.7175 	 1.13247 	 84.6244
|  8> C 	 23.782 	 1.9056 	 85.7745
|  9> C 	 24.7545 	 2.69484 	 85.1848
| 10> C 	 24.4995 	 2.88585 	 83.7948
| 11> C 	 23.3865 	 2.18298 	 83.3303
| 12> H 	 25.0521 	 3.50927 	 83.1657
| 13> C 	 25.8245 	 3.43984 	 85.9534
| 14> H 	 26.1617 	 2.71936 	 86.6778
| 15> H 	 25.3297 	 4.18441 	 86.5654
| 16> C 	 26.9771 	 4.05633 	 85.2629
| 17> H 	 27.3014 	 3.40988 	 84.4251
| 18> H 	 26.6826 	 4.94671 	 84.7936
| 19> C 	 28.1396 	 4.58722 	 86.1554
| 20> H 	 28.6537 	 3.74953 	 86.7007
| 21> H 	 28.9178 	 5.22131 	 85.6017
| 22> H 	 27.7788 	 5.25521 	 86.8629
| 23> S 	 22.8651 	 0.486501 	 81.2266
| 24> C 	 22.7919 	 1.1614 	 79.6469
| 25> C 	 22.7504 	 2.55978 	 79.7195
| 26> C 	 22.8362 	 3.07671 	 81.0111
| 27> C 	 22.9558 	 2.10209 	 81.9545
| 28> H 	 22.6432 	 3.07657 	 78.8071
| 29> C 	 22.9176 	 4.53736 	 81.1406
| 30> H 	 23.4049 	 4.99677 	 80.3035
| 31> H 	 23.5514 	 4.82844 	 82.0224
| 32> C 	 21.5462 	 5.22842 	 81.1494
| 33> H 	 20.8957 	 4.91089 	 81.9959
| 34> H 	 20.8619 	 4.94366 	 80.2295
| 35> C 	 21.837 	 6.77338 	 81.1793
| 36> H 	 22.5321 	 6.99489 	 80.4157
| 37> H 	 22.3929 	 7.09191 	 82.0694
| 38> H 	 20.8597 	 7.31771 	 81.2047
| 39> H 	 23.8989 	 1.68808 	 86.8495
| 40> H 	 22.6917 	 0.696038 	 78.6781
| 41> *
| 42>
| 43>                          ****END OF INPUT****

CARTESIAN COORDINATES (ANGSTROEM)
---------------------------------
  S     22.717500    1.132470   84.624400
  C     23.782000    1.905600   85.774500
  C     24.754500    2.694840   85.184800
  C     24.499500    2.885850   83.794800
  C     23.386500    2.182980   83.330300
  H     25.052100    3.509270   83.165700
  C     25.824500    3.439840   85.953400
  H     26.161700    2.719360   86.677800
  H     25.329700    4.184410   86.565400
  C     26.977100    4.056330   85.262900
  H     27.301400    3.409880   84.425100
  H     26.682600    4.946710   84.793600
  C     28.139600    4.587220   86.155400
  H     28.653700    3.749530   86.700700
  H     28.917800    5.221310   85.601700
  H     27.778800    5.255210   86.862900
  S     22.865100    0.486501   81.226600
  C     22.791900    1.161400   79.646900
  C     22.750400    2.559780   79.719500
  C     22.836200    3.076710   81.011100
  C     22.955800    2.102090   81.954500
  H     22.643200    3.076570   78.807100
  C     22.917600    4.537360   81.140600
  H     23.404900    4.996770   80.303500
  H     23.551400    4.828440   82.022400
  C     21.546200    5.228420   81.149400
  H     20.895700    4.910890   81.995900
  H     20.861900    4.943660   80.229500
  C     21.837000    6.773380   81.179300
  H     22.532100    6.994890   80.415700
  H     22.392900    7.091910   82.069400
  H     20.859700    7.317710   81.204700
  H     23.898900    1.688080   86.849500
  H     22.691700    0.696038   78.678100

 Total Charge           Charge          ....    0
 Multiplicity           Mult            ....    1
 Number of Electrons    NEL             ....  134
 Basis Dimension        Dim             ....  322

ORBITAL ENERGIES
----------------

  NO   OCC          E(Eh)            E(eV)
   0   2.0000     -88.969957     -2420.9956
   1   2.0000     -88.966178     -2420.8928
   2   2.0000     -10.331930      -281.1461
   3   2.0000     -10.323140      -280.9069
   4   2.0000     -10.314016      -280.6586
   5   2.0000     -10.312680      -280.6223
   6   2.0000     -10.300085      -280.2796
   7   2.0000     -10.297963      -280.2218
   8   2.0000     -10.293825      -280.1092
   9   2.0000     -10.291647      -280.0499
  10   2.0000     -10.290157      -280.0094
  11   2.0000     -10.287939      -279.9490
  12   2.0000     -10.287529      -279.9379
  13   2.0000     -10.285359      -279.8789
  14   2.0000     -10.284498      -279.8554
  15   2.0000     -10.280057      -279.7346
  16   2.0000      -8.083644      -219.9671
  17   2.0000      -8.080991      -219.8949
  18   2.0000      -6.042288      -164.4190
  19   2.0000      -6.039550      -164.3445
  20   2.0000      -6.038389      -164.3129
  21   2.0000      -6.035480      -164.2337
  22   2.0000      -6.034268      -164.2008
  23   2.0000      -6.031691      -164.1307
  24   2.0000      -1.007975       -27.4284
  25   2.0000      -0.983610       -26.7654
  26   2.0000      -0.917655       -24.9707
  27   2.0000      -0.912484       -24.8300
  28   2.0000      -0.870444       -23.6860
  29   2.0000      -0.853797       -23.2330
  30   2.0000      -0.846765       -23.0416
  31   2.0000      -0.813466       -22.1355
  32   2.0000      -0.782442       -21.2913
  33   2.0000      -0.772087       -21.0096
  34   2.0000      -0.716584       -19.4992
  35   2.0000      -0.697803       -18.9882
  36   2.0000      -0.691621       -18.8200
  37   2.0000      -0.665957       -18.1216
  38   2.0000      -0.637891       -17.3579
  39   2.0000      -0.625113       -17.0102
  40   2.0000      -0.600859       -16.3502
  41   2.0000      -0.576023       -15.6744
  42   2.0000      -0.566645       -15.4192
  43   2.0000      -0.556183       -15.1345
  44   2.0000      -0.528189       -14.3727
  45   2.0000      -0.523369       -14.2416
  46   2.0000      -0.513540       -13.9741
  47   2.0000      -0.508322       -13.8321
  48   2.0000      -0.502096       -13.6627
  49   2.0000      -0.497940       -13.5496
  50   2.0000      -0.495644       -13.4872
  51   2.0000      -0.484159       -13.1746
  52   2.0000      -0.474064       -12.8999
  53   2.0000      -0.464698       -12.6451
  54   2.0000      -0.460280       -12.5248
  55   2.0000      -0.453360       -12.3365
  56   2.0000      -0.448716       -12.2102
  57   2.0000      -0.438669       -11.9368
  58   2.0000      -0.430732       -11.7208
  59   2.0000      -0.429511       -11.6876
  60   2.0000      -0.417953       -11.3731
  61   2.0000      -0.417054       -11.3486
  62   2.0000      -0.412061       -11.2128
  63   2.0000      -0.348549        -9.4845
  64   2.0000      -0.332045        -9.0354
  65   2.0000      -0.329852        -8.9757
  66   2.0000      -0.284247        -7.7348
  67   0.0000       0.027322         0.7435
  68   0.0000       0.065260         1.7758
  69   0.0000       0.107750         2.9320
  70   0.0000       0.122893         3.3441
  71   0.0000       0.131759         3.5854

MULLIKEN ATOMIC CHARGES
-----------------------
   0 S :    0.113735
   1 C :   -0.120279
   2 C :   -0.098598
   3 C :    0.037763
   4 C :   -0.148941
   5 H :   -0.006194
   6 C :    0.082788
   7 H :    0.013674
   8 H :    0.034146
   9 C :   -0.067822
  10 H :    0.037023
  11 H :    0.013675
  12 C :   -0.061001
  13 H :    0.041551
  14 H :    0.045807
  15 H :    0.017426
  16 S :    0.112091
  17 C :   -0.082376
  18 C :   -0.053819
  19 C :    0.015292
  20 C :   -0.143581
  21 H :    0.000786
  22 C :    0.054037
  23 H :    0.011675
  24 H :    0.025563
  25 C :   -0.131493
  26 H :    0.042550
  27 H :    0.046363
  28 C :   -0.022787
  29 H :    0.017181
  30 H :    0.024035
  31 H :    0.049939
  32 H :    0.048560
  33 H :    0.051230
Sum of atomic charges:    0.0000000

LOEWDIN ATOMIC CHARGES
----------------------
   0 S :    0.390644
   1 C :   -0.205711
   2 C :   -0.059185
   3 C :   -0.052745
   4 C :   -0.175256
   5 H :    0.019008
   6 C :   -0.036894
   7 H :    0.029413
   8 H :    0.035827
   9 C :   -0.046692
  10 H :    0.028321
  11 H :    0.018443
  12 C :   -0.062173
  13 H :    0.028478
  14 H :    0.038076
  15 H :    0.013981
  16 S :    0.411152
  17 C :   -0.194922
  18 C :   -0.065605
  19 C :   -0.061528
  20 C :   -0.192374
  21 H :    0.023060
  22 C :   -0.035716
  23 H :    0.027474
  24 H :    0.034341
  25 C :   -0.042983
  26 H :    0.026177
  27 H :    0.033938
  28 C :   -0.068359
  29 H :    0.017055
  30 H :    0.026113
  31 H :    0.033537
  32 H :    0.033340
  33 H :    0.031763

  Mayer bond orders larger than 0.100000
B(  0-S ,  1-C ) :   1.1304 B(  0-S ,  4-C ) :   1.1360 B(  1-C ,  2-C ) :   1.6316
B(  1-C ,  4-C ) :   0.1014 B(  1-C , 32-H ) :   0.9613 B(  2-C ,  3-C ) :   1.2512
B(  2-C ,  6-C ) :   1.0090 B(  3-C ,  4-C ) :   1.5591 B(  3-C ,  5-H ) :   0.9946
B(  4-C , 20-C ) :   1.0552 B(  6-C ,  7-H ) :   0.9319 B(  6-C ,  8-H ) :   0.9301
B(  6-C ,  9-C ) :   1.0872 B(  9-C , 10-H ) :   0.9567 B(  9-C , 11-H ) :   0.9390
B(  9-C , 12-C ) :   1.0792 B( 12-C , 13-H ) :   0.9768 B( 12-C , 14-H ) :   0.9753
B( 12-C , 15-H ) :   0.9734 B( 16-S , 17-C ) :   1.1628 B( 16-S , 20-C ) :   1.1271
B( 17-C , 18-C ) :   1.6021 B( 17-C , 33-H ) :   0.9661 B( 18-C , 19-C ) :   1.2444
B( 18-C , 21-H ) :   0.9979 B( 19-C , 20-C ) :   1.5906 B( 19-C , 22-C ) :   1.0527
B( 22-C , 23-H ) :   0.9337 B( 22-C , 24-H ) :   0.9288 B( 22-C , 25-C ) :   1.0493
B( 25-C , 26-H ) :   0.9558 B( 25-C , 27-H ) :   0.9574 B( 25-C , 28-C ) :   1.0679
B( 28-C , 29-H ) :   0.9725 B( 28-C , 30-H ) :   0.9725 B( 28-C , 31-H ) :   0.9737

Dispersion correction           -0.013458997
FINAL SINGLE POINT ENERGY     -1339.864487728179

DIPOLE MOMENT
-------------
                                X             Y             Z
Electronic contribution:    -12.31380     -26.93092      -3.91444
Nuclear contribution   :     12.71082      27.60676       3.85700
                        -----------------------------------------
Total Dipole Moment    :      0.39702       0.67584      -0.05744
                        -----------------------------------------
Magnitude (a.u.)       :      0.78593
Magnitude (Debye)      :      1.99768

Rotational constants in cm-1:     0.016171     0.008495     0.006727
Rotational constants in MHz :   484.804353   254.684898   201.667668

                             ****ORCA TERMINATED NORMALLY****
TOTAL RUN TIME: 0 days 0 hours 0 minutes 32 seconds 969 msec
