                         Program Version 4.2.1 -  RELEASE  -
|  1> ! wB97X-D3 SP def2-SVP
|  2> %pal
|  3> nprocs 16
|  4> end
|  5>
|  6> * xyz 0 1
|  7> S 	 43.4063 	 14.1129 	 51.4843
|  8> C 	 42.2549 	 13.5673 	 50.2583
|  9> C 	 42.3976 	 14.1305 	 48.9927
| 10> C 	 43.3843 	 15.0917 	 49.0926
| 11> C 	 44.0574 	 15.2902 	 50.2968
| 12> H 	 43.5118 	 15.7613 	 48.295
| 13> C 	 41.9391 	 13.5613 	 47.6813
| 14> H 	 41.2771 	 12.7371 	 47.9296
| 15> H 	 42.8681 	 13.3204 	 47.0682
| 16> C 	 41.1874 	 14.5097 	 46.8028
| 17> H 	 41.7203 	 15.4311 	 46.7134
| 18> H 	 41.1171 	 13.9091 	 45.8068
| 19> C 	 39.7413 	 14.7416 	 47.4566
| 20> H 	 39.6585 	 14.5706 	 48.5252
| 21> H 	 39.5175 	 15.7494 	 47.1638
| 22> H 	 39.1121 	 13.9736 	 46.9318
| 23> S 	 46.1502 	 16.7858 	 49.3058
| 24> C 	 47.1126 	 17.777 	 50.2618
| 25> C 	 46.4973 	 17.8823 	 51.5114
| 26> C 	 45.2824 	 17.0496 	 51.6992
| 27> C 	 44.9763 	 16.4088 	 50.5198
| 28> H 	 46.8287 	 18.5212 	 52.2876
| 29> C 	 44.5302 	 16.9829 	 52.9943
| 30> H 	 45.2999 	 17.2208 	 53.6985
| 31> H 	 44.3814 	 15.9048 	 53.1502
| 32> C 	 43.2679 	 17.7907 	 53.1913
| 33> H 	 43.4214 	 18.8147 	 53.4482
| 34> H 	 42.6345 	 17.4256 	 53.9889
| 35> C 	 42.3329 	 17.7994 	 51.9115
| 36> H 	 41.9527 	 16.7834 	 51.8962
| 37> H 	 42.915 	 18.0788 	 51.0176
| 38> H 	 41.4518 	 18.4414 	 52.0494
| 39> H 	 41.6834 	 12.6368 	 50.2487
| 40> H 	 47.9976 	 18.4418 	 49.9559
| 41> *
| 42>
| 43>                          ****END OF INPUT****

CARTESIAN COORDINATES (ANGSTROEM)
---------------------------------
  S     43.406300   14.112900   51.484300
  C     42.254900   13.567300   50.258300
  C     42.397600   14.130500   48.992700
  C     43.384300   15.091700   49.092600
  C     44.057400   15.290200   50.296800
  H     43.511800   15.761300   48.295000
  C     41.939100   13.561300   47.681300
  H     41.277100   12.737100   47.929600
  H     42.868100   13.320400   47.068200
  C     41.187400   14.509700   46.802800
  H     41.720300   15.431100   46.713400
  H     41.117100   13.909100   45.806800
  C     39.741300   14.741600   47.456600
  H     39.658500   14.570600   48.525200
  H     39.517500   15.749400   47.163800
  H     39.112100   13.973600   46.931800
  S     46.150200   16.785800   49.305800
  C     47.112600   17.777000   50.261800
  C     46.497300   17.882300   51.511400
  C     45.282400   17.049600   51.699200
  C     44.976300   16.408800   50.519800
  H     46.828700   18.521200   52.287600
  C     44.530200   16.982900   52.994300
  H     45.299900   17.220800   53.698500
  H     44.381400   15.904800   53.150200
  C     43.267900   17.790700   53.191300
  H     43.421400   18.814700   53.448200
  H     42.634500   17.425600   53.988900
  C     42.332900   17.799400   51.911500
  H     41.952700   16.783400   51.896200
  H     42.915000   18.078800   51.017600
  H     41.451800   18.441400   52.049400
  H     41.683400   12.636800   50.248700
  H     47.997600   18.441800   49.955900

 Total Charge           Charge          ....    0
 Multiplicity           Mult            ....    1
 Number of Electrons    NEL             ....  134
 Basis Dimension        Dim             ....  322

ORBITAL ENERGIES
----------------

  NO   OCC          E(Eh)            E(eV)
   0   2.0000     -88.977456     -2421.1997
   1   2.0000     -88.964034     -2420.8344
   2   2.0000     -10.335319      -281.2383
   3   2.0000     -10.325053      -280.9590
   4   2.0000     -10.322606      -280.8924
   5   2.0000     -10.316465      -280.7253
   6   2.0000     -10.302496      -280.3452
   7   2.0000     -10.296152      -280.1725
   8   2.0000     -10.294558      -280.1292
   9   2.0000     -10.294406      -280.1250
  10   2.0000     -10.293424      -280.0983
  11   2.0000     -10.288160      -279.9551
  12   2.0000     -10.284590      -279.8579
  13   2.0000     -10.281034      -279.7612
  14   2.0000     -10.280787      -279.7544
  15   2.0000     -10.269488      -279.4470
  16   2.0000      -8.089786      -220.1343
  17   2.0000      -8.080273      -219.8754
  18   2.0000      -6.048530      -164.5889
  19   2.0000      -6.044686      -164.4843
  20   2.0000      -6.040386      -164.3672
  21   2.0000      -6.038848      -164.3254
  22   2.0000      -6.034313      -164.2020
  23   2.0000      -6.031111      -164.1149
  24   2.0000      -1.010125       -27.4869
  25   2.0000      -0.987851       -26.8808
  26   2.0000      -0.919098       -25.0099
  27   2.0000      -0.909730       -24.7550
  28   2.0000      -0.867855       -23.6155
  29   2.0000      -0.849650       -23.1202
  30   2.0000      -0.842249       -22.9188
  31   2.0000      -0.807264       -21.9668
  32   2.0000      -0.783000       -21.3065
  33   2.0000      -0.775749       -21.1092
  34   2.0000      -0.709484       -19.3060
  35   2.0000      -0.697680       -18.9848
  36   2.0000      -0.687545       -18.7091
  37   2.0000      -0.666375       -18.1330
  38   2.0000      -0.629785       -17.1373
  39   2.0000      -0.622778       -16.9467
  40   2.0000      -0.588943       -16.0260
  41   2.0000      -0.572074       -15.5669
  42   2.0000      -0.557114       -15.1598
  43   2.0000      -0.553367       -15.0579
  44   2.0000      -0.549426       -14.9506
  45   2.0000      -0.537001       -14.6125
  46   2.0000      -0.523358       -14.2413
  47   2.0000      -0.505327       -13.7507
  48   2.0000      -0.501932       -13.6583
  49   2.0000      -0.497296       -13.5321
  50   2.0000      -0.485058       -13.1991
  51   2.0000      -0.481928       -13.1139
  52   2.0000      -0.467562       -12.7230
  53   2.0000      -0.463265       -12.6061
  54   2.0000      -0.459060       -12.4916
  55   2.0000      -0.445927       -12.1343
  56   2.0000      -0.445533       -12.1236
  57   2.0000      -0.434426       -11.8213
  58   2.0000      -0.431773       -11.7491
  59   2.0000      -0.422227       -11.4894
  60   2.0000      -0.415793       -11.3143
  61   2.0000      -0.408518       -11.1163
  62   2.0000      -0.403062       -10.9679
  63   2.0000      -0.357602        -9.7309
  64   2.0000      -0.334206        -9.0942
  65   2.0000      -0.325123        -8.8471
  66   2.0000      -0.286309        -7.7909
  67   0.0000       0.022149         0.6027
  68   0.0000       0.074937         2.0391
  69   0.0000       0.098468         2.6794
  70   0.0000       0.113161         3.0793
  71   0.0000       0.124189         3.3794

MULLIKEN ATOMIC CHARGES
-----------------------
   0 S :    0.101389
   1 C :   -0.106519
   2 C :   -0.087110
   3 C :   -0.002971
   4 C :   -0.098695
   5 H :   -0.012872
   6 C :    0.058923
   7 H :    0.013044
   8 H :    0.058291
   9 C :   -0.114149
  10 H :    0.034916
  11 H :    0.053217
  12 C :   -0.064155
  13 H :    0.048543
  14 H :    0.037994
  15 H :    0.039516
  16 S :    0.108339
  17 C :   -0.101133
  18 C :   -0.030751
  19 C :   -0.152225
  20 C :   -0.124079
  21 H :    0.001530
  22 C :    0.109438
  23 H :    0.009517
  24 H :    0.027202
  25 C :   -0.032590
  26 H :    0.017923
  27 H :    0.025729
  28 C :   -0.084475
  29 H :    0.033460
  30 H :    0.061919
  31 H :    0.032510
  32 H :    0.042897
  33 H :    0.095426
Sum of atomic charges:   -0.0000000

LOEWDIN ATOMIC CHARGES
----------------------
   0 S :    0.398029
   1 C :   -0.193696
   2 C :   -0.070529
   3 C :   -0.058727
   4 C :   -0.173204
   5 H :    0.014502
   6 C :   -0.032297
   7 H :    0.027243
   8 H :    0.045775
   9 C :   -0.041938
  10 H :    0.015480
  11 H :    0.037747
  12 C :   -0.066057
  13 H :    0.024667
  14 H :    0.024388
  15 H :    0.032769
  16 S :    0.445257
  17 C :   -0.227106
  18 C :   -0.072028
  19 C :   -0.061308
  20 C :   -0.205674
  21 H :    0.019048
  22 C :   -0.039605
  23 H :    0.031538
  24 H :    0.025370
  25 C :   -0.034868
  26 H :    0.017141
  27 H :    0.026652
  28 C :   -0.067029
  29 H :    0.020404
  30 H :    0.028948
  31 H :    0.024443
  32 H :    0.027313
  33 H :    0.057352

  Mayer bond orders larger than 0.100000
B(  0-S ,  1-C ) :   1.1395 B(  0-S ,  4-C ) :   1.1101 B(  1-C ,  2-C ) :   1.6070
B(  1-C , 32-H ) :   0.9451 B(  2-C ,  3-C ) :   1.2711 B(  2-C ,  6-C ) :   1.0275
B(  3-C ,  4-C ) :   1.5615 B(  3-C ,  5-H ) :   0.9898 B(  4-C , 20-C ) :   1.0653
B(  6-C ,  7-H ) :   0.9326 B(  6-C ,  8-H ) :   0.9431 B(  6-C ,  9-C ) :   1.0642
B(  9-C , 10-H ) :   0.9651 B(  9-C , 11-H ) :   0.9607 B(  9-C , 12-C ) :   1.0401
B( 12-C , 13-H ) :   0.9823 B( 12-C , 14-H ) :   0.9800 B( 12-C , 15-H ) :   0.9780
B( 16-S , 17-C ) :   1.1708 B( 16-S , 20-C ) :   1.1478 B( 17-C , 18-C ) :   1.5728
B( 17-C , 33-H ) :   0.9564 B( 18-C , 19-C ) :   1.2655 B( 18-C , 21-H ) :   0.9912
B( 19-C , 20-C ) :   1.5602 B( 19-C , 22-C ) :   1.0398 B( 22-C , 23-H ) :   0.9200
B( 22-C , 24-H ) :   0.9262 B( 22-C , 25-C ) :   1.0636 B( 25-C , 26-H ) :   0.9572
B( 25-C , 27-H ) :   0.9554 B( 25-C , 28-C ) :   1.0821 B( 28-C , 29-H ) :   0.9764
B( 28-C , 30-H ) :   0.9708 B( 28-C , 31-H ) :   0.9752

Dispersion correction           -0.015591823
FINAL SINGLE POINT ENERGY     -1339.847112393751

DIPOLE MOMENT
-------------
                                X             Y             Z
Electronic contribution:     19.03000      -3.21334       3.60661
Nuclear contribution   :    -19.17446       3.30645      -3.72842
                        -----------------------------------------
Total Dipole Moment    :     -0.14446       0.09311      -0.12181
                        -----------------------------------------
Magnitude (a.u.)       :      0.21065
Magnitude (Debye)      :      0.53544

Rotational constants in cm-1:     0.021070     0.008907     0.007707
Rotational constants in MHz :   631.664112   267.022469   231.062756

                             ****ORCA TERMINATED NORMALLY****
TOTAL RUN TIME: 0 days 0 hours 0 minutes 34 seconds 484 msec
