                         Program Version 4.2.1 -  RELEASE  -
|  1> ! wB97X-D3 SP def2-SVP
|  2> %pal
|  3> nprocs 16
|  4> end
|  5>
|  6> * xyz 0 1
|  7> S 	 -63.5492 	 57.3596 	 128.006
|  8> C 	 -64.946 	 56.7336 	 128.866
|  9> C 	 -64.758 	 55.4402 	 129.302
| 10> C 	 -63.458 	 54.8996 	 128.963
| 11> C 	 -62.6907 	 55.7554 	 128.203
| 12> H 	 -63.0353 	 53.9517 	 129.221
| 13> C 	 -65.7165 	 54.6034 	 130.256
| 14> H 	 -66.612 	 55.283 	 130.572
| 15> H 	 -65.1417 	 54.3961 	 131.174
| 16> C 	 -66.2251 	 53.2233 	 129.879
| 17> H 	 -66.967 	 53.2707 	 129.057
| 18> H 	 -65.3031 	 52.6967 	 129.754
| 19> C 	 -66.7763 	 52.4982 	 131.165
| 20> H 	 -67.8445 	 52.7744 	 131.465
| 21> H 	 -66.8411 	 51.507 	 131.105
| 22> H 	 -66.2458 	 52.7218 	 132.115
| 23> S 	 -59.9841 	 55.4983 	 128.69
| 24> C 	 -58.9812 	 54.9338 	 127.369
| 25> C 	 -59.6233 	 54.9273 	 126.182
| 26> C 	 -61.0386 	 55.2832 	 126.279
| 27> C 	 -61.4095 	 55.4622 	 127.587
| 28> H 	 -59.0501 	 54.7213 	 125.301
| 29> C 	 -61.9597 	 55.214 	 125.123
| 30> H 	 -62.7775 	 54.6125 	 125.427
| 31> H 	 -61.4773 	 54.6586 	 124.323
| 32> C 	 -62.477 	 56.5994 	 124.649
| 33> H 	 -61.5185 	 57.307 	 124.593
| 34> H 	 -63.1911 	 57.0878 	 125.346
| 35> C 	 -63.2552 	 56.474 	 123.302
| 36> H 	 -63.4082 	 57.507 	 122.961
| 37> H 	 -64.2064 	 55.9848 	 123.397
| 38> H 	 -62.7537 	 55.9665 	 122.5
| 39> H 	 -65.7566 	 57.4256 	 129.109
| 40> H 	 -57.9543 	 54.7585 	 127.437
| 41> *
| 42>
| 43>                          ****END OF INPUT****

CARTESIAN COORDINATES (ANGSTROEM)
---------------------------------
  S    -63.549200   57.359600  128.006000
  C    -64.946000   56.733600  128.866000
  C    -64.758000   55.440200  129.302000
  C    -63.458000   54.899600  128.963000
  C    -62.690700   55.755400  128.203000
  H    -63.035300   53.951700  129.221000
  C    -65.716500   54.603400  130.256000
  H    -66.612000   55.283000  130.572000
  H    -65.141700   54.396100  131.174000
  C    -66.225100   53.223300  129.879000
  H    -66.967000   53.270700  129.057000
  H    -65.303100   52.696700  129.754000
  C    -66.776300   52.498200  131.165000
  H    -67.844500   52.774400  131.465000
  H    -66.841100   51.507000  131.105000
  H    -66.245800   52.721800  132.115000
  S    -59.984100   55.498300  128.690000
  C    -58.981200   54.933800  127.369000
  C    -59.623300   54.927300  126.182000
  C    -61.038600   55.283200  126.279000
  C    -61.409500   55.462200  127.587000
  H    -59.050100   54.721300  125.301000
  C    -61.959700   55.214000  125.123000
  H    -62.777500   54.612500  125.427000
  H    -61.477300   54.658600  124.323000
  C    -62.477000   56.599400  124.649000
  H    -61.518500   57.307000  124.593000
  H    -63.191100   57.087800  125.346000
  C    -63.255200   56.474000  123.302000
  H    -63.408200   57.507000  122.961000
  H    -64.206400   55.984800  123.397000
  H    -62.753700   55.966500  122.500000
  H    -65.756600   57.425600  129.109000
  H    -57.954300   54.758500  127.437000

 Total Charge           Charge          ....    0
 Multiplicity           Mult            ....    1
 Number of Electrons    NEL             ....  134
 Basis Dimension        Dim             ....  322

ORBITAL ENERGIES
----------------

  NO   OCC          E(Eh)            E(eV)
   0   2.0000     -88.966156     -2420.8922
   1   2.0000     -88.961503     -2420.7656
   2   2.0000     -10.333734      -281.1952
   3   2.0000     -10.324806      -280.9522
   4   2.0000     -10.320451      -280.8337
   5   2.0000     -10.311005      -280.5767
   6   2.0000     -10.309492      -280.5355
   7   2.0000     -10.304008      -280.3863
   8   2.0000     -10.303034      -280.3598
   9   2.0000     -10.299155      -280.2543
  10   2.0000     -10.295590      -280.1573
  11   2.0000     -10.294516      -280.1280
  12   2.0000     -10.290338      -280.0143
  13   2.0000     -10.283640      -279.8321
  14   2.0000     -10.279546      -279.7207
  15   2.0000     -10.272805      -279.5372
  16   2.0000      -8.079353      -219.8504
  17   2.0000      -8.075789      -219.7534
  18   2.0000      -6.037929      -164.3004
  19   2.0000      -6.034419      -164.2049
  20   2.0000      -6.034128      -164.1970
  21   2.0000      -6.030549      -164.0996
  22   2.0000      -6.030057      -164.0862
  23   2.0000      -6.026269      -163.9831
  24   2.0000      -0.999387       -27.1947
  25   2.0000      -0.977303       -26.5938
  26   2.0000      -0.907199       -24.6861
  27   2.0000      -0.903871       -24.5956
  28   2.0000      -0.871518       -23.7152
  29   2.0000      -0.844991       -22.9934
  30   2.0000      -0.844005       -22.9665
  31   2.0000      -0.814366       -22.1600
  32   2.0000      -0.781595       -21.2683
  33   2.0000      -0.770960       -20.9789
  34   2.0000      -0.707459       -19.2509
  35   2.0000      -0.694234       -18.8911
  36   2.0000      -0.690312       -18.7844
  37   2.0000      -0.663124       -18.0445
  38   2.0000      -0.645767       -17.5722
  39   2.0000      -0.613953       -16.7065
  40   2.0000      -0.594541       -16.1783
  41   2.0000      -0.576397       -15.6846
  42   2.0000      -0.561727       -15.2854
  43   2.0000      -0.554482       -15.0882
  44   2.0000      -0.523959       -14.2577
  45   2.0000      -0.517742       -14.0885
  46   2.0000      -0.513462       -13.9720
  47   2.0000      -0.511972       -13.9315
  48   2.0000      -0.507499       -13.8097
  49   2.0000      -0.497927       -13.5493
  50   2.0000      -0.489104       -13.3092
  51   2.0000      -0.477413       -12.9911
  52   2.0000      -0.468068       -12.7368
  53   2.0000      -0.458829       -12.4854
  54   2.0000      -0.453799       -12.3485
  55   2.0000      -0.449987       -12.2448
  56   2.0000      -0.445773       -12.1301
  57   2.0000      -0.439726       -11.9655
  58   2.0000      -0.432293       -11.7633
  59   2.0000      -0.424667       -11.5558
  60   2.0000      -0.418985       -11.4012
  61   2.0000      -0.411499       -11.1975
  62   2.0000      -0.407097       -11.0777
  63   2.0000      -0.338925        -9.2226
  64   2.0000      -0.330185        -8.9848
  65   2.0000      -0.322954        -8.7880
  66   2.0000      -0.306482        -8.3398
  67   0.0000       0.037658         1.0247
  68   0.0000       0.055350         1.5061
  69   0.0000       0.103583         2.8186
  70   0.0000       0.117208         3.1894
  71   0.0000       0.122258         3.3268

MULLIKEN ATOMIC CHARGES
-----------------------
   0 S :    0.095399
   1 C :   -0.146383
   2 C :   -0.019256
   3 C :    0.046650
   4 C :   -0.153744
   5 H :    0.013323
   6 C :   -0.017390
   7 H :    0.033241
   8 H :    0.034000
   9 C :   -0.030986
  10 H :    0.053946
  11 H :    0.026429
  12 C :   -0.057827
  13 H :    0.027077
  14 H :    0.007960
  15 H :    0.029426
  16 S :    0.094611
  17 C :   -0.056695
  18 C :   -0.035414
  19 C :   -0.010966
  20 C :   -0.197678
  21 H :    0.011346
  22 C :    0.113768
  23 H :    0.024878
  24 H :    0.013103
  25 C :   -0.147586
  26 H :    0.046535
  27 H :    0.050088
  28 C :   -0.028416
  29 H :    0.033476
  30 H :    0.031659
  31 H :    0.021010
  32 H :    0.062106
  33 H :    0.032312
Sum of atomic charges:    0.0000000

LOEWDIN ATOMIC CHARGES
----------------------
   0 S :    0.380442
   1 C :   -0.189773
   2 C :   -0.067037
   3 C :   -0.047711
   4 C :   -0.172291
   5 H :    0.031458
   6 C :   -0.039477
   7 H :    0.031949
   8 H :    0.032019
   9 C :   -0.036071
  10 H :    0.033080
  11 H :    0.025533
  12 C :   -0.065810
  13 H :    0.030960
  14 H :    0.004423
  15 H :    0.030235
  16 S :    0.374396
  17 C :   -0.168667
  18 C :   -0.069637
  19 C :   -0.044156
  20 C :   -0.187811
  21 H :    0.029740
  22 C :   -0.034880
  23 H :    0.031462
  24 H :    0.029940
  25 C :   -0.046859
  26 H :    0.033715
  27 H :    0.015543
  28 C :   -0.067499
  29 H :    0.029943
  30 H :    0.024054
  31 H :    0.018023
  32 H :    0.032313
  33 H :    0.018451

  Mayer bond orders larger than 0.100000
B(  0-S ,  1-C ) :   1.1365 B(  0-S ,  4-C ) :   1.1098 B(  1-C ,  2-C ) :   1.6414
B(  1-C , 32-H ) :   0.9661 B(  2-C ,  3-C ) :   1.1950 B(  2-C ,  6-C ) :   1.0033
B(  3-C ,  4-C ) :   1.6326 B(  3-C ,  5-H ) :   0.9910 B(  4-C , 20-C ) :   1.0363
B(  6-C ,  7-H ) :   0.9504 B(  6-C ,  8-H ) :   0.9484 B(  6-C ,  9-C ) :   1.0638
B(  9-C , 10-H ) :   0.9575 B(  9-C , 11-H ) :   0.9511 B(  9-C , 12-C ) :   1.0696
B( 12-C , 13-H ) :   0.9734 B( 12-C , 14-H ) :   0.9777 B( 12-C , 15-H ) :   0.9734
B( 16-S , 17-C ) :   1.1314 B( 16-S , 20-C ) :   1.1154 B( 17-C , 18-C ) :   1.6684
B( 17-C , 33-H ) :   0.9687 B( 18-C , 19-C ) :   1.1840 B( 18-C , 21-H ) :   0.9917
B( 19-C , 20-C ) :   1.6373 B( 19-C , 22-C ) :   1.0537 B( 22-C , 23-H ) :   0.9215
B( 22-C , 24-H ) :   0.9376 B( 22-C , 25-C ) :   1.0465 B( 25-C , 26-H ) :   0.9600
B( 25-C , 27-H ) :   0.9434 B( 25-C , 28-C ) :   1.0769 B( 28-C , 29-H ) :   0.9747
B( 28-C , 30-H ) :   0.9734 B( 28-C , 31-H ) :   0.9771

Dispersion correction           -0.014068363
FINAL SINGLE POINT ENERGY     -1339.858461541849

DIPOLE MOMENT
-------------
                                X             Y             Z
Electronic contribution:     18.07399      10.41257       5.42711
Nuclear contribution   :    -18.32481     -10.82563      -5.54304
                        -----------------------------------------
Total Dipole Moment    :     -0.25083      -0.41305      -0.11592
                        -----------------------------------------
Magnitude (a.u.)       :      0.49696
Magnitude (Debye)      :      1.26316

Rotational constants in cm-1:     0.017790     0.007960     0.006727
Rotational constants in MHz :   533.325513   238.630634   201.665798

                             ****ORCA TERMINATED NORMALLY****
TOTAL RUN TIME: 0 days 0 hours 0 minutes 31 seconds 201 msec
