                         Program Version 4.2.1 -  RELEASE  -
|  1> ! wB97X-D3 SP def2-SVP
|  2> %pal
|  3> nprocs 16
|  4> end
|  5>
|  6> * xyz 0 1
|  7> S 	 5.93355 	 16.7896 	 50.8285
|  8> C 	 4.85352 	 16.0984 	 51.9857
|  9> C 	 3.8469 	 15.4718 	 51.3293
| 10> C 	 3.77888 	 15.7251 	 49.9471
| 11> C 	 4.83452 	 16.5152 	 49.472
| 12> H 	 3.09909 	 15.307 	 49.2443
| 13> C 	 2.858 	 14.5306 	 51.9599
| 14> H 	 1.84089 	 14.6611 	 51.5387
| 15> H 	 2.77625 	 14.8288 	 53.0246
| 16> C 	 3.35462 	 13.0359 	 52.0109
| 17> H 	 3.43333 	 12.6827 	 51.011
| 18> H 	 4.34584 	 12.8351 	 52.4083
| 19> C 	 2.45267 	 12.1767 	 52.8446
| 20> H 	 2.58659 	 11.1013 	 52.6089
| 21> H 	 2.83528 	 12.1405 	 53.8821
| 22> H 	 1.36111 	 12.4148 	 52.81
| 23> S 	 6.70316 	 16.4799 	 47.3411
| 24> C 	 6.19934 	 16.8892 	 45.7602
| 25> C 	 4.85976 	 17.231 	 45.7749
| 26> C 	 4.2117 	 17.2681 	 47.0677
| 27> C 	 5.07495 	 16.736 	 48.0401
| 28> H 	 4.39511 	 17.3177 	 44.796
| 29> C 	 2.75305 	 17.514 	 47.4019
| 30> H 	 2.70988 	 18.1207 	 48.2864
| 31> H 	 2.24866 	 16.576 	 47.6926
| 32> C 	 1.96166 	 18.236 	 46.2701
| 33> H 	 0.908056 	 17.9288 	 46.3212
| 34> H 	 2.34796 	 17.684 	 45.3847
| 35> C 	 2.29882 	 19.7135 	 46.118
| 36> H 	 1.8963 	 20.1302 	 45.2473
| 37> H 	 3.34735 	 19.9509 	 46.2938
| 38> H 	 1.85325 	 20.2825 	 46.9956
| 39> H 	 5.06058 	 15.9184 	 52.9855
| 40> H 	 6.7538 	 16.6262 	 44.8135
| 41> *
| 42>
| 43>                          ****END OF INPUT****

CARTESIAN COORDINATES (ANGSTROEM)
---------------------------------
  S      5.933550   16.789600   50.828500
  C      4.853520   16.098400   51.985700
  C      3.846900   15.471800   51.329300
  C      3.778880   15.725100   49.947100
  C      4.834520   16.515200   49.472000
  H      3.099090   15.307000   49.244300
  C      2.858000   14.530600   51.959900
  H      1.840890   14.661100   51.538700
  H      2.776250   14.828800   53.024600
  C      3.354620   13.035900   52.010900
  H      3.433330   12.682700   51.011000
  H      4.345840   12.835100   52.408300
  C      2.452670   12.176700   52.844600
  H      2.586590   11.101300   52.608900
  H      2.835280   12.140500   53.882100
  H      1.361110   12.414800   52.810000
  S      6.703160   16.479900   47.341100
  C      6.199340   16.889200   45.760200
  C      4.859760   17.231000   45.774900
  C      4.211700   17.268100   47.067700
  C      5.074950   16.736000   48.040100
  H      4.395110   17.317700   44.796000
  C      2.753050   17.514000   47.401900
  H      2.709880   18.120700   48.286400
  H      2.248660   16.576000   47.692600
  C      1.961660   18.236000   46.270100
  H      0.908056   17.928800   46.321200
  H      2.347960   17.684000   45.384700
  C      2.298820   19.713500   46.118000
  H      1.896300   20.130200   45.247300
  H      3.347350   19.950900   46.293800
  H      1.853250   20.282500   46.995600
  H      5.060580   15.918400   52.985500
  H      6.753800   16.626200   44.813500

 Total Charge           Charge          ....    0
 Multiplicity           Mult            ....    1
 Number of Electrons    NEL             ....  134
 Basis Dimension        Dim             ....  322

ORBITAL ENERGIES
----------------

  NO   OCC          E(Eh)            E(eV)
   0   2.0000     -88.967607     -2420.9317
   1   2.0000     -88.964502     -2420.8472
   2   2.0000     -10.333605      -281.1917
   3   2.0000     -10.332282      -281.1557
   4   2.0000     -10.319478      -280.8073
   5   2.0000     -10.309044      -280.5234
   6   2.0000     -10.306519      -280.4546
   7   2.0000     -10.297112      -280.1987
   8   2.0000     -10.296724      -280.1881
   9   2.0000     -10.294559      -280.1292
  10   2.0000     -10.292874      -280.0833
  11   2.0000     -10.290589      -280.0212
  12   2.0000     -10.289415      -279.9892
  13   2.0000     -10.284422      -279.8534
  14   2.0000     -10.281455      -279.7726
  15   2.0000     -10.277366      -279.6614
  16   2.0000      -8.082172      -219.9271
  17   2.0000      -8.079346      -219.8502
  18   2.0000      -6.040819      -164.3790
  19   2.0000      -6.037867      -164.2987
  20   2.0000      -6.036619      -164.2647
  21   2.0000      -6.033724      -164.1860
  22   2.0000      -6.032863      -164.1625
  23   2.0000      -6.030205      -164.0902
  24   2.0000      -1.007258       -27.4089
  25   2.0000      -0.987324       -26.8665
  26   2.0000      -0.910260       -24.7694
  27   2.0000      -0.909218       -24.7411
  28   2.0000      -0.873593       -23.7717
  29   2.0000      -0.853962       -23.2375
  30   2.0000      -0.842321       -22.9207
  31   2.0000      -0.815190       -22.1824
  32   2.0000      -0.783782       -21.3278
  33   2.0000      -0.769998       -20.9527
  34   2.0000      -0.708355       -19.2753
  35   2.0000      -0.702126       -19.1058
  36   2.0000      -0.699726       -19.0405
  37   2.0000      -0.650770       -17.7083
  38   2.0000      -0.640613       -17.4320
  39   2.0000      -0.621409       -16.9094
  40   2.0000      -0.598370       -16.2825
  41   2.0000      -0.573956       -15.6181
  42   2.0000      -0.561385       -15.2761
  43   2.0000      -0.553067       -15.0497
  44   2.0000      -0.530197       -14.4274
  45   2.0000      -0.524480       -14.2718
  46   2.0000      -0.519300       -14.1309
  47   2.0000      -0.515607       -14.0304
  48   2.0000      -0.510109       -13.8808
  49   2.0000      -0.502024       -13.6608
  50   2.0000      -0.494873       -13.4662
  51   2.0000      -0.479782       -13.0555
  52   2.0000      -0.471596       -12.8328
  53   2.0000      -0.467934       -12.7331
  54   2.0000      -0.463316       -12.6075
  55   2.0000      -0.446535       -12.1508
  56   2.0000      -0.443714       -12.0741
  57   2.0000      -0.441765       -12.0210
  58   2.0000      -0.435008       -11.8372
  59   2.0000      -0.424955       -11.5636
  60   2.0000      -0.415729       -11.3126
  61   2.0000      -0.407498       -11.0886
  62   2.0000      -0.404386       -11.0039
  63   2.0000      -0.352945        -9.6041
  64   2.0000      -0.329276        -8.9601
  65   2.0000      -0.329020        -8.9531
  66   2.0000      -0.289647        -7.8817
  67   0.0000       0.023643         0.6434
  68   0.0000       0.068424         1.8619
  69   0.0000       0.115823         3.1517
  70   0.0000       0.122340         3.3290
  71   0.0000       0.136790         3.7223

MULLIKEN ATOMIC CHARGES
-----------------------
   0 S :    0.110121
   1 C :   -0.075157
   2 C :   -0.070430
   3 C :    0.008894
   4 C :   -0.127627
   5 H :    0.003682
   6 C :    0.030796
   7 H :    0.038060
   8 H :    0.018836
   9 C :   -0.035230
  10 H :    0.016886
  11 H :    0.023724
  12 C :   -0.071874
  13 H :    0.028866
  14 H :    0.031362
  15 H :    0.044331
  16 S :    0.104769
  17 C :   -0.111844
  18 C :   -0.064423
  19 C :   -0.041195
  20 C :   -0.166702
  21 H :    0.027099
  22 C :    0.045296
  23 H :    0.029058
  24 H :    0.042515
  25 C :   -0.070782
  26 H :    0.030964
  27 H :    0.018831
  28 C :   -0.026946
  29 H :    0.033399
  30 H :    0.041043
  31 H :    0.025823
  32 H :    0.022759
  33 H :    0.085098
Sum of atomic charges:   -0.0000000

LOEWDIN ATOMIC CHARGES
----------------------
   0 S :    0.413282
   1 C :   -0.192652
   2 C :   -0.068552
   3 C :   -0.057529
   4 C :   -0.189057
   5 H :    0.025315
   6 C :   -0.031257
   7 H :    0.033768
   8 H :    0.030107
   9 C :   -0.040037
  10 H :    0.016667
  11 H :    0.028820
  12 C :   -0.077257
  13 H :    0.030148
  14 H :    0.028006
  15 H :    0.028042
  16 S :    0.403118
  17 C :   -0.212511
  18 C :   -0.081001
  19 C :   -0.056777
  20 C :   -0.182583
  21 H :    0.030560
  22 C :   -0.032087
  23 H :    0.029841
  24 H :    0.033857
  25 C :   -0.045730
  26 H :    0.026656
  27 H :    0.022669
  28 C :   -0.064517
  29 H :    0.019248
  30 H :    0.031735
  31 H :    0.032645
  32 H :    0.018746
  33 H :    0.048314

  Mayer bond orders larger than 0.100000
B(  0-S ,  1-C ) :   1.1379 B(  0-S ,  4-C ) :   1.1559 B(  1-C ,  2-C ) :   1.5969
B(  1-C , 32-H ) :   0.9735 B(  2-C ,  3-C ) :   1.2690 B(  2-C ,  6-C ) :   1.0328
B(  3-C ,  4-C ) :   1.5169 B(  3-C ,  5-H ) :   0.9996 B(  4-C , 20-C ) :   1.0768
B(  6-C ,  7-H ) :   0.9446 B(  6-C ,  8-H ) :   0.9430 B(  6-C ,  9-C ) :   1.0473
B(  9-C , 10-H ) :   0.9586 B(  9-C , 11-H ) :   0.9569 B(  9-C , 12-C ) :   1.0835
B( 12-C , 13-H ) :   0.9698 B( 12-C , 14-H ) :   0.9762 B( 12-C , 15-H ) :   0.9741
B( 16-S , 17-C ) :   1.1621 B( 16-S , 20-C ) :   1.1407 B( 17-C , 18-C ) :   1.6203
B( 17-C , 33-H ) :   0.9537 B( 18-C , 19-C ) :   1.2289 B( 18-C , 21-H ) :   0.9820
B( 19-C , 20-C ) :   1.5780 B( 19-C , 22-C ) :   1.0452 B( 22-C , 23-H ) :   0.9228
B( 22-C , 24-H ) :   0.9347 B( 22-C , 25-C ) :   1.0714 B( 25-C , 26-H ) :   0.9560
B( 25-C , 27-H ) :   0.9529 B( 25-C , 28-C ) :   1.0710 B( 28-C , 29-H ) :   0.9761
B( 28-C , 30-H ) :   0.9744 B( 28-C , 31-H ) :   0.9695

Dispersion correction           -0.013809852
FINAL SINGLE POINT ENERGY     -1339.868771975766

DIPOLE MOMENT
-------------
                                X             Y             Z
Electronic contribution:     23.24234       6.15629      -2.63446
Nuclear contribution   :    -23.81846      -6.60762       2.55505
                        -----------------------------------------
Total Dipole Moment    :     -0.57612      -0.45133      -0.07941
                        -----------------------------------------
Magnitude (a.u.)       :      0.73615
Magnitude (Debye)      :      1.87115

Rotational constants in cm-1:     0.020023     0.007416     0.006384
Rotational constants in MHz :   600.283033   222.328148   191.385835

                             ****ORCA TERMINATED NORMALLY****
TOTAL RUN TIME: 0 days 0 hours 0 minutes 34 seconds 121 msec
