                         Program Version 4.2.1 -  RELEASE  -
|  1> ! wB97X-D3 SP def2-SVP
|  2> %pal
|  3> nprocs 16
|  4> end
|  5>
|  6> * xyz 0 1
|  7> S 	 -1.07613 	 43.6955 	 35.2434
|  8> C 	 -2.07511 	 42.6498 	 36.2089
|  9> C 	 -2.77071 	 43.3353 	 37.19
| 10> C 	 -2.64547 	 44.7312 	 37.055
| 11> C 	 -1.80569 	 45.0822 	 36.0268
| 12> H 	 -3.06617 	 45.4307 	 37.6702
| 13> C 	 -3.66449 	 42.7037 	 38.2608
| 14> H 	 -3.09481 	 41.8455 	 38.5274
| 15> H 	 -4.49827 	 42.394 	 37.726
| 16> C 	 -4.25522 	 43.6428 	 39.2542
| 17> H 	 -3.47583 	 44.2145 	 39.778
| 18> H 	 -4.91224 	 44.4843 	 38.8403
| 19> C 	 -4.99399 	 42.8496 	 40.3278
| 20> H 	 -5.79362 	 42.3493 	 39.908
| 21> H 	 -4.30223 	 42.2611 	 40.857
| 22> H 	 -5.33808 	 43.5909 	 41.02
| 23> S 	 0.42071 	 46.7789 	 35.9456
| 24> C 	 0.0865764 	 48.5058 	 35.5532
| 25> C 	 -1.24712 	 48.7255 	 35.3124
| 26> C 	 -2.04446 	 47.5411 	 35.3488
| 27> C 	 -1.29106 	 46.4279 	 35.7682
| 28> H 	 -1.45732 	 49.7599 	 35.0556
| 29> C 	 -3.56351 	 47.5035 	 35.1105
| 30> H 	 -3.99244 	 48.4551 	 35.3244
| 31> H 	 -4.07046 	 46.8453 	 35.8318
| 32> C 	 -3.94885 	 47.0706 	 33.6817
| 33> H 	 -5.07616 	 46.9567 	 33.5396
| 34> H 	 -3.56672 	 46.0792 	 33.4491
| 35> C 	 -3.54514 	 48.0776 	 32.671
| 36> H 	 -3.88368 	 47.758 	 31.6523
| 37> H 	 -2.45387 	 48.2473 	 32.6547
| 38> H 	 -3.96277 	 49.0168 	 33.023
| 39> H 	 -2.00182 	 41.6155 	 36.1243
| 40> H 	 0.813322 	 49.3368 	 35.5969
| 41> *
| 42>
| 43>                          ****END OF INPUT****

CARTESIAN COORDINATES (ANGSTROEM)
---------------------------------
  S     -1.076130   43.695500   35.243400
  C     -2.075110   42.649800   36.208900
  C     -2.770710   43.335300   37.190000
  C     -2.645470   44.731200   37.055000
  C     -1.805690   45.082200   36.026800
  H     -3.066170   45.430700   37.670200
  C     -3.664490   42.703700   38.260800
  H     -3.094810   41.845500   38.527400
  H     -4.498270   42.394000   37.726000
  C     -4.255220   43.642800   39.254200
  H     -3.475830   44.214500   39.778000
  H     -4.912240   44.484300   38.840300
  C     -4.993990   42.849600   40.327800
  H     -5.793620   42.349300   39.908000
  H     -4.302230   42.261100   40.857000
  H     -5.338080   43.590900   41.020000
  S      0.420710   46.778900   35.945600
  C      0.086576   48.505800   35.553200
  C     -1.247120   48.725500   35.312400
  C     -2.044460   47.541100   35.348800
  C     -1.291060   46.427900   35.768200
  H     -1.457320   49.759900   35.055600
  C     -3.563510   47.503500   35.110500
  H     -3.992440   48.455100   35.324400
  H     -4.070460   46.845300   35.831800
  C     -3.948850   47.070600   33.681700
  H     -5.076160   46.956700   33.539600
  H     -3.566720   46.079200   33.449100
  C     -3.545140   48.077600   32.671000
  H     -3.883680   47.758000   31.652300
  H     -2.453870   48.247300   32.654700
  H     -3.962770   49.016800   33.023000
  H     -2.001820   41.615500   36.124300
  H      0.813322   49.336800   35.596900

 Total Charge           Charge          ....    0
 Multiplicity           Mult            ....    1
 Number of Electrons    NEL             ....  134
 Basis Dimension        Dim             ....  322

ORBITAL ENERGIES
----------------

  NO   OCC          E(Eh)            E(eV)
   0   2.0000     -88.967398     -2420.9260
   1   2.0000     -88.965658     -2420.8786
   2   2.0000     -10.326680      -281.0032
   3   2.0000     -10.324568      -280.9458
   4   2.0000     -10.318959      -280.7931
   5   2.0000     -10.305627      -280.4304
   6   2.0000     -10.305329      -280.4223
   7   2.0000     -10.296710      -280.1877
   8   2.0000     -10.294590      -280.1300
   9   2.0000     -10.291874      -280.0561
  10   2.0000     -10.289328      -279.9868
  11   2.0000     -10.283336      -279.8238
  12   2.0000     -10.282833      -279.8101
  13   2.0000     -10.280764      -279.7538
  14   2.0000     -10.271062      -279.4898
  15   2.0000     -10.267952      -279.4052
  16   2.0000      -8.081033      -219.8961
  17   2.0000      -8.080609      -219.8845
  18   2.0000      -6.039607      -164.3461
  19   2.0000      -6.038973      -164.3288
  20   2.0000      -6.035770      -164.2416
  21   2.0000      -6.035135      -164.2244
  22   2.0000      -6.031711      -164.1312
  23   2.0000      -6.031483      -164.1250
  24   2.0000      -1.004943       -27.3459
  25   2.0000      -0.979830       -26.6625
  26   2.0000      -0.922367       -25.0989
  27   2.0000      -0.907221       -24.6867
  28   2.0000      -0.870141       -23.6777
  29   2.0000      -0.854777       -23.2597
  30   2.0000      -0.844248       -22.9732
  31   2.0000      -0.818396       -22.2697
  32   2.0000      -0.785660       -21.3789
  33   2.0000      -0.768716       -20.9178
  34   2.0000      -0.714505       -19.4427
  35   2.0000      -0.693915       -18.8824
  36   2.0000      -0.681382       -18.5414
  37   2.0000      -0.654417       -17.8076
  38   2.0000      -0.645817       -17.5736
  39   2.0000      -0.625412       -17.0183
  40   2.0000      -0.590791       -16.0762
  41   2.0000      -0.584686       -15.9101
  42   2.0000      -0.565750       -15.3948
  43   2.0000      -0.550692       -14.9851
  44   2.0000      -0.543828       -14.7983
  45   2.0000      -0.532644       -14.4940
  46   2.0000      -0.522572       -14.2199
  47   2.0000      -0.510774       -13.8989
  48   2.0000      -0.506617       -13.7857
  49   2.0000      -0.495144       -13.4735
  50   2.0000      -0.482407       -13.1270
  51   2.0000      -0.476264       -12.9598
  52   2.0000      -0.472421       -12.8552
  53   2.0000      -0.468622       -12.7519
  54   2.0000      -0.457972       -12.4621
  55   2.0000      -0.451492       -12.2857
  56   2.0000      -0.444222       -12.0879
  57   2.0000      -0.435696       -11.8559
  58   2.0000      -0.431083       -11.7304
  59   2.0000      -0.424529       -11.5520
  60   2.0000      -0.422475       -11.4961
  61   2.0000      -0.414444       -11.2776
  62   2.0000      -0.406843       -11.0708
  63   2.0000      -0.344539        -9.3754
  64   2.0000      -0.332970        -9.0606
  65   2.0000      -0.327222        -8.9042
  66   2.0000      -0.289977        -7.8907
  67   0.0000       0.033274         0.9054
  68   0.0000       0.063749         1.7347
  69   0.0000       0.109905         2.9907
  70   0.0000       0.126052         3.4301
  71   0.0000       0.130511         3.5514

MULLIKEN ATOMIC CHARGES
-----------------------
   0 S :    0.114186
   1 C :   -0.115756
   2 C :   -0.101699
   3 C :    0.058010
   4 C :   -0.150087
   5 H :   -0.022169
   6 C :    0.148428
   7 H :    0.025683
   8 H :    0.019253
   9 C :   -0.177240
  10 H :    0.027705
  11 H :    0.046693
  12 C :    0.050912
  13 H :    0.018608
  14 H :    0.021742
  15 H :    0.018944
  16 S :    0.110207
  17 C :   -0.120953
  18 C :   -0.033370
  19 C :   -0.031300
  20 C :   -0.162095
  21 H :    0.022179
  22 C :    0.095121
  23 H :    0.008599
  24 H :    0.021576
  25 C :   -0.080963
  26 H :    0.030916
  27 H :    0.029943
  28 C :   -0.049077
  29 H :    0.042819
  30 H :    0.039001
  31 H :    0.013260
  32 H :    0.017466
  33 H :    0.063459
Sum of atomic charges:   -0.0000000

LOEWDIN ATOMIC CHARGES
----------------------
   0 S :    0.412209
   1 C :   -0.197520
   2 C :   -0.052106
   3 C :   -0.051252
   4 C :   -0.188570
   5 H :    0.016362
   6 C :   -0.029214
   7 H :    0.032739
   8 H :    0.031554
   9 C :   -0.048166
  10 H :    0.020683
  11 H :    0.033310
  12 C :   -0.042496
  13 H :    0.014604
  14 H :    0.021913
  15 H :    0.026789
  16 S :    0.381861
  17 C :   -0.179627
  18 C :   -0.072878
  19 C :   -0.056282
  20 C :   -0.194926
  21 H :    0.035640
  22 C :   -0.028520
  23 H :    0.022662
  24 H :    0.032053
  25 C :   -0.044867
  26 H :    0.029019
  27 H :    0.021394
  28 C :   -0.069134
  29 H :    0.031153
  30 H :    0.025519
  31 H :    0.020108
  32 H :    0.010833
  33 H :    0.035154

  Mayer bond orders larger than 0.100000
B(  0-S ,  1-C ) :   1.1412 B(  0-S ,  4-C ) :   1.1592 B(  1-C ,  2-C ) :   1.6017
B(  1-C , 32-H ) :   0.9827 B(  2-C ,  3-C ) :   1.2703 B(  2-C ,  6-C ) :   0.9847
B(  3-C ,  4-C ) :   1.5473 B(  3-C ,  5-H ) :   1.0008 B(  4-C , 20-C ) :   1.0307
B(  6-C ,  7-H ) :   0.9400 B(  6-C ,  8-H ) :   0.9204 B(  6-C ,  9-C ) :   1.0888
B(  9-C , 10-H ) :   0.9529 B(  9-C , 11-H ) :   0.9415 B(  9-C , 12-C ) :   1.0858
B( 12-C , 13-H ) :   0.9740 B( 12-C , 14-H ) :   0.9741 B( 12-C , 15-H ) :   0.9682
B( 16-S , 17-C ) :   1.1268 B( 16-S , 20-C ) :   1.1465 B( 17-C , 18-C ) :   1.6545
B( 17-C , 33-H ) :   0.9605 B( 18-C , 19-C ) :   1.2120 B( 18-C , 21-H ) :   0.9874
B( 19-C , 20-C ) :   1.5972 B( 19-C , 22-C ) :   1.0342 B( 22-C , 23-H ) :   0.9392
B( 22-C , 24-H ) :   0.9293 B( 22-C , 25-C ) :   1.0725 B( 25-C , 26-H ) :   0.9542
B( 25-C , 27-H ) :   0.9550 B( 25-C , 28-C ) :   1.0789 B( 28-C , 29-H ) :   0.9715
B( 28-C , 30-H ) :   0.9725 B( 28-C , 31-H ) :   0.9714

Dispersion correction           -0.014421318
FINAL SINGLE POINT ENERGY     -1339.868877088413

DIPOLE MOMENT
-------------
                                X             Y             Z
Electronic contribution:     23.36394      -1.05164      -5.80708
Nuclear contribution   :    -23.90941       1.08539       6.19539
                        -----------------------------------------
Total Dipole Moment    :     -0.54547       0.03376       0.38831
                        -----------------------------------------
Magnitude (a.u.)       :      0.67042
Magnitude (Debye)      :      1.70406

Rotational constants in cm-1:     0.019230     0.008028     0.007312
Rotational constants in MHz :   576.501525   240.671453   219.219019

                             ****ORCA TERMINATED NORMALLY****
TOTAL RUN TIME: 0 days 0 hours 0 minutes 32 seconds 46 msec
