                         Program Version 4.2.1 -  RELEASE  -
|  1> ! wB97X-D3 SP def2-SVP
|  2> %pal
|  3> nprocs 16
|  4> end
|  5>
|  6> * xyz 0 1
|  7> S 	 -100.495 	 59.2422 	 126.832
|  8> C 	 -100.757 	 57.6631 	 126.126
|  9> C 	 -99.5654 	 56.9135 	 126.114
| 10> C 	 -98.4247 	 57.738 	 126.544
| 11> C 	 -98.7598 	 59.0602 	 126.763
| 12> H 	 -97.4391 	 57.2996 	 126.497
| 13> C 	 -99.4665 	 55.5589 	 125.535
| 14> H 	 -100.026 	 55.4782 	 124.616
| 15> H 	 -99.9893 	 54.9216 	 126.187
| 16> C 	 -98.044 	 54.9547 	 125.368
| 17> H 	 -97.3812 	 55.5222 	 124.691
| 18> H 	 -97.6005 	 54.9421 	 126.328
| 19> C 	 -98.1018 	 53.4429 	 124.905
| 20> H 	 -98.7714 	 52.832 	 125.588
| 21> H 	 -98.5693 	 53.2689 	 123.927
| 22> H 	 -97.0559 	 52.9375 	 125.126
| 23> S 	 -98.5271 	 61.1022 	 128.592
| 24> C 	 -97.0953 	 62.1028 	 128.509
| 25> C 	 -96.1339 	 61.5657 	 127.631
| 26> C 	 -96.5605 	 60.3814 	 126.945
| 27> C 	 -97.883 	 60.0954 	 127.237
| 28> H 	 -95.0945 	 61.9836 	 127.406
| 29> C 	 -95.6928 	 59.5407 	 125.974
| 30> H 	 -95.0363 	 60.3067 	 125.527
| 31> H 	 -96.3169 	 59.2476 	 125.053
| 32> C 	 -94.8884 	 58.3625 	 126.643
| 33> H 	 -95.524 	 57.9855 	 127.503
| 34> H 	 -93.9141 	 58.9159 	 126.961
| 35> C 	 -94.4014 	 57.1894 	 125.718
| 36> H 	 -93.9245 	 57.4972 	 124.803
| 37> H 	 -95.2921 	 56.6405 	 125.336
| 38> H 	 -93.7546 	 56.4981 	 126.28
| 39> H 	 -101.72 	 57.4221 	 125.695
| 40> H 	 -96.9542 	 63.0154 	 129.013
| 41> *
| 42>
| 43>                          ****END OF INPUT****

CARTESIAN COORDINATES (ANGSTROEM)
---------------------------------
  S    -100.495000   59.242200  126.832000
  C    -100.757000   57.663100  126.126000
  C    -99.565400   56.913500  126.114000
  C    -98.424700   57.738000  126.544000
  C    -98.759800   59.060200  126.763000
  H    -97.439100   57.299600  126.497000
  C    -99.466500   55.558900  125.535000
  H    -100.026000   55.478200  124.616000
  H    -99.989300   54.921600  126.187000
  C    -98.044000   54.954700  125.368000
  H    -97.381200   55.522200  124.691000
  H    -97.600500   54.942100  126.328000
  C    -98.101800   53.442900  124.905000
  H    -98.771400   52.832000  125.588000
  H    -98.569300   53.268900  123.927000
  H    -97.055900   52.937500  125.126000
  S    -98.527100   61.102200  128.592000
  C    -97.095300   62.102800  128.509000
  C    -96.133900   61.565700  127.631000
  C    -96.560500   60.381400  126.945000
  C    -97.883000   60.095400  127.237000
  H    -95.094500   61.983600  127.406000
  C    -95.692800   59.540700  125.974000
  H    -95.036300   60.306700  125.527000
  H    -96.316900   59.247600  125.053000
  C    -94.888400   58.362500  126.643000
  H    -95.524000   57.985500  127.503000
  H    -93.914100   58.915900  126.961000
  C    -94.401400   57.189400  125.718000
  H    -93.924500   57.497200  124.803000
  H    -95.292100   56.640500  125.336000
  H    -93.754600   56.498100  126.280000
  H    -101.720000   57.422100  125.695000
  H    -96.954200   63.015400  129.013000

 Total Charge           Charge          ....    0
 Multiplicity           Mult            ....    1
 Number of Electrons    NEL             ....  134
 Basis Dimension        Dim             ....  322

ORBITAL ENERGIES
----------------

  NO   OCC          E(Eh)            E(eV)
   0   2.0000     -88.966791     -2420.9095
   1   2.0000     -88.964297     -2420.8416
   2   2.0000     -10.328439      -281.0511
   3   2.0000     -10.326960      -281.0109
   4   2.0000     -10.317421      -280.7513
   5   2.0000     -10.315324      -280.6942
   6   2.0000     -10.308960      -280.5211
   7   2.0000     -10.306525      -280.4548
   8   2.0000     -10.305117      -280.4165
   9   2.0000     -10.304413      -280.3973
  10   2.0000     -10.303181      -280.3638
  11   2.0000     -10.299205      -280.2556
  12   2.0000     -10.297875      -280.2194
  13   2.0000     -10.295636      -280.1585
  14   2.0000     -10.289236      -279.9844
  15   2.0000     -10.288352      -279.9603
  16   2.0000      -8.080671      -219.8862
  17   2.0000      -8.079228      -219.8470
  18   2.0000      -6.039232      -164.3358
  19   2.0000      -6.037786      -164.2965
  20   2.0000      -6.035448      -164.2329
  21   2.0000      -6.033762      -164.1870
  22   2.0000      -6.031283      -164.1196
  23   2.0000      -6.029880      -164.0814
  24   2.0000      -1.003430       -27.3047
  25   2.0000      -0.976843       -26.5812
  26   2.0000      -0.913622       -24.8609
  27   2.0000      -0.897541       -24.4233
  28   2.0000      -0.866345       -23.5744
  29   2.0000      -0.849899       -23.1269
  30   2.0000      -0.840674       -22.8759
  31   2.0000      -0.810412       -22.0524
  32   2.0000      -0.782212       -21.2851
  33   2.0000      -0.767619       -20.8880
  34   2.0000      -0.715840       -19.4790
  35   2.0000      -0.695949       -18.9377
  36   2.0000      -0.690239       -18.7824
  37   2.0000      -0.659297       -17.9404
  38   2.0000      -0.640379       -17.4256
  39   2.0000      -0.622987       -16.9523
  40   2.0000      -0.588992       -16.0273
  41   2.0000      -0.572882       -15.5889
  42   2.0000      -0.556960       -15.1557
  43   2.0000      -0.554797       -15.0968
  44   2.0000      -0.526932       -14.3386
  45   2.0000      -0.519723       -14.1424
  46   2.0000      -0.517220       -14.0743
  47   2.0000      -0.511229       -13.9113
  48   2.0000      -0.502642       -13.6776
  49   2.0000      -0.501644       -13.6504
  50   2.0000      -0.490505       -13.3473
  51   2.0000      -0.478728       -13.0268
  52   2.0000      -0.469761       -12.7829
  53   2.0000      -0.459585       -12.5060
  54   2.0000      -0.457282       -12.4433
  55   2.0000      -0.449986       -12.2447
  56   2.0000      -0.448402       -12.2016
  57   2.0000      -0.438600       -11.9349
  58   2.0000      -0.434709       -11.8290
  59   2.0000      -0.427781       -11.6405
  60   2.0000      -0.424876       -11.5615
  61   2.0000      -0.414931       -11.2909
  62   2.0000      -0.407108       -11.0780
  63   2.0000      -0.351347        -9.5606
  64   2.0000      -0.332718        -9.0537
  65   2.0000      -0.325042        -8.8448
  66   2.0000      -0.281966        -7.6727
  67   0.0000       0.019383         0.5274
  68   0.0000       0.067881         1.8471
  69   0.0000       0.099717         2.7134
  70   0.0000       0.123054         3.3485
  71   0.0000       0.125696         3.4204

MULLIKEN ATOMIC CHARGES
-----------------------
   0 S :    0.097209
   1 C :   -0.134924
   2 C :   -0.087179
   3 C :    0.027318
   4 C :   -0.109616
   5 H :   -0.010601
   6 C :    0.089483
   7 H :    0.028197
   8 H :    0.017904
   9 C :   -0.106289
  10 H :    0.058909
  11 H :    0.033219
  12 C :   -0.098321
  13 H :    0.028014
  14 H :    0.046335
  15 H :    0.056573
  16 S :    0.097867
  17 C :   -0.073280
  18 C :   -0.046704
  19 C :   -0.068811
  20 C :   -0.136337
  21 H :    0.039143
  22 C :    0.019298
  23 H :    0.023205
  24 H :    0.048493
  25 C :   -0.118981
  26 H :    0.069444
  27 H :    0.050869
  28 C :   -0.037077
  29 H :    0.031037
  30 H :    0.017492
  31 H :    0.050308
  32 H :    0.052656
  33 H :    0.045147
Sum of atomic charges:    0.0000000

LOEWDIN ATOMIC CHARGES
----------------------
   0 S :    0.402343
   1 C :   -0.197068
   2 C :   -0.053427
   3 C :   -0.060610
   4 C :   -0.192709
   5 H :    0.026676
   6 C :   -0.035394
   7 H :    0.033502
   8 H :    0.030789
   9 C :   -0.039764
  10 H :    0.024413
  11 H :    0.020234
  12 C :   -0.080338
  13 H :    0.026580
  14 H :    0.025561
  15 H :    0.042422
  16 S :    0.380256
  17 C :   -0.183471
  18 C :   -0.074630
  19 C :   -0.063848
  20 C :   -0.171610
  21 H :    0.041669
  22 C :   -0.046190
  23 H :    0.028735
  24 H :    0.038293
  25 C :   -0.051801
  26 H :    0.033831
  27 H :    0.038838
  28 C :   -0.070251
  29 H :    0.024380
  30 H :    0.023233
  31 H :    0.032287
  32 H :    0.026251
  33 H :    0.020817

  Mayer bond orders larger than 0.100000
B(  0-S ,  1-C ) :   1.1373 B(  0-S ,  4-C ) :   1.1478 B(  1-C ,  2-C ) :   1.5883
B(  1-C , 32-H ) :   0.9771 B(  2-C ,  3-C ) :   1.2615 B(  2-C ,  6-C ) :   1.0215
B(  3-C ,  4-C ) :   1.5239 B(  3-C ,  5-H ) :   0.9831 B(  4-C , 20-C ) :   1.0800
B(  6-C ,  7-H ) :   0.9399 B(  6-C ,  8-H ) :   0.9199 B(  6-C ,  9-C ) :   1.0814
B(  9-C , 10-H ) :   0.9489 B(  9-C , 11-H ) :   0.9459 B(  9-C , 12-C ) :   1.0763
B( 12-C , 13-H ) :   0.9732 B( 12-C , 14-H ) :   0.9762 B( 12-C , 15-H ) :   0.9739
B( 16-S , 17-C ) :   1.1404 B( 16-S , 20-C ) :   1.1248 B( 17-C , 18-C ) :   1.6020
B( 17-C , 20-C ) :   0.1032 B( 17-C , 33-H ) :   0.9748 B( 18-C , 19-C ) :   1.2547
B( 18-C , 21-H ) :   0.9718 B( 19-C , 20-C ) :   1.6109 B( 19-C , 22-C ) :   1.0362
B( 22-C , 23-H ) :   0.9372 B( 22-C , 24-H ) :   0.9431 B( 22-C , 25-C ) :   1.0219
B( 25-C , 26-H ) :   0.9589 B( 25-C , 27-H ) :   0.9543 B( 25-C , 28-C ) :   1.0723
B( 28-C , 29-H ) :   0.9709 B( 28-C , 30-H ) :   0.9732 B( 28-C , 31-H ) :   0.9734

Dispersion correction           -0.014937331
FINAL SINGLE POINT ENERGY     -1339.862778532462

DIPOLE MOMENT
-------------
                                X             Y             Z
Electronic contribution:    -18.22747      26.04827      13.22912
Nuclear contribution   :     18.66559     -26.60570     -13.60273
                        -----------------------------------------
Total Dipole Moment    :      0.43811      -0.55744      -0.37360
                        -----------------------------------------
Magnitude (a.u.)       :      0.80141
Magnitude (Debye)      :      2.03702

Rotational constants in cm-1:     0.018220     0.009763     0.006616
Rotational constants in MHz :   546.214658   292.701646   198.351497

                             ****ORCA TERMINATED NORMALLY****
TOTAL RUN TIME: 0 days 0 hours 0 minutes 36 seconds 50 msec
