                         Program Version 4.2.1 -  RELEASE  -
|  1> ! wB97X-D3 SP def2-SVP
|  2> %pal
|  3> nprocs 16
|  4> end
|  5>
|  6> * xyz 0 1
|  7> S 	 -95.1808 	 41.464 	 122.704
|  8> C 	 -93.7967 	 40.5273 	 121.975
|  9> C 	 -94.3928 	 39.336 	 121.472
| 10> C 	 -95.7786 	 39.1943 	 121.703
| 11> C 	 -96.3897 	 40.3179 	 122.249
| 12> H 	 -96.4073 	 38.3174 	 121.596
| 13> C 	 -93.5706 	 38.1365 	 120.981
| 14> H 	 -94.1409 	 37.3904 	 120.39
| 15> H 	 -93.2116 	 37.616 	 121.898
| 16> C 	 -92.4274 	 38.5318 	 120.123
| 17> H 	 -92.8233 	 38.9253 	 119.204
| 18> H 	 -91.8082 	 39.3303 	 120.623
| 19> C 	 -91.5694 	 37.4386 	 119.512
| 20> H 	 -92.2287 	 36.7032 	 118.999
| 21> H 	 -90.884 	 38.0235 	 118.886
| 22> H 	 -90.8853 	 36.8277 	 120.136
| 23> S 	 -98.1878 	 40.6962 	 124.379
| 24> C 	 -99.8305 	 40.7006 	 124.012
| 25> C 	 -100.154 	 40.1846 	 122.762
| 26> C 	 -98.9846 	 40.067 	 121.967
| 27> C 	 -97.8002 	 40.3834 	 122.671
| 28> H 	 -101.158 	 40.0386 	 122.433
| 29> C 	 -99.0362 	 39.5925 	 120.489
| 30> H 	 -99.6255 	 38.652 	 120.452
| 31> H 	 -98.0241 	 39.3205 	 120.038
| 32> C 	 -99.5798 	 40.6223 	 119.484
| 33> H 	 -99.3511 	 41.6664 	 119.792
| 34> H 	 -100.63 	 40.5689 	 119.646
| 35> C 	 -99.1216 	 40.3624 	 118.011
| 36> H 	 -99.154 	 39.3603 	 117.586
| 37> H 	 -98.0853 	 40.6181 	 117.819
| 38> H 	 -99.7282 	 41.1456 	 117.428
| 39> H 	 -92.7514 	 40.7765 	 122.073
| 40> H 	 -100.515 	 40.8247 	 124.827
| 41> *
| 42>
| 43>                          ****END OF INPUT****

CARTESIAN COORDINATES (ANGSTROEM)
---------------------------------
  S    -95.180800   41.464000  122.704000
  C    -93.796700   40.527300  121.975000
  C    -94.392800   39.336000  121.472000
  C    -95.778600   39.194300  121.703000
  C    -96.389700   40.317900  122.249000
  H    -96.407300   38.317400  121.596000
  C    -93.570600   38.136500  120.981000
  H    -94.140900   37.390400  120.390000
  H    -93.211600   37.616000  121.898000
  C    -92.427400   38.531800  120.123000
  H    -92.823300   38.925300  119.204000
  H    -91.808200   39.330300  120.623000
  C    -91.569400   37.438600  119.512000
  H    -92.228700   36.703200  118.999000
  H    -90.884000   38.023500  118.886000
  H    -90.885300   36.827700  120.136000
  S    -98.187800   40.696200  124.379000
  C    -99.830500   40.700600  124.012000
  C    -100.154000   40.184600  122.762000
  C    -98.984600   40.067000  121.967000
  C    -97.800200   40.383400  122.671000
  H    -101.158000   40.038600  122.433000
  C    -99.036200   39.592500  120.489000
  H    -99.625500   38.652000  120.452000
  H    -98.024100   39.320500  120.038000
  C    -99.579800   40.622300  119.484000
  H    -99.351100   41.666400  119.792000
  H    -100.630000   40.568900  119.646000
  C    -99.121600   40.362400  118.011000
  H    -99.154000   39.360300  117.586000
  H    -98.085300   40.618100  117.819000
  H    -99.728200   41.145600  117.428000
  H    -92.751400   40.776500  122.073000
  H    -100.515000   40.824700  124.827000

 Total Charge           Charge          ....    0
 Multiplicity           Mult            ....    1
 Number of Electrons    NEL             ....  134
 Basis Dimension        Dim             ....  322

ORBITAL ENERGIES
----------------

  NO   OCC          E(Eh)            E(eV)
   0   2.0000     -88.968462     -2420.9549
   1   2.0000     -88.965876     -2420.8846
   2   2.0000     -10.330930      -281.1189
   3   2.0000     -10.329866      -281.0899
   4   2.0000     -10.324734      -280.9503
   5   2.0000     -10.314950      -280.6841
   6   2.0000     -10.310354      -280.5590
   7   2.0000     -10.307850      -280.4909
   8   2.0000     -10.297586      -280.2116
   9   2.0000     -10.295526      -280.1555
  10   2.0000     -10.292005      -280.0597
  11   2.0000     -10.290759      -280.0258
  12   2.0000     -10.287165      -279.9280
  13   2.0000     -10.285692      -279.8879
  14   2.0000     -10.283483      -279.8278
  15   2.0000     -10.282960      -279.8136
  16   2.0000      -8.084114      -219.9799
  17   2.0000      -8.079674      -219.8591
  18   2.0000      -6.042322      -164.4199
  19   2.0000      -6.038584      -164.3182
  20   2.0000      -6.038256      -164.3093
  21   2.0000      -6.035032      -164.2216
  22   2.0000      -6.034149      -164.1975
  23   2.0000      -6.030545      -164.0995
  24   2.0000      -1.005552       -27.3625
  25   2.0000      -0.982704       -26.7407
  26   2.0000      -0.917091       -24.9553
  27   2.0000      -0.903212       -24.5777
  28   2.0000      -0.865643       -23.5553
  29   2.0000      -0.851831       -23.1795
  30   2.0000      -0.843817       -22.9614
  31   2.0000      -0.809605       -22.0305
  32   2.0000      -0.782134       -21.2829
  33   2.0000      -0.770548       -20.9677
  34   2.0000      -0.704992       -19.1838
  35   2.0000      -0.699547       -19.0356
  36   2.0000      -0.685272       -18.6472
  37   2.0000      -0.660047       -17.9608
  38   2.0000      -0.641682       -17.4611
  39   2.0000      -0.612983       -16.6801
  40   2.0000      -0.599235       -16.3060
  41   2.0000      -0.580388       -15.7931
  42   2.0000      -0.561299       -15.2737
  43   2.0000      -0.552855       -15.0440
  44   2.0000      -0.529851       -14.4180
  45   2.0000      -0.522889       -14.2285
  46   2.0000      -0.517832       -14.0909
  47   2.0000      -0.513684       -13.9781
  48   2.0000      -0.502450       -13.6723
  49   2.0000      -0.498152       -13.5554
  50   2.0000      -0.493648       -13.4328
  51   2.0000      -0.481462       -13.1012
  52   2.0000      -0.474044       -12.8994
  53   2.0000      -0.469044       -12.7633
  54   2.0000      -0.458605       -12.4793
  55   2.0000      -0.443952       -12.0805
  56   2.0000      -0.437255       -11.8983
  57   2.0000      -0.436712       -11.8835
  58   2.0000      -0.427787       -11.6407
  59   2.0000      -0.423508       -11.5242
  60   2.0000      -0.416779       -11.3411
  61   2.0000      -0.410633       -11.1739
  62   2.0000      -0.404747       -11.0137
  63   2.0000      -0.341425        -9.2907
  64   2.0000      -0.335506        -9.1296
  65   2.0000      -0.327988        -8.9250
  66   2.0000      -0.290537        -7.9059
  67   0.0000       0.022919         0.6236
  68   0.0000       0.067932         1.8485
  69   0.0000       0.107304         2.9199
  70   0.0000       0.116942         3.1822
  71   0.0000       0.128089         3.4855

MULLIKEN ATOMIC CHARGES
-----------------------
   0 S :    0.094748
   1 C :   -0.142542
   2 C :   -0.067788
   3 C :    0.024976
   4 C :   -0.143041
   5 H :    0.023392
   6 C :    0.069006
   7 H :    0.018500
   8 H :    0.047358
   9 C :   -0.114376
  10 H :    0.026709
  11 H :    0.029716
  12 C :   -0.049796
  13 H :    0.035354
  14 H :    0.036192
  15 H :    0.027733
  16 S :    0.124244
  17 C :   -0.085554
  18 C :   -0.022135
  19 C :   -0.029233
  20 C :   -0.167257
  21 H :    0.015493
  22 C :    0.014308
  23 H :    0.038982
  24 H :    0.030175
  25 C :   -0.057217
  26 H :    0.042099
  27 H :    0.016841
  28 C :   -0.079315
  29 H :    0.038762
  30 H :    0.036921
  31 H :    0.046918
  32 H :    0.065299
  33 H :    0.054530
Sum of atomic charges:    0.0000000

LOEWDIN ATOMIC CHARGES
----------------------
   0 S :    0.395736
   1 C :   -0.189408
   2 C :   -0.056018
   3 C :   -0.070406
   4 C :   -0.200124
   5 H :    0.034374
   6 C :   -0.037334
   7 H :    0.028558
   8 H :    0.037472
   9 C :   -0.052053
  10 H :    0.028236
  11 H :    0.024547
  12 C :   -0.068480
  13 H :    0.027975
  14 H :    0.031796
  15 H :    0.020083
  16 S :    0.430829
  17 C :   -0.194292
  18 C :   -0.071273
  19 C :   -0.047543
  20 C :   -0.199368
  21 H :    0.029680
  22 C :   -0.041310
  23 H :    0.032922
  24 H :    0.032259
  25 C :   -0.043051
  26 H :    0.032891
  27 H :    0.015580
  28 C :   -0.075616
  29 H :    0.025354
  30 H :    0.026120
  31 H :    0.039748
  32 H :    0.030093
  33 H :    0.022024

  Mayer bond orders larger than 0.100000
B(  0-S ,  1-C ) :   1.1273 B(  0-S ,  4-C ) :   1.1742 B(  1-C ,  2-C ) :   1.5495
B(  1-C ,  4-C ) :   0.1100 B(  1-C , 32-H ) :   0.9775 B(  2-C ,  3-C ) :   1.2756
B(  2-C ,  6-C ) :   1.0186 B(  3-C ,  4-C ) :   1.5310 B(  3-C ,  5-H ) :   0.9917
B(  4-C , 20-C ) :   1.0417 B(  6-C ,  7-H ) :   0.9452 B(  6-C ,  8-H ) :   0.9353
B(  6-C ,  9-C ) :   1.0737 B(  9-C , 10-H ) :   0.9564 B(  9-C , 11-H ) :   0.9494
B(  9-C , 12-C ) :   1.0771 B( 12-C , 13-H ) :   0.9713 B( 12-C , 14-H ) :   0.9758
B( 12-C , 15-H ) :   0.9746 B( 16-S , 17-C ) :   1.1992 B( 16-S , 20-C ) :   1.1492
B( 17-C , 18-C ) :   1.5589 B( 17-C , 20-C ) :   0.1001 B( 17-C , 33-H ) :   0.9672
B( 18-C , 19-C ) :   1.2699 B( 18-C , 21-H ) :   0.9991 B( 19-C , 20-C ) :   1.5737
B( 19-C , 22-C ) :   1.0341 B( 22-C , 23-H ) :   0.9386 B( 22-C , 24-H ) :   0.9456
B( 22-C , 25-C ) :   1.0440 B( 25-C , 26-H ) :   0.9576 B( 25-C , 27-H ) :   0.9579
B( 25-C , 28-C ) :   1.0755 B( 28-C , 29-H ) :   0.9773 B( 28-C , 30-H ) :   0.9732
B( 28-C , 31-H ) :   0.9745

Dispersion correction           -0.013372010
FINAL SINGLE POINT ENERGY     -1339.861104255535

DIPOLE MOMENT
-------------
                                X             Y             Z
Electronic contribution:     -6.92586      12.58983      25.90251
Nuclear contribution   :      6.82491     -13.09422     -26.18978
                        -----------------------------------------
Total Dipole Moment    :     -0.10096      -0.50440      -0.28727
                        -----------------------------------------
Magnitude (a.u.)       :      0.58918
Magnitude (Debye)      :      1.49758

Rotational constants in cm-1:     0.018491     0.007851     0.006153
Rotational constants in MHz :   554.354051   235.372562   184.475520

                             ****ORCA TERMINATED NORMALLY****
TOTAL RUN TIME: 0 days 0 hours 0 minutes 33 seconds 309 msec
