                         Program Version 4.2.1 -  RELEASE  -
|  1> ! wB97X-D3 SP def2-SVP
|  2> %pal
|  3> nprocs 16
|  4> end
|  5>
|  6> * xyz 0 1
|  7> S 	 -11.2234 	 44.6324 	 40.902
|  8> C 	 -12.5683 	 43.7007 	 40.4466
|  9> C 	 -12.4097 	 42.35 	 40.6609
| 10> C 	 -11.1391 	 42.07 	 41.2877
| 11> C 	 -10.3332 	 43.2399 	 41.4245
| 12> H 	 -10.7892 	 41.1068 	 41.3962
| 13> C 	 -13.3931 	 41.3163 	 40.2727
| 14> H 	 -12.9931 	 40.6172 	 39.5756
| 15> H 	 -14.0888 	 41.7815 	 39.669
| 16> C 	 -14.1936 	 40.7946 	 41.4658
| 17> H 	 -13.5061 	 40.3073 	 42.128
| 18> H 	 -14.7081 	 41.5928 	 41.9296
| 19> C 	 -15.221 	 39.7998 	 40.9096
| 20> H 	 -15.9248 	 40.4526 	 40.2834
| 21> H 	 -14.7345 	 38.9789 	 40.4291
| 22> H 	 -15.8153 	 39.2473 	 41.6219
| 23> S 	 -8.74564 	 42.5043 	 43.5674
| 24> C 	 -7.05609 	 42.9097 	 43.4335
| 25> C 	 -6.78566 	 43.6897 	 42.2829
| 26> C 	 -7.89261 	 43.856 	 41.4325
| 27> C 	 -9.00298 	 43.2257 	 41.9205
| 28> H 	 -5.81974 	 44.0296 	 42.1266
| 29> C 	 -7.82281 	 44.4809 	 40.0564
| 30> H 	 -7.62082 	 45.552 	 40.2181
| 31> H 	 -8.88582 	 44.458 	 39.7081
| 32> C 	 -6.86874 	 43.8207 	 39.0766
| 33> H 	 -7.31583 	 42.8702 	 38.7498
| 34> H 	 -6.06112 	 43.4865 	 39.74
| 35> C 	 -6.0879 	 44.7875 	 38.2017
| 36> H 	 -5.87514 	 45.7113 	 38.7501
| 37> H 	 -6.56066 	 45.0508 	 37.243
| 38> H 	 -5.21658 	 44.2121 	 37.9218
| 39> H 	 -13.4237 	 44.0236 	 39.9053
| 40> H 	 -6.23571 	 42.5994 	 44.2025
| 41> *
| 42>
| 43>                          ****END OF INPUT****

CARTESIAN COORDINATES (ANGSTROEM)
---------------------------------
  S    -11.223400   44.632400   40.902000
  C    -12.568300   43.700700   40.446600
  C    -12.409700   42.350000   40.660900
  C    -11.139100   42.070000   41.287700
  C    -10.333200   43.239900   41.424500
  H    -10.789200   41.106800   41.396200
  C    -13.393100   41.316300   40.272700
  H    -12.993100   40.617200   39.575600
  H    -14.088800   41.781500   39.669000
  C    -14.193600   40.794600   41.465800
  H    -13.506100   40.307300   42.128000
  H    -14.708100   41.592800   41.929600
  C    -15.221000   39.799800   40.909600
  H    -15.924800   40.452600   40.283400
  H    -14.734500   38.978900   40.429100
  H    -15.815300   39.247300   41.621900
  S     -8.745640   42.504300   43.567400
  C     -7.056090   42.909700   43.433500
  C     -6.785660   43.689700   42.282900
  C     -7.892610   43.856000   41.432500
  C     -9.002980   43.225700   41.920500
  H     -5.819740   44.029600   42.126600
  C     -7.822810   44.480900   40.056400
  H     -7.620820   45.552000   40.218100
  H     -8.885820   44.458000   39.708100
  C     -6.868740   43.820700   39.076600
  H     -7.315830   42.870200   38.749800
  H     -6.061120   43.486500   39.740000
  C     -6.087900   44.787500   38.201700
  H     -5.875140   45.711300   38.750100
  H     -6.560660   45.050800   37.243000
  H     -5.216580   44.212100   37.921800
  H    -13.423700   44.023600   39.905300
  H     -6.235710   42.599400   44.202500

 Total Charge           Charge          ....    0
 Multiplicity           Mult            ....    1
 Number of Electrons    NEL             ....  134
 Basis Dimension        Dim             ....  322

ORBITAL ENERGIES
----------------

  NO   OCC          E(Eh)            E(eV)
   0   2.0000     -88.969711     -2420.9889
   1   2.0000     -88.966172     -2420.8926
   2   2.0000     -10.326739      -281.0049
   3   2.0000     -10.325630      -280.9747
   4   2.0000     -10.321307      -280.8570
   5   2.0000     -10.304168      -280.3907
   6   2.0000     -10.296619      -280.1852
   7   2.0000     -10.293819      -280.1091
   8   2.0000     -10.289244      -279.9846
   9   2.0000     -10.289041      -279.9790
  10   2.0000     -10.287184      -279.9285
  11   2.0000     -10.283773      -279.8357
  12   2.0000     -10.280734      -279.7530
  13   2.0000     -10.280243      -279.7396
  14   2.0000     -10.279364      -279.7157
  15   2.0000     -10.277821      -279.6737
  16   2.0000      -8.084786      -219.9982
  17   2.0000      -8.079963      -219.8670
  18   2.0000      -6.043224      -164.4445
  19   2.0000      -6.039096      -164.3322
  20   2.0000      -6.038430      -164.3140
  21   2.0000      -6.035750      -164.2411
  22   2.0000      -6.034742      -164.2137
  23   2.0000      -6.030675      -164.1030
  24   2.0000      -1.006753       -27.3951
  25   2.0000      -0.982518       -26.7357
  26   2.0000      -0.921303       -25.0699
  27   2.0000      -0.910896       -24.7867
  28   2.0000      -0.870643       -23.6914
  29   2.0000      -0.854690       -23.2573
  30   2.0000      -0.849680       -23.1210
  31   2.0000      -0.808222       -21.9928
  32   2.0000      -0.783924       -21.3317
  33   2.0000      -0.769050       -20.9269
  34   2.0000      -0.709735       -19.3129
  35   2.0000      -0.702967       -19.1287
  36   2.0000      -0.692483       -18.8434
  37   2.0000      -0.663766       -18.0620
  38   2.0000      -0.643283       -17.5046
  39   2.0000      -0.618323       -16.8254
  40   2.0000      -0.592376       -16.1194
  41   2.0000      -0.578234       -15.7345
  42   2.0000      -0.567977       -15.4554
  43   2.0000      -0.560156       -15.2426
  44   2.0000      -0.529767       -14.4157
  45   2.0000      -0.523538       -14.2462
  46   2.0000      -0.520391       -14.1606
  47   2.0000      -0.511687       -13.9237
  48   2.0000      -0.505437       -13.7536
  49   2.0000      -0.500097       -13.6083
  50   2.0000      -0.490240       -13.3401
  51   2.0000      -0.479772       -13.0553
  52   2.0000      -0.463683       -12.6175
  53   2.0000      -0.461271       -12.5518
  54   2.0000      -0.455026       -12.3819
  55   2.0000      -0.451251       -12.2792
  56   2.0000      -0.449321       -12.2267
  57   2.0000      -0.441391       -12.0109
  58   2.0000      -0.436102       -11.8669
  59   2.0000      -0.428879       -11.6704
  60   2.0000      -0.420804       -11.4507
  61   2.0000      -0.418219       -11.3803
  62   2.0000      -0.399451       -10.8696
  63   2.0000      -0.343013        -9.3339
  64   2.0000      -0.332846        -9.0572
  65   2.0000      -0.327506        -8.9119
  66   2.0000      -0.286299        -7.7906
  67   0.0000       0.026862         0.7309
  68   0.0000       0.073479         1.9995
  69   0.0000       0.104755         2.8505
  70   0.0000       0.116837         3.1793
  71   0.0000       0.135796         3.6952

MULLIKEN ATOMIC CHARGES
-----------------------
   0 S :    0.141062
   1 C :   -0.100591
   2 C :   -0.118923
   3 C :    0.050521
   4 C :   -0.170348
   5 H :   -0.015662
   6 C :    0.107662
   7 H :    0.023162
   8 H :   -0.033038
   9 C :   -0.038347
  10 H :    0.025490
  11 H :    0.026051
  12 C :   -0.044123
  13 H :    0.038846
  14 H :    0.023477
  15 H :    0.024831
  16 S :    0.113300
  17 C :   -0.131428
  18 C :   -0.025315
  19 C :   -0.034717
  20 C :   -0.156537
  21 H :   -0.009487
  22 C :    0.064651
  23 H :    0.027033
  24 H :    0.028325
  25 C :   -0.065437
  26 H :    0.037728
  27 H :    0.015951
  28 C :   -0.030446
  29 H :    0.038494
  30 H :    0.035150
  31 H :    0.032295
  32 H :    0.029498
  33 H :    0.090872
Sum of atomic charges:    0.0000000

LOEWDIN ATOMIC CHARGES
----------------------
   0 S :    0.451456
   1 C :   -0.217089
   2 C :   -0.057632
   3 C :   -0.049634
   4 C :   -0.205702
   5 H :    0.014963
   6 C :   -0.030571
   7 H :    0.030375
   8 H :    0.017436
   9 C :   -0.022886
  10 H :    0.018952
  11 H :    0.022659
  12 C :   -0.066443
  13 H :    0.033903
  14 H :    0.021479
  15 H :    0.021064
  16 S :    0.387180
  17 C :   -0.200634
  18 C :   -0.067115
  19 C :   -0.057792
  20 C :   -0.180833
  21 H :    0.017036
  22 C :   -0.039666
  23 H :    0.031853
  24 H :    0.021465
  25 C :   -0.048709
  26 H :    0.033274
  27 H :    0.026647
  28 C :   -0.059191
  29 H :    0.029884
  30 H :    0.023614
  31 H :    0.028213
  32 H :    0.022576
  33 H :    0.049869

  Mayer bond orders larger than 0.100000
B(  0-S ,  1-C ) :   1.1509 B(  0-S ,  4-C ) :   1.1555 B(  1-C ,  2-C ) :   1.6013
B(  1-C , 32-H ) :   0.9605 B(  2-C ,  3-C ) :   1.2692 B(  2-C ,  6-C ) :   1.0365
B(  3-C ,  4-C ) :   1.5000 B(  3-C ,  5-H ) :   1.0042 B(  4-C , 20-C ) :   1.0869
B(  6-C ,  7-H ) :   0.9350 B(  6-C ,  8-H ) :   0.9198 B(  6-C ,  9-C ) :   1.0524
B(  9-C , 10-H ) :   0.9607 B(  9-C , 11-H ) :   0.9559 B(  9-C , 12-C ) :   1.0824
B( 12-C , 13-H ) :   0.9749 B( 12-C , 14-H ) :   0.9731 B( 12-C , 15-H ) :   0.9736
B( 16-S , 17-C ) :   1.1567 B( 16-S , 20-C ) :   1.1174 B( 17-C , 18-C ) :   1.5990
B( 17-C , 20-C ) :   0.1033 B( 17-C , 33-H ) :   0.9537 B( 18-C , 19-C ) :   1.2255
B( 18-C , 21-H ) :   0.9995 B( 19-C , 20-C ) :   1.5947 B( 19-C , 22-C ) :   1.0433
B( 22-C , 23-H ) :   0.9275 B( 22-C , 24-H ) :   0.9201 B( 22-C , 25-C ) :   1.0594
B( 25-C , 26-H ) :   0.9505 B( 25-C , 27-H ) :   0.9680 B( 25-C , 28-C ) :   1.0557
B( 28-C , 29-H ) :   0.9730 B( 28-C , 30-H ) :   0.9763 B( 28-C , 31-H ) :   0.9777

Dispersion correction           -0.013680456
FINAL SINGLE POINT ENERGY     -1339.856607012723

DIPOLE MOMENT
-------------
                                X             Y             Z
Electronic contribution:      4.35495       7.56478      14.89235
Nuclear contribution   :     -4.29488      -7.79679     -15.27645
                        -----------------------------------------
Total Dipole Moment    :      0.06006      -0.23202      -0.38410
                        -----------------------------------------
Magnitude (a.u.)       :      0.45274
Magnitude (Debye)      :      1.15078

Rotational constants in cm-1:     0.021460     0.007322     0.006215
Rotational constants in MHz :   643.359160   219.518516   186.327762

                             ****ORCA TERMINATED NORMALLY****
TOTAL RUN TIME: 0 days 0 hours 0 minutes 32 seconds 906 msec
