                         Program Version 4.2.1 -  RELEASE  -
|  1> ! wB97X-D3 SP def2-SVP
|  2> %pal
|  3> nprocs 16
|  4> end
|  5>
|  6> * xyz 0 1
|  7> S 	 -32.6526 	 69.5735 	 100.618
|  8> C 	 -33.0602 	 67.8853 	 100.354
|  9> C 	 -32.6037 	 67.0542 	 101.356
| 10> C 	 -31.9564 	 67.8251 	 102.373
| 11> C 	 -31.7605 	 69.1767 	 102.062
| 12> H 	 -31.5519 	 67.5301 	 103.349
| 13> C 	 -32.8491 	 65.5569 	 101.58
| 14> H 	 -32.3144 	 65.1262 	 102.383
| 15> H 	 -32.5465 	 64.9644 	 100.756
| 16> C 	 -34.3627 	 65.1533 	 101.536
| 17> H 	 -34.8412 	 65.5322 	 100.635
| 18> H 	 -34.3403 	 64.0585 	 101.306
| 19> C 	 -35.1924 	 65.4276 	 102.714
| 20> H 	 -36.0579 	 64.7684 	 102.599
| 21> H 	 -34.5842 	 65.3436 	 103.62
| 22> H 	 -35.4349 	 66.37 	 102.856
| 23> S 	 -32.1007 	 71.4652 	 103.519
| 24> C 	 -30.9878 	 71.8773 	 104.75
| 25> C 	 -29.7921 	 71.2176 	 104.55
| 26> C 	 -29.8459 	 70.2465 	 103.53
| 27> C 	 -31.1173 	 70.1889 	 102.929
| 28> H 	 -28.8808 	 71.4765 	 105.111
| 29> C 	 -28.6743 	 69.4126 	 103.101
| 30> H 	 -28.9409 	 68.3523 	 102.991
| 31> H 	 -27.9653 	 69.5654 	 103.858
| 32> C 	 -27.9032 	 69.8617 	 101.918
| 33> H 	 -26.9153 	 69.4656 	 101.843
| 34> H 	 -27.694 	 70.9269 	 102.079
| 35> C 	 -28.6096 	 69.4687 	 100.58
| 36> H 	 -29.656 	 69.8735 	 100.485
| 37> H 	 -28.672 	 68.3421 	 100.443
| 38> H 	 -28.1177 	 69.9614 	 99.69
| 39> H 	 -33.8465 	 67.5379 	 99.6864
| 40> H 	 -31.2074 	 72.5159 	 105.485
| 41> *
| 42>
| 43>                          ****END OF INPUT****

CARTESIAN COORDINATES (ANGSTROEM)
---------------------------------
  S    -32.652600   69.573500  100.618000
  C    -33.060200   67.885300  100.354000
  C    -32.603700   67.054200  101.356000
  C    -31.956400   67.825100  102.373000
  C    -31.760500   69.176700  102.062000
  H    -31.551900   67.530100  103.349000
  C    -32.849100   65.556900  101.580000
  H    -32.314400   65.126200  102.383000
  H    -32.546500   64.964400  100.756000
  C    -34.362700   65.153300  101.536000
  H    -34.841200   65.532200  100.635000
  H    -34.340300   64.058500  101.306000
  C    -35.192400   65.427600  102.714000
  H    -36.057900   64.768400  102.599000
  H    -34.584200   65.343600  103.620000
  H    -35.434900   66.370000  102.856000
  S    -32.100700   71.465200  103.519000
  C    -30.987800   71.877300  104.750000
  C    -29.792100   71.217600  104.550000
  C    -29.845900   70.246500  103.530000
  C    -31.117300   70.188900  102.929000
  H    -28.880800   71.476500  105.111000
  C    -28.674300   69.412600  103.101000
  H    -28.940900   68.352300  102.991000
  H    -27.965300   69.565400  103.858000
  C    -27.903200   69.861700  101.918000
  H    -26.915300   69.465600  101.843000
  H    -27.694000   70.926900  102.079000
  C    -28.609600   69.468700  100.580000
  H    -29.656000   69.873500  100.485000
  H    -28.672000   68.342100  100.443000
  H    -28.117700   69.961400   99.690000
  H    -33.846500   67.537900   99.686400
  H    -31.207400   72.515900  105.485000

 Total Charge           Charge          ....    0
 Multiplicity           Mult            ....    1
 Number of Electrons    NEL             ....  134
 Basis Dimension        Dim             ....  322

ORBITAL ENERGIES
----------------

  NO   OCC          E(Eh)            E(eV)
   0   2.0000     -88.968870     -2420.9660
   1   2.0000     -88.965317     -2420.8693
   2   2.0000     -10.331188      -281.1259
   3   2.0000     -10.325626      -280.9746
   4   2.0000     -10.314040      -280.6593
   5   2.0000     -10.309176      -280.5270
   6   2.0000     -10.305428      -280.4250
   7   2.0000     -10.302345      -280.3411
   8   2.0000     -10.295600      -280.1575
   9   2.0000     -10.294675      -280.1323
  10   2.0000     -10.289546      -279.9928
  11   2.0000     -10.286149      -279.9003
  12   2.0000     -10.280351      -279.7426
  13   2.0000     -10.278974      -279.7051
  14   2.0000     -10.278866      -279.7022
  15   2.0000     -10.260639      -279.2062
  16   2.0000      -8.083049      -219.9509
  17   2.0000      -8.081642      -219.9127
  18   2.0000      -6.041541      -164.3987
  19   2.0000      -6.039882      -164.3536
  20   2.0000      -6.037626      -164.2922
  21   2.0000      -6.035814      -164.2428
  22   2.0000      -6.033871      -164.1900
  23   2.0000      -6.032694      -164.1579
  24   2.0000      -1.011821       -27.5331
  25   2.0000      -0.987909       -26.8824
  26   2.0000      -0.915934       -24.9238
  27   2.0000      -0.915080       -24.9006
  28   2.0000      -0.870975       -23.7004
  29   2.0000      -0.850152       -23.1338
  30   2.0000      -0.845848       -23.0167
  31   2.0000      -0.813281       -22.1305
  32   2.0000      -0.790645       -21.5146
  33   2.0000      -0.774299       -21.0698
  34   2.0000      -0.707443       -19.2505
  35   2.0000      -0.699422       -19.0322
  36   2.0000      -0.695382       -18.9223
  37   2.0000      -0.663851       -18.0643
  38   2.0000      -0.641220       -17.4485
  39   2.0000      -0.612697       -16.6723
  40   2.0000      -0.601546       -16.3689
  41   2.0000      -0.578495       -15.7416
  42   2.0000      -0.552804       -15.0426
  43   2.0000      -0.552053       -15.0221
  44   2.0000      -0.548845       -14.9348
  45   2.0000      -0.540795       -14.7158
  46   2.0000      -0.515655       -14.0317
  47   2.0000      -0.513273       -13.9669
  48   2.0000      -0.505240       -13.7483
  49   2.0000      -0.497833       -13.5467
  50   2.0000      -0.494233       -13.4488
  51   2.0000      -0.478563       -13.0224
  52   2.0000      -0.477936       -13.0053
  53   2.0000      -0.466689       -12.6993
  54   2.0000      -0.462006       -12.5718
  55   2.0000      -0.442644       -12.0450
  56   2.0000      -0.438354       -11.9282
  57   2.0000      -0.434811       -11.8318
  58   2.0000      -0.428284       -11.6542
  59   2.0000      -0.426637       -11.6094
  60   2.0000      -0.419953       -11.4275
  61   2.0000      -0.409775       -11.1505
  62   2.0000      -0.403440       -10.9782
  63   2.0000      -0.342504        -9.3200
  64   2.0000      -0.331257        -9.0140
  65   2.0000      -0.328363        -8.9352
  66   2.0000      -0.292984        -7.9725
  67   0.0000       0.030469         0.8291
  68   0.0000       0.060715         1.6521
  69   0.0000       0.111021         3.0210
  70   0.0000       0.122713         3.3392
  71   0.0000       0.134173         3.6510

MULLIKEN ATOMIC CHARGES
-----------------------
   0 S :    0.110633
   1 C :   -0.120913
   2 C :   -0.061293
   3 C :    0.018230
   4 C :   -0.174771
   5 H :    0.017772
   6 C :    0.112654
   7 H :    0.013649
   8 H :    0.017466
   9 C :   -0.138037
  10 H :    0.016189
  11 H :    0.022401
  12 C :    0.056638
  13 H :    0.041468
  14 H :    0.008926
  15 H :   -0.006858
  16 S :    0.123097
  17 C :   -0.049012
  18 C :   -0.037737
  19 C :   -0.055620
  20 C :   -0.164028
  21 H :    0.026780
  22 C :    0.124765
  23 H :    0.027166
  24 H :   -0.011107
  25 C :   -0.039179
  26 H :    0.022720
  27 H :    0.015351
  28 C :   -0.098776
  29 H :    0.038338
  30 H :    0.046316
  31 H :    0.035570
  32 H :    0.051773
  33 H :    0.009427
Sum of atomic charges:   -0.0000000

LOEWDIN ATOMIC CHARGES
----------------------
   0 S :    0.408982
   1 C :   -0.202503
   2 C :   -0.058887
   3 C :   -0.067543
   4 C :   -0.198477
   5 H :    0.032701
   6 C :   -0.025404
   7 H :    0.025114
   8 H :    0.033641
   9 C :   -0.039221
  10 H :    0.019453
  11 H :    0.025082
  12 C :   -0.058621
  13 H :    0.036162
  14 H :    0.030764
  15 H :    0.006285
  16 S :    0.446828
  17 C :   -0.174850
  18 C :   -0.072547
  19 C :   -0.053859
  20 C :   -0.216298
  21 H :    0.036069
  22 C :   -0.031482
  23 H :    0.032698
  24 H :    0.024260
  25 C :   -0.039760
  26 H :    0.021711
  27 H :    0.025390
  28 C :   -0.081691
  29 H :    0.023238
  30 H :    0.032477
  31 H :    0.028120
  32 H :    0.029018
  33 H :    0.003149

  Mayer bond orders larger than 0.100000
B(  0-S ,  1-C ) :   1.1390 B(  0-S ,  4-C ) :   1.1533 B(  1-C ,  2-C ) :   1.6159
B(  1-C , 32-H ) :   0.9600 B(  2-C ,  3-C ) :   1.2333 B(  2-C ,  6-C ) :   1.0226
B(  3-C ,  4-C ) :   1.5866 B(  3-C ,  5-H ) :   0.9885 B(  4-C , 20-C ) :   1.0118
B(  6-C ,  7-H ) :   0.9474 B(  6-C ,  8-H ) :   0.9302 B(  6-C ,  9-C ) :   1.0760
B(  9-C , 10-H ) :   0.9511 B(  9-C , 11-H ) :   0.9596 B(  9-C , 12-C ) :   1.0767
B( 12-C , 13-H ) :   0.9705 B( 12-C , 14-H ) :   0.9642 B( 12-C , 15-H ) :   0.9659
B( 16-S , 17-C ) :   1.1918 B( 16-S , 20-C ) :   1.1718 B( 17-C , 18-C ) :   1.5416
B( 17-C , 20-C ) :   0.1059 B( 17-C , 33-H ) :   0.9898 B( 18-C , 19-C ) :   1.2988
B( 18-C , 21-H ) :   0.9868 B( 19-C , 20-C ) :   1.5379 B( 19-C , 22-C ) :   1.0536
B( 22-C , 23-H ) :   0.9294 B( 22-C , 24-H ) :   0.9096 B( 22-C , 25-C ) :   1.0886
B( 25-C , 26-H ) :   0.9531 B( 25-C , 27-H ) :   0.9453 B( 25-C , 28-C ) :   1.0732
B( 28-C , 29-H ) :   0.9699 B( 28-C , 30-H ) :   0.9735 B( 28-C , 31-H ) :   0.9725

Dispersion correction           -0.015299752
FINAL SINGLE POINT ENERGY     -1339.845779966025

DIPOLE MOMENT
-------------
                                X             Y             Z
Electronic contribution:     -4.82628      19.33972       2.16206
Nuclear contribution   :      4.97213     -19.73670      -1.83994
                        -----------------------------------------
Total Dipole Moment    :      0.14586      -0.39698       0.32212
                        -----------------------------------------
Magnitude (a.u.)       :      0.53163
Magnitude (Debye)      :      1.35130

Rotational constants in cm-1:     0.021136     0.008396     0.007490
Rotational constants in MHz :   633.638368   251.701551   224.555136

                             ****ORCA TERMINATED NORMALLY****
TOTAL RUN TIME: 0 days 0 hours 0 minutes 30 seconds 674 msec
