                         Program Version 4.2.1 -  RELEASE  -
|  1> ! wB97X-D3 SP def2-SVP
|  2> %pal
|  3> nprocs 16
|  4> end
|  5>
|  6> * xyz 0 1
|  7> S 	 -15.3419 	 32.3409 	 35.3081
|  8> C 	 -14.1875 	 32.7564 	 34.0412
|  9> C 	 -14.6948 	 33.864 	 33.2973
| 10> C 	 -15.976 	 34.306 	 33.7876
| 11> C 	 -16.4949 	 33.6368 	 34.8907
| 12> H 	 -16.5796 	 35.005 	 33.1892
| 13> C 	 -14.0911 	 34.3475 	 31.9925
| 14> H 	 -13.0033 	 34.2029 	 31.9761
| 15> H 	 -14.2511 	 35.4315 	 31.9144
| 16> C 	 -14.714 	 33.6317 	 30.7692
| 17> H 	 -14.6747 	 32.5134 	 30.7397
| 18> H 	 -15.8067 	 33.721 	 30.8307
| 19> C 	 -14.1617 	 34.1883 	 29.3918
| 20> H 	 -14.5403 	 35.2034 	 29.1981
| 21> H 	 -13.0539 	 34.2186 	 29.3525
| 22> H 	 -14.6251 	 33.574 	 28.5892
| 23> S 	 -18.2959 	 35.3656 	 36.1289
| 24> C 	 -19.905 	 34.8112 	 36.5974
| 25> C 	 -20.0116 	 33.5084 	 36.1612
| 26> C 	 -18.9134 	 32.9213 	 35.4408
| 27> C 	 -17.8531 	 33.7793 	 35.4276
| 28> H 	 -20.9135 	 33.067 	 36.4273
| 29> C 	 -19.0426 	 31.5209 	 34.8225
| 30> H 	 -19.3803 	 30.7224 	 35.5185
| 31> H 	 -18.0292 	 31.2074 	 34.5896
| 32> C 	 -19.9525 	 31.3653 	 33.5669
| 33> H 	 -20.8674 	 31.7734 	 33.7446
| 34> H 	 -20.1687 	 30.3239 	 33.3654
| 35> C 	 -19.2316 	 31.956 	 32.3378
| 36> H 	 -19.5987 	 31.6441 	 31.3283
| 37> H 	 -18.1886 	 31.6024 	 32.3166
| 38> H 	 -19.1342 	 33.0288 	 32.3618
| 39> H 	 -13.2624 	 32.2504 	 33.8147
| 40> H 	 -20.606 	 35.44 	 37.1901
| 41> *
| 42>
| 43>                          ****END OF INPUT****

CARTESIAN COORDINATES (ANGSTROEM)
---------------------------------
  S    -15.341900   32.340900   35.308100
  C    -14.187500   32.756400   34.041200
  C    -14.694800   33.864000   33.297300
  C    -15.976000   34.306000   33.787600
  C    -16.494900   33.636800   34.890700
  H    -16.579600   35.005000   33.189200
  C    -14.091100   34.347500   31.992500
  H    -13.003300   34.202900   31.976100
  H    -14.251100   35.431500   31.914400
  C    -14.714000   33.631700   30.769200
  H    -14.674700   32.513400   30.739700
  H    -15.806700   33.721000   30.830700
  C    -14.161700   34.188300   29.391800
  H    -14.540300   35.203400   29.198100
  H    -13.053900   34.218600   29.352500
  H    -14.625100   33.574000   28.589200
  S    -18.295900   35.365600   36.128900
  C    -19.905000   34.811200   36.597400
  C    -20.011600   33.508400   36.161200
  C    -18.913400   32.921300   35.440800
  C    -17.853100   33.779300   35.427600
  H    -20.913500   33.067000   36.427300
  C    -19.042600   31.520900   34.822500
  H    -19.380300   30.722400   35.518500
  H    -18.029200   31.207400   34.589600
  C    -19.952500   31.365300   33.566900
  H    -20.867400   31.773400   33.744600
  H    -20.168700   30.323900   33.365400
  C    -19.231600   31.956000   32.337800
  H    -19.598700   31.644100   31.328300
  H    -18.188600   31.602400   32.316600
  H    -19.134200   33.028800   32.361800
  H    -13.262400   32.250400   33.814700
  H    -20.606000   35.440000   37.190100

 Total Charge           Charge          ....    0
 Multiplicity           Mult            ....    1
 Number of Electrons    NEL             ....  134
 Basis Dimension        Dim             ....  322

ORBITAL ENERGIES
----------------

  NO   OCC          E(Eh)            E(eV)
   0   2.0000     -88.971048     -2421.0253
   1   2.0000     -88.962068     -2420.7809
   2   2.0000     -10.336379      -281.2672
   3   2.0000     -10.333795      -281.1969
   4   2.0000     -10.323436      -280.9150
   5   2.0000     -10.322752      -280.8964
   6   2.0000     -10.308612      -280.5116
   7   2.0000     -10.307934      -280.4931
   8   2.0000     -10.299742      -280.2702
   9   2.0000     -10.298188      -280.2279
  10   2.0000     -10.295452      -280.1535
  11   2.0000     -10.295045      -280.1424
  12   2.0000     -10.290336      -280.0143
  13   2.0000     -10.288141      -279.9546
  14   2.0000     -10.281396      -279.7710
  15   2.0000     -10.274853      -279.5930
  16   2.0000      -8.084150      -219.9809
  17   2.0000      -8.076277      -219.7667
  18   2.0000      -6.042753      -164.4317
  19   2.0000      -6.038714      -164.3218
  20   2.0000      -6.035041      -164.2218
  21   2.0000      -6.034881      -164.2175
  22   2.0000      -6.030810      -164.1067
  23   2.0000      -6.026990      -164.0027
  24   2.0000      -1.000922       -27.2365
  25   2.0000      -0.978674       -26.6311
  26   2.0000      -0.905766       -24.6471
  27   2.0000      -0.904026       -24.5998
  28   2.0000      -0.867190       -23.5974
  29   2.0000      -0.845382       -23.0040
  30   2.0000      -0.840622       -22.8745
  31   2.0000      -0.812424       -22.1072
  32   2.0000      -0.778531       -21.1849
  33   2.0000      -0.769532       -20.9400
  34   2.0000      -0.711620       -19.3642
  35   2.0000      -0.702371       -19.1125
  36   2.0000      -0.697912       -18.9912
  37   2.0000      -0.662615       -18.0307
  38   2.0000      -0.637330       -17.3426
  39   2.0000      -0.620149       -16.8751
  40   2.0000      -0.598067       -16.2742
  41   2.0000      -0.566969       -15.4280
  42   2.0000      -0.551320       -15.0022
  43   2.0000      -0.549365       -14.9490
  44   2.0000      -0.539143       -14.6708
  45   2.0000      -0.525962       -14.3121
  46   2.0000      -0.518034       -14.0964
  47   2.0000      -0.513305       -13.9677
  48   2.0000      -0.505188       -13.7469
  49   2.0000      -0.494513       -13.4564
  50   2.0000      -0.489921       -13.3314
  51   2.0000      -0.477866       -13.0034
  52   2.0000      -0.466678       -12.6989
  53   2.0000      -0.462821       -12.5940
  54   2.0000      -0.455888       -12.4053
  55   2.0000      -0.447119       -12.1667
  56   2.0000      -0.442405       -12.0384
  57   2.0000      -0.438683       -11.9372
  58   2.0000      -0.430734       -11.7209
  59   2.0000      -0.422223       -11.4893
  60   2.0000      -0.420191       -11.4340
  61   2.0000      -0.415231       -11.2990
  62   2.0000      -0.410748       -11.1770
  63   2.0000      -0.345932        -9.4133
  64   2.0000      -0.329878        -8.9764
  65   2.0000      -0.326366        -8.8809
  66   2.0000      -0.299899        -8.1607
  67   0.0000       0.029328         0.7981
  68   0.0000       0.061922         1.6850
  69   0.0000       0.107411         2.9228
  70   0.0000       0.117426         3.1953
  71   0.0000       0.129056         3.5118

MULLIKEN ATOMIC CHARGES
-----------------------
   0 S :    0.110164
   1 C :   -0.117942
   2 C :   -0.105174
   3 C :    0.031999
   4 C :   -0.146303
   5 H :    0.026194
   6 C :    0.062274
   7 H :    0.026874
   8 H :    0.033444
   9 C :   -0.100629
  10 H :    0.033507
  11 H :    0.022544
  12 C :   -0.059905
  13 H :    0.033004
  14 H :    0.044692
  15 H :    0.041425
  16 S :    0.089514
  17 C :   -0.116102
  18 C :   -0.016904
  19 C :    0.014181
  20 C :   -0.177779
  21 H :   -0.006045
  22 C :    0.043317
  23 H :    0.037355
  24 H :    0.008693
  25 C :    0.001921
  26 H :    0.006508
  27 H :    0.023749
  28 C :   -0.072080
  29 H :    0.033253
  30 H :    0.023004
  31 H :    0.034822
  32 H :    0.054989
  33 H :    0.081437
Sum of atomic charges:    0.0000000

LOEWDIN ATOMIC CHARGES
----------------------
   0 S :    0.400454
   1 C :   -0.193772
   2 C :   -0.062720
   3 C :   -0.062487
   4 C :   -0.192368
   5 H :    0.033821
   6 C :   -0.035026
   7 H :    0.030303
   8 H :    0.033938
   9 C :   -0.047755
  10 H :    0.028036
  11 H :    0.023339
  12 C :   -0.071308
  13 H :    0.024684
  14 H :    0.027647
  15 H :    0.031603
  16 S :    0.379281
  17 C :   -0.182168
  18 C :   -0.065171
  19 C :   -0.055481
  20 C :   -0.180012
  21 H :    0.018235
  22 C :   -0.029135
  23 H :    0.037131
  24 H :    0.020305
  25 C :   -0.026050
  26 H :    0.009303
  27 H :    0.027195
  28 C :   -0.070960
  29 H :    0.026785
  30 H :    0.026569
  31 H :    0.022356
  32 H :    0.030821
  33 H :    0.042605

  Mayer bond orders larger than 0.100000
B(  0-S ,  1-C ) :   1.1522 B(  0-S ,  4-C ) :   1.1387 B(  1-C ,  2-C ) :   1.5712
B(  1-C ,  4-C ) :   0.1023 B(  1-C , 32-H ) :   0.9714 B(  2-C ,  3-C ) :   1.2740
B(  2-C ,  6-C ) :   1.0432 B(  3-C ,  4-C ) :   1.5608 B(  3-C ,  5-H ) :   0.9817
B(  4-C , 20-C ) :   1.0263 B(  6-C ,  7-H ) :   0.9421 B(  6-C ,  8-H ) :   0.9410
B(  6-C ,  9-C ) :   1.0480 B(  9-C , 10-H ) :   0.9597 B(  9-C , 11-H ) :   0.9553
B(  9-C , 12-C ) :   1.0696 B( 12-C , 13-H ) :   0.9768 B( 12-C , 14-H ) :   0.9772
B( 12-C , 15-H ) :   0.9750 B( 16-S , 17-C ) :   1.1353 B( 16-S , 20-C ) :   1.1391
B( 17-C , 18-C ) :   1.6238 B( 17-C , 33-H ) :   0.9660 B( 18-C , 19-C ) :   1.1973
B( 18-C , 21-H ) :   1.0002 B( 19-C , 20-C ) :   1.6135 B( 19-C , 22-C ) :   1.0375
B( 22-C , 23-H ) :   0.9397 B( 22-C , 24-H ) :   0.9314 B( 22-C , 25-C ) :   1.0750
B( 25-C , 26-H ) :   0.9571 B( 25-C , 27-H ) :   0.9537 B( 25-C , 28-C ) :   1.0652
B( 28-C , 29-H ) :   0.9759 B( 28-C , 30-H ) :   0.9749 B( 28-C , 31-H ) :   0.9796

Dispersion correction           -0.015184902
FINAL SINGLE POINT ENERGY     -1339.879781341338

DIPOLE MOMENT
-------------
                                X             Y             Z
Electronic contribution:      0.16532       6.40051      26.39535
Nuclear contribution   :     -0.39330      -6.62458     -26.94177
                        -----------------------------------------
Total Dipole Moment    :     -0.22799      -0.22407      -0.54642
                        -----------------------------------------
Magnitude (a.u.)       :      0.63306
Magnitude (Debye)      :      1.60911

Rotational constants in cm-1:     0.019169     0.008256     0.007423
Rotational constants in MHz :   574.671258   247.498109   222.528487

                             ****ORCA TERMINATED NORMALLY****
TOTAL RUN TIME: 0 days 0 hours 0 minutes 32 seconds 752 msec
