                         Program Version 4.2.1 -  RELEASE  -
|  1> ! wB97X-D3 SP def2-SVP
|  2> %pal
|  3> nprocs 16
|  4> end
|  5>
|  6> * xyz 0 1
|  7> S 	 -0.521985 	 -17.1797 	 84.1737
|  8> C 	 -0.949274 	 -17.7063 	 82.591
|  9> C 	 -0.647666 	 -16.7207 	 81.6039
| 10> C 	 -0.148685 	 -15.5434 	 82.2031
| 11> C 	 -0.306679 	 -15.5086 	 83.5968
| 12> H 	 0.139633 	 -14.5911 	 81.7087
| 13> C 	 -0.614213 	 -17.0152 	 80.0744
| 14> H 	 -1.4593 	 -16.5338 	 79.748
| 15> H 	 -0.762344 	 -18.1181 	 79.8661
| 16> C 	 0.517433 	 -16.4159 	 79.2076
| 17> H 	 0.514249 	 -16.7149 	 78.1724
| 18> H 	 0.580481 	 -15.2971 	 79.2665
| 19> C 	 1.8781 	 -16.8534 	 79.6592
| 20> H 	 1.9381 	 -17.8917 	 79.8967
| 21> H 	 2.65266 	 -16.6499 	 78.8278
| 22> H 	 2.13417 	 -16.2936 	 80.5103
| 23> S 	 0.34405 	 -14.8718 	 86.2145
| 24> C 	 -0.100075 	 -13.3424 	 86.8643
| 25> C 	 -0.486382 	 -12.4978 	 85.825
| 26> C 	 -0.222098 	 -13.0191 	 84.488
| 27> C 	 -0.101055 	 -14.4254 	 84.5467
| 28> H 	 -0.781098 	 -11.4778 	 86.1329
| 29> C 	 -0.514277 	 -12.2044 	 83.2159
| 30> H 	 -1.56128 	 -11.8449 	 83.2582
| 31> H 	 -0.471858 	 -12.7292 	 82.2641
| 32> C 	 0.452341 	 -11.0086 	 83.1483
| 33> H 	 0.297614 	 -10.4779 	 84.044
| 34> H 	 0.171906 	 -10.2986 	 82.3201
| 35> C 	 1.9374 	 -11.4048 	 83.0079
| 36> H 	 2.42933 	 -11.9132 	 83.8157
| 37> H 	 2.5434 	 -10.5165 	 82.6961
| 38> H 	 2.17408 	 -12.1256 	 82.1763
| 39> H 	 -1.20769 	 -18.7394 	 82.3767
| 40> H 	 -0.0823147 	 -13.2473 	 87.9553
| 41> *
| 42>
| 43>                          ****END OF INPUT****

CARTESIAN COORDINATES (ANGSTROEM)
---------------------------------
  S     -0.521985  -17.179700   84.173700
  C     -0.949274  -17.706300   82.591000
  C     -0.647666  -16.720700   81.603900
  C     -0.148685  -15.543400   82.203100
  C     -0.306679  -15.508600   83.596800
  H      0.139633  -14.591100   81.708700
  C     -0.614213  -17.015200   80.074400
  H     -1.459300  -16.533800   79.748000
  H     -0.762344  -18.118100   79.866100
  C      0.517433  -16.415900   79.207600
  H      0.514249  -16.714900   78.172400
  H      0.580481  -15.297100   79.266500
  C      1.878100  -16.853400   79.659200
  H      1.938100  -17.891700   79.896700
  H      2.652660  -16.649900   78.827800
  H      2.134170  -16.293600   80.510300
  S      0.344050  -14.871800   86.214500
  C     -0.100075  -13.342400   86.864300
  C     -0.486382  -12.497800   85.825000
  C     -0.222098  -13.019100   84.488000
  C     -0.101055  -14.425400   84.546700
  H     -0.781098  -11.477800   86.132900
  C     -0.514277  -12.204400   83.215900
  H     -1.561280  -11.844900   83.258200
  H     -0.471858  -12.729200   82.264100
  C      0.452341  -11.008600   83.148300
  H      0.297614  -10.477900   84.044000
  H      0.171906  -10.298600   82.320100
  C      1.937400  -11.404800   83.007900
  H      2.429330  -11.913200   83.815700
  H      2.543400  -10.516500   82.696100
  H      2.174080  -12.125600   82.176300
  H     -1.207690  -18.739400   82.376700
  H     -0.082315  -13.247300   87.955300

 Total Charge           Charge          ....    0
 Multiplicity           Mult            ....    1
 Number of Electrons    NEL             ....  134
 Basis Dimension        Dim             ....  322

ORBITAL ENERGIES
----------------

  NO   OCC          E(Eh)            E(eV)
   0   2.0000     -88.969115     -2420.9727
   1   2.0000     -88.960453     -2420.7370
   2   2.0000     -10.336299      -281.2650
   3   2.0000     -10.335894      -281.2540
   4   2.0000     -10.320893      -280.8458
   5   2.0000     -10.317433      -280.7516
   6   2.0000     -10.316282      -280.7203
   7   2.0000     -10.310678      -280.5678
   8   2.0000     -10.304800      -280.4079
   9   2.0000     -10.300915      -280.3021
  10   2.0000     -10.297687      -280.2143
  11   2.0000     -10.295328      -280.1501
  12   2.0000     -10.290162      -280.0096
  13   2.0000     -10.288303      -279.9590
  14   2.0000     -10.280467      -279.7457
  15   2.0000     -10.267993      -279.4063
  16   2.0000      -8.083609      -219.9662
  17   2.0000      -8.075862      -219.7554
  18   2.0000      -6.042068      -164.4130
  19   2.0000      -6.038294      -164.3103
  20   2.0000      -6.034420      -164.2049
  21   2.0000      -6.034288      -164.2013
  22   2.0000      -6.030234      -164.0910
  23   2.0000      -6.026594      -163.9920
  24   2.0000      -1.004943       -27.3459
  25   2.0000      -0.982733       -26.7415
  26   2.0000      -0.911962       -24.8157
  27   2.0000      -0.908919       -24.7329
  28   2.0000      -0.868572       -23.6350
  29   2.0000      -0.851685       -23.1755
  30   2.0000      -0.839332       -22.8394
  31   2.0000      -0.812944       -22.1213
  32   2.0000      -0.784671       -21.3520
  33   2.0000      -0.773225       -21.0405
  34   2.0000      -0.707825       -19.2609
  35   2.0000      -0.696850       -18.9623
  36   2.0000      -0.689779       -18.7698
  37   2.0000      -0.654398       -17.8071
  38   2.0000      -0.636561       -17.3217
  39   2.0000      -0.624736       -16.9999
  40   2.0000      -0.603313       -16.4170
  41   2.0000      -0.564274       -15.3547
  42   2.0000      -0.551438       -15.0054
  43   2.0000      -0.550942       -14.9919
  44   2.0000      -0.547000       -14.8846
  45   2.0000      -0.539677       -14.6854
  46   2.0000      -0.519591       -14.1388
  47   2.0000      -0.512455       -13.9446
  48   2.0000      -0.498863       -13.5747
  49   2.0000      -0.491845       -13.3838
  50   2.0000      -0.489765       -13.3272
  51   2.0000      -0.482767       -13.1368
  52   2.0000      -0.468834       -12.7576
  53   2.0000      -0.466793       -12.7021
  54   2.0000      -0.461635       -12.5617
  55   2.0000      -0.445677       -12.1275
  56   2.0000      -0.439093       -11.9483
  57   2.0000      -0.434099       -11.8124
  58   2.0000      -0.430478       -11.7139
  59   2.0000      -0.425278       -11.5724
  60   2.0000      -0.419132       -11.4052
  61   2.0000      -0.417668       -11.3653
  62   2.0000      -0.408788       -11.1237
  63   2.0000      -0.359085        -9.7712
  64   2.0000      -0.333368        -9.0714
  65   2.0000      -0.325541        -8.8584
  66   2.0000      -0.275574        -7.4988
  67   0.0000       0.008165         0.2222
  68   0.0000       0.073582         2.0023
  69   0.0000       0.097114         2.6426
  70   0.0000       0.119870         3.2618
  71   0.0000       0.127866         3.4794

MULLIKEN ATOMIC CHARGES
-----------------------
   0 S :    0.113744
   1 C :   -0.116804
   2 C :   -0.102688
   3 C :   -0.000803
   4 C :   -0.132095
   5 H :    0.027020
   6 C :    0.108785
   7 H :    0.017176
   8 H :    0.035530
   9 C :   -0.094285
  10 H :    0.032675
  11 H :    0.033096
  12 C :   -0.051981
  13 H :    0.023524
  14 H :    0.035794
  15 H :    0.023794
  16 S :    0.073495
  17 C :   -0.100501
  18 C :   -0.048383
  19 C :   -0.041619
  20 C :   -0.132305
  21 H :    0.039939
  22 C :    0.044777
  23 H :    0.042714
  24 H :    0.016136
  25 C :   -0.057481
  26 H :    0.018158
  27 H :    0.037051
  28 C :   -0.079711
  29 H :    0.045774
  30 H :    0.038830
  31 H :    0.020902
  32 H :    0.053882
  33 H :    0.075860
Sum of atomic charges:   -0.0000000

LOEWDIN ATOMIC CHARGES
----------------------
   0 S :    0.412811
   1 C :   -0.207618
   2 C :   -0.058988
   3 C :   -0.071831
   4 C :   -0.179318
   5 H :    0.033173
   6 C :   -0.027102
   7 H :    0.022713
   8 H :    0.037783
   9 C :   -0.045795
  10 H :    0.027313
  11 H :    0.028900
  12 C :   -0.064844
  13 H :    0.018194
  14 H :    0.032661
  15 H :    0.015682
  16 S :    0.387876
  17 C :   -0.193304
  18 C :   -0.075958
  19 C :   -0.054534
  20 C :   -0.179690
  21 H :    0.035341
  22 C :   -0.031809
  23 H :    0.037943
  24 H :    0.023242
  25 C :   -0.038994
  26 H :    0.016219
  27 H :    0.031113
  28 C :   -0.078187
  29 H :    0.025788
  30 H :    0.032346
  31 H :    0.027044
  32 H :    0.027368
  33 H :    0.034463

  Mayer bond orders larger than 0.100000
B(  0-S ,  1-C ) :   1.1623 B(  0-S ,  4-C ) :   1.1568 B(  1-C ,  2-C ) :   1.5601
B(  1-C ,  4-C ) :   0.1112 B(  1-C , 32-H ) :   0.9691 B(  2-C ,  3-C ) :   1.2869
B(  2-C ,  6-C ) :   0.9980 B(  3-C ,  4-C ) :   1.5243 B(  3-C ,  5-H ) :   0.9757
B(  4-C , 20-C ) :   1.1186 B(  6-C ,  7-H ) :   0.9246 B(  6-C ,  8-H ) :   0.9490
B(  6-C ,  9-C ) :   1.0834 B(  9-C , 10-H ) :   0.9582 B(  9-C , 11-H ) :   0.9506
B(  9-C , 12-C ) :   1.0792 B( 12-C , 13-H ) :   0.9749 B( 12-C , 14-H ) :   0.9759
B( 12-C , 15-H ) :   0.9749 B( 16-S , 17-C ) :   1.1530 B( 16-S , 20-C ) :   1.1377
B( 17-C , 18-C ) :   1.6043 B( 17-C , 33-H ) :   0.9707 B( 18-C , 19-C ) :   1.2189
B( 18-C , 21-H ) :   0.9816 B( 19-C , 20-C ) :   1.5485 B( 19-C , 22-C ) :   1.0362
B( 22-C , 23-H ) :   0.9394 B( 22-C , 24-H ) :   0.9499 B( 22-C , 25-C ) :   1.0652
B( 25-C , 26-H ) :   0.9567 B( 25-C , 27-H ) :   0.9571 B( 25-C , 28-C ) :   1.0662
B( 28-C , 29-H ) :   0.9737 B( 28-C , 30-H ) :   0.9750 B( 28-C , 31-H ) :   0.9745

Dispersion correction           -0.014571420
FINAL SINGLE POINT ENERGY     -1339.850170014794

DIPOLE MOMENT
-------------
                                X             Y             Z
Electronic contribution:     -7.94458     -11.66653      24.03434
Nuclear contribution   :      7.87892      12.02233     -24.50030
                        -----------------------------------------
Total Dipole Moment    :     -0.06566       0.35579      -0.46596
                        -----------------------------------------
Magnitude (a.u.)       :      0.58993
Magnitude (Debye)      :      1.49948

Rotational constants in cm-1:     0.018568     0.009399     0.006909
Rotational constants in MHz :   556.657694   281.774862   207.116019

                             ****ORCA TERMINATED NORMALLY****
TOTAL RUN TIME: 0 days 0 hours 0 minutes 32 seconds 495 msec
