                         Program Version 4.2.1 -  RELEASE  -
|  1> ! wB97X-D3 SP def2-SVP
|  2> %pal
|  3> nprocs 16
|  4> end
|  5>
|  6> * xyz 0 1
|  7> S 	 38.3605 	 27.8249 	 94.9888
|  8> C 	 39.6334 	 28.9483 	 95.3353
|  9> C 	 40.6331 	 28.3458 	 96.1642
| 10> C 	 40.3943 	 26.9524 	 96.3001
| 11> C 	 39.2988 	 26.482 	 95.5881
| 12> H 	 41.0213 	 26.2676 	 96.8844
| 13> C 	 41.9641 	 28.9313 	 96.7383
| 14> H 	 42.682 	 28.0902 	 96.8575
| 15> H 	 41.8045 	 29.5264 	 97.6776
| 16> C 	 42.7694 	 29.8025 	 95.7459
| 17> H 	 42.0175 	 30.4608 	 95.2633
| 18> H 	 43.4595 	 30.3739 	 96.3489
| 19> C 	 43.5458 	 28.9946 	 94.7713
| 20> H 	 44.1535 	 28.168 	 95.1212
| 21> H 	 42.9861 	 28.5438 	 93.96
| 22> H 	 44.1173 	 29.6697 	 94.16
| 23> S 	 37.1339 	 24.7208 	 95.7454
| 24> C 	 37.4585 	 23.0172 	 95.7374
| 25> C 	 38.7491 	 22.712 	 95.5198
| 26> C 	 39.5184 	 23.8828 	 95.4146
| 27> C 	 38.8647 	 25.1023 	 95.5428
| 28> H 	 39.1662 	 21.6967 	 95.4773
| 29> C 	 40.9694 	 23.8674 	 95.0389
| 30> H 	 41.4626 	 23.0762 	 95.4629
| 31> H 	 41.6046 	 24.761 	 95.3689
| 32> C 	 41.22 	 23.881 	 93.6076
| 33> H 	 42.2781 	 23.7237 	 93.3071
| 34> H 	 40.7322 	 24.779 	 93.214
| 35> C 	 40.5793 	 22.6993 	 92.8556
| 36> H 	 39.5221 	 22.5951 	 93.0473
| 37> H 	 40.9988 	 21.7508 	 93.0996
| 38> H 	 40.5208 	 22.776 	 91.7095
| 39> H 	 39.6632 	 30.0313 	 95.1393
| 40> H 	 36.7069 	 22.2778 	 95.6437
| 41> *
| 42>
| 43>                          ****END OF INPUT****

CARTESIAN COORDINATES (ANGSTROEM)
---------------------------------
  S     38.360500   27.824900   94.988800
  C     39.633400   28.948300   95.335300
  C     40.633100   28.345800   96.164200
  C     40.394300   26.952400   96.300100
  C     39.298800   26.482000   95.588100
  H     41.021300   26.267600   96.884400
  C     41.964100   28.931300   96.738300
  H     42.682000   28.090200   96.857500
  H     41.804500   29.526400   97.677600
  C     42.769400   29.802500   95.745900
  H     42.017500   30.460800   95.263300
  H     43.459500   30.373900   96.348900
  C     43.545800   28.994600   94.771300
  H     44.153500   28.168000   95.121200
  H     42.986100   28.543800   93.960000
  H     44.117300   29.669700   94.160000
  S     37.133900   24.720800   95.745400
  C     37.458500   23.017200   95.737400
  C     38.749100   22.712000   95.519800
  C     39.518400   23.882800   95.414600
  C     38.864700   25.102300   95.542800
  H     39.166200   21.696700   95.477300
  C     40.969400   23.867400   95.038900
  H     41.462600   23.076200   95.462900
  H     41.604600   24.761000   95.368900
  C     41.220000   23.881000   93.607600
  H     42.278100   23.723700   93.307100
  H     40.732200   24.779000   93.214000
  C     40.579300   22.699300   92.855600
  H     39.522100   22.595100   93.047300
  H     40.998800   21.750800   93.099600
  H     40.520800   22.776000   91.709500
  H     39.663200   30.031300   95.139300
  H     36.706900   22.277800   95.643700

 Total Charge           Charge          ....    0
 Multiplicity           Mult            ....    1
 Number of Electrons    NEL             ....  134
 Basis Dimension        Dim             ....  322

ORBITAL ENERGIES
----------------

  NO   OCC          E(Eh)            E(eV)
   0   2.0000     -88.974340     -2421.1149
   1   2.0000     -88.963827     -2420.8288
   2   2.0000     -10.331328      -281.1297
   3   2.0000     -10.329522      -281.0806
   4   2.0000     -10.323175      -280.9079
   5   2.0000     -10.312227      -280.6100
   6   2.0000     -10.308759      -280.5156
   7   2.0000     -10.300934      -280.3027
   8   2.0000     -10.299938      -280.2756
   9   2.0000     -10.295115      -280.1443
  10   2.0000     -10.293083      -280.0890
  11   2.0000     -10.288021      -279.9513
  12   2.0000     -10.279297      -279.7139
  13   2.0000     -10.278325      -279.6875
  14   2.0000     -10.271418      -279.4995
  15   2.0000     -10.269025      -279.4344
  16   2.0000      -8.088891      -220.1099
  17   2.0000      -8.078672      -219.8318
  18   2.0000      -6.047418      -164.5586
  19   2.0000      -6.043467      -164.4511
  20   2.0000      -6.039598      -164.3458
  21   2.0000      -6.037209      -164.2808
  22   2.0000      -6.033200      -164.1717
  23   2.0000      -6.029363      -164.0673
  24   2.0000      -1.010710       -27.5028
  25   2.0000      -0.988846       -26.9079
  26   2.0000      -0.920593       -25.0506
  27   2.0000      -0.914638       -24.8886
  28   2.0000      -0.873906       -23.7802
  29   2.0000      -0.853904       -23.2359
  30   2.0000      -0.842352       -22.9216
  31   2.0000      -0.813548       -22.1378
  32   2.0000      -0.786032       -21.3890
  33   2.0000      -0.775586       -21.1048
  34   2.0000      -0.710579       -19.3358
  35   2.0000      -0.700426       -19.0596
  36   2.0000      -0.684225       -18.6187
  37   2.0000      -0.667079       -18.1521
  38   2.0000      -0.637303       -17.3419
  39   2.0000      -0.615084       -16.7373
  40   2.0000      -0.603808       -16.4304
  41   2.0000      -0.579868       -15.7790
  42   2.0000      -0.563570       -15.3355
  43   2.0000      -0.558218       -15.1899
  44   2.0000      -0.548224       -14.9179
  45   2.0000      -0.532757       -14.4970
  46   2.0000      -0.513386       -13.9699
  47   2.0000      -0.511000       -13.9050
  48   2.0000      -0.506687       -13.7877
  49   2.0000      -0.497019       -13.5246
  50   2.0000      -0.488099       -13.2818
  51   2.0000      -0.481615       -13.1054
  52   2.0000      -0.478757       -13.0276
  53   2.0000      -0.467977       -12.7343
  54   2.0000      -0.461424       -12.5560
  55   2.0000      -0.447631       -12.1807
  56   2.0000      -0.443537       -12.0693
  57   2.0000      -0.434509       -11.8236
  58   2.0000      -0.428055       -11.6480
  59   2.0000      -0.418674       -11.3927
  60   2.0000      -0.414371       -11.2756
  61   2.0000      -0.408697       -11.1212
  62   2.0000      -0.404081       -10.9956
  63   2.0000      -0.355856        -9.6833
  64   2.0000      -0.336545        -9.1579
  65   2.0000      -0.330740        -8.9999
  66   2.0000      -0.285636        -7.7726
  67   0.0000       0.019661         0.5350
  68   0.0000       0.070040         1.9059
  69   0.0000       0.104148         2.8340
  70   0.0000       0.118621         3.2278
  71   0.0000       0.132014         3.5923

MULLIKEN ATOMIC CHARGES
-----------------------
   0 S :    0.132615
   1 C :   -0.128785
   2 C :   -0.081667
   3 C :    0.004229
   4 C :   -0.137903
   5 H :    0.031160
   6 C :    0.022179
   7 H :    0.025387
   8 H :    0.056233
   9 C :   -0.057966
  10 H :    0.027171
  11 H :    0.027288
  12 C :   -0.042586
  13 H :    0.032985
  14 H :    0.024438
  15 H :    0.020894
  16 S :    0.087222
  17 C :   -0.057463
  18 C :   -0.031475
  19 C :   -0.066670
  20 C :   -0.138961
  21 H :    0.030322
  22 C :    0.089191
  23 H :   -0.014029
  24 H :    0.031078
  25 C :   -0.039281
  26 H :    0.038939
  27 H :    0.032416
  28 C :   -0.101152
  29 H :    0.028063
  30 H :    0.013146
  31 H :    0.036806
  32 H :    0.062046
  33 H :    0.044131
Sum of atomic charges:   -0.0000000

LOEWDIN ATOMIC CHARGES
----------------------
   0 S :    0.428066
   1 C :   -0.215002
   2 C :   -0.062674
   3 C :   -0.060169
   4 C :   -0.202240
   5 H :    0.034425
   6 C :   -0.033530
   7 H :    0.030501
   8 H :    0.037987
   9 C :   -0.040354
  10 H :    0.026223
  11 H :    0.024153
  12 C :   -0.074002
  13 H :    0.025417
  14 H :    0.028806
  15 H :    0.027711
  16 S :    0.389884
  17 C :   -0.176426
  18 C :   -0.071459
  19 C :   -0.056241
  20 C :   -0.182555
  21 H :    0.041210
  22 C :   -0.038877
  23 H :    0.012515
  24 H :    0.042156
  25 C :   -0.038848
  26 H :    0.032011
  27 H :    0.028996
  28 C :   -0.080654
  29 H :    0.019129
  30 H :    0.012652
  31 H :    0.033774
  32 H :    0.033857
  33 H :    0.023558

  Mayer bond orders larger than 0.100000
B(  0-S ,  1-C ) :   1.1549 B(  0-S ,  4-C ) :   1.1542 B(  1-C ,  2-C ) :   1.5657
B(  1-C ,  4-C ) :   0.1098 B(  1-C , 32-H ) :   0.9636 B(  2-C ,  3-C ) :   1.2880
B(  2-C ,  6-C ) :   1.0042 B(  3-C ,  4-C ) :   1.5310 B(  3-C ,  5-H ) :   0.9857
B(  4-C , 20-C ) :   1.0757 B(  6-C ,  7-H ) :   0.9572 B(  6-C ,  8-H ) :   0.9397
B(  6-C ,  9-C ) :   1.0713 B(  9-C , 10-H ) :   0.9522 B(  9-C , 11-H ) :   0.9535
B(  9-C , 12-C ) :   1.0905 B( 12-C , 13-H ) :   0.9714 B( 12-C , 14-H ) :   0.9691
B( 12-C , 15-H ) :   0.9676 B( 16-S , 17-C ) :   1.1654 B( 16-S , 20-C ) :   1.1131
B( 17-C , 18-C ) :   1.5982 B( 17-C , 33-H ) :   0.9623 B( 18-C , 19-C ) :   1.2598
B( 18-C , 21-H ) :   0.9882 B( 19-C , 20-C ) :   1.5987 B( 19-C , 22-C ) :   1.0438
B( 22-C , 23-H ) :   0.9195 B( 22-C , 24-H ) :   0.9321 B( 22-C , 25-C ) :   1.0833
B( 25-C , 26-H ) :   0.9555 B( 25-C , 27-H ) :   0.9492 B( 25-C , 28-C ) :   1.0746
B( 28-C , 29-H ) :   0.9672 B( 28-C , 30-H ) :   0.9753 B( 28-C , 31-H ) :   0.9728

Dispersion correction           -0.014858955
FINAL SINGLE POINT ENERGY     -1339.856034794449

DIPOLE MOMENT
-------------
                                X             Y             Z
Electronic contribution:    -26.35319       0.32609       7.10286
Nuclear contribution   :     26.99057      -0.38953      -7.08745
                        -----------------------------------------
Total Dipole Moment    :      0.63738      -0.06344       0.01541
                        -----------------------------------------
Magnitude (a.u.)       :      0.64072
Magnitude (Debye)      :      1.62857

Rotational constants in cm-1:     0.021238     0.008816     0.006989
Rotational constants in MHz :   636.691566   264.306540   209.539028

                             ****ORCA TERMINATED NORMALLY****
TOTAL RUN TIME: 0 days 0 hours 0 minutes 32 seconds 298 msec
