                         Program Version 4.2.1 -  RELEASE  -
|  1> ! wB97X-D3 SP def2-SVP
|  2> %pal
|  3> nprocs 16
|  4> end
|  5>
|  6> * xyz 0 1
|  7> S 	 40.0196 	 10.5719 	 85.1004
|  8> C 	 40.1823 	 9.18362 	 84.0506
|  9> C 	 41.103 	 9.45912 	 83.0123
| 10> C 	 41.4783 	 10.832 	 83.099
| 11> C 	 41.1675 	 11.4991 	 84.2187
| 12> H 	 42.25 	 11.2834 	 82.4888
| 13> C 	 41.5167 	 8.42539 	 81.9423
| 14> H 	 40.9729 	 7.53634 	 82.2015
| 15> H 	 42.5942 	 8.23698 	 82.1503
| 16> C 	 41.118 	 8.67977 	 80.5498
| 17> H 	 40.021 	 8.7272 	 80.4099
| 18> H 	 41.4693 	 9.59559 	 80.1583
| 19> C 	 41.6829 	 7.57681 	 79.591
| 20> H 	 41.343 	 7.75813 	 78.5902
| 21> H 	 42.7882 	 7.60804 	 79.4063
| 22> H 	 41.2971 	 6.58938 	 79.7777
| 23> S 	 40.0692 	 13.9137 	 84.8716
| 24> C 	 41.0491 	 15.3448 	 85.1149
| 25> C 	 42.3994 	 15.0467 	 84.8665
| 26> C 	 42.5714 	 13.6538 	 84.4894
| 27> C 	 41.4242 	 12.8736 	 84.4599
| 28> H 	 43.1433 	 15.7928 	 84.9492
| 29> C 	 43.9783 	 13.1909 	 84.2018
| 30> H 	 44.6202 	 14.0541 	 83.9909
| 31> H 	 43.9777 	 12.5681 	 83.3405
| 32> C 	 44.7422 	 12.525 	 85.4072
| 33> H 	 44.4408 	 11.496 	 85.4768
| 34> H 	 44.4322 	 12.9575 	 86.4111
| 35> C 	 46.2368 	 12.7054 	 85.286
| 36> H 	 46.7656 	 12.0178 	 85.976
| 37> H 	 46.4406 	 13.8178 	 85.4
| 38> H 	 46.7219 	 12.5073 	 84.345
| 39> H 	 39.7748 	 8.19259 	 84.1035
| 40> H 	 40.7305 	 16.3571 	 85.4096
| 41> *
| 42>
| 43>                          ****END OF INPUT****

CARTESIAN COORDINATES (ANGSTROEM)
---------------------------------
  S     40.019600   10.571900   85.100400
  C     40.182300    9.183620   84.050600
  C     41.103000    9.459120   83.012300
  C     41.478300   10.832000   83.099000
  C     41.167500   11.499100   84.218700
  H     42.250000   11.283400   82.488800
  C     41.516700    8.425390   81.942300
  H     40.972900    7.536340   82.201500
  H     42.594200    8.236980   82.150300
  C     41.118000    8.679770   80.549800
  H     40.021000    8.727200   80.409900
  H     41.469300    9.595590   80.158300
  C     41.682900    7.576810   79.591000
  H     41.343000    7.758130   78.590200
  H     42.788200    7.608040   79.406300
  H     41.297100    6.589380   79.777700
  S     40.069200   13.913700   84.871600
  C     41.049100   15.344800   85.114900
  C     42.399400   15.046700   84.866500
  C     42.571400   13.653800   84.489400
  C     41.424200   12.873600   84.459900
  H     43.143300   15.792800   84.949200
  C     43.978300   13.190900   84.201800
  H     44.620200   14.054100   83.990900
  H     43.977700   12.568100   83.340500
  C     44.742200   12.525000   85.407200
  H     44.440800   11.496000   85.476800
  H     44.432200   12.957500   86.411100
  C     46.236800   12.705400   85.286000
  H     46.765600   12.017800   85.976000
  H     46.440600   13.817800   85.400000
  H     46.721900   12.507300   84.345000
  H     39.774800    8.192590   84.103500
  H     40.730500   16.357100   85.409600

 Total Charge           Charge          ....    0
 Multiplicity           Mult            ....    1
 Number of Electrons    NEL             ....  134
 Basis Dimension        Dim             ....  322

ORBITAL ENERGIES
----------------

  NO   OCC          E(Eh)            E(eV)
   0   2.0000     -88.967910     -2420.9399
   1   2.0000     -88.964885     -2420.8576
   2   2.0000     -10.326276      -280.9923
   3   2.0000     -10.322527      -280.8902
   4   2.0000     -10.322263      -280.8830
   5   2.0000     -10.315936      -280.7109
   6   2.0000     -10.304690      -280.4049
   7   2.0000     -10.303804      -280.3808
   8   2.0000     -10.295363      -280.1511
   9   2.0000     -10.294626      -280.1310
  10   2.0000     -10.288430      -279.9624
  11   2.0000     -10.287409      -279.9346
  12   2.0000     -10.286953      -279.9222
  13   2.0000     -10.286811      -279.9184
  14   2.0000     -10.281387      -279.7708
  15   2.0000     -10.280345      -279.7424
  16   2.0000      -8.082943      -219.9481
  17   2.0000      -8.079338      -219.8500
  18   2.0000      -6.041496      -164.3975
  19   2.0000      -6.038006      -164.3025
  20   2.0000      -6.037273      -164.2825
  21   2.0000      -6.033741      -164.1864
  22   2.0000      -6.033706      -164.1855
  23   2.0000      -6.030102      -164.0874
  24   2.0000      -1.013684       -27.5837
  25   2.0000      -0.983554       -26.7639
  26   2.0000      -0.918408       -24.9911
  27   2.0000      -0.905209       -24.6320
  28   2.0000      -0.875271       -23.8173
  29   2.0000      -0.851639       -23.1743
  30   2.0000      -0.843926       -22.9644
  31   2.0000      -0.818091       -22.2614
  32   2.0000      -0.783671       -21.3248
  33   2.0000      -0.769247       -20.9323
  34   2.0000      -0.712834       -19.3972
  35   2.0000      -0.700974       -19.0745
  36   2.0000      -0.692750       -18.8507
  37   2.0000      -0.666669       -18.1410
  38   2.0000      -0.644342       -17.5334
  39   2.0000      -0.621526       -16.9126
  40   2.0000      -0.591502       -16.0956
  41   2.0000      -0.572792       -15.5864
  42   2.0000      -0.570691       -15.5293
  43   2.0000      -0.564642       -15.3647
  44   2.0000      -0.530088       -14.4244
  45   2.0000      -0.524111       -14.2618
  46   2.0000      -0.516179       -14.0459
  47   2.0000      -0.512432       -13.9440
  48   2.0000      -0.508275       -13.8309
  49   2.0000      -0.499347       -13.5879
  50   2.0000      -0.497195       -13.5294
  51   2.0000      -0.484690       -13.1891
  52   2.0000      -0.468113       -12.7380
  53   2.0000      -0.463965       -12.6251
  54   2.0000      -0.462604       -12.5881
  55   2.0000      -0.450121       -12.2484
  56   2.0000      -0.441768       -12.0211
  57   2.0000      -0.438060       -11.9202
  58   2.0000      -0.426550       -11.6070
  59   2.0000      -0.423803       -11.5323
  60   2.0000      -0.417682       -11.3657
  61   2.0000      -0.412362       -11.2209
  62   2.0000      -0.411084       -11.1862
  63   2.0000      -0.351996        -9.5783
  64   2.0000      -0.330882        -9.0038
  65   2.0000      -0.327021        -8.8987
  66   2.0000      -0.292188        -7.9508
  67   0.0000       0.029357         0.7989
  68   0.0000       0.071100         1.9347
  69   0.0000       0.115449         3.1415
  70   0.0000       0.119219         3.2441
  71   0.0000       0.136114         3.7039

MULLIKEN ATOMIC CHARGES
-----------------------
   0 S :    0.120100
   1 C :   -0.104491
   2 C :   -0.120851
   3 C :    0.022285
   4 C :   -0.141763
   5 H :    0.007252
   6 C :    0.100272
   7 H :   -0.000547
   8 H :    0.047715
   9 C :   -0.052828
  10 H :    0.036918
  11 H :    0.016843
  12 C :   -0.061790
  13 H :    0.015845
  14 H :    0.040484
  15 H :    0.029403
  16 S :    0.101510
  17 C :   -0.098977
  18 C :   -0.023411
  19 C :   -0.054817
  20 C :   -0.127734
  21 H :    0.008226
  22 C :    0.072423
  23 H :    0.007658
  24 H :    0.016854
  25 C :   -0.061495
  26 H :    0.028856
  27 H :    0.040249
  28 C :   -0.073508
  29 H :    0.042622
  30 H :    0.037847
  31 H :    0.022058
  32 H :    0.039648
  33 H :    0.067139
Sum of atomic charges:    0.0000000

LOEWDIN ATOMIC CHARGES
----------------------
   0 S :    0.423317
   1 C :   -0.200584
   2 C :   -0.058404
   3 C :   -0.066028
   4 C :   -0.209882
   5 H :    0.026970
   6 C :   -0.032400
   7 H :    0.028149
   8 H :    0.040113
   9 C :   -0.036879
  10 H :    0.033401
  11 H :    0.016862
  12 C :   -0.069101
  13 H :    0.023344
  14 H :    0.031949
  15 H :    0.021064
  16 S :    0.405375
  17 C :   -0.188823
  18 C :   -0.066516
  19 C :   -0.054691
  20 C :   -0.197427
  21 H :    0.024850
  22 C :   -0.029220
  23 H :    0.028363
  24 H :    0.021993
  25 C :   -0.040393
  26 H :    0.019356
  27 H :    0.033322
  28 C :   -0.076456
  29 H :    0.032360
  30 H :    0.031934
  31 H :    0.018939
  32 H :    0.027409
  33 H :    0.037734

  Mayer bond orders larger than 0.100000
B(  0-S ,  1-C ) :   1.1482 B(  0-S ,  4-C ) :   1.1360 B(  1-C ,  2-C ) :   1.5948
B(  1-C , 32-H ) :   0.9642 B(  2-C ,  3-C ) :   1.2580 B(  2-C ,  6-C ) :   1.0190
B(  3-C ,  4-C ) :   1.5871 B(  3-C ,  5-H ) :   0.9832 B(  4-C , 20-C ) :   1.0623
B(  6-C ,  7-H ) :   0.9317 B(  6-C ,  8-H ) :   0.9373 B(  6-C ,  9-C ) :   1.0725
B(  9-C , 10-H ) :   0.9519 B(  9-C , 11-H ) :   0.9547 B(  9-C , 12-C ) :   1.0849
B( 12-C , 13-H ) :   0.9712 B( 12-C , 14-H ) :   0.9751 B( 12-C , 15-H ) :   0.9761
B( 16-S , 17-C ) :   1.1632 B( 16-S , 20-C ) :   1.1217 B( 17-C , 18-C ) :   1.5927
B( 17-C , 33-H ) :   0.9645 B( 18-C , 19-C ) :   1.2478 B( 18-C , 21-H ) :   0.9967
B( 19-C , 20-C ) :   1.5905 B( 19-C , 22-C ) :   1.0575 B( 22-C , 23-H ) :   0.9402
B( 22-C , 24-H ) :   0.9289 B( 22-C , 25-C ) :   1.0446 B( 25-C , 26-H ) :   0.9563
B( 25-C , 27-H ) :   0.9595 B( 25-C , 28-C ) :   1.0787 B( 28-C , 29-H ) :   0.9720
B( 28-C , 30-H ) :   0.9725 B( 28-C , 31-H ) :   0.9753

Dispersion correction           -0.013450498
FINAL SINGLE POINT ENERGY     -1339.865957841799

DIPOLE MOMENT
-------------
                                X             Y             Z
Electronic contribution:    -21.33734      11.68872      14.42281
Nuclear contribution   :     21.88027     -11.86128     -14.85444
                        -----------------------------------------
Total Dipole Moment    :      0.54294      -0.17256      -0.43163
                        -----------------------------------------
Magnitude (a.u.)       :      0.71475
Magnitude (Debye)      :      1.81675

Rotational constants in cm-1:     0.017577     0.007990     0.006475
Rotational constants in MHz :   526.933694   239.535598   194.106668

                             ****ORCA TERMINATED NORMALLY****
TOTAL RUN TIME: 0 days 0 hours 0 minutes 27 seconds 419 msec
