                         Program Version 4.2.1 -  RELEASE  -
|  1> ! wB97X-D3 SP def2-SVP
|  2> %pal
|  3> nprocs 16
|  4> end
|  5>
|  6> * xyz 0 1
|  7> S 	 15.7025 	 8.59473 	 86.2259
|  8> C 	 16.9109 	 9.11108 	 85.1447
|  9> C 	 16.5085 	 10.2672 	 84.4267
| 10> C 	 15.1704 	 10.6164 	 84.659
| 11> C 	 14.5479 	 9.81883 	 85.609
| 12> H 	 14.6287 	 11.4461 	 84.2019
| 13> C 	 17.3441 	 11.0411 	 83.3777
| 14> H 	 16.6948 	 11.7131 	 82.7874
| 15> H 	 17.8747 	 10.369 	 82.6363
| 16> C 	 18.4296 	 11.9427 	 84.0152
| 17> H 	 18.8842 	 11.5646 	 84.8923
| 18> H 	 19.2446 	 11.8257 	 83.3803
| 19> C 	 18.1665 	 13.4538 	 84.1799
| 20> H 	 17.8204 	 13.9158 	 83.247
| 21> H 	 17.4148 	 13.6607 	 84.9259
| 22> H 	 19.0083 	 14.0241 	 84.5298
| 23> S 	 12.6357 	 10.4744 	 87.5231
| 24> C 	 10.9234 	 10.1969 	 87.1228
| 25> C 	 10.8065 	 9.68528 	 85.8364
| 26> C 	 12.048 	 9.48098 	 85.2136
| 27> C 	 13.0991 	 9.85889 	 85.9478
| 28> H 	 9.8289 	 9.58429 	 85.4162
| 29> C 	 12.1235 	 8.84693 	 83.845
| 30> H 	 11.467 	 7.9282 	 83.921
| 31> H 	 13.1116 	 8.44281 	 83.5982
| 32> C 	 11.5423 	 9.7449 	 82.6814
| 33> H 	 10.5273 	 10.0215 	 82.7505
| 34> H 	 11.5161 	 9.18668 	 81.7874
| 35> C 	 12.2645 	 11.0463 	 82.3369
| 36> H 	 11.6291 	 11.7622 	 81.9596
| 37> H 	 13.1472 	 11.0007 	 81.7138
| 38> H 	 12.5311 	 11.4319 	 83.3058
| 39> H 	 17.9103 	 8.69014 	 85.0598
| 40> H 	 10.1607 	 10.5827 	 87.7833
| 41> *
| 42>
| 43>                          ****END OF INPUT****

CARTESIAN COORDINATES (ANGSTROEM)
---------------------------------
  S     15.702500    8.594730   86.225900
  C     16.910900    9.111080   85.144700
  C     16.508500   10.267200   84.426700
  C     15.170400   10.616400   84.659000
  C     14.547900    9.818830   85.609000
  H     14.628700   11.446100   84.201900
  C     17.344100   11.041100   83.377700
  H     16.694800   11.713100   82.787400
  H     17.874700   10.369000   82.636300
  C     18.429600   11.942700   84.015200
  H     18.884200   11.564600   84.892300
  H     19.244600   11.825700   83.380300
  C     18.166500   13.453800   84.179900
  H     17.820400   13.915800   83.247000
  H     17.414800   13.660700   84.925900
  H     19.008300   14.024100   84.529800
  S     12.635700   10.474400   87.523100
  C     10.923400   10.196900   87.122800
  C     10.806500    9.685280   85.836400
  C     12.048000    9.480980   85.213600
  C     13.099100    9.858890   85.947800
  H      9.828900    9.584290   85.416200
  C     12.123500    8.846930   83.845000
  H     11.467000    7.928200   83.921000
  H     13.111600    8.442810   83.598200
  C     11.542300    9.744900   82.681400
  H     10.527300   10.021500   82.750500
  H     11.516100    9.186680   81.787400
  C     12.264500   11.046300   82.336900
  H     11.629100   11.762200   81.959600
  H     13.147200   11.000700   81.713800
  H     12.531100   11.431900   83.305800
  H     17.910300    8.690140   85.059800
  H     10.160700   10.582700   87.783300

 Total Charge           Charge          ....    0
 Multiplicity           Mult            ....    1
 Number of Electrons    NEL             ....  134
 Basis Dimension        Dim             ....  322

ORBITAL ENERGIES
----------------

  NO   OCC          E(Eh)            E(eV)
   0   2.0000     -88.969884     -2420.9936
   1   2.0000     -88.961173     -2420.7566
   2   2.0000     -10.329246      -281.0731
   3   2.0000     -10.321656      -280.8665
   4   2.0000     -10.320730      -280.8413
   5   2.0000     -10.315347      -280.6949
   6   2.0000     -10.301369      -280.3145
   7   2.0000     -10.300915      -280.3022
   8   2.0000     -10.297267      -280.2029
   9   2.0000     -10.295869      -280.1648
  10   2.0000     -10.292790      -280.0810
  11   2.0000     -10.292562      -280.0749
  12   2.0000     -10.279462      -279.7184
  13   2.0000     -10.274919      -279.5948
  14   2.0000     -10.274461      -279.5823
  15   2.0000     -10.264266      -279.3049
  16   2.0000      -8.084298      -219.9849
  17   2.0000      -8.075866      -219.7555
  18   2.0000      -6.042669      -164.4294
  19   2.0000      -6.038730      -164.3222
  20   2.0000      -6.035353      -164.2303
  21   2.0000      -6.034301      -164.2017
  22   2.0000      -6.030441      -164.0966
  23   2.0000      -6.026653      -163.9936
  24   2.0000      -1.005190       -27.3526
  25   2.0000      -0.984780       -26.7972
  26   2.0000      -0.903751       -24.5923
  27   2.0000      -0.903313       -24.5804
  28   2.0000      -0.865346       -23.5473
  29   2.0000      -0.852873       -23.2079
  30   2.0000      -0.850100       -23.1324
  31   2.0000      -0.811839       -22.0913
  32   2.0000      -0.782572       -21.2949
  33   2.0000      -0.771618       -20.9968
  34   2.0000      -0.706413       -19.2225
  35   2.0000      -0.705858       -19.2074
  36   2.0000      -0.693457       -18.8699
  37   2.0000      -0.664333       -18.0774
  38   2.0000      -0.643166       -17.5014
  39   2.0000      -0.613997       -16.7077
  40   2.0000      -0.597165       -16.2497
  41   2.0000      -0.569630       -15.5004
  42   2.0000      -0.552185       -15.0257
  43   2.0000      -0.545625       -14.8472
  44   2.0000      -0.540669       -14.7124
  45   2.0000      -0.531596       -14.4655
  46   2.0000      -0.523927       -14.2568
  47   2.0000      -0.508874       -13.8472
  48   2.0000      -0.498165       -13.5558
  49   2.0000      -0.490504       -13.3473
  50   2.0000      -0.486919       -13.2497
  51   2.0000      -0.477878       -13.0037
  52   2.0000      -0.472740       -12.8639
  53   2.0000      -0.469397       -12.7729
  54   2.0000      -0.460208       -12.5229
  55   2.0000      -0.445499       -12.1226
  56   2.0000      -0.440638       -11.9904
  57   2.0000      -0.438197       -11.9239
  58   2.0000      -0.437046       -11.8926
  59   2.0000      -0.425767       -11.5857
  60   2.0000      -0.424566       -11.5530
  61   2.0000      -0.410829       -11.1792
  62   2.0000      -0.407583       -11.0909
  63   2.0000      -0.341242        -9.2857
  64   2.0000      -0.331427        -9.0186
  65   2.0000      -0.326071        -8.8729
  66   2.0000      -0.300817        -8.1856
  67   0.0000       0.042082         1.1451
  68   0.0000       0.054230         1.4757
  69   0.0000       0.119968         3.2645
  70   0.0000       0.121029         3.2934
  71   0.0000       0.129431         3.5220

MULLIKEN ATOMIC CHARGES
-----------------------
   0 S :    0.132943
   1 C :   -0.123034
   2 C :   -0.074770
   3 C :    0.039049
   4 C :   -0.172524
   5 H :    0.021023
   6 C :    0.033260
   7 H :    0.022668
   8 H :    0.044909
   9 C :   -0.024009
  10 H :    0.009720
  11 H :   -0.002496
  12 C :   -0.046677
  13 H :    0.025953
  14 H :    0.027749
  15 H :    0.029508
  16 S :    0.092722
  17 C :   -0.105286
  18 C :   -0.023656
  19 C :    0.001928
  20 C :   -0.193921
  21 H :    0.016146
  22 C :    0.065473
  23 H :    0.037683
  24 H :    0.039316
  25 C :   -0.052590
  26 H :    0.010143
  27 H :    0.011634
  28 C :   -0.013773
  29 H :    0.008118
  30 H :    0.032397
  31 H :    0.015131
  32 H :    0.052062
  33 H :    0.063201
Sum of atomic charges:   -0.0000000

LOEWDIN ATOMIC CHARGES
----------------------
   0 S :    0.421860
   1 C :   -0.215340
   2 C :   -0.067913
   3 C :   -0.057404
   4 C :   -0.192268
   5 H :    0.036040
   6 C :   -0.027959
   7 H :    0.030482
   8 H :    0.038721
   9 C :   -0.042962
  10 H :    0.019936
  11 H :    0.016084
  12 C :   -0.064169
  13 H :    0.023143
  14 H :    0.023042
  15 H :    0.026325
  16 S :    0.385006
  17 C :   -0.165926
  18 C :   -0.065032
  19 C :   -0.066565
  20 C :   -0.199131
  21 H :    0.030662
  22 C :   -0.024021
  23 H :    0.041428
  24 H :    0.033383
  25 C :   -0.036260
  26 H :    0.019572
  27 H :    0.018987
  28 C :   -0.058750
  29 H :    0.016672
  30 H :    0.022859
  31 H :    0.021868
  32 H :    0.030605
  33 H :    0.027025

  Mayer bond orders larger than 0.100000
B(  0-S ,  1-C ) :   1.1753 B(  0-S ,  4-C ) :   1.1568 B(  1-C ,  2-C ) :   1.5587
B(  1-C ,  4-C ) :   0.1108 B(  1-C , 32-H ) :   0.9672 B(  2-C ,  3-C ) :   1.2881
B(  2-C ,  6-C ) :   1.0192 B(  3-C ,  4-C ) :   1.5591 B(  3-C ,  5-H ) :   0.9880
B(  4-C , 20-C ) :   0.9958 B(  6-C ,  7-H ) :   0.9503 B(  6-C ,  8-H ) :   0.9533
B(  6-C ,  9-C ) :   1.0448 B(  9-C , 10-H ) :   0.9562 B(  9-C , 11-H ) :   0.9512
B(  9-C , 12-C ) :   1.0880 B( 12-C , 13-H ) :   0.9746 B( 12-C , 14-H ) :   0.9765
B( 12-C , 15-H ) :   0.9733 B( 16-S , 17-C ) :   1.1544 B( 16-S , 20-C ) :   1.1365
B( 17-C , 18-C ) :   1.6070 B( 17-C , 33-H ) :   0.9705 B( 18-C , 19-C ) :   1.2165
B( 18-C , 21-H ) :   0.9978 B( 19-C , 20-C ) :   1.6418 B( 19-C , 22-C ) :   1.0405
B( 22-C , 23-H ) :   0.9358 B( 22-C , 24-H ) :   0.9393 B( 22-C , 25-C ) :   1.0638
B( 25-C , 26-H ) :   0.9588 B( 25-C , 27-H ) :   0.9538 B( 25-C , 28-C ) :   1.0776
B( 28-C , 29-H ) :   0.9671 B( 28-C , 30-H ) :   0.9775 B( 28-C , 31-H ) :   0.9693

Dispersion correction           -0.015248797
FINAL SINGLE POINT ENERGY     -1339.871772409727

DIPOLE MOMENT
-------------
                                X             Y             Z
Electronic contribution:     -6.10184     -12.64476      22.29519
Nuclear contribution   :      6.04818      12.83491     -22.90226
                        -----------------------------------------
Total Dipole Moment    :     -0.05366       0.19014      -0.60707
                        -----------------------------------------
Magnitude (a.u.)       :      0.63841
Magnitude (Debye)      :      1.62271

Rotational constants in cm-1:     0.019156     0.008545     0.007420
Rotational constants in MHz :   574.293073   256.177869   222.458294

                             ****ORCA TERMINATED NORMALLY****
TOTAL RUN TIME: 0 days 0 hours 0 minutes 34 seconds 94 msec
