                         Program Version 4.2.1 -  RELEASE  -
|  1> ! wB97X-D3 SP def2-SVP
|  2> %pal
|  3> nprocs 16
|  4> end
|  5>
|  6> * xyz 0 1
|  7> S 	 -55.9432 	 42.9424 	 113.521
|  8> C 	 -55.0437 	 43.596 	 112.262
|  9> C 	 -54.5077 	 42.6431 	 111.434
| 10> C 	 -54.7314 	 41.351 	 111.859
| 11> C 	 -55.2867 	 41.3061 	 113.147
| 12> H 	 -54.2956 	 40.4386 	 111.496
| 13> C 	 -53.7715 	 42.931 	 110.108
| 14> H 	 -53.7474 	 44.0298 	 110.078
| 15> H 	 -54.3127 	 42.4869 	 109.285
| 16> C 	 -52.4086 	 42.412 	 109.883
| 17> H 	 -51.5756 	 42.7089 	 110.481
| 18> H 	 -52.376 	 41.3549 	 110.136
| 19> C 	 -51.784 	 42.6993 	 108.553
| 20> H 	 -51.8261 	 43.7924 	 108.372
| 21> H 	 -50.752 	 42.4678 	 108.562
| 22> H 	 -52.1927 	 42.2307 	 107.687
| 23> S 	 -55.4339 	 40.3038 	 115.773
| 24> C 	 -55.7193 	 38.646 	 115.97
| 25> C 	 -56.1636 	 38.0339 	 114.868
| 26> C 	 -55.927 	 38.777 	 113.648
| 27> C 	 -55.5722 	 40.1245 	 114.007
| 28> H 	 -56.5523 	 37.0317 	 115.016
| 29> C 	 -56.3996 	 38.3665 	 112.283
| 30> H 	 -56.2599 	 37.3074 	 112.113
| 31> H 	 -55.8642 	 38.917 	 111.496
| 32> C 	 -57.8504 	 38.7172 	 111.983
| 33> H 	 -58.1655 	 39.7748 	 112.087
| 34> H 	 -58.51 	 38.1279 	 112.682
| 35> C 	 -58.2888 	 38.2317 	 110.599
| 36> H 	 -57.4564 	 38.3494 	 109.887
| 37> H 	 -59.1936 	 38.54 	 110.144
| 38> H 	 -58.309 	 37.0938 	 110.473
| 39> H 	 -55.0369 	 44.6541 	 112.151
| 40> H 	 -55.7416 	 38.1649 	 116.943
| 41> *
| 42>
| 43>                          ****END OF INPUT****

CARTESIAN COORDINATES (ANGSTROEM)
---------------------------------
  S    -55.943200   42.942400  113.521000
  C    -55.043700   43.596000  112.262000
  C    -54.507700   42.643100  111.434000
  C    -54.731400   41.351000  111.859000
  C    -55.286700   41.306100  113.147000
  H    -54.295600   40.438600  111.496000
  C    -53.771500   42.931000  110.108000
  H    -53.747400   44.029800  110.078000
  H    -54.312700   42.486900  109.285000
  C    -52.408600   42.412000  109.883000
  H    -51.575600   42.708900  110.481000
  H    -52.376000   41.354900  110.136000
  C    -51.784000   42.699300  108.553000
  H    -51.826100   43.792400  108.372000
  H    -50.752000   42.467800  108.562000
  H    -52.192700   42.230700  107.687000
  S    -55.433900   40.303800  115.773000
  C    -55.719300   38.646000  115.970000
  C    -56.163600   38.033900  114.868000
  C    -55.927000   38.777000  113.648000
  C    -55.572200   40.124500  114.007000
  H    -56.552300   37.031700  115.016000
  C    -56.399600   38.366500  112.283000
  H    -56.259900   37.307400  112.113000
  H    -55.864200   38.917000  111.496000
  C    -57.850400   38.717200  111.983000
  H    -58.165500   39.774800  112.087000
  H    -58.510000   38.127900  112.682000
  C    -58.288800   38.231700  110.599000
  H    -57.456400   38.349400  109.887000
  H    -59.193600   38.540000  110.144000
  H    -58.309000   37.093800  110.473000
  H    -55.036900   44.654100  112.151000
  H    -55.741600   38.164900  116.943000

 Total Charge           Charge          ....    0
 Multiplicity           Mult            ....    1
 Number of Electrons    NEL             ....  134
 Basis Dimension        Dim             ....  322

ORBITAL ENERGIES
----------------

  NO   OCC          E(Eh)            E(eV)
   0   2.0000     -88.966766     -2420.9088
   1   2.0000     -88.965606     -2420.8772
   2   2.0000     -10.336113      -281.2599
   3   2.0000     -10.335733      -281.2496
   4   2.0000     -10.313490      -280.6443
   5   2.0000     -10.309165      -280.5266
   6   2.0000     -10.305892      -280.4376
   7   2.0000     -10.296554      -280.1835
   8   2.0000     -10.294994      -280.1410
   9   2.0000     -10.291917      -280.0573
  10   2.0000     -10.290781      -280.0264
  11   2.0000     -10.290488      -280.0184
  12   2.0000     -10.289992      -280.0049
  13   2.0000     -10.278560      -279.6938
  14   2.0000     -10.274714      -279.5892
  15   2.0000     -10.270970      -279.4873
  16   2.0000      -8.082221      -219.9284
  17   2.0000      -8.081040      -219.8963
  18   2.0000      -6.040569      -164.3722
  19   2.0000      -6.039335      -164.3387
  20   2.0000      -6.036791      -164.2694
  21   2.0000      -6.035565      -164.2361
  22   2.0000      -6.032937      -164.1646
  23   2.0000      -6.031882      -164.1359
  24   2.0000      -1.008377       -27.4393
  25   2.0000      -0.992042       -26.9948
  26   2.0000      -0.918720       -24.9996
  27   2.0000      -0.914121       -24.8745
  28   2.0000      -0.869321       -23.6554
  29   2.0000      -0.859117       -23.3778
  30   2.0000      -0.849904       -23.1271
  31   2.0000      -0.817954       -22.2576
  32   2.0000      -0.786189       -21.3933
  33   2.0000      -0.770727       -20.9725
  34   2.0000      -0.708703       -19.2848
  35   2.0000      -0.697305       -18.9746
  36   2.0000      -0.691737       -18.8231
  37   2.0000      -0.660222       -17.9655
  38   2.0000      -0.642657       -17.4876
  39   2.0000      -0.626323       -17.0431
  40   2.0000      -0.602831       -16.4039
  41   2.0000      -0.580600       -15.7989
  42   2.0000      -0.567202       -15.4343
  43   2.0000      -0.556126       -15.1330
  44   2.0000      -0.528676       -14.3860
  45   2.0000      -0.522667       -14.2225
  46   2.0000      -0.520587       -14.1659
  47   2.0000      -0.513938       -13.9850
  48   2.0000      -0.508562       -13.8387
  49   2.0000      -0.494139       -13.4462
  50   2.0000      -0.493194       -13.4205
  51   2.0000      -0.480576       -13.0771
  52   2.0000      -0.473743       -12.8912
  53   2.0000      -0.467089       -12.7101
  54   2.0000      -0.460161       -12.5216
  55   2.0000      -0.453378       -12.3370
  56   2.0000      -0.446980       -12.1629
  57   2.0000      -0.441572       -12.0158
  58   2.0000      -0.434841       -11.8326
  59   2.0000      -0.426784       -11.6134
  60   2.0000      -0.419079       -11.4037
  61   2.0000      -0.405182       -11.0256
  62   2.0000      -0.401833       -10.9344
  63   2.0000      -0.355600        -9.6764
  64   2.0000      -0.335084        -9.1181
  65   2.0000      -0.331260        -9.0140
  66   2.0000      -0.281873        -7.6702
  67   0.0000       0.020336         0.5534
  68   0.0000       0.073259         1.9935
  69   0.0000       0.108846         2.9619
  70   0.0000       0.124418         3.3856
  71   0.0000       0.127487         3.4691

MULLIKEN ATOMIC CHARGES
-----------------------
   0 S :    0.103572
   1 C :   -0.118039
   2 C :   -0.056951
   3 C :    0.002673
   4 C :   -0.144802
   5 H :    0.029811
   6 C :    0.118255
   7 H :    0.012285
   8 H :    0.030552
   9 C :   -0.071795
  10 H :    0.010215
  11 H :    0.009896
  12 C :   -0.035116
  13 H :    0.023746
  14 H :    0.020992
  15 H :    0.020326
  16 S :    0.117810
  17 C :   -0.084563
  18 C :   -0.037176
  19 C :   -0.019006
  20 C :   -0.165388
  21 H :    0.020145
  22 C :    0.060887
  23 H :    0.025017
  24 H :    0.014857
  25 C :   -0.070067
  26 H :    0.049506
  27 H :    0.029268
  28 C :   -0.053125
  29 H :    0.009406
  30 H :    0.036364
  31 H :    0.016965
  32 H :    0.037623
  33 H :    0.055855
Sum of atomic charges:   -0.0000000

LOEWDIN ATOMIC CHARGES
----------------------
   0 S :    0.412192
   1 C :   -0.211764
   2 C :   -0.066794
   3 C :   -0.067185
   4 C :   -0.169751
   5 H :    0.030073
   6 C :   -0.024992
   7 H :    0.029780
   8 H :    0.036251
   9 C :   -0.055304
  10 H :    0.024868
  11 H :    0.020616
  12 C :   -0.057497
  13 H :    0.028968
  14 H :    0.023646
  15 H :    0.015122
  16 S :    0.417626
  17 C :   -0.199833
  18 C :   -0.074258
  19 C :   -0.047423
  20 C :   -0.191787
  21 H :    0.033891
  22 C :   -0.034055
  23 H :    0.031844
  24 H :    0.031658
  25 C :   -0.040657
  26 H :    0.032925
  27 H :    0.026613
  28 C :   -0.078801
  29 H :    0.021651
  30 H :    0.021076
  31 H :    0.029208
  32 H :    0.020893
  33 H :    0.031199

  Mayer bond orders larger than 0.100000
B(  0-S ,  1-C ) :   1.1578 B(  0-S ,  4-C ) :   1.1587 B(  1-C ,  2-C ) :   1.5835
B(  1-C ,  4-C ) :   0.1060 B(  1-C , 32-H ) :   0.9715 B(  2-C ,  3-C ) :   1.2778
B(  2-C ,  6-C ) :   1.0212 B(  3-C ,  4-C ) :   1.5580 B(  3-C ,  5-H ) :   0.9806
B(  4-C , 20-C ) :   1.0602 B(  6-C ,  7-H ) :   0.9381 B(  6-C ,  8-H ) :   0.9345
B(  6-C ,  9-C ) :   1.0655 B(  9-C , 10-H ) :   0.9495 B(  9-C , 11-H ) :   0.9458
B(  9-C , 12-C ) :   1.0921 B( 12-C , 13-H ) :   0.9712 B( 12-C , 14-H ) :   0.9740
B( 12-C , 15-H ) :   0.9728 B( 16-S , 17-C ) :   1.1575 B( 16-S , 20-C ) :   1.1510
B( 17-C , 18-C ) :   1.6399 B( 17-C , 33-H ) :   0.9613 B( 18-C , 19-C ) :   1.2209
B( 18-C , 21-H ) :   0.9857 B( 19-C , 20-C ) :   1.5456 B( 19-C , 22-C ) :   1.0731
B( 22-C , 23-H ) :   0.9321 B( 22-C , 24-H ) :   0.9269 B( 22-C , 25-C ) :   1.0561
B( 25-C , 26-H ) :   0.9581 B( 25-C , 27-H ) :   0.9549 B( 25-C , 28-C ) :   1.0680
B( 28-C , 29-H ) :   0.9706 B( 28-C , 30-H ) :   0.9773 B( 28-C , 31-H ) :   0.9691

Dispersion correction           -0.013680624
FINAL SINGLE POINT ENERGY     -1339.854074864776

DIPOLE MOMENT
-------------
                                X             Y             Z
Electronic contribution:     -3.89332       6.57576      27.99855
Nuclear contribution   :      3.90874      -6.90980     -28.38147
                        -----------------------------------------
Total Dipole Moment    :      0.01541      -0.33403      -0.38292
                        -----------------------------------------
Magnitude (a.u.)       :      0.50837
Magnitude (Debye)      :      1.29219

Rotational constants in cm-1:     0.017442     0.008249     0.006814
Rotational constants in MHz :   522.893786   247.297409   204.284114

                             ****ORCA TERMINATED NORMALLY****
TOTAL RUN TIME: 0 days 0 hours 0 minutes 29 seconds 520 msec
