                         Program Version 4.2.1 -  RELEASE  -
|  1> ! wB97X-D3 SP def2-SVP
|  2> %pal
|  3> nprocs 16
|  4> end
|  5>
|  6> * xyz 0 1
|  7> S 	 -4.27432 	 -18.9931 	 78.7724
|  8> C 	 -3.94232 	 -19.0174 	 80.5006
|  9> C 	 -4.20258 	 -17.8279 	 81.0994
| 10> C 	 -4.55586 	 -16.8532 	 80.1005
| 11> C 	 -4.78669 	 -17.3417 	 78.8115
| 12> H 	 -4.69853 	 -15.8017 	 80.321
| 13> C 	 -4.00795 	 -17.3091 	 82.4974
| 14> H 	 -4.05809 	 -18.1403 	 83.229
| 15> H 	 -4.97633 	 -16.7846 	 82.7709
| 16> C 	 -2.79851 	 -16.409 	 82.6717
| 17> H 	 -1.82768 	 -16.8938 	 82.4703
| 18> H 	 -2.80407 	 -15.654 	 81.9686
| 19> C 	 -2.77523 	 -15.7718 	 84.0531
| 20> H 	 -3.51256 	 -15.0254 	 84.3414
| 21> H 	 -2.71289 	 -16.5225 	 84.8508
| 22> H 	 -1.82457 	 -15.2299 	 84.1387
| 23> S 	 -4.86497 	 -17.2864 	 76.0033
| 24> C 	 -5.80342 	 -16.1476 	 75.1693
| 25> C 	 -6.36061 	 -15.2112 	 76.035
| 26> C 	 -5.96466 	 -15.4116 	 77.3749
| 27> C 	 -5.18432 	 -16.5606 	 77.5818
| 28> H 	 -6.93365 	 -14.3596 	 75.6207
| 29> C 	 -6.32709 	 -14.3706 	 78.452
| 30> H 	 -6.40103 	 -14.885 	 79.367
| 31> H 	 -7.42705 	 -14.1866 	 78.5065
| 32> C 	 -5.59393 	 -13.03 	 78.5112
| 33> H 	 -5.96145 	 -12.5297 	 79.3836
| 34> H 	 -5.82959 	 -12.3616 	 77.7083
| 35> C 	 -4.06624 	 -13.258 	 78.6909
| 36> H 	 -3.45655 	 -12.3603 	 78.8005
| 37> H 	 -3.60248 	 -13.763 	 77.8391
| 38> H 	 -3.84539 	 -13.8532 	 79.584
| 39> H 	 -3.64891 	 -19.8894 	 81.0786
| 40> H 	 -6.21273 	 -16.2501 	 74.1633
| 41> *
| 42>
| 43>                          ****END OF INPUT****

CARTESIAN COORDINATES (ANGSTROEM)
---------------------------------
  S     -4.274320  -18.993100   78.772400
  C     -3.942320  -19.017400   80.500600
  C     -4.202580  -17.827900   81.099400
  C     -4.555860  -16.853200   80.100500
  C     -4.786690  -17.341700   78.811500
  H     -4.698530  -15.801700   80.321000
  C     -4.007950  -17.309100   82.497400
  H     -4.058090  -18.140300   83.229000
  H     -4.976330  -16.784600   82.770900
  C     -2.798510  -16.409000   82.671700
  H     -1.827680  -16.893800   82.470300
  H     -2.804070  -15.654000   81.968600
  C     -2.775230  -15.771800   84.053100
  H     -3.512560  -15.025400   84.341400
  H     -2.712890  -16.522500   84.850800
  H     -1.824570  -15.229900   84.138700
  S     -4.864970  -17.286400   76.003300
  C     -5.803420  -16.147600   75.169300
  C     -6.360610  -15.211200   76.035000
  C     -5.964660  -15.411600   77.374900
  C     -5.184320  -16.560600   77.581800
  H     -6.933650  -14.359600   75.620700
  C     -6.327090  -14.370600   78.452000
  H     -6.401030  -14.885000   79.367000
  H     -7.427050  -14.186600   78.506500
  C     -5.593930  -13.030000   78.511200
  H     -5.961450  -12.529700   79.383600
  H     -5.829590  -12.361600   77.708300
  C     -4.066240  -13.258000   78.690900
  H     -3.456550  -12.360300   78.800500
  H     -3.602480  -13.763000   77.839100
  H     -3.845390  -13.853200   79.584000
  H     -3.648910  -19.889400   81.078600
  H     -6.212730  -16.250100   74.163300

 Total Charge           Charge          ....    0
 Multiplicity           Mult            ....    1
 Number of Electrons    NEL             ....  134
 Basis Dimension        Dim             ....  322

ORBITAL ENERGIES
----------------

  NO   OCC          E(Eh)            E(eV)
   0   2.0000     -88.967733     -2420.9351
   1   2.0000     -88.967421     -2420.9266
   2   2.0000     -10.336789      -281.2783
   3   2.0000     -10.336240      -281.2634
   4   2.0000     -10.314769      -280.6791
   5   2.0000     -10.314069      -280.6601
   6   2.0000     -10.306498      -280.4541
   7   2.0000     -10.299200      -280.2555
   8   2.0000     -10.298324      -280.2316
   9   2.0000     -10.294087      -280.1163
  10   2.0000     -10.290802      -280.0270
  11   2.0000     -10.289303      -279.9862
  12   2.0000     -10.288232      -279.9570
  13   2.0000     -10.285675      -279.8874
  14   2.0000     -10.279495      -279.7193
  15   2.0000     -10.275634      -279.6142
  16   2.0000      -8.083058      -219.9512
  17   2.0000      -8.082179      -219.9273
  18   2.0000      -6.041437      -164.3959
  19   2.0000      -6.040891      -164.3810
  20   2.0000      -6.037337      -164.2843
  21   2.0000      -6.036719      -164.2675
  22   2.0000      -6.034077      -164.1956
  23   2.0000      -6.032689      -164.1578
  24   2.0000      -1.007484       -27.4150
  25   2.0000      -0.988974       -26.9113
  26   2.0000      -0.917146       -24.9568
  27   2.0000      -0.907662       -24.6987
  28   2.0000      -0.868626       -23.6365
  29   2.0000      -0.849770       -23.1234
  30   2.0000      -0.844115       -22.9695
  31   2.0000      -0.811088       -22.0708
  32   2.0000      -0.784126       -21.3371
  33   2.0000      -0.778201       -21.1759
  34   2.0000      -0.713630       -19.4189
  35   2.0000      -0.707944       -19.2641
  36   2.0000      -0.695267       -18.9192
  37   2.0000      -0.657332       -17.8869
  38   2.0000      -0.636551       -17.3214
  39   2.0000      -0.625630       -17.0243
  40   2.0000      -0.597728       -16.2650
  41   2.0000      -0.569933       -15.5087
  42   2.0000      -0.559763       -15.2319
  43   2.0000      -0.549261       -14.9462
  44   2.0000      -0.540890       -14.7184
  45   2.0000      -0.529676       -14.4132
  46   2.0000      -0.518025       -14.0962
  47   2.0000      -0.506927       -13.7942
  48   2.0000      -0.502177       -13.6649
  49   2.0000      -0.501880       -13.6568
  50   2.0000      -0.489818       -13.3286
  51   2.0000      -0.482621       -13.1328
  52   2.0000      -0.466948       -12.7063
  53   2.0000      -0.460062       -12.5189
  54   2.0000      -0.458958       -12.4889
  55   2.0000      -0.452528       -12.3139
  56   2.0000      -0.444356       -12.0915
  57   2.0000      -0.442185       -12.0325
  58   2.0000      -0.439575       -11.9614
  59   2.0000      -0.423419       -11.5218
  60   2.0000      -0.419956       -11.4276
  61   2.0000      -0.413742       -11.2585
  62   2.0000      -0.407010       -11.0753
  63   2.0000      -0.358512        -9.7556
  64   2.0000      -0.335415        -9.1271
  65   2.0000      -0.328276        -8.9329
  66   2.0000      -0.285975        -7.7818
  67   0.0000       0.020852         0.5674
  68   0.0000       0.088119         2.3978
  69   0.0000       0.102701         2.7946
  70   0.0000       0.116795         3.1782
  71   0.0000       0.133061         3.6208

MULLIKEN ATOMIC CHARGES
-----------------------
   0 S :    0.100162
   1 C :   -0.127875
   2 C :   -0.048965
   3 C :   -0.029604
   4 C :   -0.090743
   5 H :   -0.001489
   6 C :    0.035086
   7 H :    0.017362
   8 H :    0.037807
   9 C :   -0.015601
  10 H :    0.033804
  11 H :    0.005298
  12 C :   -0.058296
  13 H :    0.037254
  14 H :    0.027982
  15 H :    0.025324
  16 S :    0.102253
  17 C :   -0.092093
  18 C :   -0.056547
  19 C :   -0.057266
  20 C :   -0.125474
  21 H :    0.035039
  22 C :    0.040020
  23 H :   -0.003949
  24 H :    0.016923
  25 C :    0.004839
  26 H :    0.020380
  27 H :    0.027337
  28 C :   -0.072588
  29 H :    0.026436
  30 H :    0.047833
  31 H :    0.024701
  32 H :    0.045107
  33 H :    0.069543
Sum of atomic charges:    0.0000000

LOEWDIN ATOMIC CHARGES
----------------------
   0 S :    0.404874
   1 C :   -0.192821
   2 C :   -0.067191
   3 C :   -0.067968
   4 C :   -0.193150
   5 H :    0.019402
   6 C :   -0.037508
   7 H :    0.028591
   8 H :    0.040641
   9 C :   -0.033260
  10 H :    0.034395
  11 H :    0.014501
  12 C :   -0.068223
  13 H :    0.025172
  14 H :    0.024439
  15 H :    0.029011
  16 S :    0.424399
  17 C :   -0.209934
  18 C :   -0.076763
  19 C :   -0.058777
  20 C :   -0.189475
  21 H :    0.039205
  22 C :   -0.044155
  23 H :    0.022521
  24 H :    0.038693
  25 C :   -0.029237
  26 H :    0.025990
  27 H :    0.021781
  28 C :   -0.070089
  29 H :    0.023943
  30 H :    0.029655
  31 H :    0.023069
  32 H :    0.031292
  33 H :    0.036978

  Mayer bond orders larger than 0.100000
B(  0-S ,  1-C ) :   1.1265 B(  0-S ,  4-C ) :   1.1452 B(  1-C ,  2-C ) :   1.6334
B(  1-C , 32-H ) :   0.9632 B(  2-C ,  3-C ) :   1.2318 B(  2-C ,  6-C ) :   1.0269
B(  3-C ,  4-C ) :   1.5725 B(  3-C ,  5-H ) :   0.9828 B(  4-C , 20-C ) :   1.0522
B(  6-C ,  7-H ) :   0.9374 B(  6-C ,  8-H ) :   0.9386 B(  6-C ,  9-C ) :   1.0613
B(  9-C , 10-H ) :   0.9492 B(  9-C , 11-H ) :   0.9510 B(  9-C , 12-C ) :   1.0869
B( 12-C , 13-H ) :   0.9762 B( 12-C , 14-H ) :   0.9746 B( 12-C , 15-H ) :   0.9716
B( 16-S , 17-C ) :   1.1835 B( 16-S , 20-C ) :   1.1470 B( 17-C , 18-C ) :   1.5749
B( 17-C , 33-H ) :   0.9597 B( 18-C , 19-C ) :   1.2933 B( 18-C , 21-H ) :   0.9878
B( 19-C , 20-C ) :   1.5506 B( 19-C , 22-C ) :   1.0347 B( 22-C , 23-H ) :   0.9239
B( 22-C , 24-H ) :   0.9241 B( 22-C , 25-C ) :   1.0745 B( 25-C , 26-H ) :   0.9484
B( 25-C , 27-H ) :   0.9574 B( 25-C , 28-C ) :   1.0700 B( 28-C , 29-H ) :   0.9733
B( 28-C , 30-H ) :   0.9755 B( 28-C , 31-H ) :   0.9746

Dispersion correction           -0.014813641
FINAL SINGLE POINT ENERGY     -1339.873966859508

DIPOLE MOMENT
-------------
                                X             Y             Z
Electronic contribution:     -4.24724     -20.96156     -23.09018
Nuclear contribution   :      4.12628      21.52289      23.57527
                        -----------------------------------------
Total Dipole Moment    :     -0.12096       0.56132       0.48509
                        -----------------------------------------
Magnitude (a.u.)       :      0.75168
Magnitude (Debye)      :      1.91063

Rotational constants in cm-1:     0.019246     0.009257     0.006681
Rotational constants in MHz :   576.985465   277.516920   200.301836

                             ****ORCA TERMINATED NORMALLY****
TOTAL RUN TIME: 0 days 0 hours 0 minutes 35 seconds 308 msec
