                         Program Version 4.2.1 -  RELEASE  -
|  1> ! wB97X-D3 SP def2-SVP
|  2> %pal
|  3> nprocs 16
|  4> end
|  5>
|  6> * xyz 0 1
|  7> S 	 41.0465 	 25.7639 	 95.8554
|  8> C 	 41.0438 	 25.8058 	 94.0936
|  9> C 	 42.0277 	 24.9728 	 93.5872
| 10> C 	 42.5224 	 24.0534 	 94.5405
| 11> C 	 42.0326 	 24.2996 	 95.8191
| 12> H 	 43.2356 	 23.241 	 94.2858
| 13> C 	 42.5449 	 24.9138 	 92.1512
| 14> H 	 43.341 	 24.1867 	 92.1363
| 15> H 	 43.0313 	 25.8334 	 91.9413
| 16> C 	 41.4518 	 24.6462 	 91.0632
| 17> H 	 40.7758 	 25.4884 	 90.9908
| 18> H 	 41.7655 	 24.4769 	 90.0855
| 19> C 	 40.6897 	 23.3673 	 91.3536
| 20> H 	 39.9119 	 23.5951 	 92.0373
| 21> H 	 40.0784 	 23.05 	 90.5317
| 22> H 	 41.2839 	 22.5377 	 91.7006
| 23> S 	 43.6254 	 24.6149 	 97.9843
| 24> C 	 44.0495 	 23.2997 	 99.0161
| 25> C 	 43.3875 	 22.1592 	 98.6553
| 26> C 	 42.6166 	 22.3403 	 97.5276
| 27> C 	 42.5259 	 23.6676 	 97.0332
| 28> H 	 43.5728 	 21.2332 	 99.2071
| 29> C 	 41.9663 	 21.2043 	 96.8162
| 30> H 	 42.4902 	 20.2743 	 97.1106
| 31> H 	 42.2506 	 21.187 	 95.7247
| 32> C 	 40.3987 	 21.0069 	 96.8927
| 33> H 	 40.1344 	 20.2553 	 96.1297
| 34> H 	 39.8419 	 21.9176 	 96.6666
| 35> C 	 39.8455 	 20.487 	 98.2028
| 36> H 	 40.4636 	 19.5738 	 98.5455
| 37> H 	 38.8432 	 20.1982 	 98.0535
| 38> H 	 39.8959 	 21.235 	 98.9567
| 39> H 	 40.4175 	 26.5348 	 93.6184
| 40> H 	 44.5956 	 23.3246 	 99.9548
| 41> *
| 42>
| 43>                          ****END OF INPUT****

CARTESIAN COORDINATES (ANGSTROEM)
---------------------------------
  S     41.046500   25.763900   95.855400
  C     41.043800   25.805800   94.093600
  C     42.027700   24.972800   93.587200
  C     42.522400   24.053400   94.540500
  C     42.032600   24.299600   95.819100
  H     43.235600   23.241000   94.285800
  C     42.544900   24.913800   92.151200
  H     43.341000   24.186700   92.136300
  H     43.031300   25.833400   91.941300
  C     41.451800   24.646200   91.063200
  H     40.775800   25.488400   90.990800
  H     41.765500   24.476900   90.085500
  C     40.689700   23.367300   91.353600
  H     39.911900   23.595100   92.037300
  H     40.078400   23.050000   90.531700
  H     41.283900   22.537700   91.700600
  S     43.625400   24.614900   97.984300
  C     44.049500   23.299700   99.016100
  C     43.387500   22.159200   98.655300
  C     42.616600   22.340300   97.527600
  C     42.525900   23.667600   97.033200
  H     43.572800   21.233200   99.207100
  C     41.966300   21.204300   96.816200
  H     42.490200   20.274300   97.110600
  H     42.250600   21.187000   95.724700
  C     40.398700   21.006900   96.892700
  H     40.134400   20.255300   96.129700
  H     39.841900   21.917600   96.666600
  C     39.845500   20.487000   98.202800
  H     40.463600   19.573800   98.545500
  H     38.843200   20.198200   98.053500
  H     39.895900   21.235000   98.956700
  H     40.417500   26.534800   93.618400
  H     44.595600   23.324600   99.954800

 Total Charge           Charge          ....    0
 Multiplicity           Mult            ....    1
 Number of Electrons    NEL             ....  134
 Basis Dimension        Dim             ....  322

ORBITAL ENERGIES
----------------

  NO   OCC          E(Eh)            E(eV)
   0   2.0000     -88.968354     -2420.9520
   1   2.0000     -88.963342     -2420.8156
   2   2.0000     -10.332283      -281.1557
   3   2.0000     -10.323878      -280.9270
   4   2.0000     -10.317082      -280.7421
   5   2.0000     -10.310502      -280.5630
   6   2.0000     -10.303592      -280.3750
   7   2.0000     -10.298457      -280.2353
   8   2.0000     -10.297855      -280.2189
   9   2.0000     -10.291948      -280.0581
  10   2.0000     -10.290649      -280.0228
  11   2.0000     -10.286665      -279.9144
  12   2.0000     -10.283056      -279.8162
  13   2.0000     -10.282154      -279.7916
  14   2.0000     -10.269664      -279.4518
  15   2.0000     -10.264553      -279.3127
  16   2.0000      -8.082780      -219.9436
  17   2.0000      -8.078676      -219.8319
  18   2.0000      -6.041201      -164.3894
  19   2.0000      -6.037443      -164.2872
  20   2.0000      -6.037045      -164.2764
  21   2.0000      -6.033542      -164.1810
  22   2.0000      -6.032817      -164.1613
  23   2.0000      -6.029812      -164.0795
  24   2.0000      -1.009662       -27.4743
  25   2.0000      -0.987670       -26.8759
  26   2.0000      -0.911674       -24.8079
  27   2.0000      -0.899832       -24.4857
  28   2.0000      -0.871634       -23.7184
  29   2.0000      -0.852561       -23.1994
  30   2.0000      -0.849926       -23.1277
  31   2.0000      -0.813806       -22.1448
  32   2.0000      -0.783947       -21.3323
  33   2.0000      -0.767584       -20.8870
  34   2.0000      -0.710344       -19.3294
  35   2.0000      -0.704795       -19.1785
  36   2.0000      -0.683722       -18.6050
  37   2.0000      -0.659804       -17.9542
  38   2.0000      -0.644104       -17.5270
  39   2.0000      -0.616072       -16.7642
  40   2.0000      -0.590828       -16.0772
  41   2.0000      -0.574712       -15.6387
  42   2.0000      -0.557940       -15.1823
  43   2.0000      -0.548618       -14.9287
  44   2.0000      -0.544607       -14.8195
  45   2.0000      -0.536992       -14.6123
  46   2.0000      -0.517671       -14.0865
  47   2.0000      -0.511674       -13.9234
  48   2.0000      -0.503146       -13.6913
  49   2.0000      -0.495236       -13.4761
  50   2.0000      -0.481820       -13.1110
  51   2.0000      -0.479185       -13.0393
  52   2.0000      -0.473465       -12.8836
  53   2.0000      -0.469805       -12.7841
  54   2.0000      -0.458048       -12.4641
  55   2.0000      -0.441454       -12.0126
  56   2.0000      -0.438441       -11.9306
  57   2.0000      -0.436818       -11.8864
  58   2.0000      -0.433207       -11.7882
  59   2.0000      -0.427571       -11.6348
  60   2.0000      -0.415679       -11.3112
  61   2.0000      -0.413660       -11.2563
  62   2.0000      -0.409882       -11.1535
  63   2.0000      -0.344888        -9.3849
  64   2.0000      -0.332088        -9.0366
  65   2.0000      -0.324907        -8.8412
  66   2.0000      -0.293348        -7.9824
  67   0.0000       0.030025         0.8170
  68   0.0000       0.055701         1.5157
  69   0.0000       0.108197         2.9442
  70   0.0000       0.124121         3.3775
  71   0.0000       0.132922         3.6170

MULLIKEN ATOMIC CHARGES
-----------------------
   0 S :    0.108106
   1 C :   -0.132045
   2 C :   -0.086297
   3 C :    0.026522
   4 C :   -0.152772
   5 H :    0.034939
   6 C :    0.109129
   7 H :    0.009168
   8 H :    0.029385
   9 C :   -0.047865
  10 H :    0.022028
  11 H :    0.015381
  12 C :   -0.036724
  13 H :    0.018706
  14 H :    0.016258
  15 H :    0.031758
  16 S :    0.113000
  17 C :   -0.090523
  18 C :   -0.052429
  19 C :   -0.022386
  20 C :   -0.146615
  21 H :    0.023324
  22 C :    0.028029
  23 H :    0.008581
  24 H :    0.027719
  25 C :   -0.068620
  26 H :    0.025882
  27 H :    0.036823
  28 C :   -0.035323
  29 H :    0.025763
  30 H :    0.026445
  31 H :    0.030614
  32 H :    0.048506
  33 H :    0.055537
Sum of atomic charges:   -0.0000000

LOEWDIN ATOMIC CHARGES
----------------------
   0 S :    0.401143
   1 C :   -0.185984
   2 C :   -0.058553
   3 C :   -0.056860
   4 C :   -0.196600
   5 H :    0.040219
   6 C :   -0.020517
   7 H :    0.025177
   8 H :    0.029347
   9 C :   -0.033011
  10 H :    0.022701
  11 H :    0.016552
  12 C :   -0.064224
  13 H :    0.021902
  14 H :    0.023066
  15 H :    0.023828
  16 S :    0.434327
  17 C :   -0.199470
  18 C :   -0.079107
  19 C :   -0.067047
  20 C :   -0.209309
  21 H :    0.037902
  22 C :   -0.042475
  23 H :    0.028008
  24 H :    0.035356
  25 C :   -0.038271
  26 H :    0.025127
  27 H :    0.026275
  28 C :   -0.062824
  29 H :    0.028878
  30 H :    0.020267
  31 H :    0.019009
  32 H :    0.022212
  33 H :    0.032957

  Mayer bond orders larger than 0.100000
B(  0-S ,  1-C ) :   1.1431 B(  0-S ,  4-C ) :   1.1596 B(  1-C ,  2-C ) :   1.5768
B(  1-C ,  4-C ) :   0.1076 B(  1-C , 32-H ) :   0.9811 B(  2-C ,  3-C ) :   1.2652
B(  2-C ,  6-C ) :   1.0095 B(  3-C ,  4-C ) :   1.5538 B(  3-C ,  5-H ) :   0.9846
B(  4-C , 20-C ) :   1.0223 B(  6-C ,  7-H ) :   0.9452 B(  6-C ,  8-H ) :   0.9361
B(  6-C ,  9-C ) :   1.0697 B(  9-C , 10-H ) :   0.9564 B(  9-C , 11-H ) :   0.9633
B(  9-C , 12-C ) :   1.0772 B( 12-C , 13-H ) :   0.9692 B( 12-C , 14-H ) :   0.9720
B( 12-C , 15-H ) :   0.9786 B( 16-S , 17-C ) :   1.1871 B( 16-S , 20-C ) :   1.1665
B( 17-C , 18-C ) :   1.5644 B( 17-C , 20-C ) :   0.1131 B( 17-C , 33-H ) :   0.9604
B( 18-C , 19-C ) :   1.3024 B( 18-C , 21-H ) :   0.9921 B( 19-C , 20-C ) :   1.5364
B( 19-C , 22-C ) :   1.0468 B( 22-C , 23-H ) :   0.9353 B( 22-C , 24-H ) :   0.9345
B( 22-C , 25-C ) :   1.0657 B( 25-C , 26-H ) :   0.9560 B( 25-C , 27-H ) :   0.9579
B( 25-C , 28-C ) :   1.0842 B( 28-C , 29-H ) :   0.9730 B( 28-C , 30-H ) :   0.9725
B( 28-C , 31-H ) :   0.9771

Dispersion correction           -0.014661786
FINAL SINGLE POINT ENERGY     -1339.869069012344

DIPOLE MOMENT
-------------
                                X             Y             Z
Electronic contribution:      9.56267      17.75508      15.37045
Nuclear contribution   :     -9.50903     -18.06890     -15.85665
                        -----------------------------------------
Total Dipole Moment    :      0.05364      -0.31382      -0.48620
                        -----------------------------------------
Magnitude (a.u.)       :      0.58117
Magnitude (Debye)      :      1.47720

Rotational constants in cm-1:     0.019609     0.008629     0.007121
Rotational constants in MHz :   587.857316   258.677118   213.476725

                             ****ORCA TERMINATED NORMALLY****
TOTAL RUN TIME: 0 days 0 hours 0 minutes 30 seconds 569 msec
