                         Program Version 4.2.1 -  RELEASE  -
|  1> ! wB97X-D3 SP def2-SVP
|  2> %pal
|  3> nprocs 16
|  4> end
|  5>
|  6> * xyz 0 1
|  7> S 	 48.6017 	 14.6384 	 86.4665
|  8> C 	 48.3262 	 16.2523 	 86.9821
|  9> C 	 48.8324 	 17.1935 	 86.046
| 10> C 	 49.5254 	 16.5687 	 85.0412
| 11> C 	 49.5325 	 15.1617 	 85.0887
| 12> H 	 50.0893 	 17.1316 	 84.2511
| 13> C 	 48.667 	 18.6657 	 86.0445
| 14> H 	 49.3272 	 19.0656 	 85.3131
| 15> H 	 48.9994 	 19.004 	 86.9837
| 16> C 	 47.2159 	 19.1943 	 85.8531
| 17> H 	 46.6615 	 18.8636 	 86.8117
| 18> H 	 47.0947 	 20.3076 	 85.9724
| 19> C 	 46.6588 	 18.7474 	 84.5234
| 20> H 	 46.4935 	 17.6447 	 84.5563
| 21> H 	 45.6591 	 19.1945 	 84.3396
| 22> H 	 47.3512 	 18.9245 	 83.7196
| 23> S 	 48.9723 	 13.0345 	 83.4163
| 24> C 	 50.1764 	 12.5025 	 82.2603
| 25> C 	 51.2323 	 13.3445 	 82.2086
| 26> C 	 51.1954 	 14.3559 	 83.1848
| 27> C 	 50.0318 	 14.2833 	 84.0068
| 28> H 	 51.9581 	 13.1536 	 81.4369
| 29> C 	 52.4191 	 15.289 	 83.2545
| 30> H 	 52.0952 	 16.3342 	 83.4743
| 31> H 	 52.8704 	 15.2954 	 82.2248
| 32> C 	 53.3406 	 15.0427 	 84.3698
| 33> H 	 54.0566 	 15.849 	 84.4757
| 34> H 	 53.9275 	 14.1098 	 84.0702
| 35> C 	 52.72 	 14.9208 	 85.7791
| 36> H 	 51.8924 	 14.1765 	 85.8054
| 37> H 	 52.2177 	 15.8692 	 86.0019
| 38> H 	 53.4559 	 14.6858 	 86.4844
| 39> H 	 47.6707 	 16.5881 	 87.8459
| 40> H 	 49.9495 	 11.7744 	 81.4588
| 41> *
| 42>
| 43>                          ****END OF INPUT****

CARTESIAN COORDINATES (ANGSTROEM)
---------------------------------
  S     48.601700   14.638400   86.466500
  C     48.326200   16.252300   86.982100
  C     48.832400   17.193500   86.046000
  C     49.525400   16.568700   85.041200
  C     49.532500   15.161700   85.088700
  H     50.089300   17.131600   84.251100
  C     48.667000   18.665700   86.044500
  H     49.327200   19.065600   85.313100
  H     48.999400   19.004000   86.983700
  C     47.215900   19.194300   85.853100
  H     46.661500   18.863600   86.811700
  H     47.094700   20.307600   85.972400
  C     46.658800   18.747400   84.523400
  H     46.493500   17.644700   84.556300
  H     45.659100   19.194500   84.339600
  H     47.351200   18.924500   83.719600
  S     48.972300   13.034500   83.416300
  C     50.176400   12.502500   82.260300
  C     51.232300   13.344500   82.208600
  C     51.195400   14.355900   83.184800
  C     50.031800   14.283300   84.006800
  H     51.958100   13.153600   81.436900
  C     52.419100   15.289000   83.254500
  H     52.095200   16.334200   83.474300
  H     52.870400   15.295400   82.224800
  C     53.340600   15.042700   84.369800
  H     54.056600   15.849000   84.475700
  H     53.927500   14.109800   84.070200
  C     52.720000   14.920800   85.779100
  H     51.892400   14.176500   85.805400
  H     52.217700   15.869200   86.001900
  H     53.455900   14.685800   86.484400
  H     47.670700   16.588100   87.845900
  H     49.949500   11.774400   81.458800

 Total Charge           Charge          ....    0
 Multiplicity           Mult            ....    1
 Number of Electrons    NEL             ....  134
 Basis Dimension        Dim             ....  322

ORBITAL ENERGIES
----------------

  NO   OCC          E(Eh)            E(eV)
   0   2.0000     -88.976841     -2421.1829
   1   2.0000     -88.966821     -2420.9103
   2   2.0000     -10.334528      -281.2168
   3   2.0000     -10.333110      -281.1782
   4   2.0000     -10.319975      -280.8208
   5   2.0000     -10.313372      -280.6411
   6   2.0000     -10.305712      -280.4327
   7   2.0000     -10.297102      -280.1984
   8   2.0000     -10.296883      -280.1924
   9   2.0000     -10.294337      -280.1232
  10   2.0000     -10.293588      -280.1028
  11   2.0000     -10.288471      -279.9635
  12   2.0000     -10.284685      -279.8605
  13   2.0000     -10.281950      -279.7861
  14   2.0000     -10.277246      -279.6581
  15   2.0000     -10.266969      -279.3784
  16   2.0000      -8.091166      -220.1718
  17   2.0000      -8.081707      -219.9144
  18   2.0000      -6.049490      -164.6150
  19   2.0000      -6.045516      -164.5069
  20   2.0000      -6.042367      -164.4212
  21   2.0000      -6.040127      -164.3602
  22   2.0000      -6.036181      -164.2528
  23   2.0000      -6.032564      -164.1544
  24   2.0000      -1.009731       -27.4762
  25   2.0000      -0.990000       -26.9393
  26   2.0000      -0.916729       -24.9455
  27   2.0000      -0.912414       -24.8280
  28   2.0000      -0.868374       -23.6296
  29   2.0000      -0.854984       -23.2653
  30   2.0000      -0.842963       -22.9382
  31   2.0000      -0.810904       -22.0658
  32   2.0000      -0.785460       -21.3734
  33   2.0000      -0.772611       -21.0238
  34   2.0000      -0.705330       -19.1930
  35   2.0000      -0.698562       -19.0088
  36   2.0000      -0.680860       -18.5271
  37   2.0000      -0.660341       -17.9688
  38   2.0000      -0.632259       -17.2046
  39   2.0000      -0.618651       -16.8343
  40   2.0000      -0.591225       -16.0880
  41   2.0000      -0.572378       -15.5752
  42   2.0000      -0.558253       -15.1908
  43   2.0000      -0.553292       -15.0558
  44   2.0000      -0.551403       -15.0044
  45   2.0000      -0.539419       -14.6783
  46   2.0000      -0.507945       -13.8219
  47   2.0000      -0.505520       -13.7559
  48   2.0000      -0.500873       -13.6295
  49   2.0000      -0.496081       -13.4991
  50   2.0000      -0.489282       -13.3140
  51   2.0000      -0.476192       -12.9578
  52   2.0000      -0.472052       -12.8452
  53   2.0000      -0.466421       -12.6920
  54   2.0000      -0.455808       -12.4032
  55   2.0000      -0.449986       -12.2447
  56   2.0000      -0.445239       -12.1156
  57   2.0000      -0.441739       -12.0203
  58   2.0000      -0.433977       -11.8091
  59   2.0000      -0.431454       -11.7405
  60   2.0000      -0.410579       -11.1724
  61   2.0000      -0.408255       -11.1092
  62   2.0000      -0.401333       -10.9208
  63   2.0000      -0.352676        -9.5968
  64   2.0000      -0.337435        -9.1821
  65   2.0000      -0.330976        -9.0063
  66   2.0000      -0.283156        -7.7051
  67   0.0000       0.021278         0.5790
  68   0.0000       0.069855         1.9008
  69   0.0000       0.108432         2.9506
  70   0.0000       0.117663         3.2018
  71   0.0000       0.137428         3.7396

MULLIKEN ATOMIC CHARGES
-----------------------
   0 S :    0.144349
   1 C :   -0.145355
   2 C :   -0.110849
   3 C :    0.003162
   4 C :   -0.171854
   5 H :    0.028582
   6 C :    0.119471
   7 H :    0.008376
   8 H :    0.015411
   9 C :   -0.115305
  10 H :    0.028776
  11 H :    0.036418
  12 C :   -0.042772
  13 H :    0.048585
  14 H :    0.040153
  15 H :    0.031298
  16 S :    0.105245
  17 C :   -0.103493
  18 C :   -0.043451
  19 C :   -0.036961
  20 C :   -0.154905
  21 H :    0.018086
  22 C :    0.066577
  23 H :    0.009964
  24 H :    0.036651
  25 C :   -0.078068
  26 H :    0.026733
  27 H :    0.024333
  28 C :   -0.027457
  29 H :    0.045800
  30 H :    0.026792
  31 H :    0.029299
  32 H :    0.070242
  33 H :    0.066167
Sum of atomic charges:   -0.0000000

LOEWDIN ATOMIC CHARGES
----------------------
   0 S :    0.446476
   1 C :   -0.228054
   2 C :   -0.068539
   3 C :   -0.068180
   4 C :   -0.207639
   5 H :    0.036491
   6 C :   -0.025997
   7 H :    0.023531
   8 H :    0.028087
   9 C :   -0.048681
  10 H :    0.027315
  11 H :    0.026547
  12 C :   -0.069979
  13 H :    0.034435
  14 H :    0.029969
  15 H :    0.023773
  16 S :    0.412284
  17 C :   -0.192611
  18 C :   -0.074104
  19 C :   -0.057901
  20 C :   -0.200852
  21 H :    0.034184
  22 C :   -0.038799
  23 H :    0.026454
  24 H :    0.037879
  25 C :   -0.046252
  26 H :    0.022649
  27 H :    0.023772
  28 C :   -0.058375
  29 H :    0.028994
  30 H :    0.026281
  31 H :    0.019072
  32 H :    0.042200
  33 H :    0.035567

  Mayer bond orders larger than 0.100000
B(  0-S ,  1-C ) :   1.1734 B(  0-S ,  4-C ) :   1.1835 B(  1-C ,  2-C ) :   1.5167
B(  1-C ,  4-C ) :   0.1156 B(  1-C , 32-H ) :   0.9592 B(  2-C ,  3-C ) :   1.3497
B(  2-C ,  6-C ) :   1.0220 B(  3-C ,  4-C ) :   1.4880 B(  3-C ,  5-H ) :   0.9784
B(  4-C , 20-C ) :   1.0505 B(  6-C ,  7-H ) :   0.9424 B(  6-C ,  8-H ) :   0.9260
B(  6-C ,  9-C ) :   1.0698 B(  9-C , 10-H ) :   0.9539 B(  9-C , 11-H ) :   0.9580
B(  9-C , 12-C ) :   1.0661 B( 12-C , 13-H ) :   0.9711 B( 12-C , 14-H ) :   0.9731
B( 12-C , 15-H ) :   0.9749 B( 16-S , 17-C ) :   1.1528 B( 16-S , 20-C ) :   1.1657
B( 17-C , 18-C ) :   1.6121 B( 17-C , 20-C ) :   0.1024 B( 17-C , 33-H ) :   0.9589
B( 18-C , 19-C ) :   1.2633 B( 18-C , 21-H ) :   0.9920 B( 19-C , 20-C ) :   1.5507
B( 19-C , 22-C ) :   1.0312 B( 22-C , 23-H ) :   0.9272 B( 22-C , 24-H ) :   0.9373
B( 22-C , 25-C ) :   1.0818 B( 25-C , 26-H ) :   0.9531 B( 25-C , 27-H ) :   0.9479
B( 25-C , 28-C ) :   1.0844 B( 28-C , 29-H ) :   0.9658 B( 28-C , 30-H ) :   0.9690
B( 28-C , 31-H ) :   0.9708

Dispersion correction           -0.016014169
FINAL SINGLE POINT ENERGY     -1339.874989533655

DIPOLE MOMENT
-------------
                                X             Y             Z
Electronic contribution:     -6.80377     -19.58950      -0.63660
Nuclear contribution   :      6.93970      20.12841       0.42451
                        -----------------------------------------
Total Dipole Moment    :      0.13593       0.53891      -0.21208
                        -----------------------------------------
Magnitude (a.u.)       :      0.59488
Magnitude (Debye)      :      1.51206

Rotational constants in cm-1:     0.020605     0.008929     0.008039
Rotational constants in MHz :   617.713413   267.679624   240.998451

                             ****ORCA TERMINATED NORMALLY****
TOTAL RUN TIME: 0 days 0 hours 0 minutes 32 seconds 638 msec
