                         Program Version 4.2.1 -  RELEASE  -
|  1> ! wB97X-D3 SP def2-SVP
|  2> %pal
|  3> nprocs 16
|  4> end
|  5>
|  6> * xyz 0 1
|  7> S 	 -1.32489 	 -10.1132 	 65.6409
|  8> C 	 -2.83132 	 -9.87753 	 66.5018
|  9> C 	 -2.79184 	 -10.5161 	 67.7181
| 10> C 	 -1.57076 	 -11.1791 	 68.023
| 11> C 	 -0.770757 	 -11.2117 	 66.8739
| 12> H 	 -1.38835 	 -11.7886 	 68.8918
| 13> C 	 -3.90374 	 -10.5834 	 68.7473
| 14> H 	 -3.49615 	 -11.1647 	 69.594
| 15> H 	 -4.76883 	 -11.073 	 68.2549
| 16> C 	 -4.37174 	 -9.15793 	 69.2093
| 17> H 	 -4.70484 	 -8.50911 	 68.3908
| 18> H 	 -5.16047 	 -9.34442 	 69.9435
| 19> C 	 -3.23603 	 -8.39926 	 69.8117
| 20> H 	 -2.6887 	 -8.99545 	 70.4971
| 21> H 	 -2.56942 	 -8.16475 	 69.0118
| 22> H 	 -3.72582 	 -7.47752 	 70.261
| 23> S 	 1.95089 	 -11.1797 	 66.1704
| 24> C 	 2.82793 	 -12.7191 	 66.1164
| 25> C 	 1.96592 	 -13.7675 	 66.3334
| 26> C 	 0.609567 	 -13.3782 	 66.6683
| 27> C 	 0.380907 	 -12.0333 	 66.5308
| 28> H 	 2.39834 	 -14.749 	 66.1833
| 29> C 	 -0.480471 	 -14.4121 	 66.9413
| 30> H 	 -0.59885 	 -15.0456 	 66.0277
| 31> H 	 -1.42856 	 -14.0368 	 67.2107
| 32> C 	 -0.166348 	 -15.2368 	 68.2053
| 33> H 	 0.88212 	 -15.6699 	 68.1163
| 34> H 	 -0.85009 	 -16.0794 	 68.1524
| 35> C 	 -0.425741 	 -14.65 	 69.648
| 36> H 	 0.460815 	 -14.1276 	 69.9426
| 37> H 	 -0.641221 	 -15.427 	 70.34
| 38> H 	 -1.09103 	 -13.7778 	 69.5767
| 39> H 	 -3.58474 	 -9.17604 	 66.2156
| 40> H 	 3.85296 	 -12.9341 	 65.7932
| 41> *
| 42>
| 43>                          ****END OF INPUT****

CARTESIAN COORDINATES (ANGSTROEM)
---------------------------------
  S     -1.324890  -10.113200   65.640900
  C     -2.831320   -9.877530   66.501800
  C     -2.791840  -10.516100   67.718100
  C     -1.570760  -11.179100   68.023000
  C     -0.770757  -11.211700   66.873900
  H     -1.388350  -11.788600   68.891800
  C     -3.903740  -10.583400   68.747300
  H     -3.496150  -11.164700   69.594000
  H     -4.768830  -11.073000   68.254900
  C     -4.371740   -9.157930   69.209300
  H     -4.704840   -8.509110   68.390800
  H     -5.160470   -9.344420   69.943500
  C     -3.236030   -8.399260   69.811700
  H     -2.688700   -8.995450   70.497100
  H     -2.569420   -8.164750   69.011800
  H     -3.725820   -7.477520   70.261000
  S      1.950890  -11.179700   66.170400
  C      2.827930  -12.719100   66.116400
  C      1.965920  -13.767500   66.333400
  C      0.609567  -13.378200   66.668300
  C      0.380907  -12.033300   66.530800
  H      2.398340  -14.749000   66.183300
  C     -0.480471  -14.412100   66.941300
  H     -0.598850  -15.045600   66.027700
  H     -1.428560  -14.036800   67.210700
  C     -0.166348  -15.236800   68.205300
  H      0.882120  -15.669900   68.116300
  H     -0.850090  -16.079400   68.152400
  C     -0.425741  -14.650000   69.648000
  H      0.460815  -14.127600   69.942600
  H     -0.641221  -15.427000   70.340000
  H     -1.091030  -13.777800   69.576700
  H     -3.584740   -9.176040   66.215600
  H      3.852960  -12.934100   65.793200

 Total Charge           Charge          ....    0
 Multiplicity           Mult            ....    1
 Number of Electrons    NEL             ....  134
 Basis Dimension        Dim             ....  322

ORBITAL ENERGIES
----------------

  NO   OCC          E(Eh)            E(eV)
   0   2.0000     -88.967287     -2420.9229
   1   2.0000     -88.962502     -2420.7928
   2   2.0000     -10.333107      -281.1781
   3   2.0000     -10.330053      -281.0950
   4   2.0000     -10.321810      -280.8707
   5   2.0000     -10.310906      -280.5740
   6   2.0000     -10.308391      -280.5056
   7   2.0000     -10.299461      -280.2626
   8   2.0000     -10.298311      -280.2313
   9   2.0000     -10.296151      -280.1725
  10   2.0000     -10.295393      -280.1519
  11   2.0000     -10.293503      -280.1004
  12   2.0000     -10.291222      -280.0384
  13   2.0000     -10.284859      -279.8652
  14   2.0000     -10.280586      -279.7490
  15   2.0000     -10.269138      -279.4375
  16   2.0000      -8.082270      -219.9298
  17   2.0000      -8.076073      -219.7611
  18   2.0000      -6.040705      -164.3759
  19   2.0000      -6.036707      -164.2671
  20   2.0000      -6.034887      -164.2176
  21   2.0000      -6.033125      -164.1697
  22   2.0000      -6.030806      -164.1066
  23   2.0000      -6.026496      -163.9893
  24   2.0000      -1.005718       -27.3670
  25   2.0000      -0.980317       -26.6758
  26   2.0000      -0.915146       -24.9024
  27   2.0000      -0.904685       -24.6177
  28   2.0000      -0.869149       -23.6507
  29   2.0000      -0.853140       -23.2151
  30   2.0000      -0.841528       -22.8991
  31   2.0000      -0.814364       -22.1600
  32   2.0000      -0.785844       -21.3839
  33   2.0000      -0.774383       -21.0720
  34   2.0000      -0.708154       -19.2698
  35   2.0000      -0.697502       -18.9800
  36   2.0000      -0.690075       -18.7779
  37   2.0000      -0.655211       -17.8292
  38   2.0000      -0.641843       -17.4654
  39   2.0000      -0.613870       -16.7042
  40   2.0000      -0.596676       -16.2364
  41   2.0000      -0.577975       -15.7275
  42   2.0000      -0.558991       -15.2109
  43   2.0000      -0.552554       -15.0358
  44   2.0000      -0.547721       -14.9043
  45   2.0000      -0.531332       -14.4583
  46   2.0000      -0.522194       -14.2096
  47   2.0000      -0.513853       -13.9826
  48   2.0000      -0.504604       -13.7310
  49   2.0000      -0.503102       -13.6901
  50   2.0000      -0.488336       -13.2883
  51   2.0000      -0.482798       -13.1376
  52   2.0000      -0.470300       -12.7975
  53   2.0000      -0.464460       -12.6386
  54   2.0000      -0.463092       -12.6014
  55   2.0000      -0.448132       -12.1943
  56   2.0000      -0.442385       -12.0379
  57   2.0000      -0.432579       -11.7711
  58   2.0000      -0.430458       -11.7133
  59   2.0000      -0.424270       -11.5450
  60   2.0000      -0.416639       -11.3373
  61   2.0000      -0.415178       -11.2976
  62   2.0000      -0.403412       -10.9774
  63   2.0000      -0.341338        -9.2883
  64   2.0000      -0.334035        -9.0895
  65   2.0000      -0.328530        -8.9398
  66   2.0000      -0.296625        -8.0716
  67   0.0000       0.026350         0.7170
  68   0.0000       0.062845         1.7101
  69   0.0000       0.106526         2.8987
  70   0.0000       0.120055         3.2669
  71   0.0000       0.125297         3.4095

MULLIKEN ATOMIC CHARGES
-----------------------
   0 S :    0.115656
   1 C :   -0.104704
   2 C :   -0.142205
   3 C :    0.067250
   4 C :   -0.169594
   5 H :   -0.001228
   6 C :    0.060919
   7 H :    0.025595
   8 H :    0.049570
   9 C :   -0.094206
  10 H :    0.031689
  11 H :    0.032890
  12 C :   -0.033713
  13 H :    0.015350
  14 H :    0.037264
  15 H :    0.045851
  16 S :    0.079547
  17 C :   -0.089298
  18 C :   -0.047457
  19 C :   -0.020990
  20 C :   -0.129499
  21 H :    0.023161
  22 C :    0.085163
  23 H :    0.051527
  24 H :    0.012046
  25 C :   -0.141524
  26 H :    0.035986
  27 H :    0.024805
  28 C :   -0.013254
  29 H :    0.027366
  30 H :    0.047927
  31 H :    0.013588
  32 H :    0.039746
  33 H :    0.064776
Sum of atomic charges:   -0.0000000

LOEWDIN ATOMIC CHARGES
----------------------
   0 S :    0.419165
   1 C :   -0.203747
   2 C :   -0.064286
   3 C :   -0.062546
   4 C :   -0.183359
   5 H :    0.027153
   6 C :   -0.031858
   7 H :    0.029910
   8 H :    0.038252
   9 C :   -0.042012
  10 H :    0.024184
  11 H :    0.021653
  12 C :   -0.062086
  13 H :    0.015083
  14 H :    0.023687
  15 H :    0.036287
  16 S :    0.354819
  17 C :   -0.175973
  18 C :   -0.074422
  19 C :   -0.053553
  20 C :   -0.182982
  21 H :    0.032215
  22 C :   -0.026502
  23 H :    0.042541
  24 H :    0.022549
  25 C :   -0.044383
  26 H :    0.023742
  27 H :    0.020238
  28 C :   -0.063049
  29 H :    0.026551
  30 H :    0.027937
  31 H :    0.023243
  32 H :    0.023161
  33 H :    0.038386

  Mayer bond orders larger than 0.100000
B(  0-S ,  1-C ) :   1.1264 B(  0-S ,  4-C ) :   1.1864 B(  1-C ,  2-C ) :   1.6075
B(  1-C ,  4-C ) :   0.1028 B(  1-C , 32-H ) :   0.9746 B(  2-C ,  3-C ) :   1.2436
B(  2-C ,  6-C ) :   1.0090 B(  3-C ,  4-C ) :   1.5415 B(  3-C ,  5-H ) :   0.9961
B(  4-C , 20-C ) :   1.0135 B(  6-C ,  7-H ) :   0.9452 B(  6-C ,  8-H ) :   0.9390
B(  6-C ,  9-C ) :   1.0727 B(  9-C , 10-H ) :   0.9578 B(  9-C , 11-H ) :   0.9592
B(  9-C , 12-C ) :   1.0719 B( 12-C , 13-H ) :   0.9775 B( 12-C , 14-H ) :   0.9696
B( 12-C , 15-H ) :   0.9722 B( 16-S , 17-C ) :   1.1313 B( 16-S , 20-C ) :   1.1007
B( 17-C , 18-C ) :   1.6735 B( 17-C , 33-H ) :   0.9593 B( 18-C , 19-C ) :   1.1739
B( 18-C , 21-H ) :   0.9860 B( 19-C , 20-C ) :   1.6563 B( 19-C , 22-C ) :   1.0468
B( 22-C , 23-H ) :   0.9419 B( 22-C , 24-H ) :   0.9347 B( 22-C , 25-C ) :   1.0643
B( 25-C , 26-H ) :   0.9600 B( 25-C , 27-H ) :   0.9610 B( 25-C , 28-C ) :   1.0574
B( 28-C , 29-H ) :   0.9749 B( 28-C , 30-H ) :   0.9758 B( 28-C , 31-H ) :   0.9696

Dispersion correction           -0.015233489
FINAL SINGLE POINT ENERGY     -1339.864985285371

DIPOLE MOMENT
-------------
                                X             Y             Z
Electronic contribution:     14.44901       7.45363     -19.91207
Nuclear contribution   :    -14.78121      -7.96090      20.23151
                        -----------------------------------------
Total Dipole Moment    :     -0.33220      -0.50727       0.31944
                        -----------------------------------------
Magnitude (a.u.)       :      0.68536
Magnitude (Debye)      :      1.74206

Rotational constants in cm-1:     0.020189     0.008926     0.007069
Rotational constants in MHz :   605.239831   267.591039   211.927376

                             ****ORCA TERMINATED NORMALLY****
TOTAL RUN TIME: 0 days 0 hours 0 minutes 36 seconds 84 msec
