                         Program Version 4.2.1 -  RELEASE  -
|  1> ! wB97X-D3 SP def2-SVP
|  2> %pal
|  3> nprocs 16
|  4> end
|  5>
|  6> * xyz 0 1
|  7> S 	 1.65334 	 -18.8903 	 83.2409
|  8> C 	 0.932277 	 -20.4414 	 83.5607
|  9> C 	 1.12028 	 -20.8013 	 84.9344
| 10> C 	 1.82287 	 -19.8071 	 85.6291
| 11> C 	 2.18682 	 -18.6751 	 84.9084
| 12> H 	 2.11764 	 -19.8904 	 86.7152
| 13> C 	 0.471827 	 -22.0198 	 85.6027
| 14> H 	 -0.471972 	 -21.7667 	 86.1146
| 15> H 	 1.20226 	 -22.2847 	 86.377
| 16> C 	 0.280711 	 -23.2961 	 84.7272
| 17> H 	 -0.257328 	 -23.0983 	 83.7946
| 18> H 	 1.20114 	 -23.835 	 84.3438
| 19> C 	 -0.410829 	 -24.419 	 85.5321
| 20> H 	 0.0936717 	 -24.5968 	 86.482
| 21> H 	 -1.48025 	 -24.2628 	 85.6506
| 22> H 	 -0.346681 	 -25.4066 	 85.1367
| 23> S 	 1.79159 	 -16.2383 	 86.2438
| 24> C 	 3.12528 	 -15.218 	 86.6912
| 25> C 	 4.26316 	 -15.9638 	 86.4979
| 26> C 	 4.1306 	 -17.2611 	 85.8097
| 27> C 	 2.80314 	 -17.5029 	 85.4699
| 28> H 	 5.16177 	 -15.4461 	 86.7887
| 29> C 	 5.26218 	 -18.0166 	 85.2584
| 30> H 	 4.92997 	 -18.9691 	 84.8195
| 31> H 	 5.94431 	 -18.2951 	 86.0692
| 32> C 	 6.02961 	 -17.3202 	 84.1079
| 33> H 	 6.45959 	 -16.4049 	 84.488
| 34> H 	 5.24232 	 -16.9843 	 83.4371
| 35> C 	 7.03476 	 -18.1979 	 83.4291
| 36> H 	 7.2315 	 -17.8897 	 82.3981
| 37> H 	 6.63675 	 -19.2306 	 83.4714
| 38> H 	 7.99818 	 -18.1513 	 83.9662
| 39> H 	 0.40954 	 -21.021 	 82.8519
| 40> H 	 3.13572 	 -14.2008 	 87.0798
| 41> *
| 42>
| 43>                          ****END OF INPUT****

CARTESIAN COORDINATES (ANGSTROEM)
---------------------------------
  S      1.653340  -18.890300   83.240900
  C      0.932277  -20.441400   83.560700
  C      1.120280  -20.801300   84.934400
  C      1.822870  -19.807100   85.629100
  C      2.186820  -18.675100   84.908400
  H      2.117640  -19.890400   86.715200
  C      0.471827  -22.019800   85.602700
  H     -0.471972  -21.766700   86.114600
  H      1.202260  -22.284700   86.377000
  C      0.280711  -23.296100   84.727200
  H     -0.257328  -23.098300   83.794600
  H      1.201140  -23.835000   84.343800
  C     -0.410829  -24.419000   85.532100
  H      0.093672  -24.596800   86.482000
  H     -1.480250  -24.262800   85.650600
  H     -0.346681  -25.406600   85.136700
  S      1.791590  -16.238300   86.243800
  C      3.125280  -15.218000   86.691200
  C      4.263160  -15.963800   86.497900
  C      4.130600  -17.261100   85.809700
  C      2.803140  -17.502900   85.469900
  H      5.161770  -15.446100   86.788700
  C      5.262180  -18.016600   85.258400
  H      4.929970  -18.969100   84.819500
  H      5.944310  -18.295100   86.069200
  C      6.029610  -17.320200   84.107900
  H      6.459590  -16.404900   84.488000
  H      5.242320  -16.984300   83.437100
  C      7.034760  -18.197900   83.429100
  H      7.231500  -17.889700   82.398100
  H      6.636750  -19.230600   83.471400
  H      7.998180  -18.151300   83.966200
  H      0.409540  -21.021000   82.851900
  H      3.135720  -14.200800   87.079800

 Total Charge           Charge          ....    0
 Multiplicity           Mult            ....    1
 Number of Electrons    NEL             ....  134
 Basis Dimension        Dim             ....  322

ORBITAL ENERGIES
----------------

  NO   OCC          E(Eh)            E(eV)
   0   2.0000     -88.970757     -2421.0174
   1   2.0000     -88.958053     -2420.6717
   2   2.0000     -10.329007      -281.0666
   3   2.0000     -10.328029      -281.0400
   4   2.0000     -10.318709      -280.7863
   5   2.0000     -10.318471      -280.7799
   6   2.0000     -10.307371      -280.4778
   7   2.0000     -10.305672      -280.4316
   8   2.0000     -10.301415      -280.3157
   9   2.0000     -10.298518      -280.2369
  10   2.0000     -10.296915      -280.1933
  11   2.0000     -10.294026      -280.1147
  12   2.0000     -10.286759      -279.9169
  13   2.0000     -10.278700      -279.6976
  14   2.0000     -10.277975      -279.6779
  15   2.0000     -10.276302      -279.6324
  16   2.0000      -8.084844      -219.9998
  17   2.0000      -8.072617      -219.6671
  18   2.0000      -6.043211      -164.4441
  19   2.0000      -6.039225      -164.3357
  20   2.0000      -6.036012      -164.2482
  21   2.0000      -6.031274      -164.1193
  22   2.0000      -6.027071      -164.0049
  23   2.0000      -6.023256      -163.9011
  24   2.0000      -1.002714       -27.2852
  25   2.0000      -0.980903       -26.6917
  26   2.0000      -0.912394       -24.8275
  27   2.0000      -0.906115       -24.6566
  28   2.0000      -0.871535       -23.7157
  29   2.0000      -0.851937       -23.1824
  30   2.0000      -0.846198       -23.0262
  31   2.0000      -0.811666       -22.0866
  32   2.0000      -0.780040       -21.2260
  33   2.0000      -0.767653       -20.8889
  34   2.0000      -0.711931       -19.3726
  35   2.0000      -0.700802       -19.0698
  36   2.0000      -0.695282       -18.9196
  37   2.0000      -0.652382       -17.7522
  38   2.0000      -0.642150       -17.4738
  39   2.0000      -0.614004       -16.7079
  40   2.0000      -0.596476       -16.2309
  41   2.0000      -0.571739       -15.5578
  42   2.0000      -0.564405       -15.3583
  43   2.0000      -0.563825       -15.3425
  44   2.0000      -0.527906       -14.3651
  45   2.0000      -0.523147       -14.2355
  46   2.0000      -0.518512       -14.1094
  47   2.0000      -0.512889       -13.9564
  48   2.0000      -0.506840       -13.7918
  49   2.0000      -0.503465       -13.7000
  50   2.0000      -0.500575       -13.6214
  51   2.0000      -0.473389       -12.8816
  52   2.0000      -0.467159       -12.7120
  53   2.0000      -0.462784       -12.5930
  54   2.0000      -0.454146       -12.3579
  55   2.0000      -0.452634       -12.3168
  56   2.0000      -0.444929       -12.1071
  57   2.0000      -0.432284       -11.7631
  58   2.0000      -0.427898       -11.6437
  59   2.0000      -0.422679       -11.5017
  60   2.0000      -0.417979       -11.3738
  61   2.0000      -0.416319       -11.3286
  62   2.0000      -0.407882       -11.0990
  63   2.0000      -0.337709        -9.1895
  64   2.0000      -0.322226        -8.7682
  65   2.0000      -0.319725        -8.7002
  66   2.0000      -0.311885        -8.4868
  67   0.0000       0.036739         0.9997
  68   0.0000       0.050865         1.3841
  69   0.0000       0.111028         3.0212
  70   0.0000       0.125269         3.4087
  71   0.0000       0.132226         3.5980

MULLIKEN ATOMIC CHARGES
-----------------------
   0 S :    0.127607
   1 C :   -0.112255
   2 C :   -0.077467
   3 C :    0.024216
   4 C :   -0.195471
   5 H :    0.036946
   6 C :    0.063182
   7 H :    0.057874
   8 H :    0.028662
   9 C :   -0.109391
  10 H :    0.030052
  11 H :    0.040368
  12 C :   -0.048722
  13 H :    0.024712
  14 H :    0.033998
  15 H :    0.019259
  16 S :    0.093804
  17 C :   -0.096303
  18 C :   -0.043031
  19 C :    0.003676
  20 C :   -0.163521
  21 H :    0.012570
  22 C :    0.043798
  23 H :    0.022805
  24 H :    0.026415
  25 C :   -0.067532
  26 H :    0.017990
  27 H :    0.023827
  28 C :   -0.033657
  29 H :    0.040489
  30 H :    0.033064
  31 H :    0.035542
  32 H :    0.038711
  33 H :    0.067783
Sum of atomic charges:    0.0000000

LOEWDIN ATOMIC CHARGES
----------------------
   0 S :    0.421757
   1 C :   -0.192671
   2 C :   -0.068229
   3 C :   -0.059075
   4 C :   -0.211444
   5 H :    0.043556
   6 C :   -0.030194
   7 H :    0.039936
   8 H :    0.034031
   9 C :   -0.047786
  10 H :    0.019423
  11 H :    0.034234
  12 C :   -0.070687
  13 H :    0.026524
  14 H :    0.023589
  15 H :    0.022653
  16 S :    0.384036
  17 C :   -0.187536
  18 C :   -0.076229
  19 C :   -0.047490
  20 C :   -0.190070
  21 H :    0.025357
  22 C :   -0.037732
  23 H :    0.029656
  24 H :    0.030772
  25 C :   -0.039823
  26 H :    0.018085
  27 H :    0.024247
  28 C :   -0.066179
  29 H :    0.029974
  30 H :    0.029262
  31 H :    0.029230
  32 H :    0.018423
  33 H :    0.040400

  Mayer bond orders larger than 0.100000
B(  0-S ,  1-C ) :   1.1756 B(  0-S ,  4-C ) :   1.1496 B(  1-C ,  2-C ) :   1.5387
B(  1-C ,  4-C ) :   0.1118 B(  1-C , 32-H ) :   0.9769 B(  2-C ,  3-C ) :   1.3068
B(  2-C ,  6-C ) :   1.0059 B(  3-C ,  4-C ) :   1.5452 B(  3-C ,  5-H ) :   0.9843
B(  4-C , 20-C ) :   1.0459 B(  6-C ,  7-H ) :   0.9454 B(  6-C ,  8-H ) :   0.9423
B(  6-C ,  9-C ) :   1.0522 B(  9-C , 10-H ) :   0.9561 B(  9-C , 11-H ) :   0.9614
B(  9-C , 12-C ) :   1.0826 B( 12-C , 13-H ) :   0.9725 B( 12-C , 14-H ) :   0.9760
B( 12-C , 15-H ) :   0.9740 B( 16-S , 17-C ) :   1.1430 B( 16-S , 20-C ) :   1.1225
B( 17-C , 18-C ) :   1.6417 B( 17-C , 33-H ) :   0.9668 B( 18-C , 19-C ) :   1.1883
B( 18-C , 21-H ) :   0.9896 B( 19-C , 20-C ) :   1.5978 B( 19-C , 22-C ) :   1.0868
B( 22-C , 23-H ) :   0.9263 B( 22-C , 24-H ) :   0.9214 B( 22-C , 25-C ) :   1.0598
B( 25-C , 26-H ) :   0.9527 B( 25-C , 27-H ) :   0.9531 B( 25-C , 28-C ) :   1.0839
B( 28-C , 29-H ) :   0.9731 B( 28-C , 30-H ) :   0.9735 B( 28-C , 31-H ) :   0.9733

Dispersion correction           -0.013722110
FINAL SINGLE POINT ENERGY     -1339.876898677445

DIPOLE MOMENT
-------------
                                X             Y             Z
Electronic contribution:     -8.71878      20.68325       0.79206
Nuclear contribution   :      9.00974     -21.07372      -0.63090
                        -----------------------------------------
Total Dipole Moment    :      0.29096      -0.39046       0.16116
                        -----------------------------------------
Magnitude (a.u.)       :      0.51292
Magnitude (Debye)      :      1.30375

Rotational constants in cm-1:     0.020478     0.007053     0.006090
Rotational constants in MHz :   613.921224   211.458035   182.581096

                             ****ORCA TERMINATED NORMALLY****
TOTAL RUN TIME: 0 days 0 hours 0 minutes 33 seconds 920 msec
