                         Program Version 4.2.1 -  RELEASE  -
|  1> ! wB97X-D3 SP def2-SVP
|  2> %pal
|  3> nprocs 16
|  4> end
|  5>
|  6> * xyz 0 1
|  7> S 	 -35.2122 	 73.3522 	 155.456
|  8> C 	 -33.8949 	 73.7376 	 154.335
|  9> C 	 -34.0101 	 73.0569 	 153.098
| 10> C 	 -35.0844 	 72.0908 	 153.15
| 11> C 	 -35.8171 	 72.1385 	 154.359
| 12> H 	 -35.334 	 71.3709 	 152.336
| 13> C 	 -33.0003 	 73.1281 	 152.012
| 14> H 	 -32.5919 	 72.1917 	 151.867
| 15> H 	 -32.2468 	 73.7939 	 152.401
| 16> C 	 -33.4259 	 73.667 	 150.653
| 17> H 	 -34.3251 	 73.0771 	 150.376
| 18> H 	 -33.8509 	 74.6699 	 150.777
| 19> C 	 -32.2696 	 73.8305 	 149.61
| 20> H 	 -31.6754 	 72.9063 	 149.462
| 21> H 	 -32.5661 	 74.1151 	 148.614
| 22> H 	 -31.4676 	 74.5691 	 149.854
| 23> S 	 -38.4414 	 72.1969 	 154.829
| 24> C 	 -39.2682 	 70.8434 	 155.62
| 25> C 	 -38.4122 	 69.7544 	 155.795
| 26> C 	 -37.111 	 70.0121 	 155.21
| 27> C 	 -36.9461 	 71.3136 	 154.75
| 28> H 	 -38.7579 	 68.8915 	 156.311
| 29> C 	 -35.9208 	 69.0556 	 155.336
| 30> H 	 -34.9901 	 69.5904 	 155.294
| 31> H 	 -35.9526 	 68.4943 	 154.366
| 32> C 	 -35.727 	 68.0188 	 156.407
| 33> H 	 -34.9544 	 67.3302 	 156.049
| 34> H 	 -36.633 	 67.4544 	 156.358
| 35> C 	 -35.5183 	 68.6174 	 157.802
| 36> H 	 -35.3893 	 67.766 	 158.39
| 37> H 	 -36.3334 	 69.2795 	 158.158
| 38> H 	 -34.647 	 69.206 	 157.772
| 39> H 	 -33.2556 	 74.6422 	 154.416
| 40> H 	 -40.3331 	 70.8187 	 155.894
| 41> *
| 42>
| 43>                          ****END OF INPUT****

CARTESIAN COORDINATES (ANGSTROEM)
---------------------------------
  S    -35.212200   73.352200  155.456000
  C    -33.894900   73.737600  154.335000
  C    -34.010100   73.056900  153.098000
  C    -35.084400   72.090800  153.150000
  C    -35.817100   72.138500  154.359000
  H    -35.334000   71.370900  152.336000
  C    -33.000300   73.128100  152.012000
  H    -32.591900   72.191700  151.867000
  H    -32.246800   73.793900  152.401000
  C    -33.425900   73.667000  150.653000
  H    -34.325100   73.077100  150.376000
  H    -33.850900   74.669900  150.777000
  C    -32.269600   73.830500  149.610000
  H    -31.675400   72.906300  149.462000
  H    -32.566100   74.115100  148.614000
  H    -31.467600   74.569100  149.854000
  S    -38.441400   72.196900  154.829000
  C    -39.268200   70.843400  155.620000
  C    -38.412200   69.754400  155.795000
  C    -37.111000   70.012100  155.210000
  C    -36.946100   71.313600  154.750000
  H    -38.757900   68.891500  156.311000
  C    -35.920800   69.055600  155.336000
  H    -34.990100   69.590400  155.294000
  H    -35.952600   68.494300  154.366000
  C    -35.727000   68.018800  156.407000
  H    -34.954400   67.330200  156.049000
  H    -36.633000   67.454400  156.358000
  C    -35.518300   68.617400  157.802000
  H    -35.389300   67.766000  158.390000
  H    -36.333400   69.279500  158.158000
  H    -34.647000   69.206000  157.772000
  H    -33.255600   74.642200  154.416000
  H    -40.333100   70.818700  155.894000

 Total Charge           Charge          ....    0
 Multiplicity           Mult            ....    1
 Number of Electrons    NEL             ....  134
 Basis Dimension        Dim             ....  322

ORBITAL ENERGIES
----------------

  NO   OCC          E(Eh)            E(eV)
   0   2.0000     -88.970808     -2421.0188
   1   2.0000     -88.963166     -2420.8108
   2   2.0000     -10.332351      -281.1576
   3   2.0000     -10.322772      -280.8969
   4   2.0000     -10.321876      -280.8725
   5   2.0000     -10.320456      -280.8339
   6   2.0000     -10.309164      -280.5266
   7   2.0000     -10.305799      -280.4351
   8   2.0000     -10.302626      -280.3487
   9   2.0000     -10.297534      -280.2101
  10   2.0000     -10.293027      -280.0875
  11   2.0000     -10.287051      -279.9249
  12   2.0000     -10.283682      -279.8332
  13   2.0000     -10.283398      -279.8255
  14   2.0000     -10.280522      -279.7472
  15   2.0000     -10.267775      -279.4004
  16   2.0000      -8.084938      -220.0023
  17   2.0000      -8.077888      -219.8105
  18   2.0000      -6.043426      -164.4500
  19   2.0000      -6.039480      -164.3426
  20   2.0000      -6.036454      -164.2603
  21   2.0000      -6.035792      -164.2423
  22   2.0000      -6.032272      -164.1465
  23   2.0000      -6.028697      -164.0492
  24   2.0000      -1.002659       -27.2837
  25   2.0000      -0.977150       -26.5896
  26   2.0000      -0.915094       -24.9010
  27   2.0000      -0.910050       -24.7637
  28   2.0000      -0.866071       -23.5670
  29   2.0000      -0.846483       -23.0340
  30   2.0000      -0.844328       -22.9753
  31   2.0000      -0.812412       -22.1068
  32   2.0000      -0.785587       -21.3769
  33   2.0000      -0.773540       -21.0491
  34   2.0000      -0.711858       -19.3706
  35   2.0000      -0.699444       -19.0328
  36   2.0000      -0.691103       -18.8059
  37   2.0000      -0.655940       -17.8490
  38   2.0000      -0.637633       -17.3509
  39   2.0000      -0.617248       -16.7962
  40   2.0000      -0.595312       -16.1993
  41   2.0000      -0.574471       -15.6322
  42   2.0000      -0.557512       -15.1707
  43   2.0000      -0.550144       -14.9702
  44   2.0000      -0.541297       -14.7294
  45   2.0000      -0.521752       -14.1976
  46   2.0000      -0.519123       -14.1261
  47   2.0000      -0.512763       -13.9530
  48   2.0000      -0.500136       -13.6094
  49   2.0000      -0.497936       -13.5495
  50   2.0000      -0.495493       -13.4830
  51   2.0000      -0.474856       -12.9215
  52   2.0000      -0.469898       -12.7866
  53   2.0000      -0.466026       -12.6812
  54   2.0000      -0.459268       -12.4973
  55   2.0000      -0.451967       -12.2986
  56   2.0000      -0.447612       -12.1801
  57   2.0000      -0.434264       -11.8169
  58   2.0000      -0.432243       -11.7619
  59   2.0000      -0.424401       -11.5485
  60   2.0000      -0.418878       -11.3982
  61   2.0000      -0.413550       -11.2533
  62   2.0000      -0.409643       -11.1469
  63   2.0000      -0.337260        -9.1773
  64   2.0000      -0.328130        -8.9289
  65   2.0000      -0.324094        -8.8191
  66   2.0000      -0.300463        -8.1760
  67   0.0000       0.036053         0.9811
  68   0.0000       0.055643         1.5141
  69   0.0000       0.117417         3.1951
  70   0.0000       0.119143         3.2420
  71   0.0000       0.124759         3.3949

MULLIKEN ATOMIC CHARGES
-----------------------
   0 S :    0.132184
   1 C :   -0.130748
   2 C :   -0.113845
   3 C :    0.037998
   4 C :   -0.171818
   5 H :    0.033040
   6 C :    0.108159
   7 H :    0.017837
   8 H :    0.004490
   9 C :   -0.076849
  10 H :    0.030654
  11 H :    0.026195
  12 C :   -0.056765
  13 H :    0.026012
  14 H :    0.033189
  15 H :    0.035405
  16 S :    0.106287
  17 C :   -0.105067
  18 C :   -0.040105
  19 C :    0.012749
  20 C :   -0.194372
  21 H :    0.015913
  22 C :    0.014702
  23 H :    0.022704
  24 H :    0.032729
  25 C :   -0.060029
  26 H :    0.031480
  27 H :    0.007688
  28 C :   -0.003624
  29 H :    0.025834
  30 H :    0.045405
  31 H :    0.019286
  32 H :    0.066700
  33 H :    0.066581
Sum of atomic charges:    0.0000000

LOEWDIN ATOMIC CHARGES
----------------------
   0 S :    0.413604
   1 C :   -0.205350
   2 C :   -0.057907
   3 C :   -0.062089
   4 C :   -0.205686
   5 H :    0.039232
   6 C :   -0.028668
   7 H :    0.023757
   8 H :    0.029246
   9 C :   -0.041974
  10 H :    0.026560
  11 H :    0.026146
  12 C :   -0.073959
  13 H :    0.025233
  14 H :    0.025421
  15 H :    0.031976
  16 S :    0.405373
  17 C :   -0.180944
  18 C :   -0.071843
  19 C :   -0.048994
  20 C :   -0.213866
  21 H :    0.028392
  22 C :   -0.041300
  23 H :    0.024769
  24 H :    0.038614
  25 C :   -0.041568
  26 H :    0.031939
  27 H :    0.014632
  28 C :   -0.054165
  29 H :    0.020397
  30 H :    0.034573
  31 H :    0.020005
  32 H :    0.034338
  33 H :    0.034106

  Mayer bond orders larger than 0.100000
B(  0-S ,  1-C ) :   1.1400 B(  0-S ,  4-C ) :   1.1641 B(  1-C ,  2-C ) :   1.6069
B(  1-C ,  4-C ) :   0.1041 B(  1-C , 32-H ) :   0.9529 B(  2-C ,  3-C ) :   1.2381
B(  2-C ,  6-C ) :   1.0408 B(  3-C ,  4-C ) :   1.5676 B(  3-C ,  5-H ) :   0.9861
B(  4-C , 20-C ) :   1.0166 B(  6-C ,  7-H ) :   0.9353 B(  6-C ,  8-H ) :   0.9344
B(  6-C ,  9-C ) :   1.0580 B(  9-C , 10-H ) :   0.9599 B(  9-C , 11-H ) :   0.9541
B(  9-C , 12-C ) :   1.0654 B( 12-C , 13-H ) :   0.9766 B( 12-C , 14-H ) :   0.9772
B( 12-C , 15-H ) :   0.9749 B( 16-S , 17-C ) :   1.1548 B( 16-S , 20-C ) :   1.1478
B( 17-C , 18-C ) :   1.6126 B( 17-C , 20-C ) :   0.1006 B( 17-C , 33-H ) :   0.9637
B( 18-C , 19-C ) :   1.2211 B( 18-C , 21-H ) :   0.9960 B( 19-C , 20-C ) :   1.6011
B( 19-C , 22-C ) :   1.0278 B( 22-C , 23-H ) :   0.9420 B( 22-C , 24-H ) :   0.9247
B( 22-C , 25-C ) :   1.0947 B( 25-C , 26-H ) :   0.9468 B( 25-C , 27-H ) :   0.9445
B( 25-C , 28-C ) :   1.0732 B( 28-C , 29-H ) :   0.9743 B( 28-C , 30-H ) :   0.9739
B( 28-C , 31-H ) :   0.9746

Dispersion correction           -0.013894000
FINAL SINGLE POINT ENERGY     -1339.868927828681

DIPOLE MOMENT
-------------
                                X             Y             Z
Electronic contribution:    -16.92871       9.75805       9.37207
Nuclear contribution   :     17.23596     -10.11282      -9.59114
                        -----------------------------------------
Total Dipole Moment    :      0.30725      -0.35477      -0.21907
                        -----------------------------------------
Magnitude (a.u.)       :      0.51794
Magnitude (Debye)      :      1.31649

Rotational constants in cm-1:     0.021538     0.007024     0.006385
Rotational constants in MHz :   645.697215   210.586196   191.404626

                             ****ORCA TERMINATED NORMALLY****
TOTAL RUN TIME: 0 days 0 hours 0 minutes 32 seconds 900 msec
