                         Program Version 4.2.1 -  RELEASE  -
|  1> ! wB97X-D3 SP def2-SVP
|  2> %pal
|  3> nprocs 16
|  4> end
|  5>
|  6> * xyz 0 1
|  7> S 	 -39.9743 	 30.1299 	 75.8154
|  8> C 	 -38.7218 	 30.2688 	 74.5456
|  9> C 	 -37.4843 	 30.1656 	 75.082
| 10> C 	 -37.5537 	 29.6643 	 76.4158
| 11> C 	 -38.8124 	 29.6194 	 77.0245
| 12> H 	 -36.7987 	 29.367 	 77.0465
| 13> C 	 -36.1837 	 30.4308 	 74.2709
| 14> H 	 -36.3842 	 30.2325 	 73.1966
| 15> H 	 -35.3564 	 29.7201 	 74.5775
| 16> C 	 -35.5356 	 31.8675 	 74.3536
| 17> H 	 -36.3905 	 32.534 	 74.2215
| 18> H 	 -35.0707 	 32.1563 	 75.3013
| 19> C 	 -34.4547 	 31.976 	 73.2143
| 20> H 	 -34.951 	 31.8668 	 72.2612
| 21> H 	 -34.0331 	 32.9473 	 73.2864
| 22> H 	 -33.565 	 31.4279 	 73.3427
| 23> S 	 -38.8731 	 27.44 	 78.6933
| 24> C 	 -39.065 	 27.6848 	 80.3775
| 25> C 	 -39.4992 	 28.9398 	 80.6325
| 26> C 	 -39.5239 	 29.8222 	 79.521
| 27> C 	 -39.1125 	 29.1225 	 78.361
| 28> H 	 -39.7388 	 29.3167 	 81.5932
| 29> C 	 -39.8378 	 31.3015 	 79.6156
| 30> H 	 -40.8658 	 31.5696 	 79.8794
| 31> H 	 -39.7804 	 31.7399 	 78.6019
| 32> C 	 -38.8758 	 32.1636 	 80.3783
| 33> H 	 -39.0115 	 32.125 	 81.4865
| 34> H 	 -38.9373 	 33.2568 	 80.098
| 35> C 	 -37.3986 	 31.9195 	 80.1537
| 36> H 	 -37.0223 	 30.9241 	 80.3424
| 37> H 	 -36.6908 	 32.6816 	 80.481
| 38> H 	 -37.2867 	 31.9643 	 79.0245
| 39> H 	 -38.8357 	 30.7549 	 73.567
| 40> H 	 -39.156 	 26.9004 	 81.1403
| 41> *
| 42>
| 43>                          ****END OF INPUT****

CARTESIAN COORDINATES (ANGSTROEM)
---------------------------------
  S    -39.974300   30.129900   75.815400
  C    -38.721800   30.268800   74.545600
  C    -37.484300   30.165600   75.082000
  C    -37.553700   29.664300   76.415800
  C    -38.812400   29.619400   77.024500
  H    -36.798700   29.367000   77.046500
  C    -36.183700   30.430800   74.270900
  H    -36.384200   30.232500   73.196600
  H    -35.356400   29.720100   74.577500
  C    -35.535600   31.867500   74.353600
  H    -36.390500   32.534000   74.221500
  H    -35.070700   32.156300   75.301300
  C    -34.454700   31.976000   73.214300
  H    -34.951000   31.866800   72.261200
  H    -34.033100   32.947300   73.286400
  H    -33.565000   31.427900   73.342700
  S    -38.873100   27.440000   78.693300
  C    -39.065000   27.684800   80.377500
  C    -39.499200   28.939800   80.632500
  C    -39.523900   29.822200   79.521000
  C    -39.112500   29.122500   78.361000
  H    -39.738800   29.316700   81.593200
  C    -39.837800   31.301500   79.615600
  H    -40.865800   31.569600   79.879400
  H    -39.780400   31.739900   78.601900
  C    -38.875800   32.163600   80.378300
  H    -39.011500   32.125000   81.486500
  H    -38.937300   33.256800   80.098000
  C    -37.398600   31.919500   80.153700
  H    -37.022300   30.924100   80.342400
  H    -36.690800   32.681600   80.481000
  H    -37.286700   31.964300   79.024500
  H    -38.835700   30.754900   73.567000
  H    -39.156000   26.900400   81.140300

 Total Charge           Charge          ....    0
 Multiplicity           Mult            ....    1
 Number of Electrons    NEL             ....  134
 Basis Dimension        Dim             ....  322

ORBITAL ENERGIES
----------------

  NO   OCC          E(Eh)            E(eV)
   0   2.0000     -88.969357     -2420.9793
   1   2.0000     -88.964976     -2420.8601
   2   2.0000     -10.330353      -281.1032
   3   2.0000     -10.329831      -281.0890
   4   2.0000     -10.315297      -280.6935
   5   2.0000     -10.314628      -280.6753
   6   2.0000     -10.306715      -280.4600
   7   2.0000     -10.304292      -280.3940
   8   2.0000     -10.303114      -280.3620
   9   2.0000     -10.294373      -280.1241
  10   2.0000     -10.293514      -280.1008
  11   2.0000     -10.289158      -279.9822
  12   2.0000     -10.288736      -279.9707
  13   2.0000     -10.287762      -279.9442
  14   2.0000     -10.275890      -279.6212
  15   2.0000     -10.272184      -279.5203
  16   2.0000      -8.084927      -220.0020
  17   2.0000      -8.078833      -219.8362
  18   2.0000      -6.043319      -164.4471
  19   2.0000      -6.039267      -164.3368
  20   2.0000      -6.037532      -164.2896
  21   2.0000      -6.035782      -164.2420
  22   2.0000      -6.033375      -164.1765
  23   2.0000      -6.029504      -164.0711
  24   2.0000      -1.010829       -27.5061
  25   2.0000      -0.987134       -26.8613
  26   2.0000      -0.914165       -24.8757
  27   2.0000      -0.903202       -24.5774
  28   2.0000      -0.872933       -23.7537
  29   2.0000      -0.850494       -23.1431
  30   2.0000      -0.842334       -22.9211
  31   2.0000      -0.815763       -22.1981
  32   2.0000      -0.785940       -21.3865
  33   2.0000      -0.775419       -21.1002
  34   2.0000      -0.708481       -19.2787
  35   2.0000      -0.700098       -19.0506
  36   2.0000      -0.688863       -18.7449
  37   2.0000      -0.660581       -17.9753
  38   2.0000      -0.641393       -17.4532
  39   2.0000      -0.615316       -16.7436
  40   2.0000      -0.601371       -16.3641
  41   2.0000      -0.571350       -15.5472
  42   2.0000      -0.564381       -15.3576
  43   2.0000      -0.554631       -15.0923
  44   2.0000      -0.550762       -14.9870
  45   2.0000      -0.516752       -14.0615
  46   2.0000      -0.510998       -13.9050
  47   2.0000      -0.505783       -13.7630
  48   2.0000      -0.503799       -13.7091
  49   2.0000      -0.500870       -13.6294
  50   2.0000      -0.497439       -13.5360
  51   2.0000      -0.477171       -12.9845
  52   2.0000      -0.471078       -12.8187
  53   2.0000      -0.465124       -12.6567
  54   2.0000      -0.454737       -12.3740
  55   2.0000      -0.448596       -12.2069
  56   2.0000      -0.444967       -12.1082
  57   2.0000      -0.444259       -12.0889
  58   2.0000      -0.437715       -11.9108
  59   2.0000      -0.420463       -11.4414
  60   2.0000      -0.419686       -11.4202
  61   2.0000      -0.412252       -11.2179
  62   2.0000      -0.396588       -10.7917
  63   2.0000      -0.338546        -9.2123
  64   2.0000      -0.335591        -9.1319
  65   2.0000      -0.328334        -8.9344
  66   2.0000      -0.305496        -8.3130
  67   0.0000       0.035383         0.9628
  68   0.0000       0.059095         1.6081
  69   0.0000       0.114138         3.1058
  70   0.0000       0.116468         3.1693
  71   0.0000       0.127047         3.4571

MULLIKEN ATOMIC CHARGES
-----------------------
   0 S :    0.102454
   1 C :   -0.121567
   2 C :   -0.049886
   3 C :    0.067517
   4 C :   -0.171093
   5 H :   -0.028318
   6 C :    0.008655
   7 H :    0.030162
   8 H :    0.039050
   9 C :   -0.077584
  10 H :    0.027330
  11 H :    0.035606
  12 C :   -0.024827
  13 H :    0.036444
  14 H :    0.017366
  15 H :    0.028560
  16 S :    0.139856
  17 C :   -0.085302
  18 C :   -0.016463
  19 C :   -0.024787
  20 C :   -0.195014
  21 H :   -0.000536
  22 C :    0.104256
  23 H :    0.039747
  24 H :    0.016866
  25 C :   -0.112651
  26 H :    0.030626
  27 H :    0.039673
  28 C :   -0.065464
  29 H :    0.034533
  30 H :    0.039478
  31 H :    0.011377
  32 H :    0.057846
  33 H :    0.066091
Sum of atomic charges:   -0.0000000

LOEWDIN ATOMIC CHARGES
----------------------
   0 S :    0.387180
   1 C :   -0.187585
   2 C :   -0.067713
   3 C :   -0.050267
   4 C :   -0.198780
   5 H :    0.014233
   6 C :   -0.035243
   7 H :    0.031857
   8 H :    0.035387
   9 C :   -0.035654
  10 H :    0.021994
  11 H :    0.023774
  12 C :   -0.060810
  13 H :    0.025689
  14 H :    0.024879
  15 H :    0.022760
  16 S :    0.443659
  17 C :   -0.202650
  18 C :   -0.067078
  19 C :   -0.049018
  20 C :   -0.207951
  21 H :    0.024823
  22 C :   -0.039643
  23 H :    0.038486
  24 H :    0.035104
  25 C :   -0.052078
  26 H :    0.018490
  27 H :    0.036304
  28 C :   -0.077264
  29 H :    0.020143
  30 H :    0.027419
  31 H :    0.027678
  32 H :    0.034363
  33 H :    0.037512

  Mayer bond orders larger than 0.100000
B(  0-S ,  1-C ) :   1.1326 B(  0-S ,  4-C ) :   1.1317 B(  1-C ,  2-C ) :   1.6377
B(  1-C , 32-H ) :   0.9559 B(  2-C ,  3-C ) :   1.2154 B(  2-C ,  6-C ) :   1.0129
B(  3-C ,  4-C ) :   1.5919 B(  3-C ,  5-H ) :   1.0093 B(  4-C , 20-C ) :   1.0244
B(  6-C ,  7-H ) :   0.9508 B(  6-C ,  8-H ) :   0.9478 B(  6-C ,  9-C ) :   1.0476
B(  9-C , 10-H ) :   0.9586 B(  9-C , 11-H ) :   0.9594 B(  9-C , 12-C ) :   1.0775
B( 12-C , 13-H ) :   0.9770 B( 12-C , 14-H ) :   0.9704 B( 12-C , 15-H ) :   0.9753
B( 16-S , 17-C ) :   1.1600 B( 16-S , 20-C ) :   1.1792 B( 17-C , 18-C ) :   1.5865
B( 17-C , 33-H ) :   0.9620 B( 18-C , 19-C ) :   1.2780 B( 18-C , 21-H ) :   0.9939
B( 19-C , 20-C ) :   1.5470 B( 19-C , 22-C ) :   1.0529 B( 22-C , 23-H ) :   0.9351
B( 22-C , 24-H ) :   0.9186 B( 22-C , 25-C ) :   1.0709 B( 25-C , 26-H ) :   0.9538
B( 25-C , 27-H ) :   0.9572 B( 25-C , 28-C ) :   1.0761 B( 28-C , 29-H ) :   0.9680
B( 28-C , 30-H ) :   0.9744 B( 28-C , 31-H ) :   0.9695

Dispersion correction           -0.014777437
FINAL SINGLE POINT ENERGY     -1339.865969061201

DIPOLE MOMENT
-------------
                                X             Y             Z
Electronic contribution:    -18.13415     -19.60129       2.99275
Nuclear contribution   :     18.55999      20.01502      -2.90942
                        -----------------------------------------
Total Dipole Moment    :      0.42584       0.41373       0.08333
                        -----------------------------------------
Magnitude (a.u.)       :      0.59954
Magnitude (Debye)      :      1.52391

Rotational constants in cm-1:     0.020344     0.007726     0.006927
Rotational constants in MHz :   609.883628   231.624427   207.680633

                             ****ORCA TERMINATED NORMALLY****
TOTAL RUN TIME: 0 days 0 hours 0 minutes 30 seconds 305 msec
