                         Program Version 4.2.1 -  RELEASE  -
|  1> ! wB97X-D3 SP def2-SVP
|  2> %pal
|  3> nprocs 16
|  4> end
|  5>
|  6> * xyz 0 1
|  7> S 	 18.4459 	 31.7702 	 56.2504
|  8> C 	 17.4148 	 32.2553 	 57.5877
|  9> C 	 17.8849 	 33.3354 	 58.2165
| 10> C 	 19.1679 	 33.6586 	 57.7702
| 11> C 	 19.6561 	 32.9307 	 56.6423
| 12> H 	 19.7295 	 34.4207 	 58.1493
| 13> C 	 17.2376 	 34.1249 	 59.3205
| 14> H 	 16.3967 	 34.6454 	 58.9
| 15> H 	 17.9627 	 34.8171 	 59.6586
| 16> C 	 16.851 	 33.2945 	 60.5864
| 17> H 	 16.0472 	 32.615 	 60.4084
| 18> H 	 17.6277 	 32.7095 	 61.0022
| 19> C 	 16.4458 	 34.2681 	 61.7003
| 20> H 	 16.0454 	 33.6741 	 62.5304
| 21> H 	 17.3299 	 34.7413 	 61.9939
| 22> H 	 15.6324 	 34.903 	 61.2751
| 23> S 	 21.9754 	 31.6112 	 56.208
| 24> C 	 23.4428 	 32.4501 	 55.6016
| 25> C 	 23.2073 	 33.7696 	 55.4096
| 26> C 	 21.7745 	 34.1269 	 55.6842
| 27> C 	 20.9863 	 33.0425 	 56.0948
| 28> H 	 23.9702 	 34.4575 	 55.2337
| 29> C 	 21.3193 	 35.5068 	 55.3777
| 30> H 	 20.2414 	 35.4625 	 55.5784
| 31> H 	 21.347 	 35.6307 	 54.271
| 32> C 	 21.9887 	 36.63 	 56.2094
| 33> H 	 22.9965 	 36.8346 	 55.7834
| 34> H 	 22.0287 	 36.3962 	 57.2754
| 35> C 	 21.2347 	 37.9858 	 56.089
| 36> H 	 20.3665 	 37.9186 	 56.74
| 37> H 	 20.9873 	 38.074 	 55.046
| 38> H 	 21.9675 	 38.7164 	 56.4578
| 39> H 	 16.3945 	 31.8394 	 57.7357
| 40> H 	 24.3904 	 32.0448 	 55.373
| 41> *
| 42>
| 43>                          ****END OF INPUT****

CARTESIAN COORDINATES (ANGSTROEM)
---------------------------------
  S     18.445900   31.770200   56.250400
  C     17.414800   32.255300   57.587700
  C     17.884900   33.335400   58.216500
  C     19.167900   33.658600   57.770200
  C     19.656100   32.930700   56.642300
  H     19.729500   34.420700   58.149300
  C     17.237600   34.124900   59.320500
  H     16.396700   34.645400   58.900000
  H     17.962700   34.817100   59.658600
  C     16.851000   33.294500   60.586400
  H     16.047200   32.615000   60.408400
  H     17.627700   32.709500   61.002200
  C     16.445800   34.268100   61.700300
  H     16.045400   33.674100   62.530400
  H     17.329900   34.741300   61.993900
  H     15.632400   34.903000   61.275100
  S     21.975400   31.611200   56.208000
  C     23.442800   32.450100   55.601600
  C     23.207300   33.769600   55.409600
  C     21.774500   34.126900   55.684200
  C     20.986300   33.042500   56.094800
  H     23.970200   34.457500   55.233700
  C     21.319300   35.506800   55.377700
  H     20.241400   35.462500   55.578400
  H     21.347000   35.630700   54.271000
  C     21.988700   36.630000   56.209400
  H     22.996500   36.834600   55.783400
  H     22.028700   36.396200   57.275400
  C     21.234700   37.985800   56.089000
  H     20.366500   37.918600   56.740000
  H     20.987300   38.074000   55.046000
  H     21.967500   38.716400   56.457800
  H     16.394500   31.839400   57.735700
  H     24.390400   32.044800   55.373000

 Total Charge           Charge          ....    0
 Multiplicity           Mult            ....    1
 Number of Electrons    NEL             ....  134
 Basis Dimension        Dim             ....  322

ORBITAL ENERGIES
----------------

  NO   OCC          E(Eh)            E(eV)
   0   2.0000     -88.967428     -2420.9268
   1   2.0000     -88.959566     -2420.7128
   2   2.0000     -10.330318      -281.1023
   3   2.0000     -10.328096      -281.0418
   4   2.0000     -10.315341      -280.6947
   5   2.0000     -10.311538      -280.5912
   6   2.0000     -10.306232      -280.4468
   7   2.0000     -10.291129      -280.0359
   8   2.0000     -10.291013      -280.0327
   9   2.0000     -10.290830      -280.0277
  10   2.0000     -10.290697      -280.0241
  11   2.0000     -10.289764      -279.9987
  12   2.0000     -10.285839      -279.8919
  13   2.0000     -10.281253      -279.7671
  14   2.0000     -10.278429      -279.6903
  15   2.0000     -10.276814      -279.6463
  16   2.0000      -8.082316      -219.9310
  17   2.0000      -8.074021      -219.7053
  18   2.0000      -6.040749      -164.3771
  19   2.0000      -6.036684      -164.2665
  20   2.0000      -6.033256      -164.1732
  21   2.0000      -6.032857      -164.1624
  22   2.0000      -6.028559      -164.0454
  23   2.0000      -6.024422      -163.9329
  24   2.0000      -1.007942       -27.4275
  25   2.0000      -0.981159       -26.6987
  26   2.0000      -0.916769       -24.9466
  27   2.0000      -0.906021       -24.6541
  28   2.0000      -0.876374       -23.8474
  29   2.0000      -0.854387       -23.2490
  30   2.0000      -0.845362       -23.0035
  31   2.0000      -0.816069       -22.2064
  32   2.0000      -0.782898       -21.3037
  33   2.0000      -0.765005       -20.8168
  34   2.0000      -0.709839       -19.3157
  35   2.0000      -0.701693       -19.0940
  36   2.0000      -0.693527       -18.8718
  37   2.0000      -0.661648       -18.0044
  38   2.0000      -0.642177       -17.4745
  39   2.0000      -0.619615       -16.8606
  40   2.0000      -0.589912       -16.0523
  41   2.0000      -0.580894       -15.8069
  42   2.0000      -0.572744       -15.5852
  43   2.0000      -0.568755       -15.4766
  44   2.0000      -0.534074       -14.5329
  45   2.0000      -0.531021       -14.4498
  46   2.0000      -0.520081       -14.1521
  47   2.0000      -0.510893       -13.9021
  48   2.0000      -0.509646       -13.8682
  49   2.0000      -0.507593       -13.8123
  50   2.0000      -0.491704       -13.3799
  51   2.0000      -0.480253       -13.0683
  52   2.0000      -0.469191       -12.7673
  53   2.0000      -0.463131       -12.6024
  54   2.0000      -0.455957       -12.4072
  55   2.0000      -0.448082       -12.1929
  56   2.0000      -0.440543       -11.9878
  57   2.0000      -0.439039       -11.9469
  58   2.0000      -0.438135       -11.9223
  59   2.0000      -0.426250       -11.5989
  60   2.0000      -0.420999       -11.4560
  61   2.0000      -0.415127       -11.2962
  62   2.0000      -0.408677       -11.1207
  63   2.0000      -0.345464        -9.4005
  64   2.0000      -0.334455        -9.1010
  65   2.0000      -0.320035        -8.7086
  66   2.0000      -0.295066        -8.0291
  67   0.0000       0.030909         0.8411
  68   0.0000       0.073075         1.9885
  69   0.0000       0.117456         3.1962
  70   0.0000       0.118235         3.2173
  71   0.0000       0.122359         3.3296

MULLIKEN ATOMIC CHARGES
-----------------------
   0 S :    0.120879
   1 C :   -0.159652
   2 C :   -0.054641
   3 C :    0.060353
   4 C :   -0.170878
   5 H :   -0.039666
   6 C :    0.108444
   7 H :    0.037757
   8 H :    0.001930
   9 C :   -0.080740
  10 H :    0.020215
  11 H :    0.023986
  12 C :   -0.041756
  13 H :    0.034235
  14 H :    0.028712
  15 H :    0.037058
  16 S :    0.087250
  17 C :   -0.059614
  18 C :   -0.002822
  19 C :   -0.070722
  20 C :   -0.122252
  21 H :    0.004480
  22 C :    0.038945
  23 H :    0.014555
  24 H :    0.047277
  25 C :   -0.118190
  26 H :    0.035110
  27 H :    0.039235
  28 C :   -0.030021
  29 H :    0.036959
  30 H :    0.033279
  31 H :    0.040937
  32 H :    0.059194
  33 H :    0.040165
Sum of atomic charges:   -0.0000000

LOEWDIN ATOMIC CHARGES
----------------------
   0 S :    0.423657
   1 C :   -0.196466
   2 C :   -0.072454
   3 C :   -0.046921
   4 C :   -0.213426
   5 H :    0.009553
   6 C :   -0.018245
   7 H :    0.033928
   8 H :    0.024549
   9 C :   -0.031691
  10 H :    0.015378
  11 H :    0.020567
  12 C :   -0.057452
  13 H :    0.027763
  14 H :    0.016235
  15 H :    0.029169
  16 S :    0.382655
  17 C :   -0.160130
  18 C :   -0.059838
  19 C :   -0.051332
  20 C :   -0.203940
  21 H :    0.021766
  22 C :   -0.048209
  23 H :    0.028617
  24 H :    0.039718
  25 C :   -0.039950
  26 H :    0.023541
  27 H :    0.024695
  28 C :   -0.058009
  29 H :    0.023810
  30 H :    0.022725
  31 H :    0.029806
  32 H :    0.035498
  33 H :    0.024431

  Mayer bond orders larger than 0.100000
B(  0-S ,  1-C ) :   1.1491 B(  0-S ,  4-C ) :   1.1718 B(  1-C ,  2-C ) :   1.5859
B(  1-C , 32-H ) :   0.9632 B(  2-C ,  3-C ) :   1.2926 B(  2-C ,  6-C ) :   1.0140
B(  3-C ,  4-C ) :   1.5118 B(  3-C ,  5-H ) :   1.0064 B(  4-C , 20-C ) :   1.0448
B(  6-C ,  7-H ) :   0.9272 B(  6-C ,  8-H ) :   0.9416 B(  6-C ,  9-C ) :   1.0692
B(  9-C , 10-H ) :   0.9548 B(  9-C , 11-H ) :   0.9601 B(  9-C , 12-C ) :   1.0876
B( 12-C , 13-H ) :   0.9735 B( 12-C , 14-H ) :   0.9798 B( 12-C , 15-H ) :   0.9748
B( 16-S , 17-C ) :   1.1224 B( 16-S , 20-C ) :   1.1182 B( 17-C , 18-C ) :   1.6685
B( 17-C , 33-H ) :   0.9693 B( 18-C , 19-C ) :   1.1817 B( 18-C , 21-H ) :   0.9961
B( 19-C , 20-C ) :   1.6229 B( 19-C , 22-C ) :   1.0655 B( 22-C , 23-H ) :   0.9344
B( 22-C , 24-H ) :   0.9311 B( 22-C , 25-C ) :   1.0501 B( 25-C , 26-H ) :   0.9550
B( 25-C , 27-H ) :   0.9622 B( 25-C , 28-C ) :   1.0803 B( 28-C , 29-H ) :   0.9790
B( 28-C , 30-H ) :   0.9746 B( 28-C , 31-H ) :   0.9770

Dispersion correction           -0.013494101
FINAL SINGLE POINT ENERGY     -1339.864748320498

DIPOLE MOMENT
-------------
                                X             Y             Z
Electronic contribution:      7.18473     -23.88887     -14.72413
Nuclear contribution   :     -7.23149      24.55305      15.05936
                        -----------------------------------------
Total Dipole Moment    :     -0.04676       0.66417       0.33523
                        -----------------------------------------
Magnitude (a.u.)       :      0.74545
Magnitude (Debye)      :      1.89478

Rotational constants in cm-1:     0.017324     0.008120     0.006282
Rotational constants in MHz :   519.363281   243.421298   188.315912

                             ****ORCA TERMINATED NORMALLY****
TOTAL RUN TIME: 0 days 0 hours 0 minutes 33 seconds 524 msec
