                         Program Version 4.2.1 -  RELEASE  -
|  1> ! wB97X-D3 SP def2-SVP
|  2> %pal
|  3> nprocs 16
|  4> end
|  5>
|  6> * xyz 0 1
|  7> S 	 13.4454 	 -14.175 	 76.693
|  8> C 	 12.7886 	 -15.2519 	 77.8534
|  9> C 	 11.4229 	 -15.4159 	 77.712
| 10> C 	 10.9598 	 -14.4931 	 76.7118
| 11> C 	 11.8977 	 -13.7019 	 76.127
| 12> H 	 9.91951 	 -14.3922 	 76.3866
| 13> C 	 10.5222 	 -16.3748 	 78.4109
| 14> H 	 9.45406 	 -16.0972 	 78.2791
| 15> H 	 10.6838 	 -16.3115 	 79.505
| 16> C 	 10.6745 	 -17.8094 	 77.7618
| 17> H 	 10.63 	 -17.6163 	 76.7407
| 18> H 	 11.6947 	 -18.1743 	 77.8866
| 19> C 	 9.69341 	 -18.9034 	 78.1935
| 20> H 	 8.75139 	 -18.9052 	 77.6529
| 21> H 	 10.0599 	 -19.8729 	 77.8945
| 22> H 	 9.35901 	 -18.8423 	 79.1962
| 23> S 	 11.0385 	 -11.3717 	 75.0522
| 24> C 	 10.894 	 -11.1651 	 73.3492
| 25> C 	 11.4447 	 -12.2126 	 72.6312
| 26> C 	 11.8521 	 -13.2923 	 73.4946
| 27> C 	 11.724 	 -12.9441 	 74.8736
| 28> H 	 11.5638 	 -12.2756 	 71.5763
| 29> C 	 12.2698 	 -14.6698 	 73.0487
| 30> H 	 11.4893 	 -15.3945 	 73.0962
| 31> H 	 12.7927 	 -15.0247 	 73.9331
| 32> C 	 13.1653 	 -14.8979 	 71.8188
| 33> H 	 13.8622 	 -14.0576 	 71.8193
| 34> H 	 12.6699 	 -15.0009 	 70.8237
| 35> C 	 14.1258 	 -16.1268 	 72.1075
| 36> H 	 14.6779 	 -16.065 	 73.0177
| 37> H 	 14.8914 	 -16.3037 	 71.3353
| 38> H 	 13.5655 	 -17.094 	 72.2543
| 39> H 	 13.4349 	 -15.82 	 78.4687
| 40> H 	 10.5979 	 -10.1733 	 72.8942
| 41> *
| 42>
| 43>                          ****END OF INPUT****

CARTESIAN COORDINATES (ANGSTROEM)
---------------------------------
  S     13.445400  -14.175000   76.693000
  C     12.788600  -15.251900   77.853400
  C     11.422900  -15.415900   77.712000
  C     10.959800  -14.493100   76.711800
  C     11.897700  -13.701900   76.127000
  H      9.919510  -14.392200   76.386600
  C     10.522200  -16.374800   78.410900
  H      9.454060  -16.097200   78.279100
  H     10.683800  -16.311500   79.505000
  C     10.674500  -17.809400   77.761800
  H     10.630000  -17.616300   76.740700
  H     11.694700  -18.174300   77.886600
  C      9.693410  -18.903400   78.193500
  H      8.751390  -18.905200   77.652900
  H     10.059900  -19.872900   77.894500
  H      9.359010  -18.842300   79.196200
  S     11.038500  -11.371700   75.052200
  C     10.894000  -11.165100   73.349200
  C     11.444700  -12.212600   72.631200
  C     11.852100  -13.292300   73.494600
  C     11.724000  -12.944100   74.873600
  H     11.563800  -12.275600   71.576300
  C     12.269800  -14.669800   73.048700
  H     11.489300  -15.394500   73.096200
  H     12.792700  -15.024700   73.933100
  C     13.165300  -14.897900   71.818800
  H     13.862200  -14.057600   71.819300
  H     12.669900  -15.000900   70.823700
  C     14.125800  -16.126800   72.107500
  H     14.677900  -16.065000   73.017700
  H     14.891400  -16.303700   71.335300
  H     13.565500  -17.094000   72.254300
  H     13.434900  -15.820000   78.468700
  H     10.597900  -10.173300   72.894200

 Total Charge           Charge          ....    0
 Multiplicity           Mult            ....    1
 Number of Electrons    NEL             ....  134
 Basis Dimension        Dim             ....  322

ORBITAL ENERGIES
----------------

  NO   OCC          E(Eh)            E(eV)
   0   2.0000     -88.965261     -2420.8678
   1   2.0000     -88.965049     -2420.8621
   2   2.0000     -10.325097      -280.9602
   3   2.0000     -10.322255      -280.8828
   4   2.0000     -10.318685      -280.7857
   5   2.0000     -10.311769      -280.5975
   6   2.0000     -10.306872      -280.4642
   7   2.0000     -10.302357      -280.3414
   8   2.0000     -10.299238      -280.2565
   9   2.0000     -10.295609      -280.1578
  10   2.0000     -10.293015      -280.0872
  11   2.0000     -10.292471      -280.0724
  12   2.0000     -10.285974      -279.8956
  13   2.0000     -10.284442      -279.8539
  14   2.0000     -10.281193      -279.7655
  15   2.0000     -10.274902      -279.5943
  16   2.0000      -8.081003      -219.8953
  17   2.0000      -8.080582      -219.8838
  18   2.0000      -6.039329      -164.3385
  19   2.0000      -6.038892      -164.3266
  20   2.0000      -6.035245      -164.2274
  21   2.0000      -6.034845      -164.2165
  22   2.0000      -6.032019      -164.1396
  23   2.0000      -6.031653      -164.1296
  24   2.0000      -1.012792       -27.5595
  25   2.0000      -0.988633       -26.9021
  26   2.0000      -0.911287       -24.7974
  27   2.0000      -0.905134       -24.6300
  28   2.0000      -0.869292       -23.6546
  29   2.0000      -0.852119       -23.1873
  30   2.0000      -0.845503       -23.0073
  31   2.0000      -0.814988       -22.1769
  32   2.0000      -0.784247       -21.3404
  33   2.0000      -0.768134       -20.9020
  34   2.0000      -0.711101       -19.3500
  35   2.0000      -0.708342       -19.2750
  36   2.0000      -0.691052       -18.8045
  37   2.0000      -0.656400       -17.8616
  38   2.0000      -0.648825       -17.6554
  39   2.0000      -0.618658       -16.8346
  40   2.0000      -0.599738       -16.3197
  41   2.0000      -0.569648       -15.5009
  42   2.0000      -0.559484       -15.2243
  43   2.0000      -0.554400       -15.0860
  44   2.0000      -0.531749       -14.4696
  45   2.0000      -0.524145       -14.2627
  46   2.0000      -0.518164       -14.1000
  47   2.0000      -0.514839       -14.0095
  48   2.0000      -0.501038       -13.6339
  49   2.0000      -0.497483       -13.5372
  50   2.0000      -0.485283       -13.2052
  51   2.0000      -0.475517       -12.9395
  52   2.0000      -0.471481       -12.8296
  53   2.0000      -0.463591       -12.6150
  54   2.0000      -0.457843       -12.4585
  55   2.0000      -0.455603       -12.3976
  56   2.0000      -0.449124       -12.2213
  57   2.0000      -0.440239       -11.9795
  58   2.0000      -0.432261       -11.7624
  59   2.0000      -0.426542       -11.6068
  60   2.0000      -0.423134       -11.5141
  61   2.0000      -0.417115       -11.3503
  62   2.0000      -0.414039       -11.2666
  63   2.0000      -0.336297        -9.1511
  64   2.0000      -0.331667        -9.0251
  65   2.0000      -0.323996        -8.8164
  66   2.0000      -0.303805        -8.2670
  67   0.0000       0.045884         1.2486
  68   0.0000       0.057445         1.5632
  69   0.0000       0.116960         3.1826
  70   0.0000       0.127709         3.4751
  71   0.0000       0.130379         3.5478

MULLIKEN ATOMIC CHARGES
-----------------------
   0 S :    0.112537
   1 C :   -0.108587
   2 C :   -0.088708
   3 C :    0.033938
   4 C :   -0.158556
   5 H :    0.015490
   6 C :    0.055756
   7 H :    0.025785
   8 H :    0.041558
   9 C :   -0.064152
  10 H :    0.014276
  11 H :    0.023946
  12 C :   -0.006264
  13 H :    0.016267
  14 H :    0.028060
  15 H :    0.027005
  16 S :    0.122547
  17 C :   -0.112509
  18 C :   -0.012574
  19 C :   -0.048319
  20 C :   -0.194915
  21 H :    0.010618
  22 C :    0.099868
  23 H :    0.024428
  24 H :   -0.000441
  25 C :   -0.060628
  26 H :    0.033229
  27 H :    0.051366
  28 C :   -0.092584
  29 H :    0.030125
  30 H :    0.036889
  31 H :    0.031174
  32 H :    0.034673
  33 H :    0.078702
Sum of atomic charges:   -0.0000000

LOEWDIN ATOMIC CHARGES
----------------------
   0 S :    0.440317
   1 C :   -0.193622
   2 C :   -0.065725
   3 C :   -0.056724
   4 C :   -0.227149
   5 H :    0.032985
   6 C :   -0.033473
   7 H :    0.032829
   8 H :    0.033968
   9 C :   -0.033669
  10 H :    0.018260
  11 H :    0.023176
  12 C :   -0.067011
  13 H :    0.026149
  14 H :    0.029259
  15 H :    0.022198
  16 S :    0.440014
  17 C :   -0.206795
  18 C :   -0.070497
  19 C :   -0.048996
  20 C :   -0.218304
  21 H :    0.027835
  22 C :   -0.043985
  23 H :    0.031081
  24 H :    0.030609
  25 C :   -0.039240
  26 H :    0.027404
  27 H :    0.030032
  28 C :   -0.071464
  29 H :    0.020643
  30 H :    0.025554
  31 H :    0.026567
  32 H :    0.017980
  33 H :    0.039793

  Mayer bond orders larger than 0.100000
B(  0-S ,  1-C ) :   1.1731 B(  0-S ,  4-C ) :   1.1576 B(  1-C ,  2-C ) :   1.5714
B(  1-C , 32-H ) :   0.9776 B(  2-C ,  3-C ) :   1.2628 B(  2-C ,  6-C ) :   1.0340
B(  3-C ,  4-C ) :   1.5826 B(  3-C ,  5-H ) :   0.9925 B(  4-C , 20-C ) :   0.9804
B(  6-C ,  7-H ) :   0.9446 B(  6-C ,  8-H ) :   0.9381 B(  6-C ,  9-C ) :   1.0439
B(  9-C , 10-H ) :   0.9551 B(  9-C , 11-H ) :   0.9634 B(  9-C , 12-C ) :   1.0796
B( 12-C , 13-H ) :   0.9710 B( 12-C , 14-H ) :   0.9722 B( 12-C , 15-H ) :   0.9760
B( 16-S , 17-C ) :   1.1813 B( 16-S , 20-C ) :   1.1741 B( 17-C , 18-C ) :   1.5669
B( 17-C , 20-C ) :   0.1006 B( 17-C , 33-H ) :   0.9583 B( 18-C , 19-C ) :   1.2717
B( 18-C , 21-H ) :   0.9959 B( 19-C , 20-C ) :   1.5648 B( 19-C , 22-C ) :   1.0463
B( 22-C , 23-H ) :   0.9165 B( 22-C , 24-H ) :   0.9186 B( 22-C , 25-C ) :   1.0509
B( 25-C , 26-H ) :   0.9606 B( 25-C , 27-H ) :   0.9556 B( 25-C , 28-C ) :   1.0748
B( 28-C , 29-H ) :   0.9756 B( 28-C , 30-H ) :   0.9773 B( 28-C , 31-H ) :   0.9774

Dispersion correction           -0.014154231
FINAL SINGLE POINT ENERGY     -1339.874507737351

DIPOLE MOMENT
-------------
                                X             Y             Z
Electronic contribution:      2.33313      26.47854       4.57035
Nuclear contribution   :     -2.50902     -27.10046      -4.71262
                        -----------------------------------------
Total Dipole Moment    :     -0.17590      -0.62192      -0.14227
                        -----------------------------------------
Magnitude (a.u.)       :      0.66179
Magnitude (Debye)      :      1.68213

Rotational constants in cm-1:     0.017340     0.008263     0.006878
Rotational constants in MHz :   519.852835   247.725714   206.201467

                             ****ORCA TERMINATED NORMALLY****
TOTAL RUN TIME: 0 days 0 hours 0 minutes 29 seconds 259 msec
