                         Program Version 4.2.1 -  RELEASE  -
|  1> ! wB97X-D3 SP def2-SVP
|  2> %pal
|  3> nprocs 16
|  4> end
|  5>
|  6> * xyz 0 1
|  7> S 	 48.8117 	 3.76138 	 83.687
|  8> C 	 47.2199 	 4.46117 	 83.7912
|  9> C 	 46.8294 	 4.98213 	 82.5624
| 10> C 	 47.7903 	 4.69264 	 81.5147
| 11> C 	 48.9086 	 3.96248 	 81.9642
| 12> H 	 47.7267 	 4.87157 	 80.4451
| 13> C 	 45.4544 	 5.55952 	 82.242
| 14> H 	 45.7304 	 6.52139 	 82.0109
| 15> H 	 44.7691 	 5.66942 	 83.1028
| 16> C 	 44.7292 	 4.92204 	 81.0557
| 17> H 	 43.6934 	 5.27587 	 81.0376
| 18> H 	 45.2306 	 5.14825 	 80.1126
| 19> C 	 44.6667 	 3.36538 	 81.2867
| 20> H 	 44.5656 	 3.13292 	 82.3429
| 21> H 	 43.7344 	 2.96563 	 80.7317
| 22> H 	 45.6032 	 2.84818 	 80.9906
| 23> S 	 50.3974 	 4.47831 	 79.7318
| 24> C 	 51.6839 	 3.38607 	 79.2183
| 25> C 	 51.739 	 2.29033 	 80.0478
| 26> C 	 50.8692 	 2.38619 	 81.1667
| 27> C 	 50.0218 	 3.53625 	 81.1167
| 28> H 	 52.3164 	 1.4612 	 79.6981
| 29> C 	 50.6625 	 1.29702 	 82.2204
| 30> H 	 49.6886 	 0.982998 	 82.1796
| 31> H 	 50.8059 	 1.86948 	 83.1449
| 32> C 	 51.6603 	 0.132387 	 82.1574
| 33> H 	 52.7218 	 0.520032 	 82.1808
| 34> H 	 51.4686 	 -0.308685 	 81.2029
| 35> C 	 51.5258 	 -0.899736 	 83.359
| 36> H 	 52.3184 	 -1.64603 	 83.2143
| 37> H 	 50.6112 	 -1.38242 	 83.2814
| 38> H 	 51.6552 	 -0.450714 	 84.3795
| 39> H 	 46.6061 	 4.43531 	 84.6949
| 40> H 	 52.2304 	 3.39689 	 78.2338
| 41> *
| 42>
| 43>                          ****END OF INPUT****

CARTESIAN COORDINATES (ANGSTROEM)
---------------------------------
  S     48.811700    3.761380   83.687000
  C     47.219900    4.461170   83.791200
  C     46.829400    4.982130   82.562400
  C     47.790300    4.692640   81.514700
  C     48.908600    3.962480   81.964200
  H     47.726700    4.871570   80.445100
  C     45.454400    5.559520   82.242000
  H     45.730400    6.521390   82.010900
  H     44.769100    5.669420   83.102800
  C     44.729200    4.922040   81.055700
  H     43.693400    5.275870   81.037600
  H     45.230600    5.148250   80.112600
  C     44.666700    3.365380   81.286700
  H     44.565600    3.132920   82.342900
  H     43.734400    2.965630   80.731700
  H     45.603200    2.848180   80.990600
  S     50.397400    4.478310   79.731800
  C     51.683900    3.386070   79.218300
  C     51.739000    2.290330   80.047800
  C     50.869200    2.386190   81.166700
  C     50.021800    3.536250   81.116700
  H     52.316400    1.461200   79.698100
  C     50.662500    1.297020   82.220400
  H     49.688600    0.982998   82.179600
  H     50.805900    1.869480   83.144900
  C     51.660300    0.132387   82.157400
  H     52.721800    0.520032   82.180800
  H     51.468600   -0.308685   81.202900
  C     51.525800   -0.899736   83.359000
  H     52.318400   -1.646030   83.214300
  H     50.611200   -1.382420   83.281400
  H     51.655200   -0.450714   84.379500
  H     46.606100    4.435310   84.694900
  H     52.230400    3.396890   78.233800

 Total Charge           Charge          ....    0
 Multiplicity           Mult            ....    1
 Number of Electrons    NEL             ....  134
 Basis Dimension        Dim             ....  322

ORBITAL ENERGIES
----------------

  NO   OCC          E(Eh)            E(eV)
   0   2.0000     -88.968773     -2420.9634
   1   2.0000     -88.967473     -2420.9280
   2   2.0000     -10.334688      -281.2211
   3   2.0000     -10.328795      -281.0608
   4   2.0000     -10.320598      -280.8378
   5   2.0000     -10.315600      -280.7017
   6   2.0000     -10.307491      -280.4811
   7   2.0000     -10.306940      -280.4661
   8   2.0000     -10.298323      -280.2316
   9   2.0000     -10.293276      -280.0943
  10   2.0000     -10.291623      -280.0493
  11   2.0000     -10.289578      -279.9937
  12   2.0000     -10.286635      -279.9136
  13   2.0000     -10.282989      -279.8144
  14   2.0000     -10.281066      -279.7620
  15   2.0000     -10.280754      -279.7536
  16   2.0000      -8.083331      -219.9586
  17   2.0000      -8.081995      -219.9223
  18   2.0000      -6.041847      -164.4070
  19   2.0000      -6.040566      -164.3722
  20   2.0000      -6.037741      -164.2953
  21   2.0000      -6.036443      -164.2600
  22   2.0000      -6.034224      -164.1996
  23   2.0000      -6.032796      -164.1607
  24   2.0000      -1.006997       -27.4018
  25   2.0000      -0.984286       -26.7838
  26   2.0000      -0.911562       -24.8049
  27   2.0000      -0.905944       -24.6520
  28   2.0000      -0.871614       -23.7178
  29   2.0000      -0.846336       -23.0300
  30   2.0000      -0.836447       -22.7609
  31   2.0000      -0.814778       -22.1712
  32   2.0000      -0.782077       -21.2814
  33   2.0000      -0.770441       -20.9648
  34   2.0000      -0.707615       -19.2552
  35   2.0000      -0.704171       -19.1615
  36   2.0000      -0.690868       -18.7995
  37   2.0000      -0.655771       -17.8444
  38   2.0000      -0.631912       -17.1952
  39   2.0000      -0.618041       -16.8178
  40   2.0000      -0.593211       -16.1421
  41   2.0000      -0.573469       -15.6049
  42   2.0000      -0.567984       -15.4556
  43   2.0000      -0.553069       -15.0498
  44   2.0000      -0.540089       -14.6966
  45   2.0000      -0.525853       -14.3092
  46   2.0000      -0.513774       -13.9805
  47   2.0000      -0.508303       -13.8316
  48   2.0000      -0.506451       -13.7812
  49   2.0000      -0.496827       -13.5193
  50   2.0000      -0.486263       -13.2319
  51   2.0000      -0.477152       -12.9840
  52   2.0000      -0.472600       -12.8601
  53   2.0000      -0.468883       -12.7590
  54   2.0000      -0.460775       -12.5383
  55   2.0000      -0.449372       -12.2280
  56   2.0000      -0.443289       -12.0625
  57   2.0000      -0.434608       -11.8263
  58   2.0000      -0.430415       -11.7122
  59   2.0000      -0.428156       -11.6507
  60   2.0000      -0.423199       -11.5158
  61   2.0000      -0.411721       -11.2035
  62   2.0000      -0.409880       -11.1534
  63   2.0000      -0.357184        -9.7195
  64   2.0000      -0.331215        -9.0128
  65   2.0000      -0.328238        -8.9318
  66   2.0000      -0.283306        -7.7092
  67   0.0000       0.019020         0.5176
  68   0.0000       0.086030         2.3410
  69   0.0000       0.113388         3.0854
  70   0.0000       0.123984         3.3738
  71   0.0000       0.131890         3.5889

MULLIKEN ATOMIC CHARGES
-----------------------
   0 S :    0.103630
   1 C :   -0.133408
   2 C :   -0.088149
   3 C :   -0.018040
   4 C :   -0.134060
   5 H :    0.019312
   6 C :    0.101659
   7 H :    0.013330
   8 H :    0.023915
   9 C :   -0.081736
  10 H :    0.037205
  11 H :    0.037645
  12 C :   -0.080643
  13 H :    0.025237
  14 H :    0.046116
  15 H :    0.048540
  16 S :    0.104637
  17 C :   -0.105107
  18 C :   -0.056735
  19 C :   -0.062868
  20 C :   -0.137669
  21 H :    0.019524
  22 C :    0.098569
  23 H :    0.023399
  24 H :    0.032992
  25 C :   -0.124825
  26 H :    0.042346
  27 H :    0.029525
  28 C :   -0.019005
  29 H :    0.034055
  30 H :    0.022117
  31 H :    0.045783
  32 H :    0.057368
  33 H :    0.075342
Sum of atomic charges:   -0.0000000

LOEWDIN ATOMIC CHARGES
----------------------
   0 S :    0.420086
   1 C :   -0.208375
   2 C :   -0.054189
   3 C :   -0.075659
   4 C :   -0.193284
   5 H :    0.025034
   6 C :   -0.032014
   7 H :    0.023331
   8 H :    0.032490
   9 C :   -0.038742
  10 H :    0.028237
  11 H :    0.023325
  12 C :   -0.074620
  13 H :    0.021206
  14 H :    0.032940
  15 H :    0.030170
  16 S :    0.427293
  17 C :   -0.196989
  18 C :   -0.076917
  19 C :   -0.052608
  20 C :   -0.212004
  21 H :    0.032103
  22 C :   -0.032579
  23 H :    0.019469
  24 H :    0.028407
  25 C :   -0.039581
  26 H :    0.030304
  27 H :    0.018581
  28 C :   -0.058312
  29 H :    0.028808
  30 H :    0.014024
  31 H :    0.033259
  32 H :    0.032771
  33 H :    0.044036

  Mayer bond orders larger than 0.100000
B(  0-S ,  1-C ) :   1.1337 B(  0-S ,  4-C ) :   1.1573 B(  1-C ,  2-C ) :   1.6020
B(  1-C , 32-H ) :   0.9691 B(  2-C ,  3-C ) :   1.2381 B(  2-C ,  6-C ) :   1.0114
B(  3-C ,  4-C ) :   1.5498 B(  3-C ,  5-H ) :   0.9863 B(  4-C , 20-C ) :   1.0751
B(  6-C ,  7-H ) :   0.9236 B(  6-C ,  8-H ) :   0.9476 B(  6-C ,  9-C ) :   1.0852
B(  9-C , 10-H ) :   0.9592 B(  9-C , 11-H ) :   0.9520 B(  9-C , 12-C ) :   1.0681
B( 12-C , 13-H ) :   0.9775 B( 12-C , 14-H ) :   0.9775 B( 12-C , 15-H ) :   0.9701
B( 16-S , 17-C ) :   1.1578 B( 16-S , 20-C ) :   1.1619 B( 17-C , 18-C ) :   1.5904
B( 17-C , 20-C ) :   0.1022 B( 17-C , 33-H ) :   0.9545 B( 18-C , 19-C ) :   1.2801
B( 18-C , 21-H ) :   0.9909 B( 19-C , 20-C ) :   1.5221 B( 19-C , 22-C ) :   1.0134
B( 22-C , 23-H ) :   0.9330 B( 22-C , 24-H ) :   0.9251 B( 22-C , 25-C ) :   1.0883
B( 25-C , 26-H ) :   0.9577 B( 25-C , 27-H ) :   0.9485 B( 25-C , 28-C ) :   1.0771
B( 28-C , 29-H ) :   0.9755 B( 28-C , 30-H ) :   0.9761 B( 28-C , 31-H ) :   0.9768

Dispersion correction           -0.014364161
FINAL SINGLE POINT ENERGY     -1339.875736130449

DIPOLE MOMENT
-------------
                                X             Y             Z
Electronic contribution:      9.71416      13.77772      -2.25396
Nuclear contribution   :     -9.99325     -14.12741       2.11255
                        -----------------------------------------
Total Dipole Moment    :     -0.27908      -0.34968      -0.14141
                        -----------------------------------------
Magnitude (a.u.)       :      0.46921
Magnitude (Debye)      :      1.19265

Rotational constants in cm-1:     0.019428     0.008341     0.006853
Rotational constants in MHz :   582.444812   250.049641   205.446903

                             ****ORCA TERMINATED NORMALLY****
TOTAL RUN TIME: 0 days 0 hours 0 minutes 29 seconds 756 msec
