                         Program Version 4.2.1 -  RELEASE  -
|  1> ! wB97X-D3 SP def2-SVP
|  2> %pal
|  3> nprocs 16
|  4> end
|  5>
|  6> * xyz 0 1
|  7> S 	 53.8343 	 21.5696 	 93.1565
|  8> C 	 52.1104 	 21.7279 	 93.2672
|  9> C 	 51.502 	 21.3142 	 92.0549
| 10> C 	 52.4184 	 20.7223 	 91.1373
| 11> C 	 53.7547 	 20.8165 	 91.5828
| 12> H 	 52.1696 	 20.3117 	 90.2054
| 13> C 	 49.9809 	 21.3193 	 91.8929
| 14> H 	 49.8868 	 21.308 	 90.8057
| 15> H 	 49.5024 	 22.314 	 92.1525
| 16> C 	 49.335 	 20.0444 	 92.4747
| 17> H 	 48.2993 	 20.2441 	 92.2981
| 18> H 	 49.4162 	 19.0436 	 92.113
| 19> C 	 49.5457 	 19.8547 	 93.999
| 20> H 	 49.1404 	 20.7519 	 94.4991
| 21> H 	 48.9361 	 19.0715 	 94.3349
| 22> H 	 50.4992 	 19.5808 	 94.3996
| 23> S 	 55.9131 	 21.4147 	 89.9226
| 24> C 	 57.0192 	 20.2037 	 89.4812
| 25> C 	 56.7002 	 19.0188 	 90.1228
| 26> C 	 55.5415 	 19.043 	 90.9341
| 27> C 	 54.9664 	 20.3142 	 90.9656
| 28> H 	 57.2372 	 18.16 	 89.9163
| 29> C 	 55.1345 	 17.7664 	 91.6436
| 30> H 	 55.3608 	 16.8032 	 91.2476
| 31> H 	 54.0566 	 17.7949 	 91.6923
| 32> C 	 55.5695 	 17.7339 	 93.0892
| 33> H 	 54.866 	 17.0814 	 93.6456
| 34> H 	 55.395 	 18.7647 	 93.5678
| 35> C 	 56.9896 	 17.3735 	 93.3749
| 36> H 	 57.1514 	 16.2445 	 93.361
| 37> H 	 57.3841 	 17.7122 	 94.3586
| 38> H 	 57.5987 	 17.9084 	 92.6015
| 39> H 	 51.5847 	 22.2556 	 94.0277
| 40> H 	 57.9087 	 20.3387 	 88.8988
| 41> *
| 42>
| 43>                          ****END OF INPUT****

CARTESIAN COORDINATES (ANGSTROEM)
---------------------------------
  S     53.834300   21.569600   93.156500
  C     52.110400   21.727900   93.267200
  C     51.502000   21.314200   92.054900
  C     52.418400   20.722300   91.137300
  C     53.754700   20.816500   91.582800
  H     52.169600   20.311700   90.205400
  C     49.980900   21.319300   91.892900
  H     49.886800   21.308000   90.805700
  H     49.502400   22.314000   92.152500
  C     49.335000   20.044400   92.474700
  H     48.299300   20.244100   92.298100
  H     49.416200   19.043600   92.113000
  C     49.545700   19.854700   93.999000
  H     49.140400   20.751900   94.499100
  H     48.936100   19.071500   94.334900
  H     50.499200   19.580800   94.399600
  S     55.913100   21.414700   89.922600
  C     57.019200   20.203700   89.481200
  C     56.700200   19.018800   90.122800
  C     55.541500   19.043000   90.934100
  C     54.966400   20.314200   90.965600
  H     57.237200   18.160000   89.916300
  C     55.134500   17.766400   91.643600
  H     55.360800   16.803200   91.247600
  H     54.056600   17.794900   91.692300
  C     55.569500   17.733900   93.089200
  H     54.866000   17.081400   93.645600
  H     55.395000   18.764700   93.567800
  C     56.989600   17.373500   93.374900
  H     57.151400   16.244500   93.361000
  H     57.384100   17.712200   94.358600
  H     57.598700   17.908400   92.601500
  H     51.584700   22.255600   94.027700
  H     57.908700   20.338700   88.898800

 Total Charge           Charge          ....    0
 Multiplicity           Mult            ....    1
 Number of Electrons    NEL             ....  134
 Basis Dimension        Dim             ....  322

ORBITAL ENERGIES
----------------

  NO   OCC          E(Eh)            E(eV)
   0   2.0000     -88.967494     -2420.9286
   1   2.0000     -88.964166     -2420.8380
   2   2.0000     -10.329368      -281.0764
   3   2.0000     -10.327170      -281.0166
   4   2.0000     -10.313171      -280.6357
   5   2.0000     -10.311983      -280.6033
   6   2.0000     -10.304235      -280.3925
   7   2.0000     -10.302048      -280.3330
   8   2.0000     -10.301385      -280.3149
   9   2.0000     -10.296313      -280.1769
  10   2.0000     -10.286368      -279.9063
  11   2.0000     -10.285514      -279.8831
  12   2.0000     -10.282345      -279.7968
  13   2.0000     -10.281921      -279.7853
  14   2.0000     -10.279432      -279.7176
  15   2.0000     -10.269631      -279.4509
  16   2.0000      -8.081960      -219.9213
  17   2.0000      -8.079296      -219.8488
  18   2.0000      -6.040282      -164.3644
  19   2.0000      -6.037655      -164.2930
  20   2.0000      -6.036295      -164.2559
  21   2.0000      -6.033577      -164.1820
  22   2.0000      -6.033144      -164.1702
  23   2.0000      -6.030344      -164.0940
  24   2.0000      -1.004345       -27.3296
  25   2.0000      -0.983313       -26.7573
  26   2.0000      -0.913543       -24.8588
  27   2.0000      -0.909410       -24.7463
  28   2.0000      -0.865585       -23.5538
  29   2.0000      -0.849131       -23.1060
  30   2.0000      -0.847222       -23.0541
  31   2.0000      -0.810335       -22.0503
  32   2.0000      -0.787278       -21.4229
  33   2.0000      -0.775270       -21.0962
  34   2.0000      -0.710091       -19.3226
  35   2.0000      -0.698098       -18.9962
  36   2.0000      -0.678553       -18.4644
  37   2.0000      -0.662750       -18.0343
  38   2.0000      -0.645342       -17.5607
  39   2.0000      -0.617328       -16.7984
  40   2.0000      -0.602556       -16.3964
  41   2.0000      -0.568178       -15.4609
  42   2.0000      -0.554286       -15.0829
  43   2.0000      -0.552503       -15.0344
  44   2.0000      -0.545154       -14.8344
  45   2.0000      -0.537810       -14.6346
  46   2.0000      -0.516653       -14.0588
  47   2.0000      -0.509309       -13.8590
  48   2.0000      -0.507392       -13.8068
  49   2.0000      -0.493564       -13.4306
  50   2.0000      -0.490539       -13.3483
  51   2.0000      -0.476748       -12.9730
  52   2.0000      -0.473007       -12.8712
  53   2.0000      -0.466855       -12.7038
  54   2.0000      -0.459269       -12.4973
  55   2.0000      -0.451396       -12.2831
  56   2.0000      -0.444119       -12.0851
  57   2.0000      -0.441241       -12.0068
  58   2.0000      -0.429180       -11.6786
  59   2.0000      -0.412800       -11.2329
  60   2.0000      -0.408857       -11.1256
  61   2.0000      -0.407914       -11.0999
  62   2.0000      -0.403719       -10.9857
  63   2.0000      -0.335901        -9.1403
  64   2.0000      -0.329206        -8.9582
  65   2.0000      -0.316500        -8.6124
  66   2.0000      -0.309250        -8.4151
  67   0.0000       0.042908         1.1676
  68   0.0000       0.048654         1.3239
  69   0.0000       0.117101         3.1865
  70   0.0000       0.125921         3.4265
  71   0.0000       0.132968         3.6182

MULLIKEN ATOMIC CHARGES
-----------------------
   0 S :    0.130237
   1 C :   -0.102446
   2 C :   -0.122341
   3 C :    0.088015
   4 C :   -0.190924
   5 H :   -0.006804
   6 C :    0.046672
   7 H :    0.018690
   8 H :    0.050952
   9 C :   -0.035476
  10 H :    0.018660
  11 H :    0.028470
  12 C :   -0.048713
  13 H :    0.018128
  14 H :    0.010615
  15 H :    0.044505
  16 S :    0.120788
  17 C :   -0.078317
  18 C :   -0.026407
  19 C :    0.003527
  20 C :   -0.200658
  21 H :   -0.011126
  22 C :    0.128226
  23 H :    0.016286
  24 H :    0.015016
  25 C :   -0.111526
  26 H :    0.026517
  27 H :    0.029610
  28 C :   -0.067219
  29 H :    0.036215
  30 H :    0.039188
  31 H :    0.034107
  32 H :    0.041920
  33 H :    0.055614
Sum of atomic charges:   -0.0000000

LOEWDIN ATOMIC CHARGES
----------------------
   0 S :    0.431408
   1 C :   -0.202554
   2 C :   -0.063641
   3 C :   -0.046917
   4 C :   -0.206357
   5 H :    0.024947
   6 C :   -0.036924
   7 H :    0.031315
   8 H :    0.042227
   9 C :   -0.037726
  10 H :    0.024966
  11 H :    0.026379
  12 C :   -0.065117
  13 H :    0.023447
  14 H :    0.019122
  15 H :    0.023222
  16 S :    0.422419
  17 C :   -0.195804
  18 C :   -0.073799
  19 C :   -0.041960
  20 C :   -0.206457
  21 H :    0.015994
  22 C :   -0.028374
  23 H :    0.027642
  24 H :    0.034884
  25 C :   -0.052756
  26 H :    0.022408
  27 H :    0.027443
  28 C :   -0.079250
  29 H :    0.027651
  30 H :    0.029485
  31 H :    0.029753
  32 H :    0.022716
  33 H :    0.030209

  Mayer bond orders larger than 0.100000
B(  0-S ,  1-C ) :   1.1636 B(  0-S ,  4-C ) :   1.1805 B(  1-C ,  2-C ) :   1.5630
B(  1-C ,  4-C ) :   0.1124 B(  1-C , 32-H ) :   0.9715 B(  2-C ,  3-C ) :   1.2749
B(  2-C ,  6-C ) :   1.0256 B(  3-C ,  4-C ) :   1.5406 B(  3-C ,  5-H ) :   1.0035
B(  4-C , 20-C ) :   1.0147 B(  6-C ,  7-H ) :   0.9351 B(  6-C ,  8-H ) :   0.9474
B(  6-C ,  9-C ) :   1.0552 B(  9-C , 10-H ) :   0.9515 B(  9-C , 11-H ) :   0.9634
B(  9-C , 12-C ) :   1.0843 B( 12-C , 13-H ) :   0.9749 B( 12-C , 14-H ) :   0.9694
B( 12-C , 15-H ) :   0.9726 B( 16-S , 17-C ) :   1.1815 B( 16-S , 20-C ) :   1.1535
B( 17-C , 18-C ) :   1.5670 B( 17-C , 20-C ) :   0.1068 B( 17-C , 33-H ) :   0.9688
B( 18-C , 19-C ) :   1.2671 B( 18-C , 21-H ) :   0.9992 B( 19-C , 20-C ) :   1.5737
B( 19-C , 22-C ) :   1.0465 B( 22-C , 23-H ) :   0.9428 B( 22-C , 24-H ) :   0.9128
B( 22-C , 25-C ) :   1.0757 B( 25-C , 26-H ) :   0.9547 B( 25-C , 27-H ) :   0.9498
B( 25-C , 28-C ) :   1.0773 B( 28-C , 29-H ) :   0.9728 B( 28-C , 30-H ) :   0.9737
B( 28-C , 31-H ) :   0.9706

Dispersion correction           -0.015111250
FINAL SINGLE POINT ENERGY     -1339.865955695615

DIPOLE MOMENT
-------------
                                X             Y             Z
Electronic contribution:     12.55667      16.35540     -10.72339
Nuclear contribution   :    -13.01551     -16.75540      10.68161
                        -----------------------------------------
Total Dipole Moment    :     -0.45883      -0.39999      -0.04177
                        -----------------------------------------
Magnitude (a.u.)       :      0.61014
Magnitude (Debye)      :      1.55085

Rotational constants in cm-1:     0.021208     0.008372     0.007111
Rotational constants in MHz :   635.803929   250.985987   213.184765

                             ****ORCA TERMINATED NORMALLY****
TOTAL RUN TIME: 0 days 0 hours 0 minutes 31 seconds 128 msec
