                         Program Version 4.2.1 -  RELEASE  -
|  1> ! wB97X-D3 SP def2-SVP
|  2> %pal
|  3> nprocs 16
|  4> end
|  5>
|  6> * xyz 0 1
|  7> S 	 18.1334 	 5.70979 	 74.7823
|  8> C 	 18.8318 	 5.04471 	 73.2808
|  9> C 	 19.8072 	 5.85297 	 72.78
| 10> C 	 20.0598 	 6.92815 	 73.658
| 11> C 	 19.2735 	 7.05286 	 74.8259
| 12> H 	 20.9405 	 7.47271 	 73.5158
| 13> C 	 20.6193 	 5.54443 	 71.4917
| 14> H 	 20.8338 	 6.49441 	 71.1017
| 15> H 	 19.9256 	 5.10458 	 70.7504
| 16> C 	 21.9955 	 4.80273 	 71.6716
| 17> H 	 22.5714 	 4.73724 	 70.7957
| 18> H 	 22.6505 	 5.53324 	 72.2354
| 19> C 	 21.9808 	 3.4035 	 72.256
| 20> H 	 22.9445 	 3.20746 	 72.8086
| 21> H 	 21.2506 	 3.28389 	 73.0691
| 22> H 	 21.9059 	 2.56211 	 71.5206
| 23> S 	 19.8885 	 7.09884 	 77.606
| 24> C 	 20.3547 	 8.62054 	 78.2178
| 25> C 	 20.414 	 9.62906 	 77.2382
| 26> C 	 19.8675 	 9.27126 	 75.9374
| 27> C 	 19.5496 	 7.88613 	 76.0069
| 28> H 	 20.9381 	 10.5632 	 77.5253
| 29> C 	 19.6766 	 10.205 	 74.6951
| 30> H 	 19.9674 	 9.60731 	 73.8207
| 31> H 	 20.3632 	 11.0329 	 74.6428
| 32> C 	 18.2471 	 10.7052 	 74.2901
| 33> H 	 17.6706 	 9.86817 	 73.8819
| 34> H 	 18.2416 	 11.5014 	 73.5754
| 35> C 	 17.4834 	 11.2443 	 75.4413
| 36> H 	 17.1952 	 10.4096 	 76.0968
| 37> H 	 16.5153 	 11.4912 	 75.0064
| 38> H 	 17.8053 	 12.0824 	 76.051
| 39> H 	 18.6083 	 4.08133 	 72.8125
| 40> H 	 20.9782 	 8.66577 	 79.0884
| 41> *
| 42>
| 43>                          ****END OF INPUT****

CARTESIAN COORDINATES (ANGSTROEM)
---------------------------------
  S     18.133400    5.709790   74.782300
  C     18.831800    5.044710   73.280800
  C     19.807200    5.852970   72.780000
  C     20.059800    6.928150   73.658000
  C     19.273500    7.052860   74.825900
  H     20.940500    7.472710   73.515800
  C     20.619300    5.544430   71.491700
  H     20.833800    6.494410   71.101700
  H     19.925600    5.104580   70.750400
  C     21.995500    4.802730   71.671600
  H     22.571400    4.737240   70.795700
  H     22.650500    5.533240   72.235400
  C     21.980800    3.403500   72.256000
  H     22.944500    3.207460   72.808600
  H     21.250600    3.283890   73.069100
  H     21.905900    2.562110   71.520600
  S     19.888500    7.098840   77.606000
  C     20.354700    8.620540   78.217800
  C     20.414000    9.629060   77.238200
  C     19.867500    9.271260   75.937400
  C     19.549600    7.886130   76.006900
  H     20.938100   10.563200   77.525300
  C     19.676600   10.205000   74.695100
  H     19.967400    9.607310   73.820700
  H     20.363200   11.032900   74.642800
  C     18.247100   10.705200   74.290100
  H     17.670600    9.868170   73.881900
  H     18.241600   11.501400   73.575400
  C     17.483400   11.244300   75.441300
  H     17.195200   10.409600   76.096800
  H     16.515300   11.491200   75.006400
  H     17.805300   12.082400   76.051000
  H     18.608300    4.081330   72.812500
  H     20.978200    8.665770   79.088400

 Total Charge           Charge          ....    0
 Multiplicity           Mult            ....    1
 Number of Electrons    NEL             ....  134
 Basis Dimension        Dim             ....  322

ORBITAL ENERGIES
----------------

  NO   OCC          E(Eh)            E(eV)
   0   2.0000     -88.972699     -2421.0702
   1   2.0000     -88.965851     -2420.8839
   2   2.0000     -10.338715      -281.3307
   3   2.0000     -10.334280      -281.2101
   4   2.0000     -10.320591      -280.8376
   5   2.0000     -10.315080      -280.6876
   6   2.0000     -10.315039      -280.6865
   7   2.0000     -10.303544      -280.3737
   8   2.0000     -10.298568      -280.2383
   9   2.0000     -10.298268      -280.2301
  10   2.0000     -10.297238      -280.2021
  11   2.0000     -10.292829      -280.0821
  12   2.0000     -10.290505      -280.0189
  13   2.0000     -10.283711      -279.8340
  14   2.0000     -10.282958      -279.8135
  15   2.0000     -10.264878      -279.3215
  16   2.0000      -8.087065      -220.0602
  17   2.0000      -8.079686      -219.8594
  18   2.0000      -6.045453      -164.5051
  19   2.0000      -6.041741      -164.4041
  20   2.0000      -6.038276      -164.3098
  21   2.0000      -6.037842      -164.2980
  22   2.0000      -6.034193      -164.1987
  23   2.0000      -6.030537      -164.0992
  24   2.0000      -0.999283       -27.1919
  25   2.0000      -0.979182       -26.6449
  26   2.0000      -0.907415       -24.6920
  27   2.0000      -0.904754       -24.6196
  28   2.0000      -0.866117       -23.5683
  29   2.0000      -0.853601       -23.2277
  30   2.0000      -0.840410       -22.8687
  31   2.0000      -0.806222       -21.9384
  32   2.0000      -0.788888       -21.4667
  33   2.0000      -0.777718       -21.1628
  34   2.0000      -0.708327       -19.2746
  35   2.0000      -0.698592       -19.0096
  36   2.0000      -0.686959       -18.6931
  37   2.0000      -0.653341       -17.7783
  38   2.0000      -0.632586       -17.2135
  39   2.0000      -0.619904       -16.8684
  40   2.0000      -0.589721       -16.0471
  41   2.0000      -0.565647       -15.3920
  42   2.0000      -0.559918       -15.2361
  43   2.0000      -0.546523       -14.8716
  44   2.0000      -0.543490       -14.7891
  45   2.0000      -0.538538       -14.6544
  46   2.0000      -0.516375       -14.0513
  47   2.0000      -0.504549       -13.7295
  48   2.0000      -0.495753       -13.4901
  49   2.0000      -0.490481       -13.3467
  50   2.0000      -0.485191       -13.2027
  51   2.0000      -0.482600       -13.1322
  52   2.0000      -0.474886       -12.9223
  53   2.0000      -0.463523       -12.6131
  54   2.0000      -0.458496       -12.4763
  55   2.0000      -0.445152       -12.1132
  56   2.0000      -0.442317       -12.0361
  57   2.0000      -0.435421       -11.8484
  58   2.0000      -0.427247       -11.6260
  59   2.0000      -0.420770       -11.4497
  60   2.0000      -0.417055       -11.3486
  61   2.0000      -0.415803       -11.3146
  62   2.0000      -0.410708       -11.1759
  63   2.0000      -0.345280        -9.3956
  64   2.0000      -0.333878        -9.0853
  65   2.0000      -0.332339        -9.0434
  66   2.0000      -0.287469        -7.8224
  67   0.0000       0.020069         0.5461
  68   0.0000       0.062025         1.6878
  69   0.0000       0.106019         2.8849
  70   0.0000       0.115423         3.1408
  71   0.0000       0.132519         3.6060

MULLIKEN ATOMIC CHARGES
-----------------------
   0 S :    0.093952
   1 C :   -0.131958
   2 C :   -0.106557
   3 C :    0.046402
   4 C :   -0.165774
   5 H :   -0.004996
   6 C :    0.092219
   7 H :    0.008006
   8 H :    0.033773
   9 C :   -0.049526
  10 H :    0.019355
  11 H :    0.026961
  12 C :   -0.078557
  13 H :    0.034484
  14 H :    0.037205
  15 H :    0.043959
  16 S :    0.123897
  17 C :   -0.086406
  18 C :   -0.071966
  19 C :   -0.034387
  20 C :   -0.145541
  21 H :    0.034877
  22 C :    0.096382
  23 H :    0.017808
  24 H :    0.021100
  25 C :   -0.057974
  26 H :    0.036751
  27 H :    0.024391
  28 C :   -0.058685
  29 H :    0.034872
  30 H :    0.015341
  31 H :    0.037586
  32 H :    0.051467
  33 H :    0.061537
Sum of atomic charges:    0.0000000

LOEWDIN ATOMIC CHARGES
----------------------
   0 S :    0.384492
   1 C :   -0.185376
   2 C :   -0.069960
   3 C :   -0.058361
   4 C :   -0.196862
   5 H :    0.017443
   6 C :   -0.023450
   7 H :    0.024377
   8 H :    0.033284
   9 C :   -0.044344
  10 H :    0.020723
  11 H :    0.031487
  12 C :   -0.079450
  13 H :    0.035603
  14 H :    0.025607
  15 H :    0.029641
  16 S :    0.411078
  17 C :   -0.209553
  18 C :   -0.069953
  19 C :   -0.040660
  20 C :   -0.182148
  21 H :    0.035375
  22 C :   -0.033572
  23 H :    0.034396
  24 H :    0.028220
  25 C :   -0.034217
  26 H :    0.031557
  27 H :    0.023143
  28 C :   -0.074818
  29 H :    0.028741
  30 H :    0.025847
  31 H :    0.022911
  32 H :    0.032192
  33 H :    0.026604

  Mayer bond orders larger than 0.100000
B(  0-S ,  1-C ) :   1.1402 B(  0-S ,  4-C ) :   1.1400 B(  1-C ,  2-C ) :   1.6084
B(  1-C , 32-H ) :   0.9620 B(  2-C ,  3-C ) :   1.2862 B(  2-C ,  6-C ) :   1.0088
B(  3-C ,  4-C ) :   1.5429 B(  3-C ,  5-H ) :   0.9838 B(  4-C , 20-C ) :   1.0611
B(  6-C ,  7-H ) :   0.9340 B(  6-C ,  8-H ) :   0.9478 B(  6-C ,  9-C ) :   1.0660
B(  9-C , 10-H ) :   0.9540 B(  9-C , 11-H ) :   0.9561 B(  9-C , 12-C ) :   1.0721
B( 12-C , 13-H ) :   0.9708 B( 12-C , 14-H ) :   0.9760 B( 12-C , 15-H ) :   0.9765
B( 16-S , 17-C ) :   1.1556 B( 16-S , 20-C ) :   1.1520 B( 17-C , 18-C ) :   1.6231
B( 17-C , 33-H ) :   0.9610 B( 18-C , 19-C ) :   1.2344 B( 18-C , 21-H ) :   0.9804
B( 19-C , 20-C ) :   1.5613 B( 19-C , 22-C ) :   1.0280 B( 22-C , 23-H ) :   0.9278
B( 22-C , 24-H ) :   0.9418 B( 22-C , 25-C ) :   1.0706 B( 25-C , 26-H ) :   0.9511
B( 25-C , 27-H ) :   0.9583 B( 25-C , 28-C ) :   1.0954 B( 28-C , 29-H ) :   0.9658
B( 28-C , 30-H ) :   0.9692 B( 28-C , 31-H ) :   0.9780

Dispersion correction           -0.014570921
FINAL SINGLE POINT ENERGY     -1339.851848806280

DIPOLE MOMENT
-------------
                                X             Y             Z
Electronic contribution:     -6.30680      -5.97217      16.98341
Nuclear contribution   :      6.94063       6.17292     -17.47822
                        -----------------------------------------
Total Dipole Moment    :      0.63383       0.20075      -0.49481
                        -----------------------------------------
Magnitude (a.u.)       :      0.82878
Magnitude (Debye)      :      2.10660

Rotational constants in cm-1:     0.019980     0.008045     0.007167
Rotational constants in MHz :   598.971232   241.171064   214.858874

                             ****ORCA TERMINATED NORMALLY****
TOTAL RUN TIME: 0 days 0 hours 0 minutes 37 seconds 186 msec
