                         Program Version 4.2.1 -  RELEASE  -
|  1> ! wB97X-D3 SP def2-SVP
|  2> %pal
|  3> nprocs 16
|  4> end
|  5>
|  6> * xyz 0 1
|  7> S 	 48.2056 	 11.9848 	 84.5218
|  8> C 	 46.8451 	 12.8329 	 83.6948
|  9> C 	 47.2617 	 13.9366 	 82.9745
| 10> C 	 48.6074 	 14.1717 	 83.2332
| 11> C 	 49.3285 	 13.22 	 83.9599
| 12> H 	 49.1556 	 14.8978 	 82.7515
| 13> C 	 46.3859 	 15.0057 	 82.2271
| 14> H 	 45.4348 	 14.5007 	 81.9557
| 15> H 	 46.8883 	 15.2536 	 81.28
| 16> C 	 46.0829 	 16.3326 	 82.9462
| 17> H 	 47.0649 	 16.8797 	 82.8987
| 18> H 	 45.4051 	 16.9879 	 82.3664
| 19> C 	 45.6083 	 16.1098 	 84.4343
| 20> H 	 45.3984 	 17.0366 	 84.8997
| 21> H 	 44.7271 	 15.5047 	 84.5802
| 22> H 	 46.3462 	 15.5602 	 84.9387
| 23> S 	 51.4982 	 13.1633 	 85.7058
| 24> C 	 53.0254 	 12.852 	 84.9841
| 25> C 	 52.9296 	 12.5065 	 83.6936
| 26> C 	 51.6844 	 12.7087 	 83.1148
| 27> C 	 50.7623 	 13.1042 	 84.1367
| 28> H 	 53.7294 	 12.0302 	 83.1996
| 29> C 	 51.2875 	 12.2108 	 81.772
| 30> H 	 50.298 	 12.416 	 81.5979
| 31> H 	 51.4519 	 11.1337 	 81.8169
| 32> C 	 52.042 	 12.854 	 80.5946
| 33> H 	 51.5821 	 12.4822 	 79.6635
| 34> H 	 53.1135 	 12.7108 	 80.763
| 35> C 	 51.9138 	 14.3548 	 80.5755
| 36> H 	 52.2744 	 14.7452 	 81.581
| 37> H 	 50.9057 	 14.8199 	 80.5268
| 38> H 	 52.4817 	 14.806 	 79.7778
| 39> H 	 45.8114 	 12.5056 	 83.7685
| 40> H 	 53.8327 	 12.7923 	 85.6757
| 41> *
| 42>
| 43>                          ****END OF INPUT****

CARTESIAN COORDINATES (ANGSTROEM)
---------------------------------
  S     48.205600   11.984800   84.521800
  C     46.845100   12.832900   83.694800
  C     47.261700   13.936600   82.974500
  C     48.607400   14.171700   83.233200
  C     49.328500   13.220000   83.959900
  H     49.155600   14.897800   82.751500
  C     46.385900   15.005700   82.227100
  H     45.434800   14.500700   81.955700
  H     46.888300   15.253600   81.280000
  C     46.082900   16.332600   82.946200
  H     47.064900   16.879700   82.898700
  H     45.405100   16.987900   82.366400
  C     45.608300   16.109800   84.434300
  H     45.398400   17.036600   84.899700
  H     44.727100   15.504700   84.580200
  H     46.346200   15.560200   84.938700
  S     51.498200   13.163300   85.705800
  C     53.025400   12.852000   84.984100
  C     52.929600   12.506500   83.693600
  C     51.684400   12.708700   83.114800
  C     50.762300   13.104200   84.136700
  H     53.729400   12.030200   83.199600
  C     51.287500   12.210800   81.772000
  H     50.298000   12.416000   81.597900
  H     51.451900   11.133700   81.816900
  C     52.042000   12.854000   80.594600
  H     51.582100   12.482200   79.663500
  H     53.113500   12.710800   80.763000
  C     51.913800   14.354800   80.575500
  H     52.274400   14.745200   81.581000
  H     50.905700   14.819900   80.526800
  H     52.481700   14.806000   79.777800
  H     45.811400   12.505600   83.768500
  H     53.832700   12.792300   85.675700

 Total Charge           Charge          ....    0
 Multiplicity           Mult            ....    1
 Number of Electrons    NEL             ....  134
 Basis Dimension        Dim             ....  322

ORBITAL ENERGIES
----------------

  NO   OCC          E(Eh)            E(eV)
   0   2.0000     -88.967189     -2420.9203
   1   2.0000     -88.966369     -2420.8980
   2   2.0000     -10.326996      -281.0119
   3   2.0000     -10.324592      -280.9464
   4   2.0000     -10.318816      -280.7893
   5   2.0000     -10.311294      -280.5846
   6   2.0000     -10.301447      -280.3166
   7   2.0000     -10.301266      -280.3117
   8   2.0000     -10.300507      -280.2910
   9   2.0000     -10.296294      -280.1764
  10   2.0000     -10.287109      -279.9265
  11   2.0000     -10.285355      -279.8787
  12   2.0000     -10.282815      -279.8096
  13   2.0000     -10.281351      -279.7698
  14   2.0000     -10.276339      -279.6334
  15   2.0000     -10.267851      -279.4024
  16   2.0000      -8.083073      -219.9516
  17   2.0000      -8.080054      -219.8694
  18   2.0000      -6.041216      -164.3898
  19   2.0000      -6.038571      -164.3179
  20   2.0000      -6.037562      -164.2904
  21   2.0000      -6.034712      -164.2129
  22   2.0000      -6.034022      -164.1941
  23   2.0000      -6.030874      -164.1084
  24   2.0000      -1.011228       -27.5169
  25   2.0000      -0.984652       -26.7937
  26   2.0000      -0.918724       -24.9997
  27   2.0000      -0.903702       -24.5910
  28   2.0000      -0.867519       -23.6064
  29   2.0000      -0.855379       -23.2761
  30   2.0000      -0.841653       -22.9025
  31   2.0000      -0.811165       -22.0729
  32   2.0000      -0.788080       -21.4447
  33   2.0000      -0.776482       -21.1292
  34   2.0000      -0.706969       -19.2376
  35   2.0000      -0.696196       -18.9444
  36   2.0000      -0.695854       -18.9352
  37   2.0000      -0.657039       -17.8790
  38   2.0000      -0.640555       -17.4304
  39   2.0000      -0.623825       -16.9752
  40   2.0000      -0.609815       -16.5939
  41   2.0000      -0.562385       -15.3033
  42   2.0000      -0.556652       -15.1473
  43   2.0000      -0.553184       -15.0529
  44   2.0000      -0.544844       -14.8260
  45   2.0000      -0.541651       -14.7391
  46   2.0000      -0.524133       -14.2624
  47   2.0000      -0.507517       -13.8102
  48   2.0000      -0.495440       -13.4816
  49   2.0000      -0.492100       -13.3907
  50   2.0000      -0.485230       -13.2038
  51   2.0000      -0.480165       -13.0660
  52   2.0000      -0.468766       -12.7558
  53   2.0000      -0.465705       -12.6725
  54   2.0000      -0.458464       -12.4754
  55   2.0000      -0.450475       -12.2580
  56   2.0000      -0.447583       -12.1793
  57   2.0000      -0.443068       -12.0565
  58   2.0000      -0.433199       -11.7879
  59   2.0000      -0.423884       -11.5345
  60   2.0000      -0.420818       -11.4511
  61   2.0000      -0.414621       -11.2824
  62   2.0000      -0.409770       -11.1504
  63   2.0000      -0.339707        -9.2439
  64   2.0000      -0.336817        -9.1653
  65   2.0000      -0.325398        -8.8545
  66   2.0000      -0.297334        -8.0909
  67   0.0000       0.034086         0.9275
  68   0.0000       0.058006         1.5784
  69   0.0000       0.108957         2.9649
  70   0.0000       0.115550         3.1443
  71   0.0000       0.130538         3.5521

MULLIKEN ATOMIC CHARGES
-----------------------
   0 S :    0.102926
   1 C :   -0.137470
   2 C :   -0.081180
   3 C :    0.063079
   4 C :   -0.171553
   5 H :   -0.030706
   6 C :    0.053789
   7 H :    0.025878
   8 H :    0.032857
   9 C :   -0.090910
  10 H :    0.033501
  11 H :    0.039128
  12 C :   -0.015307
  13 H :    0.026725
  14 H :    0.019042
  15 H :    0.036866
  16 S :    0.120401
  17 C :   -0.080903
  18 C :   -0.006858
  19 C :   -0.062239
  20 C :   -0.181399
  21 H :    0.003673
  22 C :    0.138901
  23 H :    0.002740
  24 H :    0.044524
  25 C :   -0.057311
  26 H :    0.039516
  27 H :    0.030733
  28 C :   -0.098111
  29 H :    0.041495
  30 H :    0.027648
  31 H :    0.035959
  32 H :    0.047994
  33 H :    0.046572
Sum of atomic charges:   -0.0000000

LOEWDIN ATOMIC CHARGES
----------------------
   0 S :    0.380745
   1 C :   -0.176715
   2 C :   -0.069038
   3 C :   -0.059432
   4 C :   -0.190981
   5 H :    0.013664
   6 C :   -0.029972
   7 H :    0.028119
   8 H :    0.032098
   9 C :   -0.041156
  10 H :    0.028022
  11 H :    0.027112
  12 C :   -0.058849
  13 H :    0.021373
  14 H :    0.023558
  15 H :    0.023472
  16 S :    0.432788
  17 C :   -0.179291
  18 C :   -0.070792
  19 C :   -0.044900
  20 C :   -0.218023
  21 H :    0.026974
  22 C :   -0.021673
  23 H :    0.019787
  24 H :    0.040061
  25 C :   -0.038089
  26 H :    0.029776
  27 H :    0.025925
  28 C :   -0.077019
  29 H :    0.031285
  30 H :    0.021835
  31 H :    0.023429
  32 H :    0.025819
  33 H :    0.020090

  Mayer bond orders larger than 0.100000
B(  0-S ,  1-C ) :   1.1452 B(  0-S ,  4-C ) :   1.1398 B(  1-C ,  2-C ) :   1.5963
B(  1-C ,  4-C ) :   0.1066 B(  1-C , 32-H ) :   0.9656 B(  2-C ,  3-C ) :   1.2478
B(  2-C ,  6-C ) :   1.0208 B(  3-C ,  4-C ) :   1.5801 B(  3-C ,  5-H ) :   1.0060
B(  4-C , 20-C ) :   1.0380 B(  6-C ,  7-H ) :   0.9438 B(  6-C ,  8-H ) :   0.9427
B(  6-C ,  9-C ) :   1.0673 B(  9-C , 10-H ) :   0.9545 B(  9-C , 11-H ) :   0.9581
B(  9-C , 12-C ) :   1.0659 B( 12-C , 13-H ) :   0.9761 B( 12-C , 14-H ) :   0.9771
B( 12-C , 15-H ) :   0.9718 B( 16-S , 17-C ) :   1.1762 B( 16-S , 20-C ) :   1.1756
B( 17-C , 18-C ) :   1.5646 B( 17-C , 20-C ) :   0.1027 B( 17-C , 33-H ) :   0.9757
B( 18-C , 19-C ) :   1.2727 B( 18-C , 21-H ) :   0.9994 B( 19-C , 20-C ) :   1.5224
B( 19-C , 22-C ) :   1.0499 B( 22-C , 23-H ) :   0.9146 B( 22-C , 24-H ) :   0.9376
B( 22-C , 25-C ) :   1.0679 B( 25-C , 26-H ) :   0.9559 B( 25-C , 27-H ) :   0.9560
B( 25-C , 28-C ) :   1.0799 B( 28-C , 29-H ) :   0.9661 B( 28-C , 30-H ) :   0.9728
B( 28-C , 31-H ) :   0.9726

Dispersion correction           -0.015629665
FINAL SINGLE POINT ENERGY     -1339.869035870950

DIPOLE MOMENT
-------------
                                X             Y             Z
Electronic contribution:      6.66040     -13.63562      17.75002
Nuclear contribution   :     -6.59228      13.70142     -18.17473
                        -----------------------------------------
Total Dipole Moment    :      0.06811       0.06580      -0.42471
                        -----------------------------------------
Magnitude (a.u.)       :      0.43514
Magnitude (Debye)      :      1.10605

Rotational constants in cm-1:     0.019839     0.008831     0.007411
Rotational constants in MHz :   594.751914   264.741624   222.186487

                             ****ORCA TERMINATED NORMALLY****
TOTAL RUN TIME: 0 days 0 hours 0 minutes 31 seconds 287 msec
