                         Program Version 4.2.1 -  RELEASE  -
|  1> ! wB97X-D3 SP def2-SVP
|  2> %pal
|  3> nprocs 16
|  4> end
|  5>
|  6> * xyz 0 1
|  7> S 	 16.685 	 20.3427 	 41.9126
|  8> C 	 17.2075 	 20.173 	 40.2124
|  9> C 	 17.3574 	 21.46 	 39.6123
| 10> C 	 16.8353 	 22.5246 	 40.3779
| 11> C 	 16.5087 	 22.1026 	 41.6813
| 12> H 	 16.82 	 23.5794 	 40.0613
| 13> C 	 17.6433 	 21.7463 	 38.1431
| 14> H 	 17.1211 	 22.6429 	 37.807
| 15> H 	 17.267 	 20.9127 	 37.5615
| 16> C 	 19.1613 	 21.799 	 37.8155
| 17> H 	 19.3098 	 22.1968 	 36.7854
| 18> H 	 19.6013 	 22.7072 	 38.2783
| 19> C 	 19.9606 	 20.5705 	 38.1745
| 20> H 	 19.5129 	 19.7148 	 37.7473
| 21> H 	 20.9727 	 20.5231 	 37.7551
| 22> H 	 20.0101 	 20.4049 	 39.1395
| 23> S 	 17.1927 	 23.5125 	 44.0014
| 24> C 	 15.9862 	 24.6245 	 44.6851
| 25> C 	 14.8359 	 24.589 	 43.9724
| 26> C 	 14.9179 	 23.7037 	 42.8291
| 27> C 	 16.0293 	 22.9378 	 42.7575
| 28> H 	 14.111 	 25.2652 	 44.3594
| 29> C 	 13.7503 	 23.6135 	 41.8431
| 30> H 	 14.1509 	 23.4826 	 40.8451
| 31> H 	 13.231 	 24.5658 	 41.9356
| 32> C 	 12.7538 	 22.4448 	 42.0232
| 33> H 	 13.4566 	 21.575 	 41.9423
| 34> H 	 12.1474 	 22.2042 	 41.1009
| 35> C 	 11.7268 	 22.5541 	 43.145
| 36> H 	 12.0743 	 22.5077 	 44.1393
| 37> H 	 10.9822 	 21.8208 	 43.128
| 38> H 	 11.3571 	 23.5427 	 42.9757
| 39> H 	 17.3269 	 19.2147 	 39.6657
| 40> H 	 16.0869 	 25.1121 	 45.6616
| 41> *
| 42>
| 43>                          ****END OF INPUT****

CARTESIAN COORDINATES (ANGSTROEM)
---------------------------------
  S     16.685000   20.342700   41.912600
  C     17.207500   20.173000   40.212400
  C     17.357400   21.460000   39.612300
  C     16.835300   22.524600   40.377900
  C     16.508700   22.102600   41.681300
  H     16.820000   23.579400   40.061300
  C     17.643300   21.746300   38.143100
  H     17.121100   22.642900   37.807000
  H     17.267000   20.912700   37.561500
  C     19.161300   21.799000   37.815500
  H     19.309800   22.196800   36.785400
  H     19.601300   22.707200   38.278300
  C     19.960600   20.570500   38.174500
  H     19.512900   19.714800   37.747300
  H     20.972700   20.523100   37.755100
  H     20.010100   20.404900   39.139500
  S     17.192700   23.512500   44.001400
  C     15.986200   24.624500   44.685100
  C     14.835900   24.589000   43.972400
  C     14.917900   23.703700   42.829100
  C     16.029300   22.937800   42.757500
  H     14.111000   25.265200   44.359400
  C     13.750300   23.613500   41.843100
  H     14.150900   23.482600   40.845100
  H     13.231000   24.565800   41.935600
  C     12.753800   22.444800   42.023200
  H     13.456600   21.575000   41.942300
  H     12.147400   22.204200   41.100900
  C     11.726800   22.554100   43.145000
  H     12.074300   22.507700   44.139300
  H     10.982200   21.820800   43.128000
  H     11.357100   23.542700   42.975700
  H     17.326900   19.214700   39.665700
  H     16.086900   25.112100   45.661600

 Total Charge           Charge          ....    0
 Multiplicity           Mult            ....    1
 Number of Electrons    NEL             ....  134
 Basis Dimension        Dim             ....  322

ORBITAL ENERGIES
----------------

  NO   OCC          E(Eh)            E(eV)
   0   2.0000     -88.975235     -2421.1392
   1   2.0000     -88.957528     -2420.6574
   2   2.0000     -10.335363      -281.2395
   3   2.0000     -10.327985      -281.0387
   4   2.0000     -10.323130      -280.9066
   5   2.0000     -10.317500      -280.7534
   6   2.0000     -10.306992      -280.4675
   7   2.0000     -10.303699      -280.3779
   8   2.0000     -10.302213      -280.3375
   9   2.0000     -10.294185      -280.1190
  10   2.0000     -10.291378      -280.0426
  11   2.0000     -10.288296      -279.9588
  12   2.0000     -10.288201      -279.9562
  13   2.0000     -10.287562      -279.9388
  14   2.0000     -10.265545      -279.3397
  15   2.0000     -10.262170      -279.2478
  16   2.0000      -8.088197      -220.0910
  17   2.0000      -8.071757      -219.6437
  18   2.0000      -6.046659      -164.5380
  19   2.0000      -6.042909      -164.4359
  20   2.0000      -6.039138      -164.3333
  21   2.0000      -6.030463      -164.0972
  22   2.0000      -6.026389      -163.9864
  23   2.0000      -6.022267      -163.8742
  24   2.0000      -1.001212       -27.2444
  25   2.0000      -0.977757       -26.6061
  26   2.0000      -0.910707       -24.7816
  27   2.0000      -0.902418       -24.5560
  28   2.0000      -0.869521       -23.6609
  29   2.0000      -0.853429       -23.2230
  30   2.0000      -0.842900       -22.9365
  31   2.0000      -0.813385       -22.1333
  32   2.0000      -0.788085       -21.4449
  33   2.0000      -0.776163       -21.1205
  34   2.0000      -0.712169       -19.3791
  35   2.0000      -0.702320       -19.1111
  36   2.0000      -0.688588       -18.7374
  37   2.0000      -0.658587       -17.9211
  38   2.0000      -0.639064       -17.3898
  39   2.0000      -0.619372       -16.8540
  40   2.0000      -0.582148       -15.8411
  41   2.0000      -0.571092       -15.5402
  42   2.0000      -0.561198       -15.2710
  43   2.0000      -0.551833       -15.0161
  44   2.0000      -0.545530       -14.8446
  45   2.0000      -0.539996       -14.6940
  46   2.0000      -0.519300       -14.1309
  47   2.0000      -0.508567       -13.8388
  48   2.0000      -0.501023       -13.6335
  49   2.0000      -0.495112       -13.4727
  50   2.0000      -0.486110       -13.2277
  51   2.0000      -0.477359       -12.9896
  52   2.0000      -0.473482       -12.8841
  53   2.0000      -0.469304       -12.7704
  54   2.0000      -0.458765       -12.4836
  55   2.0000      -0.453532       -12.3412
  56   2.0000      -0.441826       -12.0227
  57   2.0000      -0.439146       -11.9498
  58   2.0000      -0.428636       -11.6638
  59   2.0000      -0.424630       -11.5548
  60   2.0000      -0.422661       -11.5012
  61   2.0000      -0.404852       -11.0166
  62   2.0000      -0.394491       -10.7346
  63   2.0000      -0.341678        -9.2975
  64   2.0000      -0.331581        -9.0228
  65   2.0000      -0.324992        -8.8435
  66   2.0000      -0.302314        -8.2264
  67   0.0000       0.030535         0.8309
  68   0.0000       0.053150         1.4463
  69   0.0000       0.105175         2.8619
  70   0.0000       0.115508         3.1431
  71   0.0000       0.119737         3.2582

MULLIKEN ATOMIC CHARGES
-----------------------
   0 S :    0.126378
   1 C :   -0.137274
   2 C :   -0.083064
   3 C :    0.043785
   4 C :   -0.196654
   5 H :    0.038192
   6 C :    0.046760
   7 H :    0.028341
   8 H :    0.026385
   9 C :   -0.088112
  10 H :    0.022497
  11 H :    0.014931
  12 C :    0.035127
  13 H :   -0.000205
  14 H :    0.031362
  15 H :    0.008696
  16 S :    0.075446
  17 C :   -0.105174
  18 C :   -0.021798
  19 C :   -0.037313
  20 C :   -0.128536
  21 H :    0.012860
  22 C :    0.094568
  23 H :    0.019071
  24 H :    0.013482
  25 C :   -0.103841
  26 H :    0.018092
  27 H :    0.029339
  28 C :    0.022660
  29 H :    0.021634
  30 H :    0.021103
  31 H :    0.014264
  32 H :    0.070346
  33 H :    0.066651
Sum of atomic charges:   -0.0000000

LOEWDIN ATOMIC CHARGES
----------------------
   0 S :    0.398878
   1 C :   -0.198043
   2 C :   -0.060884
   3 C :   -0.052964
   4 C :   -0.186542
   5 H :    0.042152
   6 C :   -0.028146
   7 H :    0.031551
   8 H :    0.028201
   9 C :   -0.047332
  10 H :    0.025915
  11 H :    0.022611
  12 C :   -0.051460
  13 H :    0.019517
  14 H :    0.035689
  15 H :    0.005149
  16 S :    0.359836
  17 C :   -0.168167
  18 C :   -0.076231
  19 C :   -0.050391
  20 C :   -0.193742
  21 H :    0.032412
  22 C :   -0.028527
  23 H :    0.031828
  24 H :    0.022838
  25 C :   -0.048526
  26 H :    0.022219
  27 H :    0.030207
  28 C :   -0.056499
  29 H :    0.020140
  30 H :    0.021243
  31 H :    0.025188
  32 H :    0.036574
  33 H :    0.035305

  Mayer bond orders larger than 0.100000
B(  0-S ,  1-C ) :   1.1423 B(  0-S ,  4-C ) :   1.1542 B(  1-C ,  2-C ) :   1.5734
B(  1-C ,  4-C ) :   0.1160 B(  1-C , 32-H ) :   0.9649 B(  2-C ,  3-C ) :   1.2677
B(  2-C ,  6-C ) :   1.0170 B(  3-C ,  4-C ) :   1.5592 B(  3-C ,  5-H ) :   0.9844
B(  4-C , 20-C ) :   1.0248 B(  6-C ,  7-H ) :   0.9494 B(  6-C ,  8-H ) :   0.9478
B(  6-C ,  9-C ) :   1.0667 B(  9-C , 10-H ) :   0.9557 B(  9-C , 11-H ) :   0.9511
B(  9-C , 12-C ) :   1.0739 B( 12-C , 13-H ) :   0.9696 B( 12-C , 14-H ) :   0.9674
B( 12-C , 15-H ) :   0.9696 B( 16-S , 17-C ) :   1.1407 B( 16-S , 20-C ) :   1.1029
B( 17-C , 18-C ) :   1.6705 B( 17-C , 33-H ) :   0.9579 B( 18-C , 19-C ) :   1.1717
B( 18-C , 21-H ) :   0.9982 B( 19-C , 20-C ) :   1.6590 B( 19-C , 22-C ) :   1.0446
B( 22-C , 23-H ) :   0.9227 B( 22-C , 24-H ) :   0.9370 B( 22-C , 25-C ) :   1.0807
B( 25-C , 26-H ) :   0.9507 B( 25-C , 27-H ) :   0.9565 B( 25-C , 28-C ) :   1.0596
B( 28-C , 29-H ) :   0.9765 B( 28-C , 30-H ) :   0.9739 B( 28-C , 31-H ) :   0.9713

Dispersion correction           -0.014953499
FINAL SINGLE POINT ENERGY     -1339.850908965716

DIPOLE MOMENT
-------------
                                X             Y             Z
Electronic contribution:      6.49463       0.21678      16.89521
Nuclear contribution   :     -6.78628      -0.00904     -17.37747
                        -----------------------------------------
Total Dipole Moment    :     -0.29165       0.20775      -0.48227
                        -----------------------------------------
Magnitude (a.u.)       :      0.60067
Magnitude (Debye)      :      1.52678

Rotational constants in cm-1:     0.021999     0.007802     0.006897
Rotational constants in MHz :   659.516894   233.888966   206.751881

                             ****ORCA TERMINATED NORMALLY****
TOTAL RUN TIME: 0 days 0 hours 0 minutes 35 seconds 656 msec
