                         Program Version 4.2.1 -  RELEASE  -
|  1> ! wB97X-D3 SP def2-SVP
|  2> %pal
|  3> nprocs 16
|  4> end
|  5>
|  6> * xyz 0 1
|  7> S 	 43.022 	 24.6493 	 102.37
|  8> C 	 43.1945 	 25.8913 	 101.113
|  9> C 	 43.8352 	 25.3951 	 99.9592
| 10> C 	 44.3941 	 24.1005 	 100.106
| 11> C 	 44.0005 	 23.5071 	 101.348
| 12> H 	 45.0211 	 23.5635 	 99.347
| 13> C 	 44.0178 	 26.1119 	 98.6561
| 14> H 	 43.4003 	 27.011 	 98.6516
| 15> H 	 43.6392 	 25.3816 	 97.9439
| 16> C 	 45.4081 	 26.4959 	 98.329
| 17> H 	 45.8427 	 27.033 	 99.1367
| 18> H 	 46.0725 	 25.5642 	 98.2769
| 19> C 	 45.4771 	 27.3685 	 97.1258
| 20> H 	 44.8641 	 28.2562 	 97.2958
| 21> H 	 46.5198 	 27.6985 	 97.0266
| 22> H 	 45.1473 	 26.8103 	 96.2154
| 23> S 	 45.1838 	 21.9495 	 103.279
| 24> C 	 45.1009 	 20.2209 	 103.168
| 25> C 	 44.506 	 19.8185 	 101.973
| 26> C 	 44.1581 	 20.906 	 101.134
| 27> C 	 44.3047 	 22.1441 	 101.749
| 28> H 	 44.5588 	 18.7632 	 101.712
| 29> C 	 43.6987 	 20.5493 	 99.7127
| 30> H 	 43.065 	 21.3663 	 99.248
| 31> H 	 42.8743 	 19.7423 	 99.8661
| 32> C 	 44.7095 	 19.9635 	 98.7564
| 33> H 	 43.9799 	 19.5593 	 97.9306
| 34> H 	 45.1341 	 19.0806 	 99.1932
| 35> C 	 45.8344 	 20.8851 	 98.2263
| 36> H 	 45.3989 	 21.7202 	 97.7448
| 37> H 	 46.5134 	 20.4827 	 97.4231
| 38> H 	 46.3245 	 21.1327 	 99.1449
| 39> H 	 42.8468 	 26.9337 	 101.049
| 40> H 	 45.3421 	 19.4828 	 103.96
| 41> *
| 42>
| 43>                          ****END OF INPUT****

CARTESIAN COORDINATES (ANGSTROEM)
---------------------------------
  S     43.022000   24.649300  102.370000
  C     43.194500   25.891300  101.113000
  C     43.835200   25.395100   99.959200
  C     44.394100   24.100500  100.106000
  C     44.000500   23.507100  101.348000
  H     45.021100   23.563500   99.347000
  C     44.017800   26.111900   98.656100
  H     43.400300   27.011000   98.651600
  H     43.639200   25.381600   97.943900
  C     45.408100   26.495900   98.329000
  H     45.842700   27.033000   99.136700
  H     46.072500   25.564200   98.276900
  C     45.477100   27.368500   97.125800
  H     44.864100   28.256200   97.295800
  H     46.519800   27.698500   97.026600
  H     45.147300   26.810300   96.215400
  S     45.183800   21.949500  103.279000
  C     45.100900   20.220900  103.168000
  C     44.506000   19.818500  101.973000
  C     44.158100   20.906000  101.134000
  C     44.304700   22.144100  101.749000
  H     44.558800   18.763200  101.712000
  C     43.698700   20.549300   99.712700
  H     43.065000   21.366300   99.248000
  H     42.874300   19.742300   99.866100
  C     44.709500   19.963500   98.756400
  H     43.979900   19.559300   97.930600
  H     45.134100   19.080600   99.193200
  C     45.834400   20.885100   98.226300
  H     45.398900   21.720200   97.744800
  H     46.513400   20.482700   97.423100
  H     46.324500   21.132700   99.144900
  H     42.846800   26.933700  101.049000
  H     45.342100   19.482800  103.960000

 Total Charge           Charge          ....    0
 Multiplicity           Mult            ....    1
 Number of Electrons    NEL             ....  134
 Basis Dimension        Dim             ....  322

ORBITAL ENERGIES
----------------

  NO   OCC          E(Eh)            E(eV)
   0   2.0000     -88.974038     -2421.1066
   1   2.0000     -88.965257     -2420.8677
   2   2.0000     -10.338340      -281.3205
   3   2.0000     -10.328443      -281.0512
   4   2.0000     -10.320110      -280.8245
   5   2.0000     -10.318916      -280.7920
   6   2.0000     -10.305523      -280.4275
   7   2.0000     -10.303408      -280.3700
   8   2.0000     -10.302367      -280.3417
   9   2.0000     -10.298722      -280.2425
  10   2.0000     -10.295818      -280.1634
  11   2.0000     -10.292468      -280.0723
  12   2.0000     -10.285915      -279.8940
  13   2.0000     -10.281288      -279.7681
  14   2.0000     -10.281235      -279.7666
  15   2.0000     -10.280567      -279.7485
  16   2.0000      -8.086526      -220.0456
  17   2.0000      -8.079947      -219.8665
  18   2.0000      -6.045247      -164.4995
  19   2.0000      -6.041364      -164.3939
  20   2.0000      -6.038440      -164.3143
  21   2.0000      -6.037162      -164.2795
  22   2.0000      -6.034418      -164.2049
  23   2.0000      -6.030755      -164.1052
  24   2.0000      -0.999843       -27.2071
  25   2.0000      -0.976185       -26.5633
  26   2.0000      -0.922928       -25.1142
  27   2.0000      -0.908829       -24.7305
  28   2.0000      -0.866991       -23.5920
  29   2.0000      -0.851236       -23.1633
  30   2.0000      -0.847806       -23.0700
  31   2.0000      -0.807928       -21.9848
  32   2.0000      -0.784729       -21.3536
  33   2.0000      -0.770892       -20.9770
  34   2.0000      -0.709496       -19.3064
  35   2.0000      -0.694300       -18.8929
  36   2.0000      -0.688454       -18.7338
  37   2.0000      -0.657096       -17.8805
  38   2.0000      -0.631088       -17.1728
  39   2.0000      -0.618712       -16.8360
  40   2.0000      -0.596513       -16.2319
  41   2.0000      -0.575081       -15.6488
  42   2.0000      -0.563110       -15.3230
  43   2.0000      -0.552036       -15.0217
  44   2.0000      -0.536226       -14.5915
  45   2.0000      -0.528464       -14.3802
  46   2.0000      -0.512433       -13.9440
  47   2.0000      -0.507202       -13.8017
  48   2.0000      -0.506155       -13.7732
  49   2.0000      -0.498201       -13.5567
  50   2.0000      -0.487377       -13.2622
  51   2.0000      -0.484489       -13.1836
  52   2.0000      -0.470054       -12.7908
  53   2.0000      -0.466749       -12.7009
  54   2.0000      -0.458823       -12.4852
  55   2.0000      -0.447866       -12.1871
  56   2.0000      -0.443377       -12.0649
  57   2.0000      -0.438307       -11.9269
  58   2.0000      -0.435387       -11.8475
  59   2.0000      -0.428147       -11.6505
  60   2.0000      -0.417454       -11.3595
  61   2.0000      -0.413246       -11.2450
  62   2.0000      -0.405424       -11.0322
  63   2.0000      -0.340048        -9.2532
  64   2.0000      -0.330896        -9.0041
  65   2.0000      -0.327966        -8.9244
  66   2.0000      -0.290353        -7.9009
  67   0.0000       0.022899         0.6231
  68   0.0000       0.064882         1.7655
  69   0.0000       0.103401         2.8137
  70   0.0000       0.112298         3.0558
  71   0.0000       0.122590         3.3359

MULLIKEN ATOMIC CHARGES
-----------------------
   0 S :    0.124794
   1 C :   -0.112589
   2 C :   -0.108720
   3 C :    0.013114
   4 C :   -0.149963
   5 H :    0.030005
   6 C :    0.084986
   7 H :    0.004541
   8 H :    0.030972
   9 C :   -0.094437
  10 H :    0.016694
  11 H :    0.030283
  12 C :   -0.025066
  13 H :    0.029778
  14 H :    0.036310
  15 H :    0.036556
  16 S :    0.108736
  17 C :   -0.105029
  18 C :   -0.058231
  19 C :   -0.000096
  20 C :   -0.182072
  21 H :    0.029478
  22 C :   -0.010546
  23 H :    0.037823
  24 H :    0.043414
  25 C :   -0.085379
  26 H :    0.037665
  27 H :    0.022949
  28 C :   -0.032427
  29 H :    0.026140
  30 H :    0.049829
  31 H :    0.048473
  32 H :    0.049558
  33 H :    0.072458
Sum of atomic charges:   -0.0000000

LOEWDIN ATOMIC CHARGES
----------------------
   0 S :    0.382810
   1 C :   -0.207861
   2 C :   -0.062278
   3 C :   -0.058043
   4 C :   -0.178088
   5 H :    0.040430
   6 C :   -0.033861
   7 H :    0.026143
   8 H :    0.034639
   9 C :   -0.050530
  10 H :    0.020862
  11 H :    0.028086
  12 C :   -0.061787
  13 H :    0.025605
  14 H :    0.029677
  15 H :    0.029071
  16 S :    0.405814
  17 C :   -0.194438
  18 C :   -0.079324
  19 C :   -0.061302
  20 C :   -0.200451
  21 H :    0.033492
  22 C :   -0.045382
  23 H :    0.033297
  24 H :    0.044774
  25 C :   -0.044839
  26 H :    0.034454
  27 H :    0.017387
  28 C :   -0.066650
  29 H :    0.016565
  30 H :    0.037831
  31 H :    0.029249
  32 H :    0.035730
  33 H :    0.038919

  Mayer bond orders larger than 0.100000
B(  0-S ,  1-C ) :   1.1192 B(  0-S ,  4-C ) :   1.1411 B(  1-C ,  2-C ) :   1.6171
B(  1-C ,  4-C ) :   0.1043 B(  1-C , 32-H ) :   0.9567 B(  2-C ,  3-C ) :   1.2406
B(  2-C ,  6-C ) :   1.0306 B(  3-C ,  4-C ) :   1.5519 B(  3-C ,  5-H ) :   0.9773
B(  4-C , 20-C ) :   1.0655 B(  6-C ,  7-H ) :   0.9346 B(  6-C ,  8-H ) :   0.9284
B(  6-C ,  9-C ) :   1.0775 B(  9-C , 10-H ) :   0.9487 B(  9-C , 11-H ) :   0.9435
B(  9-C , 12-C ) :   1.0985 B( 12-C , 13-H ) :   0.9697 B( 12-C , 14-H ) :   0.9718
B( 12-C , 15-H ) :   0.9722 B( 16-S , 17-C ) :   1.1643 B( 16-S , 20-C ) :   1.1385
B( 17-C , 18-C ) :   1.6064 B( 17-C , 20-C ) :   0.1020 B( 17-C , 33-H ) :   0.9594
B( 18-C , 19-C ) :   1.2448 B( 18-C , 21-H ) :   0.9854 B( 19-C , 20-C ) :   1.5800
B( 19-C , 22-C ) :   1.0300 B( 22-C , 23-H ) :   0.9398 B( 22-C , 24-H ) :   0.9375
B( 22-C , 25-C ) :   1.0733 B( 25-C , 26-H ) :   0.9504 B( 25-C , 27-H ) :   0.9561
B( 25-C , 28-C ) :   1.0609 B( 28-C , 29-H ) :   0.9677 B( 28-C , 30-H ) :   0.9714
B( 28-C , 31-H ) :   0.9732

Dispersion correction           -0.014597155
FINAL SINGLE POINT ENERGY     -1339.865463542423

DIPOLE MOMENT
-------------
                                X             Y             Z
Electronic contribution:     -6.70988      -2.60589      29.14122
Nuclear contribution   :      6.85146       2.45542     -29.82384
                        -----------------------------------------
Total Dipole Moment    :      0.14158      -0.15047      -0.68263
                        -----------------------------------------
Magnitude (a.u.)       :      0.71321
Magnitude (Debye)      :      1.81283

Rotational constants in cm-1:     0.018353     0.008902     0.006718
Rotational constants in MHz :   550.215689   266.871443   201.398435

                             ****ORCA TERMINATED NORMALLY****
TOTAL RUN TIME: 0 days 0 hours 0 minutes 30 seconds 659 msec
