                         Program Version 4.2.1 -  RELEASE  -
|  1> ! wB97X-D3 SP def2-SVP
|  2> %pal
|  3> nprocs 16
|  4> end
|  5>
|  6> * xyz 0 1
|  7> S 	 -91.8617 	 41.3202 	 120.383
|  8> C 	 -91.3205 	 41.031 	 122.015
|  9> C 	 -92.3374 	 40.5746 	 122.871
| 10> C 	 -93.5799 	 40.695 	 122.202
| 11> C 	 -93.5087 	 41.1507 	 120.905
| 12> H 	 -94.5902 	 40.3885 	 122.568
| 13> C 	 -92.1934 	 39.9351 	 124.272
| 14> H 	 -91.1473 	 39.8846 	 124.484
| 15> H 	 -92.5875 	 38.915 	 124.239
| 16> C 	 -92.9331 	 40.7752 	 125.355
| 17> H 	 -92.9514 	 41.8162 	 125.131
| 18> H 	 -93.9673 	 40.4968 	 125.43
| 19> C 	 -92.1444 	 40.54 	 126.713
| 20> H 	 -92.4044 	 41.2375 	 127.515
| 21> H 	 -92.2886 	 39.5252 	 127.049
| 22> H 	 -91.0325 	 40.5259 	 126.56
| 23> S 	 -95.0944 	 42.6843 	 119.3
| 24> C 	 -96.3563 	 41.9858 	 118.292
| 25> C 	 -96.37 	 40.6226 	 118.413
| 26> C 	 -95.4059 	 40.1067 	 119.367
| 27> C 	 -94.604 	 41.1363 	 119.932
| 28> H 	 -97.0826 	 40.0713 	 117.854
| 29> C 	 -95.3308 	 38.5827 	 119.565
| 30> H 	 -96.2731 	 38.2093 	 119.197
| 31> H 	 -95.3714 	 38.2901 	 120.643
| 32> C 	 -94.1169 	 37.937 	 118.953
| 33> H 	 -93.2568 	 38.4272 	 119.37
| 34> H 	 -94.1034 	 38.1295 	 117.893
| 35> C 	 -94.1406 	 36.3553 	 119.251
| 36> H 	 -94.9843 	 35.9402 	 118.642
| 37> H 	 -94.2554 	 36.0182 	 120.315
| 38> H 	 -93.2596 	 35.9156 	 118.848
| 39> H 	 -90.268 	 41.1068 	 122.326
| 40> H 	 -97.0086 	 42.596 	 117.696
| 41> *
| 42>
| 43>                          ****END OF INPUT****

CARTESIAN COORDINATES (ANGSTROEM)
---------------------------------
  S    -91.861700   41.320200  120.383000
  C    -91.320500   41.031000  122.015000
  C    -92.337400   40.574600  122.871000
  C    -93.579900   40.695000  122.202000
  C    -93.508700   41.150700  120.905000
  H    -94.590200   40.388500  122.568000
  C    -92.193400   39.935100  124.272000
  H    -91.147300   39.884600  124.484000
  H    -92.587500   38.915000  124.239000
  C    -92.933100   40.775200  125.355000
  H    -92.951400   41.816200  125.131000
  H    -93.967300   40.496800  125.430000
  C    -92.144400   40.540000  126.713000
  H    -92.404400   41.237500  127.515000
  H    -92.288600   39.525200  127.049000
  H    -91.032500   40.525900  126.560000
  S    -95.094400   42.684300  119.300000
  C    -96.356300   41.985800  118.292000
  C    -96.370000   40.622600  118.413000
  C    -95.405900   40.106700  119.367000
  C    -94.604000   41.136300  119.932000
  H    -97.082600   40.071300  117.854000
  C    -95.330800   38.582700  119.565000
  H    -96.273100   38.209300  119.197000
  H    -95.371400   38.290100  120.643000
  C    -94.116900   37.937000  118.953000
  H    -93.256800   38.427200  119.370000
  H    -94.103400   38.129500  117.893000
  C    -94.140600   36.355300  119.251000
  H    -94.984300   35.940200  118.642000
  H    -94.255400   36.018200  120.315000
  H    -93.259600   35.915600  118.848000
  H    -90.268000   41.106800  122.326000
  H    -97.008600   42.596000  117.696000

 Total Charge           Charge          ....    0
 Multiplicity           Mult            ....    1
 Number of Electrons    NEL             ....  134
 Basis Dimension        Dim             ....  322

ORBITAL ENERGIES
----------------

  NO   OCC          E(Eh)            E(eV)
   0   2.0000     -88.968847     -2420.9654
   1   2.0000     -88.961190     -2420.7570
   2   2.0000     -10.328060      -281.0408
   3   2.0000     -10.324770      -280.9513
   4   2.0000     -10.317434      -280.7517
   5   2.0000     -10.315592      -280.7015
   6   2.0000     -10.309069      -280.5240
   7   2.0000     -10.304431      -280.3978
   8   2.0000     -10.297378      -280.2059
   9   2.0000     -10.294674      -280.1323
  10   2.0000     -10.292093      -280.0621
  11   2.0000     -10.289423      -279.9894
  12   2.0000     -10.288327      -279.9596
  13   2.0000     -10.284252      -279.8487
  14   2.0000     -10.283888      -279.8388
  15   2.0000     -10.283570      -279.8302
  16   2.0000      -8.083571      -219.9651
  17   2.0000      -8.076127      -219.7626
  18   2.0000      -6.041978      -164.4106
  19   2.0000      -6.038202      -164.3078
  20   2.0000      -6.034570      -164.2090
  21   2.0000      -6.034313      -164.2020
  22   2.0000      -6.030419      -164.0960
  23   2.0000      -6.027145      -164.0070
  24   2.0000      -1.004884       -27.3443
  25   2.0000      -0.981264       -26.7016
  26   2.0000      -0.907613       -24.6974
  27   2.0000      -0.903769       -24.5928
  28   2.0000      -0.866492       -23.5784
  29   2.0000      -0.846569       -23.0363
  30   2.0000      -0.838880       -22.8271
  31   2.0000      -0.810088       -22.0436
  32   2.0000      -0.778058       -21.1720
  33   2.0000      -0.766563       -20.8592
  34   2.0000      -0.713033       -19.4026
  35   2.0000      -0.702936       -19.1279
  36   2.0000      -0.688077       -18.7235
  37   2.0000      -0.660969       -17.9859
  38   2.0000      -0.642543       -17.4845
  39   2.0000      -0.617413       -16.8007
  40   2.0000      -0.594561       -16.1788
  41   2.0000      -0.570594       -15.5266
  42   2.0000      -0.561164       -15.2701
  43   2.0000      -0.554851       -15.0983
  44   2.0000      -0.526881       -14.3372
  45   2.0000      -0.515885       -14.0380
  46   2.0000      -0.509776       -13.8717
  47   2.0000      -0.505440       -13.7537
  48   2.0000      -0.500090       -13.6081
  49   2.0000      -0.494075       -13.4445
  50   2.0000      -0.492944       -13.4137
  51   2.0000      -0.474296       -12.9063
  52   2.0000      -0.466539       -12.6952
  53   2.0000      -0.465105       -12.6562
  54   2.0000      -0.459367       -12.5000
  55   2.0000      -0.448947       -12.2165
  56   2.0000      -0.445495       -12.1225
  57   2.0000      -0.440145       -11.9769
  58   2.0000      -0.437122       -11.8947
  59   2.0000      -0.433685       -11.8012
  60   2.0000      -0.421790       -11.4775
  61   2.0000      -0.418278       -11.3819
  62   2.0000      -0.411324       -11.1927
  63   2.0000      -0.337935        -9.1957
  64   2.0000      -0.330324        -8.9886
  65   2.0000      -0.322671        -8.7803
  66   2.0000      -0.301879        -8.2145
  67   0.0000       0.038205         1.0396
  68   0.0000       0.060653         1.6504
  69   0.0000       0.107571         2.9271
  70   0.0000       0.124346         3.3836
  71   0.0000       0.131216         3.5706

MULLIKEN ATOMIC CHARGES
-----------------------
   0 S :    0.129249
   1 C :   -0.132912
   2 C :   -0.106808
   3 C :    0.025172
   4 C :   -0.154543
   5 H :    0.026778
   6 C :    0.089375
   7 H :    0.009282
   8 H :    0.046615
   9 C :   -0.057870
  10 H :    0.037338
  11 H :    0.033527
  12 C :   -0.080495
  13 H :    0.045397
  14 H :    0.023485
  15 H :    0.032751
  16 S :    0.099280
  17 C :   -0.088737
  18 C :   -0.026437
  19 C :   -0.022353
  20 C :   -0.195335
  21 H :    0.009852
  22 C :    0.074520
  23 H :    0.001613
  24 H :    0.023182
  25 C :   -0.049343
  26 H :    0.031638
  27 H :    0.025715
  28 C :   -0.066210
  29 H :    0.033584
  30 H :    0.045765
  31 H :    0.030440
  32 H :    0.053085
  33 H :    0.053399
Sum of atomic charges:   -0.0000000

LOEWDIN ATOMIC CHARGES
----------------------
   0 S :    0.421915
   1 C :   -0.204290
   2 C :   -0.062839
   3 C :   -0.062275
   4 C :   -0.213740
   5 H :    0.038757
   6 C :   -0.019459
   7 H :    0.023149
   8 H :    0.037393
   9 C :   -0.031764
  10 H :    0.022246
  11 H :    0.022709
  12 C :   -0.070121
  13 H :    0.025610
  14 H :    0.021585
  15 H :    0.027969
  16 S :    0.408026
  17 C :   -0.177471
  18 C :   -0.071618
  19 C :   -0.049396
  20 C :   -0.211476
  21 H :    0.026763
  22 C :   -0.034688
  23 H :    0.022354
  24 H :    0.031797
  25 C :   -0.030944
  26 H :    0.021057
  27 H :    0.023573
  28 C :   -0.069063
  29 H :    0.029298
  30 H :    0.030286
  31 H :    0.019544
  32 H :    0.028999
  33 H :    0.026113

  Mayer bond orders larger than 0.100000
B(  0-S ,  1-C ) :   1.1535 B(  0-S ,  4-C ) :   1.1592 B(  1-C ,  2-C ) :   1.5997
B(  1-C ,  4-C ) :   0.1012 B(  1-C , 32-H ) :   0.9629 B(  2-C ,  3-C ) :   1.2394
B(  2-C ,  6-C ) :   1.0259 B(  3-C ,  4-C ) :   1.5911 B(  3-C ,  5-H ) :   0.9914
B(  4-C , 20-C ) :   1.0100 B(  6-C ,  7-H ) :   0.9481 B(  6-C ,  8-H ) :   0.9395
B(  6-C ,  9-C ) :   1.0415 B(  9-C , 10-H ) :   0.9687 B(  9-C , 11-H ) :   0.9557
B(  9-C , 12-C ) :   1.0695 B( 12-C , 13-H ) :   0.9780 B( 12-C , 14-H ) :   0.9750
B( 12-C , 15-H ) :   0.9804 B( 16-S , 17-C ) :   1.1599 B( 16-S , 20-C ) :   1.1589
B( 17-C , 18-C ) :   1.6023 B( 17-C , 33-H ) :   0.9713 B( 18-C , 19-C ) :   1.2446
B( 18-C , 21-H ) :   0.9945 B( 19-C , 20-C ) :   1.5751 B( 19-C , 22-C ) :   1.0356
B( 22-C , 23-H ) :   0.9312 B( 22-C , 24-H ) :   0.9359 B( 22-C , 25-C ) :   1.0650
B( 25-C , 26-H ) :   0.9578 B( 25-C , 27-H ) :   0.9535 B( 25-C , 28-C ) :   1.0672
B( 28-C , 29-H ) :   0.9766 B( 28-C , 30-H ) :   0.9776 B( 28-C , 31-H ) :   0.9772

Dispersion correction           -0.014133393
FINAL SINGLE POINT ENERGY     -1339.883521094398

DIPOLE MOMENT
-------------
                                X             Y             Z
Electronic contribution:     -1.02041      20.19960     -16.90944
Nuclear contribution   :      0.88025     -20.78237      17.20381
                        -----------------------------------------
Total Dipole Moment    :     -0.14016      -0.58277       0.29437
                        -----------------------------------------
Magnitude (a.u.)       :      0.66777
Magnitude (Debye)      :      1.69734

Rotational constants in cm-1:     0.018094     0.007971     0.006815
Rotational constants in MHz :   542.445451   238.976698   204.317764

                             ****ORCA TERMINATED NORMALLY****
TOTAL RUN TIME: 0 days 0 hours 0 minutes 33 seconds 196 msec
