                         Program Version 4.2.1 -  RELEASE  -
|  1> ! wB97X-D3 SP def2-SVP
|  2> %pal
|  3> nprocs 16
|  4> end
|  5>
|  6> * xyz 0 1
|  7> S 	 37.0045 	 -0.080545 	 75.2585
|  8> C 	 36.996 	 -0.0185168 	 73.5233
|  9> C 	 35.7237 	 -0.0645176 	 73.0473
| 10> C 	 34.7322 	 0.155679 	 74.0229
| 11> C 	 35.2913 	 0.219483 	 75.3232
| 12> H 	 33.6701 	 0.152128 	 73.9018
| 13> C 	 35.3828 	 -0.16596 	 71.5456
| 14> H 	 34.4771 	 -0.768771 	 71.3946
| 15> H 	 36.2315 	 -0.842361 	 71.1446
| 16> C 	 35.3482 	 1.12126 	 70.6537
| 17> H 	 36.2926 	 1.64262 	 70.776
| 18> H 	 35.2279 	 0.783432 	 69.641
| 19> C 	 34.2465 	 2.10553 	 70.9379
| 20> H 	 33.332 	 1.5776 	 70.7587
| 21> H 	 34.2529 	 2.55215 	 71.951
| 22> H 	 34.287 	 2.92373 	 70.2478
| 23> S 	 34.5028 	 -1.15486 	 77.5227
| 24> C 	 33.108 	 -0.571172 	 78.4322
| 25> C 	 32.7236 	 0.66753 	 77.9756
| 26> C 	 33.4754 	 1.14401 	 76.8157
| 27> C 	 34.4753 	 0.294232 	 76.5269
| 28> H 	 31.9003 	 1.26531 	 78.4632
| 29> C 	 33.0734 	 2.45697 	 76.1136
| 30> H 	 32.2171 	 2.9236 	 76.5863
| 31> H 	 32.7816 	 2.22124 	 75.1225
| 32> C 	 34.1541 	 3.59767 	 76.2002
| 33> H 	 33.7651 	 4.43198 	 75.6353
| 34> H 	 34.9888 	 3.26056 	 75.6658
| 35> C 	 34.5445 	 3.9821 	 77.6153
| 36> H 	 35.0253 	 3.10257 	 78.087
| 37> H 	 33.6865 	 4.28327 	 78.1442
| 38> H 	 35.2562 	 4.82124 	 77.6582
| 39> H 	 37.9202 	 -0.109555 	 73.007
| 40> H 	 32.799 	 -0.944372 	 79.3505
| 41> *
| 42>
| 43>                          ****END OF INPUT****

CARTESIAN COORDINATES (ANGSTROEM)
---------------------------------
  S     37.004500   -0.080545   75.258500
  C     36.996000   -0.018517   73.523300
  C     35.723700   -0.064518   73.047300
  C     34.732200    0.155679   74.022900
  C     35.291300    0.219483   75.323200
  H     33.670100    0.152128   73.901800
  C     35.382800   -0.165960   71.545600
  H     34.477100   -0.768771   71.394600
  H     36.231500   -0.842361   71.144600
  C     35.348200    1.121260   70.653700
  H     36.292600    1.642620   70.776000
  H     35.227900    0.783432   69.641000
  C     34.246500    2.105530   70.937900
  H     33.332000    1.577600   70.758700
  H     34.252900    2.552150   71.951000
  H     34.287000    2.923730   70.247800
  S     34.502800   -1.154860   77.522700
  C     33.108000   -0.571172   78.432200
  C     32.723600    0.667530   77.975600
  C     33.475400    1.144010   76.815700
  C     34.475300    0.294232   76.526900
  H     31.900300    1.265310   78.463200
  C     33.073400    2.456970   76.113600
  H     32.217100    2.923600   76.586300
  H     32.781600    2.221240   75.122500
  C     34.154100    3.597670   76.200200
  H     33.765100    4.431980   75.635300
  H     34.988800    3.260560   75.665800
  C     34.544500    3.982100   77.615300
  H     35.025300    3.102570   78.087000
  H     33.686500    4.283270   78.144200
  H     35.256200    4.821240   77.658200
  H     37.920200   -0.109555   73.007000
  H     32.799000   -0.944372   79.350500

 Total Charge           Charge          ....    0
 Multiplicity           Mult            ....    1
 Number of Electrons    NEL             ....  134
 Basis Dimension        Dim             ....  322

ORBITAL ENERGIES
----------------

  NO   OCC          E(Eh)            E(eV)
   0   2.0000     -88.967764     -2420.9359
   1   2.0000     -88.962302     -2420.7873
   2   2.0000     -10.328829      -281.0617
   3   2.0000     -10.322547      -280.8908
   4   2.0000     -10.312427      -280.6154
   5   2.0000     -10.310423      -280.5609
   6   2.0000     -10.302064      -280.3334
   7   2.0000     -10.300141      -280.2811
   8   2.0000     -10.299892      -280.2743
   9   2.0000     -10.298868      -280.2464
  10   2.0000     -10.293506      -280.1005
  11   2.0000     -10.291657      -280.0502
  12   2.0000     -10.285577      -279.8848
  13   2.0000     -10.276872      -279.6479
  14   2.0000     -10.272586      -279.5313
  15   2.0000     -10.271163      -279.4926
  16   2.0000      -8.082926      -219.9476
  17   2.0000      -8.077104      -219.7892
  18   2.0000      -6.041254      -164.3909
  19   2.0000      -6.037402      -164.2860
  20   2.0000      -6.035792      -164.2422
  21   2.0000      -6.033848      -164.1893
  22   2.0000      -6.031670      -164.1301
  23   2.0000      -6.027587      -164.0190
  24   2.0000      -1.009104       -27.4591
  25   2.0000      -0.985387       -26.8137
  26   2.0000      -0.906479       -24.6665
  27   2.0000      -0.905048       -24.6276
  28   2.0000      -0.871387       -23.7117
  29   2.0000      -0.853196       -23.2166
  30   2.0000      -0.843705       -22.9584
  31   2.0000      -0.812479       -22.1087
  32   2.0000      -0.783718       -21.3261
  33   2.0000      -0.775068       -21.0907
  34   2.0000      -0.708123       -19.2690
  35   2.0000      -0.697658       -18.9843
  36   2.0000      -0.690180       -18.7807
  37   2.0000      -0.664610       -18.0850
  38   2.0000      -0.647690       -17.6245
  39   2.0000      -0.608077       -16.5466
  40   2.0000      -0.592083       -16.1114
  41   2.0000      -0.574958       -15.6454
  42   2.0000      -0.558280       -15.1916
  43   2.0000      -0.546206       -14.8630
  44   2.0000      -0.543617       -14.7926
  45   2.0000      -0.538892       -14.6640
  46   2.0000      -0.518355       -14.1052
  47   2.0000      -0.510962       -13.9040
  48   2.0000      -0.506817       -13.7912
  49   2.0000      -0.491623       -13.3778
  50   2.0000      -0.485532       -13.2120
  51   2.0000      -0.484120       -13.1736
  52   2.0000      -0.469121       -12.7654
  53   2.0000      -0.466270       -12.6879
  54   2.0000      -0.463788       -12.6203
  55   2.0000      -0.445238       -12.1155
  56   2.0000      -0.441156       -12.0045
  57   2.0000      -0.438052       -11.9200
  58   2.0000      -0.433557       -11.7977
  59   2.0000      -0.421276       -11.4635
  60   2.0000      -0.420113       -11.4319
  61   2.0000      -0.416890       -11.3442
  62   2.0000      -0.411274       -11.1913
  63   2.0000      -0.344151        -9.3648
  64   2.0000      -0.333474        -9.0743
  65   2.0000      -0.329120        -8.9558
  66   2.0000      -0.297157        -8.0861
  67   0.0000       0.031867         0.8671
  68   0.0000       0.066853         1.8192
  69   0.0000       0.108570         2.9543
  70   0.0000       0.122199         3.3252
  71   0.0000       0.128879         3.5070

MULLIKEN ATOMIC CHARGES
-----------------------
   0 S :    0.114578
   1 C :   -0.121865
   2 C :   -0.054232
   3 C :    0.038708
   4 C :   -0.174257
   5 H :    0.012809
   6 C :    0.004499
   7 H :    0.028552
   8 H :    0.033612
   9 C :   -0.034126
  10 H :    0.022492
  11 H :    0.028996
  12 C :   -0.040845
  13 H :    0.015230
  14 H :    0.043111
  15 H :    0.026909
  16 S :    0.094729
  17 C :   -0.058436
  18 C :   -0.057049
  19 C :   -0.076649
  20 C :   -0.143364
  21 H :    0.038487
  22 C :    0.105363
  23 H :    0.008492
  24 H :    0.019506
  25 C :   -0.057238
  26 H :    0.021132
  27 H :    0.023198
  28 C :   -0.041238
  29 H :    0.050617
  30 H :    0.014108
  31 H :    0.036190
  32 H :    0.042006
  33 H :    0.035976
Sum of atomic charges:    0.0000000

LOEWDIN ATOMIC CHARGES
----------------------
   0 S :    0.418705
   1 C :   -0.192001
   2 C :   -0.069145
   3 C :   -0.055667
   4 C :   -0.201251
   5 H :    0.029361
   6 C :   -0.037492
   7 H :    0.027615
   8 H :    0.038704
   9 C :   -0.035771
  10 H :    0.022132
  11 H :    0.025043
  12 C :   -0.064915
  13 H :    0.019611
  14 H :    0.029001
  15 H :    0.024149
  16 S :    0.388723
  17 C :   -0.174329
  18 C :   -0.068607
  19 C :   -0.059930
  20 C :   -0.194370
  21 H :    0.038633
  22 C :   -0.019468
  23 H :    0.026526
  24 H :    0.024570
  25 C :   -0.031610
  26 H :    0.020874
  27 H :    0.015116
  28 C :   -0.061361
  29 H :    0.033874
  30 H :    0.014909
  31 H :    0.029642
  32 H :    0.022105
  33 H :    0.016623

  Mayer bond orders larger than 0.100000
B(  0-S ,  1-C ) :   1.1472 B(  0-S ,  4-C ) :   1.1718 B(  1-C ,  2-C ) :   1.5831
B(  1-C ,  4-C ) :   0.1034 B(  1-C , 32-H ) :   0.9791 B(  2-C ,  3-C ) :   1.2625
B(  2-C ,  6-C ) :   1.0163 B(  3-C ,  4-C ) :   1.5330 B(  3-C ,  5-H ) :   0.9990
B(  4-C , 20-C ) :   1.0205 B(  6-C ,  7-H ) :   0.9453 B(  6-C ,  8-H ) :   0.9425
B(  6-C ,  9-C ) :   1.0702 B(  9-C , 10-H ) :   0.9543 B(  9-C , 11-H ) :   0.9521
B(  9-C , 12-C ) :   1.0901 B( 12-C , 13-H ) :   0.9740 B( 12-C , 14-H ) :   0.9732
B( 12-C , 15-H ) :   0.9706 B( 16-S , 17-C ) :   1.1293 B( 16-S , 20-C ) :   1.1310
B( 17-C , 18-C ) :   1.6541 B( 17-C , 33-H ) :   0.9713 B( 18-C , 19-C ) :   1.2047
B( 18-C , 21-H ) :   0.9760 B( 19-C , 20-C ) :   1.6601 B( 19-C , 22-C ) :   1.0297
B( 22-C , 23-H ) :   0.9384 B( 22-C , 24-H ) :   0.9309 B( 22-C , 25-C ) :   1.0723
B( 25-C , 26-H ) :   0.9567 B( 25-C , 27-H ) :   0.9580 B( 25-C , 28-C ) :   1.0760
B( 28-C , 29-H ) :   0.9714 B( 28-C , 30-H ) :   0.9763 B( 28-C , 31-H ) :   0.9732

Dispersion correction           -0.015302647
FINAL SINGLE POINT ENERGY     -1339.883944549213

DIPOLE MOMENT
-------------
                                X             Y             Z
Electronic contribution:      7.88358     -19.26403      15.47635
Nuclear contribution   :     -8.21126      19.61560     -15.89997
                        -----------------------------------------
Total Dipole Moment    :     -0.32768       0.35157      -0.42363
                        -----------------------------------------
Magnitude (a.u.)       :      0.64065
Magnitude (Debye)      :      1.62841

Rotational constants in cm-1:     0.018952     0.009229     0.007654
Rotational constants in MHz :   568.157518   276.684191   229.475275

                             ****ORCA TERMINATED NORMALLY****
TOTAL RUN TIME: 0 days 0 hours 0 minutes 31 seconds 825 msec
