                         Program Version 4.2.1 -  RELEASE  -
|  1> ! wB97X-D3 SP def2-SVP
|  2> %pal
|  3> nprocs 16
|  4> end
|  5>
|  6> * xyz 0 1
|  7> S 	 3.62847 	 -18.2002 	 80.1553
|  8> C 	 3.97625 	 -19.2017 	 81.5015
|  9> C 	 4.81841 	 -18.5302 	 82.3864
| 10> C 	 5.0168 	 -17.1592 	 82.0529
| 11> C 	 4.33891 	 -16.8101 	 80.9181
| 12> H 	 5.54445 	 -16.376 	 82.6677
| 13> C 	 5.37553 	 -19.0571 	 83.7159
| 14> H 	 6.45089 	 -18.9529 	 83.7354
| 15> H 	 5.2705 	 -20.1525 	 83.7734
| 16> C 	 4.76875 	 -18.4368 	 85.0105
| 17> H 	 4.99604 	 -17.3629 	 85.1029
| 18> H 	 3.73223 	 -18.49 	 84.8293
| 19> C 	 5.08533 	 -19.1785 	 86.308
| 20> H 	 5.05937 	 -18.5858 	 87.2454
| 21> H 	 4.52119 	 -20.1339 	 86.4969
| 22> H 	 6.16256 	 -19.4092 	 86.1979
| 23> S 	 2.6944 	 -14.7215 	 80.1277
| 24> C 	 3.56816 	 -13.2438 	 79.6827
| 25> C 	 4.8735 	 -13.2182 	 80.148
| 26> C 	 5.37207 	 -14.5324 	 80.444
| 27> C 	 4.30543 	 -15.4589 	 80.5293
| 28> H 	 5.30901 	 -12.2216 	 80.2385
| 29> C 	 6.84645 	 -14.8689 	 80.5927
| 30> H 	 6.94559 	 -15.9233 	 80.3696
| 31> H 	 7.18405 	 -14.6573 	 81.5845
| 32> C 	 7.75813 	 -14.1056 	 79.6197
| 33> H 	 7.52542 	 -13.056 	 79.7194
| 34> H 	 7.57151 	 -14.1678 	 78.5268
| 35> C 	 9.26282 	 -14.3114 	 80.0219
| 36> H 	 9.5071 	 -14.0452 	 81.0809
| 37> H 	 9.94149 	 -13.72 	 79.3555
| 38> H 	 9.3872 	 -15.389 	 79.9785
| 39> H 	 3.60251 	 -20.2761 	 81.5329
| 40> H 	 3.077 	 -12.2872 	 79.4254
| 41> *
| 42>
| 43>                          ****END OF INPUT****

CARTESIAN COORDINATES (ANGSTROEM)
---------------------------------
  S      3.628470  -18.200200   80.155300
  C      3.976250  -19.201700   81.501500
  C      4.818410  -18.530200   82.386400
  C      5.016800  -17.159200   82.052900
  C      4.338910  -16.810100   80.918100
  H      5.544450  -16.376000   82.667700
  C      5.375530  -19.057100   83.715900
  H      6.450890  -18.952900   83.735400
  H      5.270500  -20.152500   83.773400
  C      4.768750  -18.436800   85.010500
  H      4.996040  -17.362900   85.102900
  H      3.732230  -18.490000   84.829300
  C      5.085330  -19.178500   86.308000
  H      5.059370  -18.585800   87.245400
  H      4.521190  -20.133900   86.496900
  H      6.162560  -19.409200   86.197900
  S      2.694400  -14.721500   80.127700
  C      3.568160  -13.243800   79.682700
  C      4.873500  -13.218200   80.148000
  C      5.372070  -14.532400   80.444000
  C      4.305430  -15.458900   80.529300
  H      5.309010  -12.221600   80.238500
  C      6.846450  -14.868900   80.592700
  H      6.945590  -15.923300   80.369600
  H      7.184050  -14.657300   81.584500
  C      7.758130  -14.105600   79.619700
  H      7.525420  -13.056000   79.719400
  H      7.571510  -14.167800   78.526800
  C      9.262820  -14.311400   80.021900
  H      9.507100  -14.045200   81.080900
  H      9.941490  -13.720000   79.355500
  H      9.387200  -15.389000   79.978500
  H      3.602510  -20.276100   81.532900
  H      3.077000  -12.287200   79.425400

 Total Charge           Charge          ....    0
 Multiplicity           Mult            ....    1
 Number of Electrons    NEL             ....  134
 Basis Dimension        Dim             ....  322

ORBITAL ENERGIES
----------------

  NO   OCC          E(Eh)            E(eV)
   0   2.0000     -88.967376     -2420.9254
   1   2.0000     -88.965653     -2420.8785
   2   2.0000     -10.328019      -281.0397
   3   2.0000     -10.321107      -280.8516
   4   2.0000     -10.320083      -280.8237
   5   2.0000     -10.318272      -280.7744
   6   2.0000     -10.309037      -280.5232
   7   2.0000     -10.304635      -280.4034
   8   2.0000     -10.296773      -280.1894
   9   2.0000     -10.294742      -280.1342
  10   2.0000     -10.293179      -280.0917
  11   2.0000     -10.292426      -280.0712
  12   2.0000     -10.287808      -279.9455
  13   2.0000     -10.286783      -279.9176
  14   2.0000     -10.285223      -279.8751
  15   2.0000     -10.284172      -279.8465
  16   2.0000      -8.082996      -219.9495
  17   2.0000      -8.079090      -219.8432
  18   2.0000      -6.041407      -164.3950
  19   2.0000      -6.037599      -164.2914
  20   2.0000      -6.037421      -164.2866
  21   2.0000      -6.034131      -164.1971
  22   2.0000      -6.033745      -164.1865
  23   2.0000      -6.029578      -164.0732
  24   2.0000      -1.010184       -27.4885
  25   2.0000      -0.978451       -26.6250
  26   2.0000      -0.907891       -24.7050
  27   2.0000      -0.906344       -24.6629
  28   2.0000      -0.875695       -23.8289
  29   2.0000      -0.851580       -23.1727
  30   2.0000      -0.842546       -22.9268
  31   2.0000      -0.809011       -22.0143
  32   2.0000      -0.779438       -21.2096
  33   2.0000      -0.765888       -20.8409
  34   2.0000      -0.707802       -19.2603
  35   2.0000      -0.701132       -19.0788
  36   2.0000      -0.696342       -18.9484
  37   2.0000      -0.652947       -17.7676
  38   2.0000      -0.639026       -17.3888
  39   2.0000      -0.619052       -16.8453
  40   2.0000      -0.593209       -16.1420
  41   2.0000      -0.567471       -15.4417
  42   2.0000      -0.563413       -15.3312
  43   2.0000      -0.555158       -15.1066
  44   2.0000      -0.527137       -14.3441
  45   2.0000      -0.521615       -14.1939
  46   2.0000      -0.512230       -13.9385
  47   2.0000      -0.511315       -13.9136
  48   2.0000      -0.503250       -13.6941
  49   2.0000      -0.497352       -13.5336
  50   2.0000      -0.492627       -13.4051
  51   2.0000      -0.473549       -12.8859
  52   2.0000      -0.467171       -12.7124
  53   2.0000      -0.466316       -12.6891
  54   2.0000      -0.458496       -12.4763
  55   2.0000      -0.452211       -12.3053
  56   2.0000      -0.445521       -12.1232
  57   2.0000      -0.441528       -12.0146
  58   2.0000      -0.429095       -11.6763
  59   2.0000      -0.424589       -11.5536
  60   2.0000      -0.419695       -11.4205
  61   2.0000      -0.415407       -11.3038
  62   2.0000      -0.410276       -11.1642
  63   2.0000      -0.347078        -9.4445
  64   2.0000      -0.332031        -9.0350
  65   2.0000      -0.326571        -8.8864
  66   2.0000      -0.287601        -7.8260
  67   0.0000       0.021966         0.5977
  68   0.0000       0.072426         1.9708
  69   0.0000       0.102653         2.7933
  70   0.0000       0.116222         3.1626
  71   0.0000       0.137899         3.7524

MULLIKEN ATOMIC CHARGES
-----------------------
   0 S :    0.129558
   1 C :   -0.161983
   2 C :   -0.062449
   3 C :   -0.015136
   4 C :   -0.152767
   5 H :    0.044840
   6 C :    0.054425
   7 H :    0.023716
   8 H :    0.012987
   9 C :   -0.054036
  10 H :    0.032348
  11 H :    0.022185
  12 C :   -0.078618
  13 H :    0.040865
  14 H :    0.048780
  15 H :    0.024323
  16 S :    0.100871
  17 C :   -0.102054
  18 C :   -0.063568
  19 C :   -0.037509
  20 C :   -0.159154
  21 H :    0.037028
  22 C :    0.096829
  23 H :    0.041633
  24 H :    0.026909
  25 C :   -0.104174
  26 H :    0.012274
  27 H :    0.041293
  28 C :   -0.056719
  29 H :    0.033619
  30 H :    0.047961
  31 H :    0.030578
  32 H :    0.081881
  33 H :    0.063264
Sum of atomic charges:    0.0000000

LOEWDIN ATOMIC CHARGES
----------------------
   0 S :    0.426183
   1 C :   -0.217608
   2 C :   -0.066872
   3 C :   -0.057506
   4 C :   -0.212448
   5 H :    0.045017
   6 C :   -0.034285
   7 H :    0.025801
   8 H :    0.028199
   9 C :   -0.043129
  10 H :    0.026126
  11 H :    0.018656
  12 C :   -0.076728
  13 H :    0.030961
  14 H :    0.032105
  15 H :    0.026162
  16 S :    0.363896
  17 C :   -0.182800
  18 C :   -0.072045
  19 C :   -0.048685
  20 C :   -0.173793
  21 H :    0.036369
  22 C :   -0.027690
  23 H :    0.034063
  24 H :    0.028657
  25 C :   -0.046977
  26 H :    0.015091
  27 H :    0.032170
  28 C :   -0.068173
  29 H :    0.027098
  30 H :    0.031704
  31 H :    0.023469
  32 H :    0.045809
  33 H :    0.031201

  Mayer bond orders larger than 0.100000
B(  0-S ,  1-C ) :   1.1473 B(  0-S ,  4-C ) :   1.1470 B(  1-C ,  2-C ) :   1.5806
B(  1-C , 32-H ) :   0.9625 B(  2-C ,  3-C ) :   1.2447 B(  2-C ,  6-C ) :   1.0394
B(  3-C ,  4-C ) :   1.5417 B(  3-C ,  5-H ) :   0.9885 B(  4-C , 20-C ) :   1.1156
B(  6-C ,  7-H ) :   0.9326 B(  6-C ,  8-H ) :   0.9445 B(  6-C ,  9-C ) :   1.0538
B(  9-C , 10-H ) :   0.9532 B(  9-C , 11-H ) :   0.9586 B(  9-C , 12-C ) :   1.0776
B( 12-C , 13-H ) :   0.9749 B( 12-C , 14-H ) :   0.9749 B( 12-C , 15-H ) :   0.9748
B( 16-S , 17-C ) :   1.1317 B( 16-S , 20-C ) :   1.1142 B( 17-C , 18-C ) :   1.6647
B( 17-C , 33-H ) :   0.9581 B( 18-C , 19-C ) :   1.1943 B( 18-C , 21-H ) :   0.9796
B( 19-C , 20-C ) :   1.6005 B( 19-C , 22-C ) :   1.0414 B( 22-C , 23-H ) :   0.9314
B( 22-C , 24-H ) :   0.9294 B( 22-C , 25-C ) :   1.0570 B( 25-C , 26-H ) :   0.9494
B( 25-C , 27-H ) :   0.9581 B( 25-C , 28-C ) :   1.0709 B( 28-C , 29-H ) :   0.9751
B( 28-C , 30-H ) :   0.9742 B( 28-C , 31-H ) :   0.9770

Dispersion correction           -0.013643115
FINAL SINGLE POINT ENERGY     -1339.863948102086

DIPOLE MOMENT
-------------
                                X             Y             Z
Electronic contribution:    -22.17094       1.07759     -16.84367
Nuclear contribution   :     22.66240      -0.94056      17.30891
                        -----------------------------------------
Total Dipole Moment    :      0.49146       0.13703       0.46524
                        -----------------------------------------
Magnitude (a.u.)       :      0.69047
Magnitude (Debye)      :      1.75505

Rotational constants in cm-1:     0.016304     0.008230     0.006696
Rotational constants in MHz :   488.787812   246.721771   200.727686

                             ****ORCA TERMINATED NORMALLY****
TOTAL RUN TIME: 0 days 0 hours 0 minutes 32 seconds 946 msec
