                         Program Version 4.2.1 -  RELEASE  -
|  1> ! wB97X-D3 SP def2-SVP
|  2> %pal
|  3> nprocs 16
|  4> end
|  5>
|  6> * xyz 0 1
|  7> S 	 -31.789 	 41.4543 	 97.3876
|  8> C 	 -32.8945 	 40.2132 	 96.7522
|  9> C 	 -32.7639 	 39.8865 	 95.4135
| 10> C 	 -31.7402 	 40.7513 	 94.8557
| 11> C 	 -31.2445 	 41.6838 	 95.7714
| 12> H 	 -31.5562 	 40.9141 	 93.8076
| 13> C 	 -33.6051 	 38.9859 	 94.5958
| 14> H 	 -33.0044 	 38.8354 	 93.6965
| 15> H 	 -34.5425 	 39.5071 	 94.2988
| 16> C 	 -33.7402 	 37.4995 	 95.0154
| 17> H 	 -32.8343 	 37.0077 	 95.227
| 18> H 	 -34.1895 	 37.4112 	 95.9935
| 19> C 	 -34.3639 	 36.5475 	 93.9844
| 20> H 	 -35.4385 	 36.7927 	 93.9063
| 21> H 	 -34.088 	 36.6369 	 92.9595
| 22> H 	 -34.2065 	 35.4916 	 94.2306
| 23> S 	 -28.7283 	 42.6284 	 96.1555
| 24> C 	 -28.1764 	 44.048 	 95.2297
| 25> C 	 -29.194 	 44.5294 	 94.4109
| 26> C 	 -30.4185 	 43.8109 	 94.5632
| 27> C 	 -30.3219 	 42.7689 	 95.4928
| 28> H 	 -29.096 	 45.4524 	 93.8537
| 29> C 	 -31.6959 	 44.314 	 93.9223
| 30> H 	 -31.558 	 45.4126 	 93.9264
| 31> H 	 -32.5097 	 44.2087 	 94.6378
| 32> C 	 -32.207 	 43.7165 	 92.5479
| 33> H 	 -33.2699 	 44.0899 	 92.5311
| 34> H 	 -32.2893 	 42.6757 	 92.6553
| 35> C 	 -31.3317 	 44.005 	 91.341
| 36> H 	 -30.2878 	 43.6318 	 91.2361
| 37> H 	 -31.3169 	 45.0152 	 91.0671
| 38> H 	 -31.8541 	 43.4809 	 90.5204
| 39> H 	 -33.5487 	 39.6556 	 97.3579
| 40> H 	 -27.2176 	 44.532 	 95.3537
| 41> *
| 42>
| 43>                          ****END OF INPUT****

CARTESIAN COORDINATES (ANGSTROEM)
---------------------------------
  S    -31.789000   41.454300   97.387600
  C    -32.894500   40.213200   96.752200
  C    -32.763900   39.886500   95.413500
  C    -31.740200   40.751300   94.855700
  C    -31.244500   41.683800   95.771400
  H    -31.556200   40.914100   93.807600
  C    -33.605100   38.985900   94.595800
  H    -33.004400   38.835400   93.696500
  H    -34.542500   39.507100   94.298800
  C    -33.740200   37.499500   95.015400
  H    -32.834300   37.007700   95.227000
  H    -34.189500   37.411200   95.993500
  C    -34.363900   36.547500   93.984400
  H    -35.438500   36.792700   93.906300
  H    -34.088000   36.636900   92.959500
  H    -34.206500   35.491600   94.230600
  S    -28.728300   42.628400   96.155500
  C    -28.176400   44.048000   95.229700
  C    -29.194000   44.529400   94.410900
  C    -30.418500   43.810900   94.563200
  C    -30.321900   42.768900   95.492800
  H    -29.096000   45.452400   93.853700
  C    -31.695900   44.314000   93.922300
  H    -31.558000   45.412600   93.926400
  H    -32.509700   44.208700   94.637800
  C    -32.207000   43.716500   92.547900
  H    -33.269900   44.089900   92.531100
  H    -32.289300   42.675700   92.655300
  C    -31.331700   44.005000   91.341000
  H    -30.287800   43.631800   91.236100
  H    -31.316900   45.015200   91.067100
  H    -31.854100   43.480900   90.520400
  H    -33.548700   39.655600   97.357900
  H    -27.217600   44.532000   95.353700

 Total Charge           Charge          ....    0
 Multiplicity           Mult            ....    1
 Number of Electrons    NEL             ....  134
 Basis Dimension        Dim             ....  322

ORBITAL ENERGIES
----------------

  NO   OCC          E(Eh)            E(eV)
   0   2.0000     -88.969824     -2420.9920
   1   2.0000     -88.964475     -2420.8464
   2   2.0000     -10.325556      -280.9727
   3   2.0000     -10.320355      -280.8311
   4   2.0000     -10.318586      -280.7830
   5   2.0000     -10.310194      -280.5546
   6   2.0000     -10.303139      -280.3627
   7   2.0000     -10.299720      -280.2696
   8   2.0000     -10.298314      -280.2314
   9   2.0000     -10.294756      -280.1346
  10   2.0000     -10.293402      -280.0977
  11   2.0000     -10.291445      -280.0444
  12   2.0000     -10.289900      -280.0024
  13   2.0000     -10.285897      -279.8935
  14   2.0000     -10.279730      -279.7257
  15   2.0000     -10.276310      -279.6326
  16   2.0000      -8.084558      -219.9920
  17   2.0000      -8.079015      -219.8412
  18   2.0000      -6.042868      -164.4348
  19   2.0000      -6.039253      -164.3364
  20   2.0000      -6.037521      -164.2893
  21   2.0000      -6.035351      -164.2302
  22   2.0000      -6.033473      -164.1791
  23   2.0000      -6.029875      -164.0812
  24   2.0000      -1.004703       -27.3393
  25   2.0000      -0.978944       -26.6384
  26   2.0000      -0.915077       -24.9005
  27   2.0000      -0.900875       -24.5141
  28   2.0000      -0.869031       -23.6475
  29   2.0000      -0.850658       -23.1476
  30   2.0000      -0.849083       -23.1047
  31   2.0000      -0.810940       -22.0668
  32   2.0000      -0.786148       -21.3922
  33   2.0000      -0.772117       -21.0104
  34   2.0000      -0.715609       -19.4727
  35   2.0000      -0.707824       -19.2609
  36   2.0000      -0.689731       -18.7685
  37   2.0000      -0.662734       -18.0339
  38   2.0000      -0.641364       -17.4524
  39   2.0000      -0.612417       -16.6647
  40   2.0000      -0.590681       -16.0733
  41   2.0000      -0.568666       -15.4742
  42   2.0000      -0.560497       -15.2519
  43   2.0000      -0.544660       -14.8210
  44   2.0000      -0.535208       -14.5638
  45   2.0000      -0.531230       -14.4555
  46   2.0000      -0.520757       -14.1705
  47   2.0000      -0.512312       -13.9407
  48   2.0000      -0.499723       -13.5982
  49   2.0000      -0.496353       -13.5065
  50   2.0000      -0.492082       -13.3902
  51   2.0000      -0.480988       -13.0883
  52   2.0000      -0.470795       -12.8110
  53   2.0000      -0.469404       -12.7731
  54   2.0000      -0.456740       -12.4285
  55   2.0000      -0.454423       -12.3655
  56   2.0000      -0.443386       -12.0652
  57   2.0000      -0.437873       -11.9151
  58   2.0000      -0.430450       -11.7131
  59   2.0000      -0.429538       -11.6883
  60   2.0000      -0.427680       -11.6378
  61   2.0000      -0.408796       -11.1239
  62   2.0000      -0.403585       -10.9821
  63   2.0000      -0.339483        -9.2378
  64   2.0000      -0.334321        -9.0973
  65   2.0000      -0.322001        -8.7621
  66   2.0000      -0.295817        -8.0496
  67   0.0000       0.034470         0.9380
  68   0.0000       0.062926         1.7123
  69   0.0000       0.105176         2.8620
  70   0.0000       0.118941         3.2366
  71   0.0000       0.125343         3.4108

MULLIKEN ATOMIC CHARGES
-----------------------
   0 S :    0.123680
   1 C :   -0.093619
   2 C :   -0.095419
   3 C :    0.056870
   4 C :   -0.186701
   5 H :    0.011008
   6 C :    0.067373
   7 H :    0.021214
   8 H :    0.061020
   9 C :   -0.053539
  10 H :    0.014582
  11 H :    0.018893
  12 C :   -0.057722
  13 H :    0.025862
  14 H :    0.019638
  15 H :    0.042529
  16 S :    0.107481
  17 C :   -0.101722
  18 C :   -0.028438
  19 C :   -0.027706
  20 C :   -0.158733
  21 H :    0.020618
  22 C :    0.023168
  23 H :    0.021931
  24 H :    0.025567
  25 C :   -0.026917
  26 H :    0.038653
  27 H :    0.005149
  28 C :   -0.044523
  29 H :    0.049410
  30 H :    0.018769
  31 H :    0.025907
  32 H :    0.017502
  33 H :    0.058215
Sum of atomic charges:    0.0000000

LOEWDIN ATOMIC CHARGES
----------------------
   0 S :    0.411382
   1 C :   -0.179132
   2 C :   -0.059387
   3 C :   -0.055683
   4 C :   -0.204943
   5 H :    0.026337
   6 C :   -0.036263
   7 H :    0.036348
   8 H :    0.043127
   9 C :   -0.040244
  10 H :    0.022648
  11 H :    0.019688
  12 C :   -0.067676
  13 H :    0.026267
  14 H :    0.020373
  15 H :    0.031558
  16 S :    0.404505
  17 C :   -0.179348
  18 C :   -0.068467
  19 C :   -0.061773
  20 C :   -0.213781
  21 H :    0.031892
  22 C :   -0.039271
  23 H :    0.031987
  24 H :    0.031719
  25 C :   -0.032868
  26 H :    0.037016
  27 H :    0.013385
  28 C :   -0.072204
  29 H :    0.035772
  30 H :    0.015680
  31 H :    0.032001
  32 H :    0.011015
  33 H :    0.028339

  Mayer bond orders larger than 0.100000
B(  0-S ,  1-C ) :   1.1298 B(  0-S ,  4-C ) :   1.1588 B(  1-C ,  2-C ) :   1.6375
B(  1-C , 32-H ) :   0.9715 B(  2-C ,  3-C ) :   1.2271 B(  2-C ,  6-C ) :   1.0232
B(  3-C ,  4-C ) :   1.5994 B(  3-C ,  5-H ) :   0.9845 B(  4-C , 20-C ) :   0.9997
B(  6-C ,  7-H ) :   0.9387 B(  6-C ,  8-H ) :   0.9358 B(  6-C ,  9-C ) :   1.0490
B(  9-C , 10-H ) :   0.9582 B(  9-C , 11-H ) :   0.9535 B(  9-C , 12-C ) :   1.0814
B( 12-C , 13-H ) :   0.9743 B( 12-C , 14-H ) :   0.9745 B( 12-C , 15-H ) :   0.9766
B( 16-S , 17-C ) :   1.1507 B( 16-S , 20-C ) :   1.1566 B( 17-C , 18-C ) :   1.5965
B( 17-C , 20-C ) :   0.1050 B( 17-C , 33-H ) :   0.9694 B( 18-C , 19-C ) :   1.2558
B( 18-C , 21-H ) :   0.9853 B( 19-C , 20-C ) :   1.5931 B( 19-C , 22-C ) :   1.0289
B( 22-C , 23-H ) :   0.9440 B( 22-C , 24-H ) :   0.9380 B( 22-C , 25-C ) :   1.0617
B( 25-C , 26-H ) :   0.9513 B( 25-C , 27-H ) :   0.9550 B( 25-C , 28-C ) :   1.0739
B( 28-C , 29-H ) :   0.9735 B( 28-C , 30-H ) :   0.9769 B( 28-C , 31-H ) :   0.9699

Dispersion correction           -0.014321902
FINAL SINGLE POINT ENERGY     -1339.862970590648

DIPOLE MOMENT
-------------
                                X             Y             Z
Electronic contribution:     16.60919       9.20229      22.04958
Nuclear contribution   :    -17.00322      -9.22401     -22.60379
                        -----------------------------------------
Total Dipole Moment    :     -0.39403      -0.02172      -0.55421
                        -----------------------------------------
Magnitude (a.u.)       :      0.68035
Magnitude (Debye)      :      1.72932

Rotational constants in cm-1:     0.019367     0.008013     0.006379
Rotational constants in MHz :   580.609047   240.218961   191.236058

                             ****ORCA TERMINATED NORMALLY****
TOTAL RUN TIME: 0 days 0 hours 0 minutes 29 seconds 736 msec
