                         Program Version 4.2.1 -  RELEASE  -
|  1> ! wB97X-D3 SP def2-SVP
|  2> %pal
|  3> nprocs 16
|  4> end
|  5>
|  6> * xyz 0 1
|  7> S 	 -51.8556 	 61.0927 	 128.632
|  8> C 	 -50.7367 	 60.6347 	 127.422
|  9> C 	 -49.403 	 60.9028 	 127.779
| 10> C 	 -49.4611 	 61.4374 	 129.111
| 11> C 	 -50.6952 	 61.6544 	 129.673
| 12> H 	 -48.5568 	 61.8332 	 129.48
| 13> C 	 -48.1789 	 60.3733 	 127.146
| 14> H 	 -47.5251 	 61.2018 	 127.009
| 15> H 	 -48.3705 	 60.0079 	 126.141
| 16> C 	 -47.3234 	 59.2425 	 127.797
| 17> H 	 -46.9024 	 59.5753 	 128.739
| 18> H 	 -48.0492 	 58.4738 	 128.059
| 19> C 	 -46.1798 	 58.6655 	 126.957
| 20> H 	 -45.5757 	 57.9992 	 127.479
| 21> H 	 -46.5792 	 58.1128 	 126.137
| 22> H 	 -45.4767 	 59.4875 	 126.575
| 23> S 	 -52.5982 	 63.0506 	 130.946
| 24> C 	 -52.177 	 63.7777 	 132.46
| 25> C 	 -50.9513 	 63.3516 	 132.952
| 26> C 	 -50.2931 	 62.4601 	 132.063
| 27> C 	 -51.0304 	 62.3262 	 130.892
| 28> H 	 -50.5344 	 63.7625 	 133.884
| 29> C 	 -48.9291 	 61.9101 	 132.462
| 30> H 	 -48.4324 	 62.5563 	 133.165
| 31> H 	 -48.4112 	 61.9754 	 131.548
| 32> C 	 -48.967 	 60.4181 	 132.911
| 33> H 	 -49.8436 	 60.2712 	 133.498
| 34> H 	 -48.0414 	 60.2007 	 133.49
| 35> C 	 -49.0769 	 59.345 	 131.784
| 36> H 	 -49.9409 	 59.3969 	 131.059
| 37> H 	 -49.1148 	 58.3107 	 132.26
| 38> H 	 -48.1537 	 59.4086 	 131.307
| 39> H 	 -50.9888 	 60.3537 	 126.432
| 40> H 	 -52.7705 	 64.5271 	 132.935
| 41> *
| 42>
| 43>                          ****END OF INPUT****

CARTESIAN COORDINATES (ANGSTROEM)
---------------------------------
  S    -51.855600   61.092700  128.632000
  C    -50.736700   60.634700  127.422000
  C    -49.403000   60.902800  127.779000
  C    -49.461100   61.437400  129.111000
  C    -50.695200   61.654400  129.673000
  H    -48.556800   61.833200  129.480000
  C    -48.178900   60.373300  127.146000
  H    -47.525100   61.201800  127.009000
  H    -48.370500   60.007900  126.141000
  C    -47.323400   59.242500  127.797000
  H    -46.902400   59.575300  128.739000
  H    -48.049200   58.473800  128.059000
  C    -46.179800   58.665500  126.957000
  H    -45.575700   57.999200  127.479000
  H    -46.579200   58.112800  126.137000
  H    -45.476700   59.487500  126.575000
  S    -52.598200   63.050600  130.946000
  C    -52.177000   63.777700  132.460000
  C    -50.951300   63.351600  132.952000
  C    -50.293100   62.460100  132.063000
  C    -51.030400   62.326200  130.892000
  H    -50.534400   63.762500  133.884000
  C    -48.929100   61.910100  132.462000
  H    -48.432400   62.556300  133.165000
  H    -48.411200   61.975400  131.548000
  C    -48.967000   60.418100  132.911000
  H    -49.843600   60.271200  133.498000
  H    -48.041400   60.200700  133.490000
  C    -49.076900   59.345000  131.784000
  H    -49.940900   59.396900  131.059000
  H    -49.114800   58.310700  132.260000
  H    -48.153700   59.408600  131.307000
  H    -50.988800   60.353700  126.432000
  H    -52.770500   64.527100  132.935000

 Total Charge           Charge          ....    0
 Multiplicity           Mult            ....    1
 Number of Electrons    NEL             ....  134
 Basis Dimension        Dim             ....  322

ORBITAL ENERGIES
----------------

  NO   OCC          E(Eh)            E(eV)
   0   2.0000     -88.969052     -2420.9710
   1   2.0000     -88.965653     -2420.8785
   2   2.0000     -10.324089      -280.9327
   3   2.0000     -10.318697      -280.7860
   4   2.0000     -10.312908      -280.6285
   5   2.0000     -10.307716      -280.4872
   6   2.0000     -10.301767      -280.3253
   7   2.0000     -10.299502      -280.2637
   8   2.0000     -10.293304      -280.0950
   9   2.0000     -10.289200      -279.9834
  10   2.0000     -10.288859      -279.9741
  11   2.0000     -10.287917      -279.9485
  12   2.0000     -10.286652      -279.9140
  13   2.0000     -10.282872      -279.8112
  14   2.0000     -10.280025      -279.7337
  15   2.0000     -10.275172      -279.6016
  16   2.0000      -8.084601      -219.9932
  17   2.0000      -8.082902      -219.9470
  18   2.0000      -6.042975      -164.4377
  19   2.0000      -6.041224      -164.3900
  20   2.0000      -6.039144      -164.3335
  21   2.0000      -6.036914      -164.2728
  22   2.0000      -6.035317      -164.2293
  23   2.0000      -6.033855      -164.1896
  24   2.0000      -1.022034       -27.8110
  25   2.0000      -0.992160       -26.9981
  26   2.0000      -0.915320       -24.9071
  27   2.0000      -0.906589       -24.6695
  28   2.0000      -0.873586       -23.7715
  29   2.0000      -0.852478       -23.1971
  30   2.0000      -0.848717       -23.0948
  31   2.0000      -0.813281       -22.1305
  32   2.0000      -0.787540       -21.4301
  33   2.0000      -0.776294       -21.1240
  34   2.0000      -0.710154       -19.3243
  35   2.0000      -0.699087       -19.0231
  36   2.0000      -0.692082       -18.8325
  37   2.0000      -0.666698       -18.1418
  38   2.0000      -0.638772       -17.3819
  39   2.0000      -0.630488       -17.1565
  40   2.0000      -0.598044       -16.2736
  41   2.0000      -0.569597       -15.4995
  42   2.0000      -0.564337       -15.3564
  43   2.0000      -0.550136       -14.9700
  44   2.0000      -0.542895       -14.7729
  45   2.0000      -0.527862       -14.3638
  46   2.0000      -0.521591       -14.1932
  47   2.0000      -0.508713       -13.8428
  48   2.0000      -0.503904       -13.7119
  49   2.0000      -0.498658       -13.5692
  50   2.0000      -0.492932       -13.4134
  51   2.0000      -0.482821       -13.1382
  52   2.0000      -0.474046       -12.8994
  53   2.0000      -0.461319       -12.5531
  54   2.0000      -0.458480       -12.4759
  55   2.0000      -0.454878       -12.3779
  56   2.0000      -0.452158       -12.3039
  57   2.0000      -0.440442       -11.9850
  58   2.0000      -0.429024       -11.6743
  59   2.0000      -0.423480       -11.5235
  60   2.0000      -0.420486       -11.4420
  61   2.0000      -0.417045       -11.3484
  62   2.0000      -0.410681       -11.1752
  63   2.0000      -0.356462        -9.6998
  64   2.0000      -0.337113        -9.1733
  65   2.0000      -0.326372        -8.8810
  66   2.0000      -0.279171        -7.5966
  67   0.0000       0.024937         0.6786
  68   0.0000       0.082553         2.2464
  69   0.0000       0.101463         2.7609
  70   0.0000       0.113513         3.0888
  71   0.0000       0.135042         3.6747

MULLIKEN ATOMIC CHARGES
-----------------------
   0 S :    0.112721
   1 C :   -0.102776
   2 C :   -0.089984
   3 C :   -0.015824
   4 C :   -0.112856
   5 H :   -0.005999
   6 C :    0.072202
   7 H :    0.015867
   8 H :    0.008372
   9 C :   -0.074437
  10 H :    0.024634
  11 H :    0.031632
  12 C :   -0.035027
  13 H :    0.022943
  14 H :    0.028119
  15 H :    0.038135
  16 S :    0.115765
  17 C :   -0.079328
  18 C :   -0.045345
  19 C :   -0.081095
  20 C :   -0.126820
  21 H :    0.024588
  22 C :    0.142628
  23 H :    0.019969
  24 H :   -0.010727
  25 C :   -0.068431
  26 H :    0.028441
  27 H :    0.036637
  28 C :   -0.072322
  29 H :    0.070655
  30 H :    0.035868
  31 H :    0.014559
  32 H :    0.032099
  33 H :    0.045136
Sum of atomic charges:   -0.0000000

LOEWDIN ATOMIC CHARGES
----------------------
   0 S :    0.458533
   1 C :   -0.206972
   2 C :   -0.058144
   3 C :   -0.068612
   4 C :   -0.226324
   5 H :    0.015923
   6 C :   -0.035050
   7 H :    0.026822
   8 H :    0.029276
   9 C :   -0.035384
  10 H :    0.017969
  11 H :    0.025491
  12 C :   -0.060140
  13 H :    0.019910
  14 H :    0.021878
  15 H :    0.034885
  16 S :    0.421103
  17 C :   -0.187957
  18 C :   -0.068443
  19 C :   -0.050676
  20 C :   -0.202619
  21 H :    0.035362
  22 C :   -0.023872
  23 H :    0.030039
  24 H :    0.021413
  25 C :   -0.032706
  26 H :    0.018697
  27 H :    0.028761
  28 C :   -0.069054
  29 H :    0.035901
  30 H :    0.032583
  31 H :    0.010400
  32 H :    0.018737
  33 H :    0.022271

  Mayer bond orders larger than 0.100000
B(  0-S ,  1-C ) :   1.1653 B(  0-S ,  4-C ) :   1.1646 B(  1-C ,  2-C ) :   1.5623
B(  1-C , 32-H ) :   0.9675 B(  2-C ,  3-C ) :   1.2913 B(  2-C ,  6-C ) :   1.0588
B(  3-C ,  4-C ) :   1.5297 B(  3-C ,  5-H ) :   0.9968 B(  4-C , 20-C ) :   1.0755
B(  6-C ,  7-H ) :   0.9201 B(  6-C ,  8-H ) :   0.9403 B(  6-C ,  9-C ) :   1.0568
B(  9-C , 10-H ) :   0.9503 B(  9-C , 11-H ) :   0.9567 B(  9-C , 12-C ) :   1.0880
B( 12-C , 13-H ) :   0.9726 B( 12-C , 14-H ) :   0.9740 B( 12-C , 15-H ) :   0.9734
B( 16-S , 17-C ) :   1.1533 B( 16-S , 20-C ) :   1.1473 B( 17-C , 18-C ) :   1.6030
B( 17-C , 20-C ) :   0.1037 B( 17-C , 33-H ) :   0.9723 B( 18-C , 19-C ) :   1.2479
B( 18-C , 21-H ) :   0.9880 B( 19-C , 20-C ) :   1.5754 B( 19-C , 22-C ) :   1.0252
B( 22-C , 23-H ) :   0.9336 B( 22-C , 24-H ) :   0.9278 B( 22-C , 25-C ) :   1.0548
B( 25-C , 26-H ) :   0.9606 B( 25-C , 27-H ) :   0.9574 B( 25-C , 28-C ) :   1.0782
B( 28-C , 29-H ) :   0.9723 B( 28-C , 30-H ) :   0.9708 B( 28-C , 31-H ) :   0.9750

Dispersion correction           -0.015612475
FINAL SINGLE POINT ENERGY     -1339.866839601867

DIPOLE MOMENT
-------------
                                X             Y             Z
Electronic contribution:    -27.02098      15.81354       1.02168
Nuclear contribution   :     27.66892     -15.87655      -0.91485
                        -----------------------------------------
Total Dipole Moment    :      0.64794      -0.06301       0.10683
                        -----------------------------------------
Magnitude (a.u.)       :      0.65970
Magnitude (Debye)      :      1.67683

Rotational constants in cm-1:     0.021994     0.009115     0.007057
Rotational constants in MHz :   659.367540   273.274920   211.555813

                             ****ORCA TERMINATED NORMALLY****
TOTAL RUN TIME: 0 days 0 hours 0 minutes 34 seconds 896 msec
