                         Program Version 4.2.1 -  RELEASE  -
|  1> ! wB97X-D3 SP def2-SVP
|  2> %pal
|  3> nprocs 16
|  4> end
|  5>
|  6> * xyz 0 1
|  7> S 	 53.1139 	 3.69513 	 85.0322
|  8> C 	 52.191 	 2.41849 	 84.2551
|  9> C 	 51.1179 	 2.07142 	 85.034
| 10> C 	 50.9199 	 2.9562 	 86.1672
| 11> C 	 51.8913 	 3.90381 	 86.2574
| 12> H 	 50.117 	 2.87314 	 86.8898
| 13> C 	 50.1696 	 0.975071 	 84.7065
| 14> H 	 49.7815 	 0.658089 	 85.6615
| 15> H 	 50.7389 	 0.168233 	 84.1834
| 16> C 	 48.8609 	 1.40342 	 83.9844
| 17> H 	 48.4274 	 2.33359 	 84.3358
| 18> H 	 49.0348 	 1.62869 	 82.9394
| 19> C 	 47.7936 	 0.282885 	 84.1605
| 20> H 	 48.267 	 -0.663094 	 84.0399
| 21> H 	 47.4727 	 0.3182 	 85.2337
| 22> H 	 46.9699 	 0.223071 	 83.3742
| 23> S 	 51.3251 	 6.51089 	 87.1245
| 24> C 	 51.6486 	 6.8729 	 88.7866
| 25> C 	 52.1165 	 5.84513 	 89.513
| 26> C 	 52.2048 	 4.68401 	 88.7275
| 27> C 	 51.9394 	 4.87464 	 87.3857
| 28> H 	 52.2587 	 6.03053 	 90.5295
| 29> C 	 52.4369 	 3.33848 	 89.3997
| 30> H 	 53.3945 	 3.28628 	 89.7999
| 31> H 	 52.538 	 2.63798 	 88.59
| 32> C 	 51.2801 	 2.9107 	 90.2577
| 33> H 	 50.3705 	 2.78752 	 89.7658
| 34> H 	 51.1339 	 3.75629 	 90.9407
| 35> C 	 51.692 	 1.68748 	 91.0407
| 36> H 	 51.7656 	 0.870206 	 90.2456
| 37> H 	 51.0113 	 1.36713 	 91.8951
| 38> H 	 52.5864 	 1.83691 	 91.5337
| 39> H 	 52.501 	 1.73618 	 83.4864
| 40> H 	 51.3716 	 7.91559 	 89.2644
| 41> *
| 42>
| 43>                          ****END OF INPUT****

CARTESIAN COORDINATES (ANGSTROEM)
---------------------------------
  S     53.113900    3.695130   85.032200
  C     52.191000    2.418490   84.255100
  C     51.117900    2.071420   85.034000
  C     50.919900    2.956200   86.167200
  C     51.891300    3.903810   86.257400
  H     50.117000    2.873140   86.889800
  C     50.169600    0.975071   84.706500
  H     49.781500    0.658089   85.661500
  H     50.738900    0.168233   84.183400
  C     48.860900    1.403420   83.984400
  H     48.427400    2.333590   84.335800
  H     49.034800    1.628690   82.939400
  C     47.793600    0.282885   84.160500
  H     48.267000   -0.663094   84.039900
  H     47.472700    0.318200   85.233700
  H     46.969900    0.223071   83.374200
  S     51.325100    6.510890   87.124500
  C     51.648600    6.872900   88.786600
  C     52.116500    5.845130   89.513000
  C     52.204800    4.684010   88.727500
  C     51.939400    4.874640   87.385700
  H     52.258700    6.030530   90.529500
  C     52.436900    3.338480   89.399700
  H     53.394500    3.286280   89.799900
  H     52.538000    2.637980   88.590000
  C     51.280100    2.910700   90.257700
  H     50.370500    2.787520   89.765800
  H     51.133900    3.756290   90.940700
  C     51.692000    1.687480   91.040700
  H     51.765600    0.870206   90.245600
  H     51.011300    1.367130   91.895100
  H     52.586400    1.836910   91.533700
  H     52.501000    1.736180   83.486400
  H     51.371600    7.915590   89.264400

 Total Charge           Charge          ....    0
 Multiplicity           Mult            ....    1
 Number of Electrons    NEL             ....  134
 Basis Dimension        Dim             ....  322

ORBITAL ENERGIES
----------------

  NO   OCC          E(Eh)            E(eV)
   0   2.0000     -88.966296     -2420.8960
   1   2.0000     -88.962795     -2420.8007
   2   2.0000     -10.328502      -281.0528
   3   2.0000     -10.325172      -280.9622
   4   2.0000     -10.319379      -280.8046
   5   2.0000     -10.310267      -280.5566
   6   2.0000     -10.300176      -280.2820
   7   2.0000     -10.296937      -280.1939
   8   2.0000     -10.294448      -280.1262
   9   2.0000     -10.293104      -280.0896
  10   2.0000     -10.287853      -279.9467
  11   2.0000     -10.285109      -279.8721
  12   2.0000     -10.282739      -279.8075
  13   2.0000     -10.280242      -279.7396
  14   2.0000     -10.279292      -279.7138
  15   2.0000     -10.278180      -279.6835
  16   2.0000      -8.080834      -219.8907
  17   2.0000      -8.077950      -219.8122
  18   2.0000      -6.039442      -164.3416
  19   2.0000      -6.036360      -164.2577
  20   2.0000      -6.035390      -164.2313
  21   2.0000      -6.032511      -164.1530
  22   2.0000      -6.031465      -164.1245
  23   2.0000      -6.028686      -164.0489
  24   2.0000      -1.008256       -27.4360
  25   2.0000      -0.989015       -26.9125
  26   2.0000      -0.918956       -25.0061
  27   2.0000      -0.912192       -24.8220
  28   2.0000      -0.870009       -23.6742
  29   2.0000      -0.852348       -23.1936
  30   2.0000      -0.846795       -23.0425
  31   2.0000      -0.818486       -22.2721
  32   2.0000      -0.778781       -21.1917
  33   2.0000      -0.767020       -20.8717
  34   2.0000      -0.708607       -19.2822
  35   2.0000      -0.704870       -19.1805
  36   2.0000      -0.697781       -18.9876
  37   2.0000      -0.656447       -17.8628
  38   2.0000      -0.640498       -17.4288
  39   2.0000      -0.621211       -16.9040
  40   2.0000      -0.596719       -16.2376
  41   2.0000      -0.576744       -15.6940
  42   2.0000      -0.570973       -15.5370
  43   2.0000      -0.560505       -15.2521
  44   2.0000      -0.527949       -14.3662
  45   2.0000      -0.522237       -14.2108
  46   2.0000      -0.518727       -14.1153
  47   2.0000      -0.509597       -13.8668
  48   2.0000      -0.507681       -13.8147
  49   2.0000      -0.503585       -13.7032
  50   2.0000      -0.490065       -13.3353
  51   2.0000      -0.474809       -12.9202
  52   2.0000      -0.467659       -12.7257
  53   2.0000      -0.456923       -12.4335
  54   2.0000      -0.455654       -12.3990
  55   2.0000      -0.453449       -12.3390
  56   2.0000      -0.448444       -12.2028
  57   2.0000      -0.445106       -12.1119
  58   2.0000      -0.437341       -11.9007
  59   2.0000      -0.424878       -11.5615
  60   2.0000      -0.419195       -11.4069
  61   2.0000      -0.417731       -11.3670
  62   2.0000      -0.409272       -11.1369
  63   2.0000      -0.338949        -9.2233
  64   2.0000      -0.328992        -8.9523
  65   2.0000      -0.324239        -8.8230
  66   2.0000      -0.310956        -8.4615
  67   0.0000       0.048606         1.3226
  68   0.0000       0.059257         1.6125
  69   0.0000       0.111323         3.0293
  70   0.0000       0.120182         3.2703
  71   0.0000       0.136487         3.7140

MULLIKEN ATOMIC CHARGES
-----------------------
   0 S :    0.115970
   1 C :   -0.101060
   2 C :   -0.110401
   3 C :    0.038796
   4 C :   -0.145775
   5 H :    0.012809
   6 C :    0.064252
   7 H :    0.006897
   8 H :    0.038164
   9 C :   -0.052037
  10 H :    0.029658
  11 H :    0.022186
  12 C :   -0.076181
  13 H :    0.019458
  14 H :    0.043778
  15 H :    0.049286
  16 S :    0.108039
  17 C :   -0.130959
  18 C :   -0.009472
  19 C :   -0.028263
  20 C :   -0.189619
  21 H :   -0.000793
  22 C :    0.108204
  23 H :    0.009627
  24 H :    0.003199
  25 C :   -0.035535
  26 H :    0.016428
  27 H :    0.015276
  28 C :   -0.040155
  29 H :    0.038309
  30 H :    0.040289
  31 H :    0.013640
  32 H :    0.040454
  33 H :    0.085530
Sum of atomic charges:    0.0000000

LOEWDIN ATOMIC CHARGES
----------------------
   0 S :    0.405243
   1 C :   -0.199498
   2 C :   -0.064120
   3 C :   -0.057550
   4 C :   -0.197944
   5 H :    0.031233
   6 C :   -0.032548
   7 H :    0.027614
   8 H :    0.036665
   9 C :   -0.037494
  10 H :    0.024138
  11 H :    0.020223
  12 C :   -0.074507
  13 H :    0.017011
  14 H :    0.030704
  15 H :    0.035586
  16 S :    0.401007
  17 C :   -0.192641
  18 C :   -0.077996
  19 C :   -0.045277
  20 C :   -0.200653
  21 H :    0.027246
  22 C :   -0.025179
  23 H :    0.023766
  24 H :    0.026150
  25 C :   -0.032509
  26 H :    0.016974
  27 H :    0.021381
  28 C :   -0.063004
  29 H :    0.034026
  30 H :    0.031954
  31 H :    0.012283
  32 H :    0.028803
  33 H :    0.048911

  Mayer bond orders larger than 0.100000
B(  0-S ,  1-C ) :   1.1210 B(  0-S ,  4-C ) :   1.1504 B(  1-C ,  2-C ) :   1.6399
B(  1-C , 32-H ) :   0.9647 B(  2-C ,  3-C ) :   1.2116 B(  2-C ,  6-C ) :   1.0449
B(  3-C ,  4-C ) :   1.5985 B(  3-C ,  5-H ) :   0.9969 B(  4-C , 20-C ) :   0.9976
B(  6-C ,  7-H ) :   0.9358 B(  6-C ,  8-H ) :   0.9348 B(  6-C ,  9-C ) :   1.0506
B(  9-C , 10-H ) :   0.9621 B(  9-C , 11-H ) :   0.9547 B(  9-C , 12-C ) :   1.0647
B( 12-C , 13-H ) :   0.9750 B( 12-C , 14-H ) :   0.9762 B( 12-C , 15-H ) :   0.9742
B( 16-S , 17-C ) :   1.1648 B( 16-S , 20-C ) :   1.1363 B( 17-C , 18-C ) :   1.6338
B( 17-C , 33-H ) :   0.9459 B( 18-C , 19-C ) :   1.2091 B( 18-C , 21-H ) :   1.0054
B( 19-C , 20-C ) :   1.6353 B( 19-C , 22-C ) :   1.0378 B( 22-C , 23-H ) :   0.9325
B( 22-C , 24-H ) :   0.9165 B( 22-C , 25-C ) :   1.0582 B( 25-C , 26-H ) :   0.9529
B( 25-C , 27-H ) :   0.9545 B( 25-C , 28-C ) :   1.0820 B( 28-C , 29-H ) :   0.9734
B( 28-C , 30-H ) :   0.9722 B( 28-C , 31-H ) :   0.9737

Dispersion correction           -0.014190425
FINAL SINGLE POINT ENERGY     -1339.862777516844

DIPOLE MOMENT
-------------
                                X             Y             Z
Electronic contribution:     14.02543      22.87801      -8.09292
Nuclear contribution   :    -14.34109     -23.37074       8.51161
                        -----------------------------------------
Total Dipole Moment    :     -0.31567      -0.49273       0.41869
                        -----------------------------------------
Magnitude (a.u.)       :      0.71954
Magnitude (Debye)      :      1.82892

Rotational constants in cm-1:     0.017016     0.008356     0.006968
Rotational constants in MHz :   510.132194   250.508129   208.905335

                             ****ORCA TERMINATED NORMALLY****
TOTAL RUN TIME: 0 days 0 hours 0 minutes 29 seconds 825 msec
