                         Program Version 4.2.1 -  RELEASE  -
|  1> ! wB97X-D3 SP def2-SVP
|  2> %pal
|  3> nprocs 16
|  4> end
|  5>
|  6> * xyz 0 1
|  7> S 	 -45.7343 	 34.0025 	 98.8524
|  8> C 	 -45.3753 	 35.3879 	 97.8539
|  9> C 	 -45.9959 	 36.4571 	 98.431
| 10> C 	 -46.944 	 36.2037 	 99.4413
| 11> C 	 -46.8216 	 34.9235 	 99.9206
| 12> H 	 -47.6111 	 36.9645 	 99.8998
| 13> C 	 -45.739 	 37.8253 	 97.8544
| 14> H 	 -46.0508 	 37.8828 	 96.7952
| 15> H 	 -44.6426 	 37.9169 	 97.7372
| 16> C 	 -46.2911 	 38.9547 	 98.7492
| 17> H 	 -47.3285 	 38.7743 	 98.614
| 18> H 	 -46.0399 	 38.8838 	 99.8238
| 19> C 	 -45.8631 	 40.3077 	 98.2993
| 20> H 	 -46.5468 	 40.6287 	 97.4759
| 21> H 	 -46.0504 	 41.1238 	 99.0281
| 22> H 	 -44.8492 	 40.3812 	 97.9183
| 23> S 	 -48.7133 	 33.0407 	 100.279
| 24> C 	 -49.5601 	 32.7895 	 101.814
| 25> C 	 -49.0786 	 33.714 	 102.756
| 26> C 	 -48.0028 	 34.5304 	 102.246
| 27> C 	 -47.7056 	 34.2516 	 100.905
| 28> H 	 -49.5391 	 33.8102 	 103.694
| 29> C 	 -47.3269 	 35.5001 	 103.163
| 30> H 	 -48.0551 	 36.3442 	 103.442
| 31> H 	 -46.5253 	 36.0623 	 102.584
| 32> C 	 -46.4991 	 34.8558 	 104.319
| 33> H 	 -47.1748 	 34.4837 	 105.103
| 34> H 	 -46.0424 	 35.7008 	 104.853
| 35> C 	 -45.4626 	 33.8884 	 103.809
| 36> H 	 -44.6351 	 33.7525 	 104.565
| 37> H 	 -44.9448 	 34.2132 	 102.891
| 38> H 	 -45.8002 	 32.938 	 103.502
| 39> H 	 -44.6171 	 35.4656 	 97.1062
| 40> H 	 -50.3259 	 32.0875 	 101.983
| 41> *
| 42>
| 43>                          ****END OF INPUT****

CARTESIAN COORDINATES (ANGSTROEM)
---------------------------------
  S    -45.734300   34.002500   98.852400
  C    -45.375300   35.387900   97.853900
  C    -45.995900   36.457100   98.431000
  C    -46.944000   36.203700   99.441300
  C    -46.821600   34.923500   99.920600
  H    -47.611100   36.964500   99.899800
  C    -45.739000   37.825300   97.854400
  H    -46.050800   37.882800   96.795200
  H    -44.642600   37.916900   97.737200
  C    -46.291100   38.954700   98.749200
  H    -47.328500   38.774300   98.614000
  H    -46.039900   38.883800   99.823800
  C    -45.863100   40.307700   98.299300
  H    -46.546800   40.628700   97.475900
  H    -46.050400   41.123800   99.028100
  H    -44.849200   40.381200   97.918300
  S    -48.713300   33.040700  100.279000
  C    -49.560100   32.789500  101.814000
  C    -49.078600   33.714000  102.756000
  C    -48.002800   34.530400  102.246000
  C    -47.705600   34.251600  100.905000
  H    -49.539100   33.810200  103.694000
  C    -47.326900   35.500100  103.163000
  H    -48.055100   36.344200  103.442000
  H    -46.525300   36.062300  102.584000
  C    -46.499100   34.855800  104.319000
  H    -47.174800   34.483700  105.103000
  H    -46.042400   35.700800  104.853000
  C    -45.462600   33.888400  103.809000
  H    -44.635100   33.752500  104.565000
  H    -44.944800   34.213200  102.891000
  H    -45.800200   32.938000  103.502000
  H    -44.617100   35.465600   97.106200
  H    -50.325900   32.087500  101.983000

 Total Charge           Charge          ....    0
 Multiplicity           Mult            ....    1
 Number of Electrons    NEL             ....  134
 Basis Dimension        Dim             ....  322

ORBITAL ENERGIES
----------------

  NO   OCC          E(Eh)            E(eV)
   0   2.0000     -88.964501     -2420.8471
   1   2.0000     -88.964405     -2420.8445
   2   2.0000     -10.333993      -281.2022
   3   2.0000     -10.326220      -280.9907
   4   2.0000     -10.317691      -280.7586
   5   2.0000     -10.309274      -280.5296
   6   2.0000     -10.303140      -280.3627
   7   2.0000     -10.298017      -280.2233
   8   2.0000     -10.296222      -280.1744
   9   2.0000     -10.294654      -280.1318
  10   2.0000     -10.293656      -280.1046
  11   2.0000     -10.291400      -280.0432
  12   2.0000     -10.288776      -279.9718
  13   2.0000     -10.284231      -279.8482
  14   2.0000     -10.279199      -279.7112
  15   2.0000     -10.273411      -279.5537
  16   2.0000      -8.079675      -219.8591
  17   2.0000      -8.078741      -219.8337
  18   2.0000      -6.038173      -164.3070
  19   2.0000      -6.037333      -164.2842
  20   2.0000      -6.033879      -164.1902
  21   2.0000      -6.033162      -164.1707
  22   2.0000      -6.030615      -164.1014
  23   2.0000      -6.029577      -164.0731
  24   2.0000      -1.008476       -27.4420
  25   2.0000      -0.986497       -26.8439
  26   2.0000      -0.914921       -24.8963
  27   2.0000      -0.905502       -24.6400
  28   2.0000      -0.871832       -23.7238
  29   2.0000      -0.848220       -23.0812
  30   2.0000      -0.843892       -22.9635
  31   2.0000      -0.820713       -22.3327
  32   2.0000      -0.775752       -21.1093
  33   2.0000      -0.767008       -20.8714
  34   2.0000      -0.715859       -19.4795
  35   2.0000      -0.698803       -19.0154
  36   2.0000      -0.688435       -18.7333
  37   2.0000      -0.661349       -17.9962
  38   2.0000      -0.640593       -17.4314
  39   2.0000      -0.620939       -16.8966
  40   2.0000      -0.592723       -16.1288
  41   2.0000      -0.573901       -15.6166
  42   2.0000      -0.566986       -15.4285
  43   2.0000      -0.548928       -14.9371
  44   2.0000      -0.538724       -14.6594
  45   2.0000      -0.528445       -14.3797
  46   2.0000      -0.516432       -14.0528
  47   2.0000      -0.512919       -13.9572
  48   2.0000      -0.501585       -13.6488
  49   2.0000      -0.498772       -13.5723
  50   2.0000      -0.492534       -13.4025
  51   2.0000      -0.483802       -13.1649
  52   2.0000      -0.478628       -13.0241
  53   2.0000      -0.461296       -12.5525
  54   2.0000      -0.455157       -12.3855
  55   2.0000      -0.450877       -12.2690
  56   2.0000      -0.443563       -12.0700
  57   2.0000      -0.432688       -11.7741
  58   2.0000      -0.428153       -11.6506
  59   2.0000      -0.419851       -11.4247
  60   2.0000      -0.417289       -11.3550
  61   2.0000      -0.407608       -11.0916
  62   2.0000      -0.404980       -11.0201
  63   2.0000      -0.346801        -9.4369
  64   2.0000      -0.327028        -8.8989
  65   2.0000      -0.324682        -8.8350
  66   2.0000      -0.297833        -8.1044
  67   0.0000       0.033542         0.9127
  68   0.0000       0.065468         1.7815
  69   0.0000       0.117275         3.1912
  70   0.0000       0.124530         3.3886
  71   0.0000       0.130739         3.5576

MULLIKEN ATOMIC CHARGES
-----------------------
   0 S :    0.096491
   1 C :   -0.101178
   2 C :   -0.097232
   3 C :    0.033454
   4 C :   -0.149368
   5 H :    0.039496
   6 C :    0.020244
   7 H :    0.043138
   8 H :    0.021006
   9 C :   -0.095419
  10 H :    0.035934
  11 H :    0.044333
  12 C :   -0.030824
  13 H :    0.022886
  14 H :    0.033130
  15 H :    0.034432
  16 S :    0.117129
  17 C :   -0.085492
  18 C :   -0.017571
  19 C :   -0.034361
  20 C :   -0.153305
  21 H :    0.006127
  22 C :   -0.012640
  23 H :    0.048940
  24 H :    0.029290
  25 C :   -0.046583
  26 H :    0.027686
  27 H :    0.026967
  28 C :   -0.041802
  29 H :    0.039905
  30 H :    0.025792
  31 H :    0.032672
  32 H :    0.041988
  33 H :    0.044735
Sum of atomic charges:   -0.0000000

LOEWDIN ATOMIC CHARGES
----------------------
   0 S :    0.394341
   1 C :   -0.194046
   2 C :   -0.068658
   3 C :   -0.064647
   4 C :   -0.184114
   5 H :    0.043606
   6 C :   -0.035579
   7 H :    0.035956
   8 H :    0.027665
   9 C :   -0.049382
  10 H :    0.022737
  11 H :    0.029552
  12 C :   -0.071353
  13 H :    0.029693
  14 H :    0.029241
  15 H :    0.024355
  16 S :    0.431288
  17 C :   -0.175781
  18 C :   -0.058378
  19 C :   -0.065498
  20 C :   -0.220529
  21 H :    0.023479
  22 C :   -0.048380
  23 H :    0.039203
  24 H :    0.032541
  25 C :   -0.043002
  26 H :    0.021815
  27 H :    0.027383
  28 C :   -0.068784
  29 H :    0.034469
  30 H :    0.030658
  31 H :    0.021947
  32 H :    0.027820
  33 H :    0.020380

  Mayer bond orders larger than 0.100000
B(  0-S ,  1-C ) :   1.1276 B(  0-S ,  4-C ) :   1.1589 B(  1-C ,  2-C ) :   1.6095
B(  1-C ,  4-C ) :   0.1032 B(  1-C , 32-H ) :   0.9761 B(  2-C ,  3-C ) :   1.2583
B(  2-C ,  6-C ) :   1.0090 B(  3-C ,  4-C ) :   1.5613 B(  3-C ,  5-H ) :   0.9785
B(  4-C , 20-C ) :   0.9917 B(  6-C ,  7-H ) :   0.9415 B(  6-C ,  8-H ) :   0.9401
B(  6-C ,  9-C ) :   1.0644 B(  9-C , 10-H ) :   0.9467 B(  9-C , 11-H ) :   0.9603
B(  9-C , 12-C ) :   1.0862 B( 12-C , 13-H ) :   0.9704 B( 12-C , 14-H ) :   0.9720
B( 12-C , 15-H ) :   0.9750 B( 16-S , 17-C ) :   1.1572 B( 16-S , 20-C ) :   1.1767
B( 17-C , 18-C ) :   1.5818 B( 17-C , 33-H ) :   0.9782 B( 18-C , 19-C ) :   1.2475
B( 18-C , 21-H ) :   0.9994 B( 19-C , 20-C ) :   1.5736 B( 19-C , 22-C ) :   1.0565
B( 22-C , 23-H ) :   0.9362 B( 22-C , 24-H ) :   0.9378 B( 22-C , 25-C ) :   1.0659
B( 25-C , 26-H ) :   0.9547 B( 25-C , 27-H ) :   0.9565 B( 25-C , 28-C ) :   1.0648
B( 28-C , 29-H ) :   0.9734 B( 28-C , 30-H ) :   0.9726 B( 28-C , 31-H ) :   0.9715

Dispersion correction           -0.014370156
FINAL SINGLE POINT ENERGY     -1339.873440940460

DIPOLE MOMENT
-------------
                                X             Y             Z
Electronic contribution:     -7.95095     -21.94347      -8.80438
Nuclear contribution   :      7.92649      22.57758       8.98932
                        -----------------------------------------
Total Dipole Moment    :     -0.02446       0.63411       0.18494
                        -----------------------------------------
Magnitude (a.u.)       :      0.66098
Magnitude (Debye)      :      1.68009

Rotational constants in cm-1:     0.019278     0.008227     0.007185
Rotational constants in MHz :   577.926681   246.646575   215.408451

                             ****ORCA TERMINATED NORMALLY****
TOTAL RUN TIME: 0 days 0 hours 0 minutes 30 seconds 237 msec
