                         Program Version 4.2.1 -  RELEASE  -
|  1> ! wB97X-D3 SP def2-SVP
|  2> %pal
|  3> nprocs 16
|  4> end
|  5>
|  6> * xyz 0 1
|  7> S 	 -42.2193 	 34.727 	 77.6207
|  8> C 	 -42.5715 	 34.0645 	 76.0597
|  9> C 	 -42.3321 	 32.7056 	 76.0511
| 10> C 	 -41.7307 	 32.2758 	 77.2566
| 11> C 	 -41.5399 	 33.2284 	 78.2296
| 12> H 	 -41.4642 	 31.333 	 77.4776
| 13> C 	 -42.6204 	 31.7674 	 74.8959
| 14> H 	 -41.8229 	 31.6603 	 74.2876
| 15> H 	 -43.3526 	 32.2081 	 74.2452
| 16> C 	 -43.1821 	 30.3747 	 75.2585
| 17> H 	 -43.333 	 29.7261 	 74.4058
| 18> H 	 -42.4849 	 29.7804 	 75.9467
| 19> C 	 -44.5972 	 30.328 	 75.9692
| 20> H 	 -44.8878 	 29.3889 	 76.3282
| 21> H 	 -44.5965 	 31.0259 	 76.8069
| 22> H 	 -45.4731 	 30.6254 	 75.3423
| 23> S 	 -41.6942 	 33.7523 	 81.0022
| 24> C 	 -40.7453 	 32.7417 	 82.0414
| 25> C 	 -39.8598 	 31.9813 	 81.3275
| 26> C 	 -40.0926 	 32.0023 	 79.924
| 27> C 	 -40.9613 	 33.0013 	 79.5664
| 28> H 	 -39.1382 	 31.3169 	 81.8928
| 29> C 	 -39.1535 	 31.2721 	 78.9441
| 30> H 	 -38.8011 	 32.0529 	 78.2411
| 31> H 	 -39.7404 	 30.456 	 78.5138
| 32> C 	 -37.8049 	 30.6595 	 79.4645
| 33> H 	 -37.8165 	 29.8738 	 80.2321
| 34> H 	 -37.0747 	 31.3673 	 79.8289
| 35> C 	 -37.0041 	 30.0399 	 78.3553
| 36> H 	 -36.1696 	 29.404 	 78.7417
| 37> H 	 -36.5312 	 30.8167 	 77.819
| 38> H 	 -37.5965 	 29.5723 	 77.6006
| 39> H 	 -42.9584 	 34.5857 	 75.2081
| 40> H 	 -40.6512 	 32.7903 	 83.1686
| 41> *
| 42>
| 43>                          ****END OF INPUT****

CARTESIAN COORDINATES (ANGSTROEM)
---------------------------------
  S    -42.219300   34.727000   77.620700
  C    -42.571500   34.064500   76.059700
  C    -42.332100   32.705600   76.051100
  C    -41.730700   32.275800   77.256600
  C    -41.539900   33.228400   78.229600
  H    -41.464200   31.333000   77.477600
  C    -42.620400   31.767400   74.895900
  H    -41.822900   31.660300   74.287600
  H    -43.352600   32.208100   74.245200
  C    -43.182100   30.374700   75.258500
  H    -43.333000   29.726100   74.405800
  H    -42.484900   29.780400   75.946700
  C    -44.597200   30.328000   75.969200
  H    -44.887800   29.388900   76.328200
  H    -44.596500   31.025900   76.806900
  H    -45.473100   30.625400   75.342300
  S    -41.694200   33.752300   81.002200
  C    -40.745300   32.741700   82.041400
  C    -39.859800   31.981300   81.327500
  C    -40.092600   32.002300   79.924000
  C    -40.961300   33.001300   79.566400
  H    -39.138200   31.316900   81.892800
  C    -39.153500   31.272100   78.944100
  H    -38.801100   32.052900   78.241100
  H    -39.740400   30.456000   78.513800
  C    -37.804900   30.659500   79.464500
  H    -37.816500   29.873800   80.232100
  H    -37.074700   31.367300   79.828900
  C    -37.004100   30.039900   78.355300
  H    -36.169600   29.404000   78.741700
  H    -36.531200   30.816700   77.819000
  H    -37.596500   29.572300   77.600600
  H    -42.958400   34.585700   75.208100
  H    -40.651200   32.790300   83.168600

 Total Charge           Charge          ....    0
 Multiplicity           Mult            ....    1
 Number of Electrons    NEL             ....  134
 Basis Dimension        Dim             ....  322

ORBITAL ENERGIES
----------------

  NO   OCC          E(Eh)            E(eV)
   0   2.0000     -88.967482     -2420.9283
   1   2.0000     -88.965510     -2420.8746
   2   2.0000     -10.330438      -281.1055
   3   2.0000     -10.330159      -281.0979
   4   2.0000     -10.319704      -280.8134
   5   2.0000     -10.312277      -280.6113
   6   2.0000     -10.303976      -280.3854
   7   2.0000     -10.303673      -280.3772
   8   2.0000     -10.299400      -280.2609
   9   2.0000     -10.296843      -280.1913
  10   2.0000     -10.295302      -280.1494
  11   2.0000     -10.287438      -279.9354
  12   2.0000     -10.286811      -279.9184
  13   2.0000     -10.281437      -279.7721
  14   2.0000     -10.273992      -279.5695
  15   2.0000     -10.272014      -279.5157
  16   2.0000      -8.082169      -219.9270
  17   2.0000      -8.080341      -219.8773
  18   2.0000      -6.040809      -164.3788
  19   2.0000      -6.038874      -164.3261
  20   2.0000      -6.036709      -164.2672
  21   2.0000      -6.034774      -164.2146
  22   2.0000      -6.032763      -164.1598
  23   2.0000      -6.031140      -164.1157
  24   2.0000      -1.009419       -27.4677
  25   2.0000      -0.989006       -26.9122
  26   2.0000      -0.911113       -24.7926
  27   2.0000      -0.908051       -24.7093
  28   2.0000      -0.872550       -23.7433
  29   2.0000      -0.855998       -23.2929
  30   2.0000      -0.841958       -22.9108
  31   2.0000      -0.817558       -22.2469
  32   2.0000      -0.787435       -21.4272
  33   2.0000      -0.775458       -21.1013
  34   2.0000      -0.708729       -19.2855
  35   2.0000      -0.700510       -19.0618
  36   2.0000      -0.694239       -18.8912
  37   2.0000      -0.654169       -17.8009
  38   2.0000      -0.641817       -17.4647
  39   2.0000      -0.628206       -17.0943
  40   2.0000      -0.595489       -16.2041
  41   2.0000      -0.576793       -15.6953
  42   2.0000      -0.567985       -15.4557
  43   2.0000      -0.556029       -15.1303
  44   2.0000      -0.536160       -14.5897
  45   2.0000      -0.528577       -14.3833
  46   2.0000      -0.518483       -14.1086
  47   2.0000      -0.512763       -13.9530
  48   2.0000      -0.503759       -13.7080
  49   2.0000      -0.496817       -13.5191
  50   2.0000      -0.490099       -13.3363
  51   2.0000      -0.477848       -13.0029
  52   2.0000      -0.468133       -12.7386
  53   2.0000      -0.467107       -12.7106
  54   2.0000      -0.463768       -12.6198
  55   2.0000      -0.453347       -12.3362
  56   2.0000      -0.451856       -12.2956
  57   2.0000      -0.436376       -11.8744
  58   2.0000      -0.424547       -11.5525
  59   2.0000      -0.420573       -11.4444
  60   2.0000      -0.417811       -11.3692
  61   2.0000      -0.417082       -11.3494
  62   2.0000      -0.414194       -11.2708
  63   2.0000      -0.358517        -9.7557
  64   2.0000      -0.335158        -9.1201
  65   2.0000      -0.330378        -8.9901
  66   2.0000      -0.287626        -7.8267
  67   0.0000       0.025168         0.6849
  68   0.0000       0.077940         2.1208
  69   0.0000       0.115107         3.1322
  70   0.0000       0.128706         3.5023
  71   0.0000       0.135480         3.6866

MULLIKEN ATOMIC CHARGES
-----------------------
   0 S :    0.106190
   1 C :   -0.116976
   2 C :   -0.079102
   3 C :    0.055198
   4 C :   -0.121175
   5 H :   -0.070921
   6 C :    0.165013
   7 H :    0.014393
   8 H :    0.005940
   9 C :   -0.126922
  10 H :    0.031022
  11 H :    0.039125
  12 C :   -0.057374
  13 H :    0.020372
  14 H :    0.037837
  15 H :    0.027906
  16 S :    0.105672
  17 C :   -0.099846
  18 C :   -0.053250
  19 C :   -0.062550
  20 C :   -0.116403
  21 H :    0.041319
  22 C :    0.019632
  23 H :    0.061660
  24 H :    0.053256
  25 C :   -0.082071
  26 H :    0.028769
  27 H :    0.027264
  28 C :   -0.035880
  29 H :    0.040712
  30 H :    0.010092
  31 H :    0.016950
  32 H :    0.039397
  33 H :    0.074752
Sum of atomic charges:   -0.0000000

LOEWDIN ATOMIC CHARGES
----------------------
   0 S :    0.408087
   1 C :   -0.196780
   2 C :   -0.060285
   3 C :   -0.052039
   4 C :   -0.185734
   5 H :    0.005177
   6 C :   -0.020729
   7 H :    0.020490
   8 H :    0.031058
   9 C :   -0.041114
  10 H :    0.024147
  11 H :    0.027439
  12 C :   -0.069121
  13 H :    0.016807
  14 H :    0.025147
  15 H :    0.026865
  16 S :    0.399423
  17 C :   -0.200716
  18 C :   -0.080669
  19 C :   -0.062785
  20 C :   -0.187109
  21 H :    0.042518
  22 C :   -0.028157
  23 H :    0.046721
  24 H :    0.033747
  25 C :   -0.050056
  26 H :    0.020891
  27 H :    0.026241
  28 C :   -0.062260
  29 H :    0.034547
  30 H :    0.016950
  31 H :    0.017301
  32 H :    0.027933
  33 H :    0.046065

  Mayer bond orders larger than 0.100000
B(  0-S ,  1-C ) :   1.1504 B(  0-S ,  4-C ) :   1.1423 B(  1-C ,  2-C ) :   1.5943
B(  1-C , 32-H ) :   0.9706 B(  2-C ,  3-C ) :   1.2560 B(  2-C ,  6-C ) :   1.0139
B(  3-C ,  4-C ) :   1.5615 B(  3-C ,  5-H ) :   1.0135 B(  4-C , 20-C ) :   1.0478
B(  6-C ,  7-H ) :   0.9304 B(  6-C ,  8-H ) :   0.9347 B(  6-C ,  9-C ) :   1.0700
B(  9-C , 10-H ) :   0.9579 B(  9-C , 11-H ) :   0.9561 B(  9-C , 12-C ) :   1.0669
B( 12-C , 13-H ) :   0.9767 B( 12-C , 14-H ) :   0.9784 B( 12-C , 15-H ) :   0.9755
B( 16-S , 17-C ) :   1.1535 B( 16-S , 20-C ) :   1.1221 B( 17-C , 18-C ) :   1.6281
B( 17-C , 33-H ) :   0.9509 B( 18-C , 19-C ) :   1.2518 B( 18-C , 21-H ) :   0.9728
B( 19-C , 20-C ) :   1.6243 B( 19-C , 22-C ) :   1.0091 B( 22-C , 23-H ) :   0.9514
B( 22-C , 24-H ) :   0.9235 B( 22-C , 25-C ) :   1.0817 B( 25-C , 26-H ) :   0.9540
B( 25-C , 27-H ) :   0.9553 B( 25-C , 28-C ) :   1.0787 B( 28-C , 29-H ) :   0.9720
B( 28-C , 30-H ) :   0.9754 B( 28-C , 31-H ) :   0.9725

Dispersion correction           -0.013928933
FINAL SINGLE POINT ENERGY     -1339.859408999453

DIPOLE MOMENT
-------------
                                X             Y             Z
Electronic contribution:     -7.56566      23.59089      13.42814
Nuclear contribution   :      7.91096     -24.20523     -13.69964
                        -----------------------------------------
Total Dipole Moment    :      0.34530      -0.61434      -0.27151
                        -----------------------------------------
Magnitude (a.u.)       :      0.75522
Magnitude (Debye)      :      1.91962

Rotational constants in cm-1:     0.015687     0.009279     0.007056
Rotational constants in MHz :   470.272913   278.171063   211.528647

                             ****ORCA TERMINATED NORMALLY****
TOTAL RUN TIME: 0 days 0 hours 0 minutes 30 seconds 263 msec
