                         Program Version 4.2.1 -  RELEASE  -
|  1> ! wB97X-D3 SP def2-SVP
|  2> %pal
|  3> nprocs 16
|  4> end
|  5>
|  6> * xyz 0 1
|  7> S 	 -66.0177 	 52.0192 	 124.244
|  8> C 	 -65.8097 	 51.9217 	 126.004
|  9> C 	 -67.0726 	 52.0323 	 126.706
| 10> C 	 -68.1249 	 52.1888 	 125.765
| 11> C 	 -67.7924 	 52.195 	 124.416
| 12> H 	 -69.2256 	 52.2271 	 126.048
| 13> C 	 -67.2724 	 51.8242 	 128.187
| 14> H 	 -68.1603 	 52.408 	 128.503
| 15> H 	 -66.4369 	 52.4151 	 128.593
| 16> C 	 -67.2926 	 50.3359 	 128.644
| 17> H 	 -68.3095 	 49.894 	 128.527
| 18> H 	 -66.5323 	 49.8239 	 128.071
| 19> C 	 -66.943 	 49.9922 	 130.095
| 20> H 	 -65.9609 	 50.2223 	 130.437
| 21> H 	 -67.5927 	 50.6801 	 130.697
| 22> H 	 -66.9835 	 48.8903 	 130.297
| 23> S 	 -68.459 	 53.7547 	 122.252
| 24> C 	 -69.7893 	 53.2305 	 121.212
| 25> C 	 -70.1818 	 51.9647 	 121.448
| 26> C 	 -69.4317 	 51.3749 	 122.564
| 27> C 	 -68.5798 	 52.2676 	 123.181
| 28> H 	 -70.9284 	 51.524 	 120.783
| 29> C 	 -69.7546 	 49.8977 	 122.977
| 30> H 	 -70.2765 	 49.3166 	 122.195
| 31> H 	 -70.4627 	 49.906 	 123.849
| 32> C 	 -68.5411 	 49.0348 	 123.37
| 33> H 	 -67.9316 	 49.5154 	 124.129
| 34> H 	 -67.9244 	 48.8608 	 122.507
| 35> C 	 -68.9708 	 47.7338 	 124.032
| 36> H 	 -68.1356 	 47.287 	 124.596
| 37> H 	 -69.4586 	 47.0082 	 123.326
| 38> H 	 -69.865 	 47.7908 	 124.75
| 39> H 	 -64.9373 	 51.7036 	 126.575
| 40> H 	 -70.3385 	 53.8378 	 120.486
| 41> *
| 42>
| 43>                          ****END OF INPUT****

CARTESIAN COORDINATES (ANGSTROEM)
---------------------------------
  S    -66.017700   52.019200  124.244000
  C    -65.809700   51.921700  126.004000
  C    -67.072600   52.032300  126.706000
  C    -68.124900   52.188800  125.765000
  C    -67.792400   52.195000  124.416000
  H    -69.225600   52.227100  126.048000
  C    -67.272400   51.824200  128.187000
  H    -68.160300   52.408000  128.503000
  H    -66.436900   52.415100  128.593000
  C    -67.292600   50.335900  128.644000
  H    -68.309500   49.894000  128.527000
  H    -66.532300   49.823900  128.071000
  C    -66.943000   49.992200  130.095000
  H    -65.960900   50.222300  130.437000
  H    -67.592700   50.680100  130.697000
  H    -66.983500   48.890300  130.297000
  S    -68.459000   53.754700  122.252000
  C    -69.789300   53.230500  121.212000
  C    -70.181800   51.964700  121.448000
  C    -69.431700   51.374900  122.564000
  C    -68.579800   52.267600  123.181000
  H    -70.928400   51.524000  120.783000
  C    -69.754600   49.897700  122.977000
  H    -70.276500   49.316600  122.195000
  H    -70.462700   49.906000  123.849000
  C    -68.541100   49.034800  123.370000
  H    -67.931600   49.515400  124.129000
  H    -67.924400   48.860800  122.507000
  C    -68.970800   47.733800  124.032000
  H    -68.135600   47.287000  124.596000
  H    -69.458600   47.008200  123.326000
  H    -69.865000   47.790800  124.750000
  H    -64.937300   51.703600  126.575000
  H    -70.338500   53.837800  120.486000

 Total Charge           Charge          ....    0
 Multiplicity           Mult            ....    1
 Number of Electrons    NEL             ....  134
 Basis Dimension        Dim             ....  322

ORBITAL ENERGIES
----------------

  NO   OCC          E(Eh)            E(eV)
   0   2.0000     -88.970921     -2421.0219
   1   2.0000     -88.963610     -2420.8229
   2   2.0000     -10.334684      -281.2210
   3   2.0000     -10.329256      -281.0733
   4   2.0000     -10.321881      -280.8727
   5   2.0000     -10.316349      -280.7221
   6   2.0000     -10.312528      -280.6182
   7   2.0000     -10.308016      -280.4954
   8   2.0000     -10.302244      -280.3383
   9   2.0000     -10.300746      -280.2975
  10   2.0000     -10.298437      -280.2347
  11   2.0000     -10.294563      -280.1293
  12   2.0000     -10.293516      -280.1008
  13   2.0000     -10.283361      -279.8245
  14   2.0000     -10.282691      -279.8062
  15   2.0000     -10.277850      -279.6745
  16   2.0000      -8.083902      -219.9741
  17   2.0000      -8.078309      -219.8220
  18   2.0000      -6.042464      -164.4238
  19   2.0000      -6.038548      -164.3172
  20   2.0000      -6.036946      -164.2737
  21   2.0000      -6.034798      -164.2152
  22   2.0000      -6.032960      -164.1652
  23   2.0000      -6.028769      -164.0511
  24   2.0000      -1.000408       -27.2225
  25   2.0000      -0.976234       -26.5647
  26   2.0000      -0.909207       -24.7408
  27   2.0000      -0.901365       -24.5274
  28   2.0000      -0.868055       -23.6210
  29   2.0000      -0.847920       -23.0731
  30   2.0000      -0.842243       -22.9186
  31   2.0000      -0.816327       -22.2134
  32   2.0000      -0.779664       -21.2157
  33   2.0000      -0.764717       -20.8090
  34   2.0000      -0.705830       -19.2066
  35   2.0000      -0.700677       -19.0664
  36   2.0000      -0.687817       -18.7164
  37   2.0000      -0.655234       -17.8298
  38   2.0000      -0.639004       -17.3882
  39   2.0000      -0.613334       -16.6897
  40   2.0000      -0.591150       -16.0860
  41   2.0000      -0.575444       -15.6586
  42   2.0000      -0.561999       -15.2928
  43   2.0000      -0.554125       -15.0785
  44   2.0000      -0.530582       -14.4379
  45   2.0000      -0.521988       -14.2040
  46   2.0000      -0.514729       -14.0065
  47   2.0000      -0.509231       -13.8569
  48   2.0000      -0.502828       -13.6826
  49   2.0000      -0.497245       -13.5307
  50   2.0000      -0.490017       -13.3340
  51   2.0000      -0.482580       -13.1317
  52   2.0000      -0.465688       -12.6720
  53   2.0000      -0.462946       -12.5974
  54   2.0000      -0.454545       -12.3688
  55   2.0000      -0.443039       -12.0557
  56   2.0000      -0.440361       -11.9828
  57   2.0000      -0.433473       -11.7954
  58   2.0000      -0.426989       -11.6190
  59   2.0000      -0.425276       -11.5724
  60   2.0000      -0.416003       -11.3200
  61   2.0000      -0.414612       -11.2822
  62   2.0000      -0.407916       -11.1000
  63   2.0000      -0.341654        -9.2969
  64   2.0000      -0.332353        -9.0438
  65   2.0000      -0.323738        -8.8094
  66   2.0000      -0.300096        -8.1660
  67   0.0000       0.035690         0.9712
  68   0.0000       0.051226         1.3939
  69   0.0000       0.109405         2.9771
  70   0.0000       0.117394         3.1944
  71   0.0000       0.124933         3.3996

MULLIKEN ATOMIC CHARGES
-----------------------
   0 S :    0.116523
   1 C :   -0.100904
   2 C :   -0.137230
   3 C :    0.046367
   4 C :   -0.195261
   5 H :    0.032797
   6 C :    0.055993
   7 H :    0.031800
   8 H :    0.031356
   9 C :   -0.054067
  10 H :    0.045062
  11 H :    0.027723
  12 C :   -0.065502
  13 H :    0.015749
  14 H :    0.032546
  15 H :    0.048654
  16 S :    0.107719
  17 C :   -0.085847
  18 C :   -0.042837
  19 C :    0.008359
  20 C :   -0.173587
  21 H :    0.029079
  22 C :    0.036077
  23 H :    0.025012
  24 H :    0.039084
  25 C :   -0.056643
  26 H :    0.045704
  27 H :    0.035412
  28 C :   -0.093834
  29 H :    0.046339
  30 H :    0.026133
  31 H :    0.025971
  32 H :    0.038200
  33 H :    0.058052
Sum of atomic charges:   -0.0000000

LOEWDIN ATOMIC CHARGES
----------------------
   0 S :    0.394382
   1 C :   -0.191618
   2 C :   -0.063537
   3 C :   -0.066108
   4 C :   -0.189958
   5 H :    0.043144
   6 C :   -0.040355
   7 H :    0.034376
   8 H :    0.036689
   9 C :   -0.041563
  10 H :    0.034052
  11 H :    0.022957
  12 C :   -0.072975
  13 H :    0.014287
  14 H :    0.028944
  15 H :    0.036176
  16 S :    0.390389
  17 C :   -0.175247
  18 C :   -0.075882
  19 C :   -0.045325
  20 C :   -0.208453
  21 H :    0.037925
  22 C :   -0.032916
  23 H :    0.030438
  24 H :    0.035196
  25 C :   -0.044294
  26 H :    0.025753
  27 H :    0.025013
  28 C :   -0.079764
  29 H :    0.029477
  30 H :    0.024031
  31 H :    0.028668
  32 H :    0.021743
  33 H :    0.034359

  Mayer bond orders larger than 0.100000
B(  0-S ,  1-C ) :   1.1553 B(  0-S ,  4-C ) :   1.1412 B(  1-C ,  2-C ) :   1.5739
B(  1-C ,  4-C ) :   0.1182 B(  1-C , 32-H ) :   0.9689 B(  2-C ,  3-C ) :   1.2634
B(  2-C ,  6-C ) :   1.0302 B(  3-C ,  4-C ) :   1.5967 B(  3-C ,  5-H ) :   0.9818
B(  4-C , 20-C ) :   1.0074 B(  6-C ,  7-H ) :   0.9377 B(  6-C ,  8-H ) :   0.9387
B(  6-C ,  9-C ) :   1.0470 B(  9-C , 10-H ) :   0.9558 B(  9-C , 11-H ) :   0.9597
B(  9-C , 12-C ) :   1.0805 B( 12-C , 13-H ) :   0.9759 B( 12-C , 14-H ) :   0.9749
B( 12-C , 15-H ) :   0.9734 B( 16-S , 17-C ) :   1.1317 B( 16-S , 20-C ) :   1.1231
B( 17-C , 18-C ) :   1.6801 B( 17-C , 33-H ) :   0.9594 B( 18-C , 19-C ) :   1.1890
B( 18-C , 21-H ) :   0.9879 B( 19-C , 20-C ) :   1.6458 B( 19-C , 22-C ) :   1.0240
B( 22-C , 23-H ) :   0.9481 B( 22-C , 24-H ) :   0.9394 B( 22-C , 25-C ) :   1.0607
B( 25-C , 26-H ) :   0.9548 B( 25-C , 27-H ) :   0.9552 B( 25-C , 28-C ) :   1.0787
B( 28-C , 29-H ) :   0.9754 B( 28-C , 30-H ) :   0.9718 B( 28-C , 31-H ) :   0.9726

Dispersion correction           -0.014418429
FINAL SINGLE POINT ENERGY     -1339.865710760747

DIPOLE MOMENT
-------------
                                X             Y             Z
Electronic contribution:      4.84718      22.19173     -20.93695
Nuclear contribution   :     -5.20805     -22.63587      21.28763
                        -----------------------------------------
Total Dipole Moment    :     -0.36087      -0.44414       0.35069
                        -----------------------------------------
Magnitude (a.u.)       :      0.67117
Magnitude (Debye)      :      1.70597

Rotational constants in cm-1:     0.020196     0.008233     0.006760
Rotational constants in MHz :   605.469237   246.807330   202.648836

                             ****ORCA TERMINATED NORMALLY****
TOTAL RUN TIME: 0 days 0 hours 0 minutes 34 seconds 73 msec
