                         Program Version 4.2.1 -  RELEASE  -
|  1> ! wB97X-D3 SP def2-SVP
|  2> %pal
|  3> nprocs 16
|  4> end
|  5>
|  6> * xyz 0 1
|  7> S 	 -1.52854 	 26.7221 	 34.3311
|  8> C 	 -3.04809 	 27.1855 	 33.5798
|  9> C 	 -3.70587 	 26.0067 	 33.2506
| 10> C 	 -3.05103 	 24.7849 	 33.3759
| 11> C 	 -1.78187 	 25.0099 	 33.8206
| 12> H 	 -3.36462 	 23.7729 	 33.1363
| 13> C 	 -5.19368 	 26.0887 	 32.9038
| 14> H 	 -5.27253 	 25.7552 	 31.9546
| 15> H 	 -5.41707 	 27.1601 	 32.8063
| 16> C 	 -6.23006 	 25.2415 	 33.7291
| 17> H 	 -5.88695 	 24.1545 	 33.7255
| 18> H 	 -6.06873 	 25.6459 	 34.7508
| 19> C 	 -7.71006 	 25.4256 	 33.3857
| 20> H 	 -7.97009 	 25.018 	 32.3947
| 21> H 	 -8.19695 	 24.9466 	 34.2506
| 22> H 	 -8.0157 	 26.4655 	 33.4571
| 23> S 	 -0.438555 	 23.8988 	 35.8437
| 24> C 	 0.585637 	 22.4694 	 35.6026
| 25> C 	 0.833483 	 22.3105 	 34.2886
| 26> C 	 -0.0409194 	 23.141 	 33.4339
| 27> C 	 -0.761326 	 24.0599 	 34.1538
| 28> H 	 1.61256 	 21.586 	 33.9597
| 29> C 	 0.0919815 	 23.0632 	 31.9428
| 30> H 	 1.15823 	 23.0925 	 31.5967
| 31> H 	 -0.461915 	 23.9601 	 31.6102
| 32> C 	 -0.596814 	 21.8204 	 31.2747
| 33> H 	 -0.484732 	 21.8167 	 30.1764
| 34> H 	 -1.6944 	 21.8958 	 31.4855
| 35> C 	 0.017198 	 20.5124 	 31.7596
| 36> H 	 1.07075 	 20.6127 	 31.4293
| 37> H 	 -0.331722 	 19.6391 	 31.1975
| 38> H 	 -0.0754792 	 20.454 	 32.7761
| 39> H 	 -3.3755 	 28.1926 	 33.4812
| 40> H 	 0.974098 	 21.8574 	 36.4941
| 41> *
| 42>
| 43>                          ****END OF INPUT****

CARTESIAN COORDINATES (ANGSTROEM)
---------------------------------
  S     -1.528540   26.722100   34.331100
  C     -3.048090   27.185500   33.579800
  C     -3.705870   26.006700   33.250600
  C     -3.051030   24.784900   33.375900
  C     -1.781870   25.009900   33.820600
  H     -3.364620   23.772900   33.136300
  C     -5.193680   26.088700   32.903800
  H     -5.272530   25.755200   31.954600
  H     -5.417070   27.160100   32.806300
  C     -6.230060   25.241500   33.729100
  H     -5.886950   24.154500   33.725500
  H     -6.068730   25.645900   34.750800
  C     -7.710060   25.425600   33.385700
  H     -7.970090   25.018000   32.394700
  H     -8.196950   24.946600   34.250600
  H     -8.015700   26.465500   33.457100
  S     -0.438555   23.898800   35.843700
  C      0.585637   22.469400   35.602600
  C      0.833483   22.310500   34.288600
  C     -0.040919   23.141000   33.433900
  C     -0.761326   24.059900   34.153800
  H      1.612560   21.586000   33.959700
  C      0.091981   23.063200   31.942800
  H      1.158230   23.092500   31.596700
  H     -0.461915   23.960100   31.610200
  C     -0.596814   21.820400   31.274700
  H     -0.484732   21.816700   30.176400
  H     -1.694400   21.895800   31.485500
  C      0.017198   20.512400   31.759600
  H      1.070750   20.612700   31.429300
  H     -0.331722   19.639100   31.197500
  H     -0.075479   20.454000   32.776100
  H     -3.375500   28.192600   33.481200
  H      0.974098   21.857400   36.494100

 Total Charge           Charge          ....    0
 Multiplicity           Mult            ....    1
 Number of Electrons    NEL             ....  134
 Basis Dimension        Dim             ....  322

ORBITAL ENERGIES
----------------

  NO   OCC          E(Eh)            E(eV)
   0   2.0000     -88.964104     -2420.8363
   1   2.0000     -88.958738     -2420.6903
   2   2.0000     -10.332191      -281.1532
   3   2.0000     -10.323214      -280.9089
   4   2.0000     -10.322642      -280.8934
   5   2.0000     -10.314337      -280.6674
   6   2.0000     -10.305602      -280.4297
   7   2.0000     -10.299825      -280.2725
   8   2.0000     -10.297966      -280.2219
   9   2.0000     -10.296001      -280.1684
  10   2.0000     -10.295373      -280.1513
  11   2.0000     -10.294213      -280.1198
  12   2.0000     -10.289178      -279.9828
  13   2.0000     -10.283658      -279.8326
  14   2.0000     -10.278253      -279.6855
  15   2.0000     -10.270313      -279.4694
  16   2.0000      -8.078205      -219.8191
  17   2.0000      -8.074229      -219.7109
  18   2.0000      -6.036710      -164.2672
  19   2.0000      -6.032925      -164.1642
  20   2.0000      -6.032874      -164.1628
  21   2.0000      -6.028878      -164.0541
  22   2.0000      -6.028705      -164.0494
  23   2.0000      -6.024684      -163.9400
  24   2.0000      -1.010767       -27.5044
  25   2.0000      -0.985159       -26.8076
  26   2.0000      -0.907339       -24.6899
  27   2.0000      -0.903995       -24.5990
  28   2.0000      -0.875165       -23.8145
  29   2.0000      -0.852394       -23.1948
  30   2.0000      -0.843452       -22.9515
  31   2.0000      -0.824108       -22.4251
  32   2.0000      -0.780099       -21.2276
  33   2.0000      -0.766620       -20.8608
  34   2.0000      -0.710742       -19.3403
  35   2.0000      -0.691699       -18.8221
  36   2.0000      -0.685407       -18.6509
  37   2.0000      -0.660451       -17.9718
  38   2.0000      -0.648582       -17.6488
  39   2.0000      -0.619301       -16.8520
  40   2.0000      -0.588861       -16.0237
  41   2.0000      -0.568090       -15.4585
  42   2.0000      -0.560834       -15.2611
  43   2.0000      -0.553837       -15.0707
  44   2.0000      -0.546238       -14.8639
  45   2.0000      -0.529861       -14.4182
  46   2.0000      -0.523840       -14.2544
  47   2.0000      -0.509429       -13.8623
  48   2.0000      -0.506538       -13.7836
  49   2.0000      -0.504895       -13.7389
  50   2.0000      -0.491679       -13.3793
  51   2.0000      -0.482355       -13.1255
  52   2.0000      -0.474863       -12.9217
  53   2.0000      -0.463277       -12.6064
  54   2.0000      -0.457554       -12.4507
  55   2.0000      -0.445448       -12.1213
  56   2.0000      -0.440215       -11.9789
  57   2.0000      -0.428605       -11.6629
  58   2.0000      -0.427093       -11.6218
  59   2.0000      -0.419295       -11.4096
  60   2.0000      -0.416345       -11.3293
  61   2.0000      -0.413436       -11.2502
  62   2.0000      -0.410768       -11.1776
  63   2.0000      -0.350607        -9.5405
  64   2.0000      -0.331683        -9.0255
  65   2.0000      -0.321989        -8.7618
  66   2.0000      -0.294459        -8.0126
  67   0.0000       0.034759         0.9458
  68   0.0000       0.057876         1.5749
  69   0.0000       0.104613         2.8467
  70   0.0000       0.115629         3.1464
  71   0.0000       0.133430         3.6308

MULLIKEN ATOMIC CHARGES
-----------------------
   0 S :    0.090840
   1 C :   -0.107561
   2 C :   -0.091982
   3 C :    0.050643
   4 C :   -0.168708
   5 H :    0.025065
   6 C :    0.124002
   7 H :   -0.010961
   8 H :    0.000252
   9 C :   -0.128307
  10 H :    0.043544
  11 H :    0.034356
  12 C :   -0.034671
  13 H :    0.045585
  14 H :    0.043527
  15 H :    0.030462
  16 S :    0.089529
  17 C :   -0.131470
  18 C :   -0.031976
  19 C :   -0.045973
  20 C :   -0.141844
  21 H :    0.044358
  22 C :    0.029111
  23 H :    0.045958
  24 H :    0.033724
  25 C :   -0.094807
  26 H :    0.033615
  27 H :    0.028241
  28 C :   -0.028737
  29 H :    0.018349
  30 H :    0.036602
  31 H :    0.031902
  32 H :    0.046668
  33 H :    0.090662
Sum of atomic charges:    0.0000000

LOEWDIN ATOMIC CHARGES
----------------------
   0 S :    0.377744
   1 C :   -0.190467
   2 C :   -0.058915
   3 C :   -0.057516
   4 C :   -0.166267
   5 H :    0.040804
   6 C :   -0.033564
   7 H :    0.008900
   8 H :    0.026412
   9 C :   -0.045537
  10 H :    0.029524
  11 H :    0.026750
  12 C :   -0.065793
  13 H :    0.027633
  14 H :    0.036312
  15 H :    0.026156
  16 S :    0.392550
  17 C :   -0.186590
  18 C :   -0.078308
  19 C :   -0.061406
  20 C :   -0.206564
  21 H :    0.041337
  22 C :   -0.036513
  23 H :    0.036721
  24 H :    0.035078
  25 C :   -0.041343
  26 H :    0.024240
  27 H :    0.020503
  28 C :   -0.061400
  29 H :    0.027284
  30 H :    0.028608
  31 H :    0.009417
  32 H :    0.025519
  33 H :    0.048690

  Mayer bond orders larger than 0.100000
B(  0-S ,  1-C ) :   1.1198 B(  0-S ,  4-C ) :   1.1489 B(  1-C ,  2-C ) :   1.6015
B(  1-C ,  4-C ) :   0.1073 B(  1-C , 32-H ) :   0.9787 B(  2-C ,  3-C ) :   1.2196
B(  2-C ,  6-C ) :   1.0277 B(  3-C ,  4-C ) :   1.5846 B(  3-C ,  5-H ) :   0.9982
B(  4-C , 20-C ) :   1.0133 B(  6-C ,  7-H ) :   0.9211 B(  6-C ,  8-H ) :   0.9407
B(  6-C ,  9-C ) :   1.0477 B(  9-C , 10-H ) :   0.9515 B(  9-C , 11-H ) :   0.9600
B(  9-C , 12-C ) :   1.0828 B( 12-C , 13-H ) :   0.9754 B( 12-C , 14-H ) :   0.9731
B( 12-C , 15-H ) :   0.9732 B( 16-S , 17-C ) :   1.1322 B( 16-S , 20-C ) :   1.1328
B( 17-C , 18-C ) :   1.6495 B( 17-C , 33-H ) :   0.9566 B( 18-C , 19-C ) :   1.1745
B( 18-C , 21-H ) :   0.9788 B( 19-C , 20-C ) :   1.6533 B( 19-C , 22-C ) :   1.0433
B( 22-C , 23-H ) :   0.9464 B( 22-C , 24-H ) :   0.9313 B( 22-C , 25-C ) :   1.0681
B( 25-C , 26-H ) :   0.9594 B( 25-C , 27-H ) :   0.9531 B( 25-C , 28-C ) :   1.0772
B( 28-C , 29-H ) :   0.9715 B( 28-C , 30-H ) :   0.9699 B( 28-C , 31-H ) :   0.9719

Dispersion correction           -0.014065910
FINAL SINGLE POINT ENERGY     -1339.855578035397

DIPOLE MOMENT
-------------
                                X             Y             Z
Electronic contribution:     15.81209      11.48516      15.29595
Nuclear contribution   :    -16.10064     -11.82688     -15.63699
                        -----------------------------------------
Total Dipole Moment    :     -0.28855      -0.34172      -0.34104
                        -----------------------------------------
Magnitude (a.u.)       :      0.56244
Magnitude (Debye)      :      1.42962

Rotational constants in cm-1:     0.019389     0.007838     0.006665
Rotational constants in MHz :   581.279065   234.980850   199.797555

                             ****ORCA TERMINATED NORMALLY****
TOTAL RUN TIME: 0 days 0 hours 0 minutes 32 seconds 644 msec
