                         Program Version 4.2.1 -  RELEASE  -
|  1> ! wB97X-D3 SP def2-SVP
|  2> %pal
|  3> nprocs 16
|  4> end
|  5>
|  6> * xyz 0 1
|  7> S 	 -3.73927 	 -5.91028 	 78.7803
|  8> C 	 -3.92073 	 -7.56286 	 79.3284
|  9> C 	 -5.19735 	 -8.08661 	 79.1982
| 10> C 	 -6.0043 	 -7.12342 	 78.493
| 11> C 	 -5.39308 	 -5.90132 	 78.2057
| 12> H 	 -6.96369 	 -7.20417 	 78.1137
| 13> C 	 -5.60145 	 -9.46363 	 79.5543
| 14> H 	 -5.30202 	 -9.59382 	 80.5588
| 15> H 	 -4.99191 	 -10.1561 	 79.015
| 16> C 	 -7.10666 	 -9.74203 	 79.5061
| 17> H 	 -7.72536 	 -8.9279 	 79.8625
| 18> H 	 -7.46279 	 -9.68546 	 78.4709
| 19> C 	 -7.67799 	 -10.9855 	 80.2393
| 20> H 	 -7.65274 	 -11.8833 	 79.6565
| 21> H 	 -7.06115 	 -11.2037 	 81.0682
| 22> H 	 -8.67587 	 -10.8321 	 80.614
| 23> S 	 -5.34304 	 -3.11703 	 78.0948
| 24> C 	 -6.52094 	 -2.15637 	 77.2222
| 25> C 	 -7.3575 	 -3.00958 	 76.5102
| 26> C 	 -7.08298 	 -4.43364 	 76.6839
| 27> C 	 -6.06931 	 -4.6606 	 77.642
| 28> H 	 -8.18238 	 -2.73887 	 75.7707
| 29> C 	 -7.90179 	 -5.53991 	 75.9821
| 30> H 	 -7.22984 	 -6.4025 	 75.9108
| 31> H 	 -8.02874 	 -5.25991 	 74.9543
| 32> C 	 -9.2275 	 -5.96732 	 76.6622
| 33> H 	 -9.80916 	 -5.05492 	 76.8259
| 34> H 	 -9.04202 	 -6.55441 	 77.54
| 35> C 	 -10.0137 	 -7.06739 	 75.9062
| 36> H 	 -9.30181 	 -7.86856 	 75.9729
| 37> H 	 -10.1299 	 -6.75245 	 74.8563
| 38> H 	 -10.9763 	 -7.25565 	 76.4433
| 39> H 	 -3.06074 	 -7.90803 	 79.8149
| 40> H 	 -6.51611 	 -1.11656 	 77.0055
| 41> *
| 42>
| 43>                          ****END OF INPUT****

CARTESIAN COORDINATES (ANGSTROEM)
---------------------------------
  S     -3.739270   -5.910280   78.780300
  C     -3.920730   -7.562860   79.328400
  C     -5.197350   -8.086610   79.198200
  C     -6.004300   -7.123420   78.493000
  C     -5.393080   -5.901320   78.205700
  H     -6.963690   -7.204170   78.113700
  C     -5.601450   -9.463630   79.554300
  H     -5.302020   -9.593820   80.558800
  H     -4.991910  -10.156100   79.015000
  C     -7.106660   -9.742030   79.506100
  H     -7.725360   -8.927900   79.862500
  H     -7.462790   -9.685460   78.470900
  C     -7.677990  -10.985500   80.239300
  H     -7.652740  -11.883300   79.656500
  H     -7.061150  -11.203700   81.068200
  H     -8.675870  -10.832100   80.614000
  S     -5.343040   -3.117030   78.094800
  C     -6.520940   -2.156370   77.222200
  C     -7.357500   -3.009580   76.510200
  C     -7.082980   -4.433640   76.683900
  C     -6.069310   -4.660600   77.642000
  H     -8.182380   -2.738870   75.770700
  C     -7.901790   -5.539910   75.982100
  H     -7.229840   -6.402500   75.910800
  H     -8.028740   -5.259910   74.954300
  C     -9.227500   -5.967320   76.662200
  H     -9.809160   -5.054920   76.825900
  H     -9.042020   -6.554410   77.540000
  C    -10.013700   -7.067390   75.906200
  H     -9.301810   -7.868560   75.972900
  H    -10.129900   -6.752450   74.856300
  H    -10.976300   -7.255650   76.443300
  H     -3.060740   -7.908030   79.814900
  H     -6.516110   -1.116560   77.005500

 Total Charge           Charge          ....    0
 Multiplicity           Mult            ....    1
 Number of Electrons    NEL             ....  134
 Basis Dimension        Dim             ....  322

ORBITAL ENERGIES
----------------

  NO   OCC          E(Eh)            E(eV)
   0   2.0000     -88.967240     -2420.9217
   1   2.0000     -88.966329     -2420.8969
   2   2.0000     -10.337964      -281.3103
   3   2.0000     -10.335810      -281.2517
   4   2.0000     -10.318927      -280.7923
   5   2.0000     -10.312528      -280.6182
   6   2.0000     -10.309033      -280.5230
   7   2.0000     -10.308621      -280.5118
   8   2.0000     -10.303378      -280.3692
   9   2.0000     -10.295119      -280.1444
  10   2.0000     -10.292785      -280.0809
  11   2.0000     -10.291015      -280.0328
  12   2.0000     -10.289760      -279.9986
  13   2.0000     -10.287617      -279.9403
  14   2.0000     -10.284046      -279.8431
  15   2.0000     -10.275971      -279.6234
  16   2.0000      -8.082069      -219.9243
  17   2.0000      -8.080567      -219.8834
  18   2.0000      -6.040520      -164.3709
  19   2.0000      -6.039264      -164.3367
  20   2.0000      -6.036564      -164.2633
  21   2.0000      -6.035049      -164.2220
  22   2.0000      -6.032910      -164.1638
  23   2.0000      -6.031251      -164.1187
  24   2.0000      -1.001546       -27.2534
  25   2.0000      -0.980926       -26.6924
  26   2.0000      -0.916926       -24.9508
  27   2.0000      -0.908352       -24.7175
  28   2.0000      -0.865796       -23.5595
  29   2.0000      -0.853464       -23.2239
  30   2.0000      -0.845642       -23.0111
  31   2.0000      -0.819397       -22.2969
  32   2.0000      -0.785612       -21.3776
  33   2.0000      -0.773232       -21.0407
  34   2.0000      -0.718713       -19.5572
  35   2.0000      -0.695423       -18.9234
  36   2.0000      -0.689992       -18.7756
  37   2.0000      -0.662128       -18.0174
  38   2.0000      -0.649657       -17.6781
  39   2.0000      -0.621789       -16.9197
  40   2.0000      -0.592760       -16.1298
  41   2.0000      -0.575787       -15.6680
  42   2.0000      -0.568080       -15.4582
  43   2.0000      -0.564849       -15.3703
  44   2.0000      -0.532617       -14.4932
  45   2.0000      -0.529331       -14.4038
  46   2.0000      -0.516754       -14.0616
  47   2.0000      -0.511584       -13.9209
  48   2.0000      -0.507774       -13.8172
  49   2.0000      -0.501322       -13.6417
  50   2.0000      -0.493721       -13.4348
  51   2.0000      -0.479526       -13.0486
  52   2.0000      -0.471621       -12.8335
  53   2.0000      -0.468573       -12.7505
  54   2.0000      -0.460656       -12.5351
  55   2.0000      -0.450361       -12.2549
  56   2.0000      -0.446038       -12.1373
  57   2.0000      -0.442916       -12.0524
  58   2.0000      -0.434840       -11.8326
  59   2.0000      -0.426106       -11.5949
  60   2.0000      -0.423729       -11.5303
  61   2.0000      -0.415711       -11.3121
  62   2.0000      -0.409747       -11.1498
  63   2.0000      -0.353868        -9.6292
  64   2.0000      -0.333910        -9.0862
  65   2.0000      -0.327069        -8.9000
  66   2.0000      -0.286997        -7.8096
  67   0.0000       0.022444         0.6107
  68   0.0000       0.076513         2.0820
  69   0.0000       0.102557         2.7907
  70   0.0000       0.117597         3.2000
  71   0.0000       0.122550         3.3348

MULLIKEN ATOMIC CHARGES
-----------------------
   0 S :    0.100384
   1 C :   -0.130498
   2 C :   -0.058785
   3 C :    0.035448
   4 C :   -0.115637
   5 H :   -0.065801
   6 C :    0.158312
   7 H :    0.011777
   8 H :    0.038731
   9 C :   -0.133412
  10 H :    0.025687
  11 H :    0.023746
  12 C :    0.008265
  13 H :    0.027171
  14 H :    0.011640
  15 H :    0.031964
  16 S :    0.087223
  17 C :   -0.068675
  18 C :   -0.048794
  19 C :   -0.080615
  20 C :   -0.129014
  21 H :    0.040685
  22 C :    0.045446
  23 H :    0.021219
  24 H :    0.016774
  25 C :   -0.069224
  26 H :    0.034507
  27 H :    0.030426
  28 C :   -0.050094
  29 H :    0.023337
  30 H :    0.033883
  31 H :    0.056453
  32 H :    0.031424
  33 H :    0.056048
Sum of atomic charges:    0.0000000

LOEWDIN ATOMIC CHARGES
----------------------
   0 S :    0.404170
   1 C :   -0.181006
   2 C :   -0.051619
   3 C :   -0.059143
   4 C :   -0.189338
   5 H :    0.012147
   6 C :   -0.026893
   7 H :    0.031199
   8 H :    0.036209
   9 C :   -0.048812
  10 H :    0.026969
  11 H :    0.022662
  12 C :   -0.055679
  13 H :    0.022728
  14 H :    0.020134
  15 H :    0.028501
  16 S :    0.398402
  17 C :   -0.191166
  18 C :   -0.076340
  19 C :   -0.063749
  20 C :   -0.183290
  21 H :    0.040742
  22 C :   -0.036349
  23 H :    0.029031
  24 H :    0.026797
  25 C :   -0.038756
  26 H :    0.022082
  27 H :    0.020543
  28 C :   -0.061189
  29 H :    0.021166
  30 H :    0.022300
  31 H :    0.035785
  32 H :    0.011701
  33 H :    0.030062

  Mayer bond orders larger than 0.100000
B(  0-S ,  1-C ) :   1.1558 B(  0-S ,  4-C ) :   1.1520 B(  1-C ,  2-C ) :   1.5779
B(  1-C , 32-H ) :   0.9834 B(  2-C ,  3-C ) :   1.2353 B(  2-C ,  6-C ) :   1.0177
B(  3-C ,  4-C ) :   1.5692 B(  3-C ,  5-H ) :   1.0035 B(  4-C , 20-C ) :   1.0329
B(  6-C ,  7-H ) :   0.9205 B(  6-C ,  8-H ) :   0.9303 B(  6-C ,  9-C ) :   1.0763
B(  9-C , 10-H ) :   0.9591 B(  9-C , 11-H ) :   0.9459 B(  9-C , 12-C ) :   1.0744
B( 12-C , 13-H ) :   0.9747 B( 12-C , 14-H ) :   0.9741 B( 12-C , 15-H ) :   0.9773
B( 16-S , 17-C ) :   1.1459 B( 16-S , 20-C ) :   1.1431 B( 17-C , 18-C ) :   1.5953
B( 17-C , 33-H ) :   0.9716 B( 18-C , 19-C ) :   1.2700 B( 18-C , 21-H ) :   0.9714
B( 19-C , 20-C ) :   1.5764 B( 19-C , 22-C ) :   1.0475 B( 22-C , 23-H ) :   0.9302
B( 22-C , 24-H ) :   0.9316 B( 22-C , 25-C ) :   1.0647 B( 25-C , 26-H ) :   0.9558
B( 25-C , 27-H ) :   0.9579 B( 25-C , 28-C ) :   1.0585 B( 28-C , 29-H ) :   0.9807
B( 28-C , 30-H ) :   0.9772 B( 28-C , 31-H ) :   0.9740

Dispersion correction           -0.013948072
FINAL SINGLE POINT ENERGY     -1339.863084638248

DIPOLE MOMENT
-------------
                                X             Y             Z
Electronic contribution:     23.20160      24.44308       2.44106
Nuclear contribution   :    -23.64192     -24.99435      -2.55713
                        -----------------------------------------
Total Dipole Moment    :     -0.44032      -0.55127      -0.11607
                        -----------------------------------------
Magnitude (a.u.)       :      0.71502
Magnitude (Debye)      :      1.81744

Rotational constants in cm-1:     0.016383     0.009548     0.006335
Rotational constants in MHz :   491.156682   286.247025   189.931015

                             ****ORCA TERMINATED NORMALLY****
TOTAL RUN TIME: 0 days 0 hours 0 minutes 33 seconds 416 msec
