                         Program Version 4.2.1 -  RELEASE  -
|  1> ! wB97X-D3 SP def2-SVP
|  2> %pal
|  3> nprocs 16
|  4> end
|  5>
|  6> * xyz 0 1
|  7> S 	 -98.3179 	 51.6815 	 124.656
|  8> C 	 -97.474 	 52.3034 	 123.241
|  9> C 	 -98.3147 	 52.4972 	 122.172
| 10> C 	 -99.6659 	 52.1248 	 122.508
| 11> C 	 -99.8346 	 51.622 	 123.822
| 12> H 	 -100.505 	 52.202 	 121.86
| 13> C 	 -97.8961 	 53.0086 	 120.844
| 14> H 	 -96.9871 	 53.588 	 121.064
| 15> H 	 -98.6722 	 53.6504 	 120.408
| 16> C 	 -97.3346 	 52.0147 	 119.798
| 17> H 	 -96.4979 	 51.4736 	 120.202
| 18> H 	 -98.0936 	 51.2523 	 119.559
| 19> C 	 -96.9194 	 52.7303 	 118.554
| 20> H 	 -96.7887 	 52.042 	 117.73
| 21> H 	 -97.7214 	 53.3312 	 118.133
| 22> H 	 -95.9457 	 53.2369 	 118.793
| 23> S 	 -101.518 	 51.3992 	 125.947
| 24> C 	 -103.037 	 50.4454 	 125.86
| 25> C 	 -103.118 	 49.8709 	 124.6
| 26> C 	 -102.007 	 50.1796 	 123.684
| 27> C 	 -101.071 	 51.0098 	 124.309
| 28> H 	 -104.018 	 49.35 	 124.346
| 29> C 	 -101.876 	 49.5589 	 122.36
| 30> H 	 -101.107 	 50.1446 	 121.815
| 31> H 	 -102.894 	 49.5944 	 122.007
| 32> C 	 -101.344 	 48.1286 	 122.308
| 33> H 	 -101.242 	 48.0283 	 121.245
| 34> H 	 -102.099 	 47.432 	 122.717
| 35> C 	 -100.066 	 47.9249 	 123.148
| 36> H 	 -99.6876 	 46.9201 	 122.969
| 37> H 	 -100.213 	 48.0977 	 124.181
| 38> H 	 -99.326 	 48.6623 	 122.846
| 39> H 	 -96.4822 	 52.5476 	 123.151
| 40> H 	 -103.776 	 50.3849 	 126.669
| 41> *
| 42>
| 43>                          ****END OF INPUT****

CARTESIAN COORDINATES (ANGSTROEM)
---------------------------------
  S    -98.317900   51.681500  124.656000
  C    -97.474000   52.303400  123.241000
  C    -98.314700   52.497200  122.172000
  C    -99.665900   52.124800  122.508000
  C    -99.834600   51.622000  123.822000
  H    -100.505000   52.202000  121.860000
  C    -97.896100   53.008600  120.844000
  H    -96.987100   53.588000  121.064000
  H    -98.672200   53.650400  120.408000
  C    -97.334600   52.014700  119.798000
  H    -96.497900   51.473600  120.202000
  H    -98.093600   51.252300  119.559000
  C    -96.919400   52.730300  118.554000
  H    -96.788700   52.042000  117.730000
  H    -97.721400   53.331200  118.133000
  H    -95.945700   53.236900  118.793000
  S    -101.518000   51.399200  125.947000
  C    -103.037000   50.445400  125.860000
  C    -103.118000   49.870900  124.600000
  C    -102.007000   50.179600  123.684000
  C    -101.071000   51.009800  124.309000
  H    -104.018000   49.350000  124.346000
  C    -101.876000   49.558900  122.360000
  H    -101.107000   50.144600  121.815000
  H    -102.894000   49.594400  122.007000
  C    -101.344000   48.128600  122.308000
  H    -101.242000   48.028300  121.245000
  H    -102.099000   47.432000  122.717000
  C    -100.066000   47.924900  123.148000
  H    -99.687600   46.920100  122.969000
  H    -100.213000   48.097700  124.181000
  H    -99.326000   48.662300  122.846000
  H    -96.482200   52.547600  123.151000
  H    -103.776000   50.384900  126.669000

 Total Charge           Charge          ....    0
 Multiplicity           Mult            ....    1
 Number of Electrons    NEL             ....  134
 Basis Dimension        Dim             ....  322

ORBITAL ENERGIES
----------------

  NO   OCC          E(Eh)            E(eV)
   0   2.0000     -88.971046     -2421.0253
   1   2.0000     -88.962329     -2420.7880
   2   2.0000     -10.333196      -281.1806
   3   2.0000     -10.329424      -281.0779
   4   2.0000     -10.325328      -280.9665
   5   2.0000     -10.308656      -280.5128
   6   2.0000     -10.304861      -280.4095
   7   2.0000     -10.299902      -280.2746
   8   2.0000     -10.299172      -280.2547
   9   2.0000     -10.294032      -280.1149
  10   2.0000     -10.293488      -280.1000
  11   2.0000     -10.285912      -279.8939
  12   2.0000     -10.285303      -279.8773
  13   2.0000     -10.283236      -279.8211
  14   2.0000     -10.280551      -279.7480
  15   2.0000     -10.267490      -279.3926
  16   2.0000      -8.085429      -220.0157
  17   2.0000      -8.076757      -219.7797
  18   2.0000      -6.044082      -164.4678
  19   2.0000      -6.039871      -164.3532
  20   2.0000      -6.036164      -164.2524
  21   2.0000      -6.035398      -164.2315
  22   2.0000      -6.031217      -164.1178
  23   2.0000      -6.027485      -164.0162
  24   2.0000      -1.004189       -27.3254
  25   2.0000      -0.980250       -26.6740
  26   2.0000      -0.918804       -25.0019
  27   2.0000      -0.913180       -24.8489
  28   2.0000      -0.873322       -23.7643
  29   2.0000      -0.851941       -23.1825
  30   2.0000      -0.842325       -22.9208
  31   2.0000      -0.814810       -22.1721
  32   2.0000      -0.782415       -21.2906
  33   2.0000      -0.774440       -21.0736
  34   2.0000      -0.710091       -19.3226
  35   2.0000      -0.701161       -19.0796
  36   2.0000      -0.692041       -18.8314
  37   2.0000      -0.662888       -18.0381
  38   2.0000      -0.642600       -17.4860
  39   2.0000      -0.619383       -16.8543
  40   2.0000      -0.592581       -16.1249
  41   2.0000      -0.579386       -15.7659
  42   2.0000      -0.568740       -15.4762
  43   2.0000      -0.556612       -15.1462
  44   2.0000      -0.545602       -14.8466
  45   2.0000      -0.524594       -14.2749
  46   2.0000      -0.518154       -14.0997
  47   2.0000      -0.512380       -13.9426
  48   2.0000      -0.509341       -13.8599
  49   2.0000      -0.501501       -13.6465
  50   2.0000      -0.490770       -13.3545
  51   2.0000      -0.480971       -13.0879
  52   2.0000      -0.469614       -12.7788
  53   2.0000      -0.463414       -12.6101
  54   2.0000      -0.457899       -12.4601
  55   2.0000      -0.450922       -12.2702
  56   2.0000      -0.443092       -12.0571
  57   2.0000      -0.433167       -11.7871
  58   2.0000      -0.430848       -11.7240
  59   2.0000      -0.428763       -11.6672
  60   2.0000      -0.419123       -11.4049
  61   2.0000      -0.416137       -11.3237
  62   2.0000      -0.414166       -11.2700
  63   2.0000      -0.350854        -9.5472
  64   2.0000      -0.330757        -9.0004
  65   2.0000      -0.325234        -8.8501
  66   2.0000      -0.288337        -7.8460
  67   0.0000       0.025207         0.6859
  68   0.0000       0.074398         2.0245
  69   0.0000       0.105426         2.8688
  70   0.0000       0.117188         3.1888
  71   0.0000       0.127372         3.4660

MULLIKEN ATOMIC CHARGES
-----------------------
   0 S :    0.126151
   1 C :   -0.083980
   2 C :   -0.069111
   3 C :    0.017340
   4 C :   -0.134534
   5 H :    0.008240
   6 C :    0.044116
   7 H :    0.014658
   8 H :    0.032375
   9 C :   -0.064613
  10 H :    0.021985
  11 H :    0.022357
  12 C :   -0.035983
  13 H :    0.026027
  14 H :    0.027835
  15 H :    0.045086
  16 S :    0.083137
  17 C :   -0.101179
  18 C :   -0.030588
  19 C :   -0.060020
  20 C :   -0.155970
  21 H :    0.015683
  22 C :    0.060523
  23 H :    0.018969
  24 H :    0.025700
  25 C :   -0.057922
  26 H :    0.032022
  27 H :    0.027050
  28 C :   -0.038280
  29 H :    0.036108
  30 H :    0.043008
  31 H :    0.027984
  32 H :    0.005332
  33 H :    0.070494
Sum of atomic charges:   -0.0000000

LOEWDIN ATOMIC CHARGES
----------------------
   0 S :    0.417025
   1 C :   -0.184959
   2 C :   -0.060525
   3 C :   -0.061710
   4 C :   -0.203559
   5 H :    0.023008
   6 C :   -0.035192
   7 H :    0.033659
   8 H :    0.033021
   9 C :   -0.039804
  10 H :    0.021522
  11 H :    0.020250
  12 C :   -0.067796
  13 H :    0.026747
  14 H :    0.026158
  15 H :    0.033766
  16 S :    0.382458
  17 C :   -0.173418
  18 C :   -0.067519
  19 C :   -0.056598
  20 C :   -0.199240
  21 H :    0.027482
  22 C :   -0.041094
  23 H :    0.034394
  24 H :    0.033639
  25 C :   -0.032917
  26 H :    0.023759
  27 H :    0.022348
  28 C :   -0.059446
  29 H :    0.027230
  30 H :    0.024296
  31 H :    0.025755
  32 H :    0.011171
  33 H :    0.036090

  Mayer bond orders larger than 0.100000
B(  0-S ,  1-C ) :   1.1296 B(  0-S ,  4-C ) :   1.1593 B(  1-C ,  2-C ) :   1.6077
B(  1-C , 32-H ) :   0.9731 B(  2-C ,  3-C ) :   1.2477 B(  2-C ,  6-C ) :   1.0343
B(  3-C ,  4-C ) :   1.5433 B(  3-C ,  5-H ) :   0.9950 B(  4-C , 20-C ) :   1.0418
B(  6-C ,  7-H ) :   0.9341 B(  6-C ,  8-H ) :   0.9424 B(  6-C ,  9-C ) :   1.0616
B(  9-C , 10-H ) :   0.9540 B(  9-C , 11-H ) :   0.9529 B(  9-C , 12-C ) :   1.0932
B( 12-C , 13-H ) :   0.9693 B( 12-C , 14-H ) :   0.9703 B( 12-C , 15-H ) :   0.9738
B( 16-S , 17-C ) :   1.1318 B( 16-S , 20-C ) :   1.1373 B( 17-C , 18-C ) :   1.6277
B( 17-C , 33-H ) :   0.9690 B( 18-C , 19-C ) :   1.2044 B( 18-C , 21-H ) :   0.9893
B( 19-C , 20-C ) :   1.5873 B( 19-C , 22-C ) :   1.0585 B( 22-C , 23-H ) :   0.9264
B( 22-C , 24-H ) :   0.9188 B( 22-C , 25-C ) :   1.0792 B( 25-C , 26-H ) :   0.9594
B( 25-C , 27-H ) :   0.9517 B( 25-C , 28-C ) :   1.0777 B( 28-C , 29-H ) :   0.9740
B( 28-C , 30-H ) :   0.9693 B( 28-C , 31-H ) :   0.9754

Dispersion correction           -0.015112297
FINAL SINGLE POINT ENERGY     -1339.880547709963

DIPOLE MOMENT
-------------
                                X             Y             Z
Electronic contribution:     -6.62423       6.97357      26.62328
Nuclear contribution   :      6.52240      -7.16715     -27.33862
                        -----------------------------------------
Total Dipole Moment    :     -0.10182      -0.19358      -0.71534
                        -----------------------------------------
Magnitude (a.u.)       :      0.74803
Magnitude (Debye)      :      1.90134

Rotational constants in cm-1:     0.021939     0.008303     0.006953
Rotational constants in MHz :   657.699935   248.924992   208.455436

                             ****ORCA TERMINATED NORMALLY****
TOTAL RUN TIME: 0 days 0 hours 0 minutes 35 seconds 576 msec
