                         Program Version 4.2.1 -  RELEASE  -
|  1> ! wB97X-D3 SP def2-SVP
|  2> %pal
|  3> nprocs 16
|  4> end
|  5>
|  6> * xyz 0 1
|  7> S 	 31.5794 	 -6.52106 	 79.0665
|  8> C 	 32.9649 	 -5.43448 	 78.8685
|  9> C 	 32.544 	 -4.06746 	 78.7488
| 10> C 	 31.1609 	 -3.93242 	 78.9666
| 11> C 	 30.4468 	 -5.18141 	 78.9626
| 12> H 	 30.5955 	 -3.05803 	 78.9538
| 13> C 	 33.4814 	 -2.91122 	 78.5564
| 14> H 	 32.9583 	 -2.11278 	 77.9733
| 15> H 	 34.3724 	 -3.20934 	 78.0269
| 16> C 	 34.078 	 -2.37119 	 79.9101
| 17> H 	 34.5489 	 -3.20857 	 80.3991
| 18> H 	 34.8729 	 -1.66204 	 79.7267
| 19> C 	 33.046 	 -1.66703 	 80.7948
| 20> H 	 33.6851 	 -1.24969 	 81.6241
| 21> H 	 32.5916 	 -0.874459 	 80.3133
| 22> H 	 32.2665 	 -2.32708 	 81.2406
| 23> S 	 28.4481 	 -6.58468 	 77.7403
| 24> C 	 26.7746 	 -6.32893 	 78.0917
| 25> C 	 26.6776 	 -5.47442 	 79.1648
| 26> C 	 27.9118 	 -4.8783 	 79.6596
| 27> C 	 28.9889 	 -5.38844 	 78.9567
| 28> H 	 25.6611 	 -5.24133 	 79.6068
| 29> C 	 27.9837 	 -3.94484 	 80.7774
| 30> H 	 27.2756 	 -3.1577 	 80.6657
| 31> H 	 28.9097 	 -3.49031 	 80.7263
| 32> C 	 27.9621 	 -4.67187 	 82.2211
| 33> H 	 28.3162 	 -3.88883 	 82.9816
| 34> H 	 28.7075 	 -5.51759 	 82.2817
| 35> C 	 26.5304 	 -5.18403 	 82.5099
| 36> H 	 26.443 	 -6.12828 	 81.9802
| 37> H 	 25.8005 	 -4.3964 	 82.1845
| 38> H 	 26.4184 	 -5.36168 	 83.5304
| 39> H 	 34.015 	 -5.6347 	 78.8902
| 40> H 	 25.9242 	 -6.78645 	 77.6128
| 41> *
| 42>
| 43>                          ****END OF INPUT****

CARTESIAN COORDINATES (ANGSTROEM)
---------------------------------
  S     31.579400   -6.521060   79.066500
  C     32.964900   -5.434480   78.868500
  C     32.544000   -4.067460   78.748800
  C     31.160900   -3.932420   78.966600
  C     30.446800   -5.181410   78.962600
  H     30.595500   -3.058030   78.953800
  C     33.481400   -2.911220   78.556400
  H     32.958300   -2.112780   77.973300
  H     34.372400   -3.209340   78.026900
  C     34.078000   -2.371190   79.910100
  H     34.548900   -3.208570   80.399100
  H     34.872900   -1.662040   79.726700
  C     33.046000   -1.667030   80.794800
  H     33.685100   -1.249690   81.624100
  H     32.591600   -0.874459   80.313300
  H     32.266500   -2.327080   81.240600
  S     28.448100   -6.584680   77.740300
  C     26.774600   -6.328930   78.091700
  C     26.677600   -5.474420   79.164800
  C     27.911800   -4.878300   79.659600
  C     28.988900   -5.388440   78.956700
  H     25.661100   -5.241330   79.606800
  C     27.983700   -3.944840   80.777400
  H     27.275600   -3.157700   80.665700
  H     28.909700   -3.490310   80.726300
  C     27.962100   -4.671870   82.221100
  H     28.316200   -3.888830   82.981600
  H     28.707500   -5.517590   82.281700
  C     26.530400   -5.184030   82.509900
  H     26.443000   -6.128280   81.980200
  H     25.800500   -4.396400   82.184500
  H     26.418400   -5.361680   83.530400
  H     34.015000   -5.634700   78.890200
  H     25.924200   -6.786450   77.612800

 Total Charge           Charge          ....    0
 Multiplicity           Mult            ....    1
 Number of Electrons    NEL             ....  134
 Basis Dimension        Dim             ....  322

ORBITAL ENERGIES
----------------

  NO   OCC          E(Eh)            E(eV)
   0   2.0000     -88.974694     -2421.1245
   1   2.0000     -88.961052     -2420.7533
   2   2.0000     -10.337146      -281.2881
   3   2.0000     -10.330882      -281.1176
   4   2.0000     -10.317207      -280.7455
   5   2.0000     -10.315892      -280.7097
   6   2.0000     -10.304506      -280.3999
   7   2.0000     -10.303838      -280.3817
   8   2.0000     -10.300474      -280.2902
   9   2.0000     -10.297412      -280.2068
  10   2.0000     -10.294388      -280.1245
  11   2.0000     -10.294335      -280.1231
  12   2.0000     -10.287208      -279.9292
  13   2.0000     -10.284128      -279.8453
  14   2.0000     -10.276495      -279.6377
  15   2.0000     -10.275220      -279.6029
  16   2.0000      -8.087961      -220.0846
  17   2.0000      -8.075865      -219.7555
  18   2.0000      -6.046493      -164.5335
  19   2.0000      -6.042509      -164.4250
  20   2.0000      -6.038953      -164.3283
  21   2.0000      -6.034534      -164.2080
  22   2.0000      -6.030284      -164.0924
  23   2.0000      -6.026506      -163.9896
  24   2.0000      -1.001016       -27.2390
  25   2.0000      -0.978240       -26.6193
  26   2.0000      -0.909947       -24.7609
  27   2.0000      -0.907748       -24.7011
  28   2.0000      -0.863788       -23.5049
  29   2.0000      -0.850495       -23.1431
  30   2.0000      -0.841749       -22.9052
  31   2.0000      -0.811452       -22.0807
  32   2.0000      -0.785191       -21.3661
  33   2.0000      -0.771449       -20.9922
  34   2.0000      -0.704911       -19.1816
  35   2.0000      -0.702321       -19.1111
  36   2.0000      -0.690286       -18.7836
  37   2.0000      -0.659458       -17.9448
  38   2.0000      -0.639093       -17.3906
  39   2.0000      -0.614985       -16.7346
  40   2.0000      -0.595770       -16.2117
  41   2.0000      -0.571532       -15.5522
  42   2.0000      -0.553226       -15.0541
  43   2.0000      -0.543801       -14.7976
  44   2.0000      -0.539941       -14.6925
  45   2.0000      -0.537030       -14.6133
  46   2.0000      -0.520782       -14.1712
  47   2.0000      -0.515705       -14.0331
  48   2.0000      -0.505245       -13.7484
  49   2.0000      -0.495777       -13.4908
  50   2.0000      -0.486309       -13.2331
  51   2.0000      -0.480592       -13.0776
  52   2.0000      -0.474134       -12.9018
  53   2.0000      -0.466971       -12.7069
  54   2.0000      -0.459806       -12.5120
  55   2.0000      -0.445649       -12.1267
  56   2.0000      -0.439564       -11.9611
  57   2.0000      -0.436084       -11.8664
  58   2.0000      -0.430178       -11.7057
  59   2.0000      -0.424959       -11.5637
  60   2.0000      -0.422616       -11.5000
  61   2.0000      -0.416572       -11.3355
  62   2.0000      -0.414343       -11.2748
  63   2.0000      -0.345247        -9.3947
  64   2.0000      -0.332771        -9.0552
  65   2.0000      -0.325147        -8.8477
  66   2.0000      -0.284273        -7.7355
  67   0.0000       0.025127         0.6837
  68   0.0000       0.065306         1.7771
  69   0.0000       0.113882         3.0989
  70   0.0000       0.116272         3.1639
  71   0.0000       0.124547         3.3891

MULLIKEN ATOMIC CHARGES
-----------------------
   0 S :    0.134190
   1 C :   -0.103308
   2 C :   -0.096111
   3 C :    0.059424
   4 C :   -0.169469
   5 H :   -0.006836
   6 C :    0.048992
   7 H :    0.038247
   8 H :    0.021710
   9 C :   -0.064980
  10 H :    0.020354
  11 H :    0.027775
  12 C :   -0.053316
  13 H :    0.036141
  14 H :    0.015966
  15 H :    0.051441
  16 S :    0.090827
  17 C :   -0.074590
  18 C :   -0.070433
  19 C :   -0.045221
  20 C :   -0.164070
  21 H :    0.034013
  22 C :    0.126699
  23 H :    0.025131
  24 H :   -0.017177
  25 C :   -0.131555
  26 H :    0.042932
  27 H :    0.048648
  28 C :   -0.030134
  29 H :    0.048431
  30 H :    0.037021
  31 H :    0.024176
  32 H :    0.037431
  33 H :    0.057651
Sum of atomic charges:   -0.0000000

LOEWDIN ATOMIC CHARGES
----------------------
   0 S :    0.415673
   1 C :   -0.202723
   2 C :   -0.056074
   3 C :   -0.057820
   4 C :   -0.195736
   5 H :    0.018462
   6 C :   -0.034986
   7 H :    0.034466
   8 H :    0.029647
   9 C :   -0.033150
  10 H :    0.021226
  11 H :    0.022022
  12 C :   -0.065981
  13 H :    0.034774
  14 H :    0.011324
  15 H :    0.030408
  16 S :    0.392667
  17 C :   -0.193498
  18 C :   -0.080217
  19 C :   -0.057814
  20 C :   -0.183931
  21 H :    0.036373
  22 C :   -0.028068
  23 H :    0.028880
  24 H :    0.020374
  25 C :   -0.032684
  26 H :    0.026999
  27 H :    0.031644
  28 C :   -0.065991
  29 H :    0.030234
  30 H :    0.029211
  31 H :    0.016543
  32 H :    0.024010
  33 H :    0.033738

  Mayer bond orders larger than 0.100000
B(  0-S ,  1-C ) :   1.1457 B(  0-S ,  4-C ) :   1.1736 B(  1-C ,  2-C ) :   1.5554
B(  1-C ,  4-C ) :   0.1220 B(  1-C , 32-H ) :   0.9681 B(  2-C ,  3-C ) :   1.2899
B(  2-C ,  6-C ) :   1.0393 B(  3-C ,  4-C ) :   1.5151 B(  3-C ,  5-H ) :   0.9937
B(  4-C , 20-C ) :   1.0391 B(  6-C ,  7-H ) :   0.9454 B(  6-C ,  8-H ) :   0.9360
B(  6-C ,  9-C ) :   1.0673 B(  9-C , 10-H ) :   0.9535 B(  9-C , 11-H ) :   0.9582
B(  9-C , 12-C ) :   1.0812 B( 12-C , 13-H ) :   0.9730 B( 12-C , 14-H ) :   0.9761
B( 12-C , 15-H ) :   0.9733 B( 16-S , 17-C ) :   1.1415 B( 16-S , 20-C ) :   1.1338
B( 17-C , 18-C ) :   1.6242 B( 17-C , 33-H ) :   0.9691 B( 18-C , 19-C ) :   1.2149
B( 18-C , 21-H ) :   0.9745 B( 19-C , 20-C ) :   1.5996 B( 19-C , 22-C ) :   1.0680
B( 22-C , 23-H ) :   0.9308 B( 22-C , 24-H ) :   0.9109 B( 22-C , 25-C ) :   1.0566
B( 25-C , 26-H ) :   0.9606 B( 25-C , 27-H ) :   0.9583 B( 25-C , 28-C ) :   1.0686
B( 28-C , 29-H ) :   0.9717 B( 28-C , 30-H ) :   0.9752 B( 28-C , 31-H ) :   0.9727

Dispersion correction           -0.014814140
FINAL SINGLE POINT ENERGY     -1339.869435037123

DIPOLE MOMENT
-------------
                                X             Y             Z
Electronic contribution:     -2.39984     -19.06473     -17.26080
Nuclear contribution   :      2.42185      19.62297      17.63713
                        -----------------------------------------
Total Dipole Moment    :      0.02201       0.55824       0.37633
                        -----------------------------------------
Magnitude (a.u.)       :      0.67360
Magnitude (Debye)      :      1.71215

Rotational constants in cm-1:     0.019947     0.008620     0.006849
Rotational constants in MHz :   598.003692   258.425850   205.338625

                             ****ORCA TERMINATED NORMALLY****
TOTAL RUN TIME: 0 days 0 hours 0 minutes 30 seconds 952 msec
