                         Program Version 4.2.1 -  RELEASE  -
|  1> ! wB97X-D3 SP def2-SVP
|  2> %pal
|  3> nprocs 16
|  4> end
|  5>
|  6> * xyz 0 1
|  7> S 	 39.4293 	 8.06584 	 88.7963
|  8> C 	 40.4969 	 6.66832 	 89.1676
|  9> C 	 40.1505 	 5.55569 	 88.4108
| 10> C 	 39.1443 	 5.83329 	 87.4654
| 11> C 	 38.5563 	 7.08566 	 87.6271
| 12> H 	 38.7323 	 5.18618 	 86.7361
| 13> C 	 40.7311 	 4.16285 	 88.6829
| 14> H 	 41.797 	 4.23001 	 88.6225
| 15> H 	 40.348 	 3.50399 	 87.8468
| 16> C 	 40.3163 	 3.50176 	 90.0307
| 17> H 	 40.5147 	 2.4682 	 90.13
| 18> H 	 40.8111 	 4.16871 	 90.7419
| 19> C 	 38.8323 	 3.61472 	 90.3813
| 20> H 	 38.2009 	 2.91561 	 89.8964
| 21> H 	 38.6647 	 3.33604 	 91.4207
| 22> H 	 38.4328 	 4.65797 	 90.2764
| 23> S 	 36.3115 	 8.59837 	 87.9913
| 24> C 	 35.416 	 9.03592 	 86.541
| 25> C 	 35.8861 	 8.46717 	 85.3998
| 26> C 	 37.1032 	 7.71648 	 85.5825
| 27> C 	 37.4474 	 7.67445 	 86.888
| 28> H 	 35.396 	 8.71662 	 84.4872
| 29> C 	 37.855 	 7.07924 	 84.4623
| 30> H 	 37.2453 	 7.07753 	 83.5759
| 31> H 	 37.9467 	 6.01934 	 84.4916
| 32> C 	 39.092 	 7.80457 	 83.8685
| 33> H 	 39.0382 	 8.89403 	 83.927
| 34> H 	 39.1453 	 7.46903 	 82.7634
| 35> C 	 40.3676 	 7.50796 	 84.677
| 36> H 	 40.3956 	 6.42325 	 84.8514
| 37> H 	 40.4512 	 7.96964 	 85.6919
| 38> H 	 41.2685 	 7.84437 	 84.1196
| 39> H 	 41.2726 	 6.60204 	 89.8475
| 40> H 	 34.5936 	 9.62771 	 86.5249
| 41> *
| 42>
| 43>                          ****END OF INPUT****

CARTESIAN COORDINATES (ANGSTROEM)
---------------------------------
  S     39.429300    8.065840   88.796300
  C     40.496900    6.668320   89.167600
  C     40.150500    5.555690   88.410800
  C     39.144300    5.833290   87.465400
  C     38.556300    7.085660   87.627100
  H     38.732300    5.186180   86.736100
  C     40.731100    4.162850   88.682900
  H     41.797000    4.230010   88.622500
  H     40.348000    3.503990   87.846800
  C     40.316300    3.501760   90.030700
  H     40.514700    2.468200   90.130000
  H     40.811100    4.168710   90.741900
  C     38.832300    3.614720   90.381300
  H     38.200900    2.915610   89.896400
  H     38.664700    3.336040   91.420700
  H     38.432800    4.657970   90.276400
  S     36.311500    8.598370   87.991300
  C     35.416000    9.035920   86.541000
  C     35.886100    8.467170   85.399800
  C     37.103200    7.716480   85.582500
  C     37.447400    7.674450   86.888000
  H     35.396000    8.716620   84.487200
  C     37.855000    7.079240   84.462300
  H     37.245300    7.077530   83.575900
  H     37.946700    6.019340   84.491600
  C     39.092000    7.804570   83.868500
  H     39.038200    8.894030   83.927000
  H     39.145300    7.469030   82.763400
  C     40.367600    7.507960   84.677000
  H     40.395600    6.423250   84.851400
  H     40.451200    7.969640   85.691900
  H     41.268500    7.844370   84.119600
  H     41.272600    6.602040   89.847500
  H     34.593600    9.627710   86.524900

 Total Charge           Charge          ....    0
 Multiplicity           Mult            ....    1
 Number of Electrons    NEL             ....  134
 Basis Dimension        Dim             ....  322

ORBITAL ENERGIES
----------------

  NO   OCC          E(Eh)            E(eV)
   0   2.0000     -88.971614     -2421.0407
   1   2.0000     -88.965077     -2420.8628
   2   2.0000     -10.330778      -281.1148
   3   2.0000     -10.329265      -281.0736
   4   2.0000     -10.311206      -280.5822
   5   2.0000     -10.308555      -280.5100
   6   2.0000     -10.304954      -280.4120
   7   2.0000     -10.302123      -280.3350
   8   2.0000     -10.296281      -280.1760
   9   2.0000     -10.294509      -280.1278
  10   2.0000     -10.291588      -280.0484
  11   2.0000     -10.291410      -280.0435
  12   2.0000     -10.288560      -279.9659
  13   2.0000     -10.285566      -279.8845
  14   2.0000     -10.272674      -279.5337
  15   2.0000     -10.269125      -279.4371
  16   2.0000      -8.084722      -219.9965
  17   2.0000      -8.078812      -219.8356
  18   2.0000      -6.043277      -164.4459
  19   2.0000      -6.039419      -164.3410
  20   2.0000      -6.037361      -164.2849
  21   2.0000      -6.035551      -164.2357
  22   2.0000      -6.033722      -164.1859
  23   2.0000      -6.029322      -164.0662
  24   2.0000      -1.003692       -27.3118
  25   2.0000      -0.979890       -26.6642
  26   2.0000      -0.909133       -24.7388
  27   2.0000      -0.908012       -24.7083
  28   2.0000      -0.867155       -23.5965
  29   2.0000      -0.850224       -23.1358
  30   2.0000      -0.842896       -22.9364
  31   2.0000      -0.815540       -22.1920
  32   2.0000      -0.786017       -21.3886
  33   2.0000      -0.776150       -21.1201
  34   2.0000      -0.709143       -19.2968
  35   2.0000      -0.699596       -19.0370
  36   2.0000      -0.689360       -18.7584
  37   2.0000      -0.666682       -18.1413
  38   2.0000      -0.641062       -17.4442
  39   2.0000      -0.616168       -16.7668
  40   2.0000      -0.604263       -16.4428
  41   2.0000      -0.576959       -15.6999
  42   2.0000      -0.553667       -15.0660
  43   2.0000      -0.548511       -14.9258
  44   2.0000      -0.542315       -14.7571
  45   2.0000      -0.529163       -14.3993
  46   2.0000      -0.519710       -14.1420
  47   2.0000      -0.506100       -13.7717
  48   2.0000      -0.502157       -13.6644
  49   2.0000      -0.498004       -13.5514
  50   2.0000      -0.487296       -13.2600
  51   2.0000      -0.481095       -13.0913
  52   2.0000      -0.472305       -12.8521
  53   2.0000      -0.463105       -12.6017
  54   2.0000      -0.456551       -12.4234
  55   2.0000      -0.448509       -12.2045
  56   2.0000      -0.444989       -12.1088
  57   2.0000      -0.433809       -11.8046
  58   2.0000      -0.431210       -11.7338
  59   2.0000      -0.420139       -11.4326
  60   2.0000      -0.417411       -11.3583
  61   2.0000      -0.406536       -11.0624
  62   2.0000      -0.402957       -10.9650
  63   2.0000      -0.349033        -9.4977
  64   2.0000      -0.336536        -9.1576
  65   2.0000      -0.333170        -9.0660
  66   2.0000      -0.288669        -7.8551
  67   0.0000       0.024212         0.6588
  68   0.0000       0.066654         1.8138
  69   0.0000       0.098119         2.6699
  70   0.0000       0.115480         3.1424
  71   0.0000       0.132532         3.6064

MULLIKEN ATOMIC CHARGES
-----------------------
   0 S :    0.112226
   1 C :   -0.087842
   2 C :   -0.109242
   3 C :    0.045740
   4 C :   -0.151256
   5 H :   -0.007837
   6 C :    0.074830
   7 H :    0.035000
   8 H :    0.023992
   9 C :   -0.044642
  10 H :    0.033327
  11 H :    0.022936
  12 C :   -0.070365
  13 H :    0.017653
  14 H :    0.022412
  15 H :    0.055569
  16 S :    0.084342
  17 C :   -0.032382
  18 C :   -0.021934
  19 C :    0.000524
  20 C :   -0.156594
  21 H :    0.007246
  22 C :    0.067069
  23 H :   -0.005464
  24 H :    0.022478
  25 C :   -0.085648
  26 H :    0.037043
  27 H :    0.044782
  28 C :   -0.065606
  29 H :    0.020889
  30 H :    0.053327
  31 H :    0.034581
  32 H :    0.012718
  33 H :    0.010126
Sum of atomic charges:    0.0000000

LOEWDIN ATOMIC CHARGES
----------------------
   0 S :    0.391513
   1 C :   -0.180170
   2 C :   -0.057348
   3 C :   -0.058743
   4 C :   -0.186986
   5 H :    0.024441
   6 C :   -0.029541
   7 H :    0.028005
   8 H :    0.031393
   9 C :   -0.033924
  10 H :    0.023437
  11 H :    0.024390
  12 C :   -0.070150
  13 H :    0.015272
  14 H :    0.026087
  15 H :    0.034187
  16 S :    0.357256
  17 C :   -0.156923
  18 C :   -0.059818
  19 C :   -0.054241
  20 C :   -0.159880
  21 H :    0.028910
  22 C :   -0.041722
  23 H :    0.033345
  24 H :    0.028420
  25 C :   -0.036593
  26 H :    0.027953
  27 H :    0.034171
  28 C :   -0.077483
  29 H :    0.018440
  30 H :    0.031903
  31 H :    0.025655
  32 H :    0.011483
  33 H :    0.007260

  Mayer bond orders larger than 0.100000
B(  0-S ,  1-C ) :   1.1159 B(  0-S ,  4-C ) :   1.1461 B(  1-C ,  2-C ) :   1.6078
B(  1-C ,  4-C ) :   0.1077 B(  1-C , 32-H ) :   0.9778 B(  2-C ,  3-C ) :   1.2448
B(  2-C ,  6-C ) :   1.0117 B(  3-C ,  4-C ) :   1.5707 B(  3-C ,  5-H ) :   1.0020
B(  4-C , 20-C ) :   1.0395 B(  6-C ,  7-H ) :   0.9428 B(  6-C ,  8-H ) :   0.9427
B(  6-C ,  9-C ) :   1.0633 B(  9-C , 10-H ) :   0.9603 B(  9-C , 11-H ) :   0.9547
B(  9-C , 12-C ) :   1.0890 B( 12-C , 13-H ) :   0.9762 B( 12-C , 14-H ) :   0.9714
B( 12-C , 15-H ) :   0.9686 B( 16-S , 17-C ) :   1.1214 B( 16-S , 20-C ) :   1.1052
B( 17-C , 18-C ) :   1.6791 B( 17-C , 33-H ) :   0.9730 B( 18-C , 19-C ) :   1.1813
B( 18-C , 21-H ) :   0.9898 B( 19-C , 20-C ) :   1.6653 B( 19-C , 22-C ) :   1.0428
B( 22-C , 23-H ) :   0.9167 B( 22-C , 24-H ) :   0.9309 B( 22-C , 25-C ) :   1.0634
B( 25-C , 26-H ) :   0.9541 B( 25-C , 27-H ) :   0.9579 B( 25-C , 28-C ) :   1.0767
B( 28-C , 29-H ) :   0.9736 B( 28-C , 30-H ) :   0.9702 B( 28-C , 31-H ) :   0.9717

Dispersion correction           -0.016104450
FINAL SINGLE POINT ENERGY     -1339.860433217988

DIPOLE MOMENT
-------------
                                X             Y             Z
Electronic contribution:    -10.56934      16.77228       6.67022
Nuclear contribution   :     10.61257     -17.18084      -7.08574
                        -----------------------------------------
Total Dipole Moment    :      0.04323      -0.40856      -0.41552
                        -----------------------------------------
Magnitude (a.u.)       :      0.58433
Magnitude (Debye)      :      1.48526

Rotational constants in cm-1:     0.020406     0.009312     0.007847
Rotational constants in MHz :   611.763165   279.160354   235.244218

                             ****ORCA TERMINATED NORMALLY****
TOTAL RUN TIME: 0 days 0 hours 0 minutes 30 seconds 684 msec
