                         Program Version 4.2.1 -  RELEASE  -
|  1> ! wB97X-D3 SP def2-SVP
|  2> %pal
|  3> nprocs 16
|  4> end
|  5>
|  6> * xyz 0 1
|  7> S 	 40.2872 	 26.2401 	 95.1429
|  8> C 	 41.0706 	 27.5171 	 96.0625
|  9> C 	 42.0581 	 26.9865 	 96.8691
| 10> C 	 42.1574 	 25.5784 	 96.858
| 11> C 	 41.3092 	 24.9902 	 95.9192
| 12> H 	 42.9961 	 25.1042 	 97.3598
| 13> C 	 43.0973 	 27.8286 	 97.5456
| 14> H 	 43.2687 	 27.3338 	 98.5385
| 15> H 	 42.6887 	 28.7808 	 97.7873
| 16> C 	 44.4476 	 28.027 	 96.7899
| 17> H 	 44.3484 	 28.5588 	 95.8508
| 18> H 	 45.0827 	 28.5703 	 97.3987
| 19> C 	 45.131 	 26.6637 	 96.4631
| 20> H 	 45.4274 	 26.1616 	 97.4575
| 21> H 	 44.5916 	 25.9532 	 95.8492
| 22> H 	 46.073 	 26.78 	 95.9533
| 23> S 	 39.6301 	 22.934 	 95.7773
| 24> C 	 40.1867 	 21.3128 	 95.5208
| 25> C 	 41.5146 	 21.3254 	 95.2692
| 26> C 	 42.1586 	 22.5843 	 95.3604
| 27> C 	 41.2041 	 23.5862 	 95.6436
| 28> H 	 41.9306 	 20.3926 	 95.0491
| 29> C 	 43.6785 	 22.7095 	 95.1757
| 30> H 	 44.25 	 21.9458 	 95.8636
| 31> H 	 44.0742 	 23.5947 	 95.5311
| 32> C 	 44.17 	 22.5582 	 93.7287
| 33> H 	 45.2578 	 22.428 	 93.8015
| 34> H 	 43.9623 	 23.4105 	 93.0957
| 35> C 	 43.8691 	 21.2292 	 92.9672
| 36> H 	 42.8392 	 20.9698 	 93.0374
| 37> H 	 44.3673 	 20.3719 	 93.4215
| 38> H 	 44.0637 	 21.2802 	 91.8654
| 39> H 	 40.834 	 28.5321 	 95.841
| 40> H 	 39.5826 	 20.4143 	 95.3861
| 41> *
| 42>
| 43>                          ****END OF INPUT****

CARTESIAN COORDINATES (ANGSTROEM)
---------------------------------
  S     40.287200   26.240100   95.142900
  C     41.070600   27.517100   96.062500
  C     42.058100   26.986500   96.869100
  C     42.157400   25.578400   96.858000
  C     41.309200   24.990200   95.919200
  H     42.996100   25.104200   97.359800
  C     43.097300   27.828600   97.545600
  H     43.268700   27.333800   98.538500
  H     42.688700   28.780800   97.787300
  C     44.447600   28.027000   96.789900
  H     44.348400   28.558800   95.850800
  H     45.082700   28.570300   97.398700
  C     45.131000   26.663700   96.463100
  H     45.427400   26.161600   97.457500
  H     44.591600   25.953200   95.849200
  H     46.073000   26.780000   95.953300
  S     39.630100   22.934000   95.777300
  C     40.186700   21.312800   95.520800
  C     41.514600   21.325400   95.269200
  C     42.158600   22.584300   95.360400
  C     41.204100   23.586200   95.643600
  H     41.930600   20.392600   95.049100
  C     43.678500   22.709500   95.175700
  H     44.250000   21.945800   95.863600
  H     44.074200   23.594700   95.531100
  C     44.170000   22.558200   93.728700
  H     45.257800   22.428000   93.801500
  H     43.962300   23.410500   93.095700
  C     43.869100   21.229200   92.967200
  H     42.839200   20.969800   93.037400
  H     44.367300   20.371900   93.421500
  H     44.063700   21.280200   91.865400
  H     40.834000   28.532100   95.841000
  H     39.582600   20.414300   95.386100

 Total Charge           Charge          ....    0
 Multiplicity           Mult            ....    1
 Number of Electrons    NEL             ....  134
 Basis Dimension        Dim             ....  322

ORBITAL ENERGIES
----------------

  NO   OCC          E(Eh)            E(eV)
   0   2.0000     -88.966452     -2420.9002
   1   2.0000     -88.963132     -2420.8099
   2   2.0000     -10.332867      -281.1716
   3   2.0000     -10.325104      -280.9604
   4   2.0000     -10.313217      -280.6369
   5   2.0000     -10.310258      -280.5564
   6   2.0000     -10.306550      -280.4555
   7   2.0000     -10.299650      -280.2677
   8   2.0000     -10.296383      -280.1788
   9   2.0000     -10.293263      -280.0939
  10   2.0000     -10.291668      -280.0505
  11   2.0000     -10.288084      -279.9530
  12   2.0000     -10.287458      -279.9360
  13   2.0000     -10.283746      -279.8350
  14   2.0000     -10.283244      -279.8213
  15   2.0000     -10.275777      -279.6181
  16   2.0000      -8.080475      -219.8809
  17   2.0000      -8.079018      -219.8412
  18   2.0000      -6.039086      -164.3319
  19   2.0000      -6.037457      -164.2876
  20   2.0000      -6.035012      -164.2210
  21   2.0000      -6.033244      -164.1729
  22   2.0000      -6.031262      -164.1190
  23   2.0000      -6.029886      -164.0815
  24   2.0000      -1.010432       -27.4953
  25   2.0000      -0.985029       -26.8040
  26   2.0000      -0.909903       -24.7597
  27   2.0000      -0.905093       -24.6288
  28   2.0000      -0.873809       -23.7776
  29   2.0000      -0.847924       -23.0732
  30   2.0000      -0.842487       -22.9252
  31   2.0000      -0.817837       -22.2545
  32   2.0000      -0.787540       -21.4300
  33   2.0000      -0.772000       -21.0072
  34   2.0000      -0.710504       -19.3338
  35   2.0000      -0.707418       -19.2498
  36   2.0000      -0.690801       -18.7977
  37   2.0000      -0.661769       -18.0076
  38   2.0000      -0.640451       -17.4276
  39   2.0000      -0.622385       -16.9360
  40   2.0000      -0.598004       -16.2725
  41   2.0000      -0.572242       -15.5715
  42   2.0000      -0.559159       -15.2155
  43   2.0000      -0.547211       -14.8904
  44   2.0000      -0.542322       -14.7573
  45   2.0000      -0.532393       -14.4872
  46   2.0000      -0.517273       -14.0757
  47   2.0000      -0.512829       -13.9548
  48   2.0000      -0.507136       -13.7999
  49   2.0000      -0.493245       -13.4219
  50   2.0000      -0.485451       -13.2098
  51   2.0000      -0.482542       -13.1306
  52   2.0000      -0.473608       -12.8875
  53   2.0000      -0.468586       -12.7509
  54   2.0000      -0.458382       -12.4732
  55   2.0000      -0.446696       -12.1552
  56   2.0000      -0.442621       -12.0443
  57   2.0000      -0.435565       -11.8523
  58   2.0000      -0.432890       -11.7795
  59   2.0000      -0.430922       -11.7260
  60   2.0000      -0.423122       -11.5137
  61   2.0000      -0.414808       -11.2875
  62   2.0000      -0.408114       -11.1053
  63   2.0000      -0.348980        -9.4962
  64   2.0000      -0.330889        -9.0039
  65   2.0000      -0.328596        -8.9415
  66   2.0000      -0.291120        -7.9218
  67   0.0000       0.028936         0.7874
  68   0.0000       0.070500         1.9184
  69   0.0000       0.115101         3.1321
  70   0.0000       0.119617         3.2549
  71   0.0000       0.128190         3.4882

MULLIKEN ATOMIC CHARGES
-----------------------
   0 S :    0.101177
   1 C :   -0.122111
   2 C :   -0.092380
   3 C :    0.045151
   4 C :   -0.156314
   5 H :    0.020560
   6 C :    0.054622
   7 H :    0.028904
   8 H :    0.011243
   9 C :    0.007290
  10 H :    0.029825
  11 H :    0.018492
  12 C :   -0.119668
  13 H :    0.031488
  14 H :    0.061379
  15 H :    0.027553
  16 S :    0.114754
  17 C :   -0.089422
  18 C :   -0.041158
  19 C :    0.004635
  20 C :   -0.169706
  21 H :   -0.003754
  22 C :    0.102828
  23 H :    0.040312
  24 H :   -0.022743
  25 C :   -0.076492
  26 H :    0.030705
  27 H :    0.041225
  28 C :   -0.067628
  29 H :    0.019285
  30 H :    0.023840
  31 H :    0.044081
  32 H :    0.043996
  33 H :    0.058030
Sum of atomic charges:   -0.0000000

LOEWDIN ATOMIC CHARGES
----------------------
   0 S :    0.385890
   1 C :   -0.186893
   2 C :   -0.068406
   3 C :   -0.057132
   4 C :   -0.184266
   5 H :    0.033682
   6 C :   -0.030870
   7 H :    0.034882
   8 H :    0.023629
   9 C :   -0.022885
  10 H :    0.025549
  11 H :    0.016905
  12 C :   -0.074532
  13 H :    0.029300
  14 H :    0.021966
  15 H :    0.023068
  16 S :    0.435055
  17 C :   -0.196506
  18 C :   -0.068175
  19 C :   -0.055698
  20 C :   -0.209842
  21 H :    0.021788
  22 C :   -0.029254
  23 H :    0.044640
  24 H :    0.015337
  25 C :   -0.038896
  26 H :    0.029277
  27 H :    0.025515
  28 C :   -0.072366
  29 H :    0.014294
  30 H :    0.022386
  31 H :    0.034639
  32 H :    0.022655
  33 H :    0.035263

  Mayer bond orders larger than 0.100000
B(  0-S ,  1-C ) :   1.1324 B(  0-S ,  4-C ) :   1.1531 B(  1-C ,  2-C ) :   1.5912
B(  1-C ,  4-C ) :   0.1030 B(  1-C , 32-H ) :   0.9773 B(  2-C ,  3-C ) :   1.2657
B(  2-C ,  6-C ) :   1.0332 B(  3-C ,  4-C ) :   1.5453 B(  3-C ,  5-H ) :   0.9858
B(  4-C , 20-C ) :   1.0494 B(  6-C ,  7-H ) :   0.9388 B(  6-C ,  8-H ) :   0.9375
B(  6-C ,  9-C ) :   1.0671 B(  9-C , 10-H ) :   0.9545 B(  9-C , 11-H ) :   0.9539
B(  9-C , 12-C ) :   1.0810 B( 12-C , 13-H ) :   0.9736 B( 12-C , 14-H ) :   0.9691
B( 12-C , 15-H ) :   0.9691 B( 16-S , 17-C ) :   1.1470 B( 16-S , 20-C ) :   1.1777
B( 17-C , 18-C ) :   1.6197 B( 17-C , 20-C ) :   0.1005 B( 17-C , 33-H ) :   0.9634
B( 18-C , 19-C ) :   1.2405 B( 18-C , 21-H ) :   0.9938 B( 19-C , 20-C ) :   1.5554
B( 19-C , 22-C ) :   1.0336 B( 22-C , 23-H ) :   0.9381 B( 22-C , 24-H ) :   0.9256
B( 22-C , 25-C ) :   1.0784 B( 25-C , 26-H ) :   0.9560 B( 25-C , 27-H ) :   0.9578
B( 25-C , 28-C ) :   1.0733 B( 28-C , 29-H ) :   0.9702 B( 28-C , 30-H ) :   0.9763
B( 28-C , 31-H ) :   0.9724

Dispersion correction           -0.015272599
FINAL SINGLE POINT ENERGY     -1339.874292256479

DIPOLE MOMENT
-------------
                                X             Y             Z
Electronic contribution:    -27.48607       0.70363       2.30609
Nuclear contribution   :     28.21271      -0.66041      -2.31082
                        -----------------------------------------
Total Dipole Moment    :      0.72664       0.04322      -0.00474
                        -----------------------------------------
Magnitude (a.u.)       :      0.72794
Magnitude (Debye)      :      1.85026

Rotational constants in cm-1:     0.018757     0.009753     0.007224
Rotational constants in MHz :   562.308095   292.392055   216.581139

                             ****ORCA TERMINATED NORMALLY****
TOTAL RUN TIME: 0 days 0 hours 0 minutes 31 seconds 727 msec
