                         Program Version 4.2.1 -  RELEASE  -
|  1> ! wB97X-D3 SP def2-SVP
|  2> %pal
|  3> nprocs 16
|  4> end
|  5>
|  6> * xyz 0 1
|  7> S 	 -61.3338 	 36.5767 	 118.036
|  8> C 	 -60.2488 	 36.0613 	 119.229
|  9> C 	 -59.3849 	 37.1089 	 119.629
| 10> C 	 -59.5388 	 38.1821 	 118.706
| 11> C 	 -60.4718 	 38.0101 	 117.714
| 12> H 	 -58.9481 	 39.1034 	 118.717
| 13> C 	 -58.3557 	 36.9587 	 120.767
| 14> H 	 -57.4656 	 37.4321 	 120.339
| 15> H 	 -58.114 	 35.9088 	 120.729
| 16> C 	 -58.8767 	 37.2438 	 122.163
| 17> H 	 -58.0212 	 37.0269 	 122.956
| 18> H 	 -58.9706 	 38.3372 	 121.971
| 19> C 	 -60.2818 	 36.6564 	 122.494
| 20> H 	 -60.7308 	 37.2174 	 123.294
| 21> H 	 -61.0585 	 36.6934 	 121.741
| 22> H 	 -60.2045 	 35.6514 	 122.927
| 23> S 	 -59.4446 	 39.6281 	 115.788
| 24> C 	 -60.4946 	 40.4457 	 114.706
| 25> C 	 -61.825 	 40.3014 	 115.076
| 26> C 	 -62.0054 	 39.4604 	 116.269
| 27> C 	 -60.8128 	 39.0067 	 116.75
| 28> H 	 -62.5799 	 40.8185 	 114.497
| 29> C 	 -63.4533 	 39.1106 	 116.663
| 30> H 	 -63.5918 	 38.0649 	 116.735
| 31> H 	 -64.1538 	 39.3605 	 115.85
| 32> C 	 -64.0111 	 39.9133 	 117.851
| 33> H 	 -65.1171 	 39.792 	 117.811
| 34> H 	 -63.7122 	 40.9441 	 117.583
| 35> C 	 -63.5095 	 39.4751 	 119.263
| 36> H 	 -62.5817 	 39.9818 	 119.663
| 37> H 	 -63.5275 	 38.3957 	 119.454
| 38> H 	 -64.2661 	 39.9038 	 119.936
| 39> H 	 -60.3044 	 35.124 	 119.725
| 40> H 	 -60.2205 	 40.8701 	 113.72
| 41> *
| 42>
| 43>                          ****END OF INPUT****

CARTESIAN COORDINATES (ANGSTROEM)
---------------------------------
  S    -61.333800   36.576700  118.036000
  C    -60.248800   36.061300  119.229000
  C    -59.384900   37.108900  119.629000
  C    -59.538800   38.182100  118.706000
  C    -60.471800   38.010100  117.714000
  H    -58.948100   39.103400  118.717000
  C    -58.355700   36.958700  120.767000
  H    -57.465600   37.432100  120.339000
  H    -58.114000   35.908800  120.729000
  C    -58.876700   37.243800  122.163000
  H    -58.021200   37.026900  122.956000
  H    -58.970600   38.337200  121.971000
  C    -60.281800   36.656400  122.494000
  H    -60.730800   37.217400  123.294000
  H    -61.058500   36.693400  121.741000
  H    -60.204500   35.651400  122.927000
  S    -59.444600   39.628100  115.788000
  C    -60.494600   40.445700  114.706000
  C    -61.825000   40.301400  115.076000
  C    -62.005400   39.460400  116.269000
  C    -60.812800   39.006700  116.750000
  H    -62.579900   40.818500  114.497000
  C    -63.453300   39.110600  116.663000
  H    -63.591800   38.064900  116.735000
  H    -64.153800   39.360500  115.850000
  C    -64.011100   39.913300  117.851000
  H    -65.117100   39.792000  117.811000
  H    -63.712200   40.944100  117.583000
  C    -63.509500   39.475100  119.263000
  H    -62.581700   39.981800  119.663000
  H    -63.527500   38.395700  119.454000
  H    -64.266100   39.903800  119.936000
  H    -60.304400   35.124000  119.725000
  H    -60.220500   40.870100  113.720000

 Total Charge           Charge          ....    0
 Multiplicity           Mult            ....    1
 Number of Electrons    NEL             ....  134
 Basis Dimension        Dim             ....  322

ORBITAL ENERGIES
----------------

  NO   OCC          E(Eh)            E(eV)
   0   2.0000     -88.968076     -2420.9444
   1   2.0000     -88.963703     -2420.8254
   2   2.0000     -10.325593      -280.9737
   3   2.0000     -10.319674      -280.8126
   4   2.0000     -10.316404      -280.7236
   5   2.0000     -10.308975      -280.5215
   6   2.0000     -10.305057      -280.4149
   7   2.0000     -10.302794      -280.3533
   8   2.0000     -10.301877      -280.3283
   9   2.0000     -10.294717      -280.1335
  10   2.0000     -10.291815      -280.0545
  11   2.0000     -10.290944      -280.0308
  12   2.0000     -10.290147      -280.0091
  13   2.0000     -10.288771      -279.9717
  14   2.0000     -10.279495      -279.7193
  15   2.0000     -10.278579      -279.6943
  16   2.0000      -8.083919      -219.9746
  17   2.0000      -8.078656      -219.8314
  18   2.0000      -6.042214      -164.4170
  19   2.0000      -6.038197      -164.3077
  20   2.0000      -6.037256      -164.2821
  21   2.0000      -6.034919      -164.2185
  22   2.0000      -6.033119      -164.1695
  23   2.0000      -6.029314      -164.0660
  24   2.0000      -1.014441       -27.6044
  25   2.0000      -0.986223       -26.8365
  26   2.0000      -0.912141       -24.8206
  27   2.0000      -0.903130       -24.5754
  28   2.0000      -0.871518       -23.7152
  29   2.0000      -0.847953       -23.0740
  30   2.0000      -0.840246       -22.8643
  31   2.0000      -0.809259       -22.0211
  32   2.0000      -0.788184       -21.4476
  33   2.0000      -0.777951       -21.1691
  34   2.0000      -0.706759       -19.2319
  35   2.0000      -0.697044       -18.9675
  36   2.0000      -0.684296       -18.6206
  37   2.0000      -0.664087       -18.0707
  38   2.0000      -0.637115       -17.3368
  39   2.0000      -0.616206       -16.7678
  40   2.0000      -0.595348       -16.2002
  41   2.0000      -0.568500       -15.4697
  42   2.0000      -0.551573       -15.0091
  43   2.0000      -0.545919       -14.8552
  44   2.0000      -0.539761       -14.6877
  45   2.0000      -0.536768       -14.6062
  46   2.0000      -0.512561       -13.9475
  47   2.0000      -0.509409       -13.8617
  48   2.0000      -0.503276       -13.6948
  49   2.0000      -0.500522       -13.6199
  50   2.0000      -0.487590       -13.2680
  51   2.0000      -0.477228       -12.9860
  52   2.0000      -0.470633       -12.8066
  53   2.0000      -0.465439       -12.6652
  54   2.0000      -0.459945       -12.5157
  55   2.0000      -0.448697       -12.2097
  56   2.0000      -0.443003       -12.0547
  57   2.0000      -0.437095       -11.8940
  58   2.0000      -0.430399       -11.7118
  59   2.0000      -0.420754       -11.4493
  60   2.0000      -0.414720       -11.2851
  61   2.0000      -0.409827       -11.1519
  62   2.0000      -0.397272       -10.8103
  63   2.0000      -0.354223        -9.6389
  64   2.0000      -0.330429        -8.9914
  65   2.0000      -0.328240        -8.9319
  66   2.0000      -0.285866        -7.7788
  67   0.0000       0.032514         0.8848
  68   0.0000       0.067794         1.8448
  69   0.0000       0.105223         2.8633
  70   0.0000       0.120988         3.2922
  71   0.0000       0.131354         3.5743

MULLIKEN ATOMIC CHARGES
-----------------------
   0 S :    0.127893
   1 C :   -0.109074
   2 C :   -0.131599
   3 C :   -0.016164
   4 C :   -0.113858
   5 H :    0.013578
   6 C :    0.095421
   7 H :    0.035381
   8 H :    0.006320
   9 C :   -0.100549
  10 H :    0.064532
  11 H :    0.034569
  12 C :   -0.038918
  13 H :    0.025306
  14 H :    0.046839
  15 H :    0.031638
  16 S :    0.104818
  17 C :   -0.097378
  18 C :   -0.054196
  19 C :   -0.048728
  20 C :   -0.152156
  21 H :    0.021922
  22 C :    0.065677
  23 H :    0.017759
  24 H :    0.014341
  25 C :   -0.073942
  26 H :    0.037731
  27 H :    0.033572
  28 C :   -0.066633
  29 H :    0.050717
  30 H :    0.039358
  31 H :    0.024358
  32 H :    0.039923
  33 H :    0.071542
Sum of atomic charges:   -0.0000000

LOEWDIN ATOMIC CHARGES
----------------------
   0 S :    0.462693
   1 C :   -0.208702
   2 C :   -0.061900
   3 C :   -0.072332
   4 C :   -0.219129
   5 H :    0.028233
   6 C :   -0.039390
   7 H :    0.035061
   8 H :    0.023233
   9 C :   -0.051571
  10 H :    0.043356
  11 H :    0.029959
  12 C :   -0.069776
  13 H :    0.027988
  14 H :    0.028673
  15 H :    0.027008
  16 S :    0.406446
  17 C :   -0.204686
  18 C :   -0.071663
  19 C :   -0.058094
  20 C :   -0.180955
  21 H :    0.029558
  22 C :   -0.035373
  23 H :    0.015493
  24 H :    0.034188
  25 C :   -0.038460
  26 H :    0.027509
  27 H :    0.029681
  28 C :   -0.082593
  29 H :    0.035487
  30 H :    0.022284
  31 H :    0.027600
  32 H :    0.020391
  33 H :    0.039779

  Mayer bond orders larger than 0.100000
B(  0-S ,  1-C ) :   1.1817 B(  0-S ,  4-C ) :   1.1634 B(  1-C ,  2-C ) :   1.5410
B(  1-C , 32-H ) :   0.9720 B(  2-C ,  3-C ) :   1.2944 B(  2-C ,  6-C ) :   1.0006
B(  3-C ,  4-C ) :   1.5122 B(  3-C ,  5-H ) :   0.9961 B(  4-C , 20-C ) :   1.0595
B(  6-C ,  7-H ) :   0.9533 B(  6-C ,  8-H ) :   0.9341 B(  6-C ,  9-C ) :   1.0321
B(  9-C , 10-H ) :   0.9557 B(  9-C , 11-H ) :   0.9611 B(  9-C , 12-C ) :   1.0744
B( 12-C , 13-H ) :   0.9720 B( 12-C , 14-H ) :   0.9668 B( 12-C , 15-H ) :   0.9741
B( 16-S , 17-C ) :   1.1487 B( 16-S , 20-C ) :   1.1241 B( 17-C , 18-C ) :   1.6413
B( 17-C , 33-H ) :   0.9597 B( 18-C , 19-C ) :   1.2053 B( 18-C , 21-H ) :   0.9868
B( 19-C , 20-C ) :   1.6315 B( 19-C , 22-C ) :   1.0298 B( 22-C , 23-H ) :   0.9412
B( 22-C , 24-H ) :   0.9341 B( 22-C , 25-C ) :   1.0724 B( 25-C , 26-H ) :   0.9601
B( 25-C , 27-H ) :   0.9511 B( 25-C , 28-C ) :   1.0713 B( 28-C , 29-H ) :   0.9748
B( 28-C , 30-H ) :   0.9747 B( 28-C , 31-H ) :   0.9724

Dispersion correction           -0.015670272
FINAL SINGLE POINT ENERGY     -1339.859818246666

DIPOLE MOMENT
-------------
                                X             Y             Z
Electronic contribution:      7.84730      -0.51805     -20.82242
Nuclear contribution   :     -8.10333       0.53000      21.07340
                        -----------------------------------------
Total Dipole Moment    :     -0.25604       0.01196       0.25098
                        -----------------------------------------
Magnitude (a.u.)       :      0.35873
Magnitude (Debye)      :      0.91182

Rotational constants in cm-1:     0.021990     0.008934     0.007430
Rotational constants in MHz :   659.242987   267.825168   222.749448

                             ****ORCA TERMINATED NORMALLY****
TOTAL RUN TIME: 0 days 0 hours 0 minutes 31 seconds 82 msec
