                         Program Version 4.2.1 -  RELEASE  -
|  1> ! wB97X-D3 SP def2-SVP
|  2> %pal
|  3> nprocs 16
|  4> end
|  5>
|  6> * xyz 0 1
|  7> S 	 -78.4394 	 44.674 	 127.975
|  8> C 	 -80.0854 	 44.4645 	 127.696
|  9> C 	 -80.7801 	 44.7011 	 128.887
| 10> C 	 -79.9993 	 45.3039 	 129.899
| 11> C 	 -78.6446 	 45.2991 	 129.596
| 12> H 	 -80.3525 	 45.7594 	 130.838
| 13> C 	 -82.2604 	 44.4932 	 129.224
| 14> H 	 -82.6184 	 43.9391 	 128.379
| 15> H 	 -82.7476 	 45.4652 	 129.237
| 16> C 	 -82.4894 	 43.7532 	 130.538
| 17> H 	 -81.7663 	 42.9372 	 130.697
| 18> H 	 -82.2307 	 44.5449 	 131.246
| 19> C 	 -83.8554 	 43.3145 	 130.669
| 20> H 	 -84.6107 	 44.0618 	 130.225
| 21> H 	 -84.0741 	 42.3084 	 130.213
| 22> H 	 -84.1573 	 43.2765 	 131.771
| 23> S 	 -76.7429 	 47.2304 	 129.652
| 24> C 	 -75.9829 	 47.7281 	 131.117
| 25> C 	 -76.0403 	 46.7147 	 131.996
| 26> C 	 -76.9998 	 45.641 	 131.588
| 27> C 	 -77.5742 	 45.9174 	 130.366
| 28> H 	 -75.4028 	 46.7397 	 132.849
| 29> C 	 -77.4215 	 44.4105 	 132.456
| 30> H 	 -77.3968 	 43.6045 	 131.726
| 31> H 	 -78.4628 	 44.6447 	 132.737
| 32> C 	 -76.6798 	 44.0673 	 133.786
| 33> H 	 -76.3902 	 44.9289 	 134.295
| 34> H 	 -75.7251 	 43.524 	 133.573
| 35> C 	 -77.5888 	 43.0889 	 134.74
| 36> H 	 -78.4271 	 43.592 	 135.214
| 37> H 	 -77.1545 	 42.6081 	 135.615
| 38> H 	 -77.8263 	 42.2895 	 134.007
| 39> H 	 -80.6099 	 44.1826 	 126.768
| 40> H 	 -75.2485 	 48.5499 	 131.267
| 41> *
| 42>
| 43>                          ****END OF INPUT****

CARTESIAN COORDINATES (ANGSTROEM)
---------------------------------
  S    -78.439400   44.674000  127.975000
  C    -80.085400   44.464500  127.696000
  C    -80.780100   44.701100  128.887000
  C    -79.999300   45.303900  129.899000
  C    -78.644600   45.299100  129.596000
  H    -80.352500   45.759400  130.838000
  C    -82.260400   44.493200  129.224000
  H    -82.618400   43.939100  128.379000
  H    -82.747600   45.465200  129.237000
  C    -82.489400   43.753200  130.538000
  H    -81.766300   42.937200  130.697000
  H    -82.230700   44.544900  131.246000
  C    -83.855400   43.314500  130.669000
  H    -84.610700   44.061800  130.225000
  H    -84.074100   42.308400  130.213000
  H    -84.157300   43.276500  131.771000
  S    -76.742900   47.230400  129.652000
  C    -75.982900   47.728100  131.117000
  C    -76.040300   46.714700  131.996000
  C    -76.999800   45.641000  131.588000
  C    -77.574200   45.917400  130.366000
  H    -75.402800   46.739700  132.849000
  C    -77.421500   44.410500  132.456000
  H    -77.396800   43.604500  131.726000
  H    -78.462800   44.644700  132.737000
  C    -76.679800   44.067300  133.786000
  H    -76.390200   44.928900  134.295000
  H    -75.725100   43.524000  133.573000
  C    -77.588800   43.088900  134.740000
  H    -78.427100   43.592000  135.214000
  H    -77.154500   42.608100  135.615000
  H    -77.826300   42.289500  134.007000
  H    -80.609900   44.182600  126.768000
  H    -75.248500   48.549900  131.267000

 Total Charge           Charge          ....    0
 Multiplicity           Mult            ....    1
 Number of Electrons    NEL             ....  134
 Basis Dimension        Dim             ....  322

ORBITAL ENERGIES
----------------

  NO   OCC          E(Eh)            E(eV)
   0   2.0000     -88.966891     -2420.9122
   1   2.0000     -88.956301     -2420.6240
   2   2.0000     -10.327783      -281.0333
   3   2.0000     -10.321413      -280.8599
   4   2.0000     -10.314561      -280.6735
   5   2.0000     -10.313423      -280.6425
   6   2.0000     -10.311123      -280.5799
   7   2.0000     -10.297994      -280.2227
   8   2.0000     -10.297123      -280.1990
   9   2.0000     -10.296103      -280.1712
  10   2.0000     -10.292695      -280.0785
  11   2.0000     -10.292616      -280.0763
  12   2.0000     -10.287512      -279.9374
  13   2.0000     -10.287397      -279.9343
  14   2.0000     -10.286012      -279.8966
  15   2.0000     -10.282223      -279.7935
  16   2.0000      -8.082532      -219.9369
  17   2.0000      -8.072743      -219.6705
  18   2.0000      -6.040936      -164.3822
  19   2.0000      -6.036759      -164.2686
  20   2.0000      -6.033490      -164.1796
  21   2.0000      -6.031355      -164.1215
  22   2.0000      -6.027081      -164.0052
  23   2.0000      -6.023175      -163.8989
  24   2.0000      -1.013344       -27.5745
  25   2.0000      -0.992119       -26.9969
  26   2.0000      -0.920978       -25.0611
  27   2.0000      -0.895370       -24.3643
  28   2.0000      -0.876310       -23.8456
  29   2.0000      -0.853755       -23.2319
  30   2.0000      -0.836258       -22.7557
  31   2.0000      -0.819682       -22.3047
  32   2.0000      -0.775804       -21.1107
  33   2.0000      -0.767639       -20.8885
  34   2.0000      -0.711428       -19.3590
  35   2.0000      -0.702815       -19.1246
  36   2.0000      -0.687959       -18.7203
  37   2.0000      -0.650039       -17.6885
  38   2.0000      -0.640009       -17.4155
  39   2.0000      -0.620940       -16.8966
  40   2.0000      -0.589649       -16.0452
  41   2.0000      -0.578673       -15.7465
  42   2.0000      -0.565716       -15.3939
  43   2.0000      -0.563254       -15.3269
  44   2.0000      -0.526544       -14.3280
  45   2.0000      -0.520313       -14.1584
  46   2.0000      -0.518611       -14.1121
  47   2.0000      -0.516423       -14.0526
  48   2.0000      -0.509179       -13.8555
  49   2.0000      -0.498946       -13.5770
  50   2.0000      -0.495862       -13.4931
  51   2.0000      -0.482113       -13.1189
  52   2.0000      -0.472828       -12.8663
  53   2.0000      -0.464843       -12.6490
  54   2.0000      -0.452782       -12.3208
  55   2.0000      -0.450011       -12.2454
  56   2.0000      -0.442493       -12.0408
  57   2.0000      -0.438767       -11.9394
  58   2.0000      -0.429478       -11.6867
  59   2.0000      -0.420646       -11.4464
  60   2.0000      -0.417805       -11.3691
  61   2.0000      -0.409544       -11.1442
  62   2.0000      -0.407335       -11.0842
  63   2.0000      -0.346746        -9.4354
  64   2.0000      -0.327217        -8.9040
  65   2.0000      -0.317102        -8.6288
  66   2.0000      -0.300309        -8.1718
  67   0.0000       0.037192         1.0121
  68   0.0000       0.067782         1.8444
  69   0.0000       0.117607         3.2002
  70   0.0000       0.123341         3.3563
  71   0.0000       0.134875         3.6701

MULLIKEN ATOMIC CHARGES
-----------------------
   0 S :    0.128265
   1 C :   -0.121506
   2 C :   -0.122941
   3 C :    0.016401
   4 C :   -0.168819
   5 H :    0.032961
   6 C :    0.080262
   7 H :    0.001683
   8 H :    0.040058
   9 C :   -0.068017
  10 H :    0.041971
  11 H :    0.023891
  12 C :   -0.076334
  13 H :    0.035520
  14 H :    0.048439
  15 H :    0.039423
  16 S :    0.104917
  17 C :   -0.085153
  18 C :   -0.048530
  19 C :   -0.049556
  20 C :   -0.166420
  21 H :    0.013016
  22 C :    0.056788
  23 H :    0.044269
  24 H :    0.040212
  25 C :   -0.066346
  26 H :    0.021645
  27 H :    0.041339
  28 C :   -0.086862
  29 H :    0.040153
  30 H :    0.033485
  31 H :    0.046811
  32 H :    0.060212
  33 H :    0.068761
Sum of atomic charges:    0.0000000

LOEWDIN ATOMIC CHARGES
----------------------
   0 S :    0.438230
   1 C :   -0.228942
   2 C :   -0.068743
   3 C :   -0.060181
   4 C :   -0.203603
   5 H :    0.037052
   6 C :   -0.028313
   7 H :    0.018929
   8 H :    0.032987
   9 C :   -0.052818
  10 H :    0.031772
  11 H :    0.024684
  12 C :   -0.077553
  13 H :    0.032465
  14 H :    0.032173
  15 H :    0.033561
  16 S :    0.421312
  17 C :   -0.196873
  18 C :   -0.077550
  19 C :   -0.048744
  20 C :   -0.219916
  21 H :    0.025178
  22 C :   -0.034173
  23 H :    0.034347
  24 H :    0.037201
  25 C :   -0.034596
  26 H :    0.009823
  27 H :    0.029933
  28 C :   -0.072608
  29 H :    0.024362
  30 H :    0.025604
  31 H :    0.032359
  32 H :    0.040292
  33 H :    0.042349

  Mayer bond orders larger than 0.100000
B(  0-S ,  1-C ) :   1.1576 B(  0-S ,  4-C ) :   1.1656 B(  1-C ,  2-C ) :   1.5799
B(  1-C , 32-H ) :   0.9654 B(  2-C ,  3-C ) :   1.2640 B(  2-C ,  6-C ) :   1.0203
B(  3-C ,  4-C ) :   1.5629 B(  3-C ,  5-H ) :   0.9853 B(  4-C , 20-C ) :   1.0304
B(  6-C ,  7-H ) :   0.9428 B(  6-C ,  8-H ) :   0.9322 B(  6-C ,  9-C ) :   1.0628
B(  9-C , 10-H ) :   0.9553 B(  9-C , 11-H ) :   0.9440 B(  9-C , 12-C ) :   1.1027
B( 12-C , 13-H ) :   0.9657 B( 12-C , 14-H ) :   0.9704 B( 12-C , 15-H ) :   0.9698
B( 16-S , 17-C ) :   1.1491 B( 16-S , 20-C ) :   1.1411 B( 17-C , 18-C ) :   1.6444
B( 17-C , 33-H ) :   0.9583 B( 18-C , 19-C ) :   1.2012 B( 18-C , 21-H ) :   0.9938
B( 19-C , 20-C ) :   1.6197 B( 19-C , 22-C ) :   1.0199 B( 22-C , 23-H ) :   0.9331
B( 22-C , 24-H ) :   0.9441 B( 22-C , 25-C ) :   1.0575 B( 25-C , 26-H ) :   0.9593
B( 25-C , 27-H ) :   0.9604 B( 25-C , 28-C ) :   1.0601 B( 28-C , 29-H ) :   0.9791
B( 28-C , 30-H ) :   0.9788 B( 28-C , 31-H ) :   0.9800

Dispersion correction           -0.013446717
FINAL SINGLE POINT ENERGY     -1339.849080694955

DIPOLE MOMENT
-------------
                                X             Y             Z
Electronic contribution:     17.02691      14.44086     -21.18501
Nuclear contribution   :    -17.31925     -14.62190      21.72965
                        -----------------------------------------
Total Dipole Moment    :     -0.29234      -0.18104       0.54464
                        -----------------------------------------
Magnitude (a.u.)       :      0.64411
Magnitude (Debye)      :      1.63719

Rotational constants in cm-1:     0.015601     0.009047     0.006421
Rotational constants in MHz :   467.699181   271.236517   192.500570

                             ****ORCA TERMINATED NORMALLY****
TOTAL RUN TIME: 0 days 0 hours 0 minutes 32 seconds 522 msec
