                         Program Version 4.2.1 -  RELEASE  -
|  1> ! wB97X-D3 SP def2-SVP
|  2> %pal
|  3> nprocs 16
|  4> end
|  5>
|  6> * xyz 0 1
|  7> S 	 -43.1262 	 54.0595 	 102.658
|  8> C 	 -43.5359 	 52.3995 	 102.262
|  9> C 	 -42.4214 	 51.6033 	 102.216
| 10> C 	 -41.2116 	 52.3207 	 102.601
| 11> C 	 -41.4543 	 53.6425 	 102.925
| 12> H 	 -40.1852 	 51.9602 	 102.652
| 13> C 	 -42.3311 	 50.1062 	 101.908
| 14> H 	 -41.5317 	 49.9686 	 101.188
| 15> H 	 -43.2693 	 49.7637 	 101.376
| 16> C 	 -42.0682 	 49.3094 	 103.117
| 17> H 	 -41.9229 	 48.3554 	 102.773
| 18> H 	 -41.1025 	 49.5771 	 103.603
| 19> C 	 -43.1816 	 49.4297 	 104.168
| 20> H 	 -43.4837 	 50.4138 	 104.602
| 21> H 	 -44.1706 	 49.0835 	 103.867
| 22> H 	 -42.956 	 48.8405 	 105.006
| 23> S 	 -40.2451 	 56.1322 	 102.816
| 24> C 	 -39.0542 	 56.5347 	 104.079
| 25> C 	 -39.0043 	 55.563 	 105.033
| 26> C 	 -39.76 	 54.4142 	 104.762
| 27> C 	 -40.4846 	 54.5289 	 103.557
| 28> H 	 -38.5772 	 55.7801 	 105.975
| 29> C 	 -39.8273 	 53.2589 	 105.668
| 30> H 	 -38.887 	 52.9854 	 106.126
| 31> H 	 -40.037 	 52.3679 	 105.013
| 32> C 	 -40.9306 	 53.3732 	 106.663
| 33> H 	 -41.8791 	 53.6067 	 106.159
| 34> H 	 -40.731 	 54.2528 	 107.332
| 35> C 	 -41.2941 	 52.0341 	 107.391
| 36> H 	 -41.8125 	 51.311 	 106.709
| 37> H 	 -42.0215 	 52.0781 	 108.193
| 38> H 	 -40.3066 	 51.6398 	 107.687
| 39> H 	 -44.4826 	 51.9205 	 102.099
| 40> H 	 -38.6771 	 57.5515 	 104.293
| 41> *
| 42>
| 43>                          ****END OF INPUT****

CARTESIAN COORDINATES (ANGSTROEM)
---------------------------------
  S    -43.126200   54.059500  102.658000
  C    -43.535900   52.399500  102.262000
  C    -42.421400   51.603300  102.216000
  C    -41.211600   52.320700  102.601000
  C    -41.454300   53.642500  102.925000
  H    -40.185200   51.960200  102.652000
  C    -42.331100   50.106200  101.908000
  H    -41.531700   49.968600  101.188000
  H    -43.269300   49.763700  101.376000
  C    -42.068200   49.309400  103.117000
  H    -41.922900   48.355400  102.773000
  H    -41.102500   49.577100  103.603000
  C    -43.181600   49.429700  104.168000
  H    -43.483700   50.413800  104.602000
  H    -44.170600   49.083500  103.867000
  H    -42.956000   48.840500  105.006000
  S    -40.245100   56.132200  102.816000
  C    -39.054200   56.534700  104.079000
  C    -39.004300   55.563000  105.033000
  C    -39.760000   54.414200  104.762000
  C    -40.484600   54.528900  103.557000
  H    -38.577200   55.780100  105.975000
  C    -39.827300   53.258900  105.668000
  H    -38.887000   52.985400  106.126000
  H    -40.037000   52.367900  105.013000
  C    -40.930600   53.373200  106.663000
  H    -41.879100   53.606700  106.159000
  H    -40.731000   54.252800  107.332000
  C    -41.294100   52.034100  107.391000
  H    -41.812500   51.311000  106.709000
  H    -42.021500   52.078100  108.193000
  H    -40.306600   51.639800  107.687000
  H    -44.482600   51.920500  102.099000
  H    -38.677100   57.551500  104.293000

 Total Charge           Charge          ....    0
 Multiplicity           Mult            ....    1
 Number of Electrons    NEL             ....  134
 Basis Dimension        Dim             ....  322

ORBITAL ENERGIES
----------------

  NO   OCC          E(Eh)            E(eV)
   0   2.0000     -88.968386     -2420.9528
   1   2.0000     -88.965948     -2420.8865
   2   2.0000     -10.330903      -281.1182
   3   2.0000     -10.328860      -281.0626
   4   2.0000     -10.318704      -280.7862
   5   2.0000     -10.312926      -280.6290
   6   2.0000     -10.302275      -280.3391
   7   2.0000     -10.301692      -280.3233
   8   2.0000     -10.295577      -280.1569
   9   2.0000     -10.294372      -280.1241
  10   2.0000     -10.287478      -279.9365
  11   2.0000     -10.286696      -279.9152
  12   2.0000     -10.286039      -279.8973
  13   2.0000     -10.284292      -279.8498
  14   2.0000     -10.282463      -279.8000
  15   2.0000     -10.275455      -279.6093
  16   2.0000      -8.082896      -219.9468
  17   2.0000      -8.079751      -219.8612
  18   2.0000      -6.041561      -164.3992
  19   2.0000      -6.038302      -164.3105
  20   2.0000      -6.037473      -164.2880
  21   2.0000      -6.034446      -164.2056
  22   2.0000      -6.033443      -164.1783
  23   2.0000      -6.030470      -164.0974
  24   2.0000      -1.005083       -27.3497
  25   2.0000      -0.983159       -26.7531
  26   2.0000      -0.922040       -25.0900
  27   2.0000      -0.913263       -24.8512
  28   2.0000      -0.870966       -23.7002
  29   2.0000      -0.848061       -23.0769
  30   2.0000      -0.842483       -22.9251
  31   2.0000      -0.814250       -22.1569
  32   2.0000      -0.788975       -21.4691
  33   2.0000      -0.772858       -21.0305
  34   2.0000      -0.711102       -19.3501
  35   2.0000      -0.702033       -19.1033
  36   2.0000      -0.691641       -18.8205
  37   2.0000      -0.662082       -18.0162
  38   2.0000      -0.639503       -17.4018
  39   2.0000      -0.619388       -16.8544
  40   2.0000      -0.600576       -16.3425
  41   2.0000      -0.573926       -15.6173
  42   2.0000      -0.562009       -15.2931
  43   2.0000      -0.553696       -15.0668
  44   2.0000      -0.540392       -14.7048
  45   2.0000      -0.527511       -14.3543
  46   2.0000      -0.520391       -14.1606
  47   2.0000      -0.507596       -13.8124
  48   2.0000      -0.503044       -13.6885
  49   2.0000      -0.500786       -13.6271
  50   2.0000      -0.489912       -13.3312
  51   2.0000      -0.489052       -13.3078
  52   2.0000      -0.468739       -12.7550
  53   2.0000      -0.463608       -12.6154
  54   2.0000      -0.452008       -12.2998
  55   2.0000      -0.448058       -12.1923
  56   2.0000      -0.442916       -12.0524
  57   2.0000      -0.441776       -12.0213
  58   2.0000      -0.435101       -11.8397
  59   2.0000      -0.424762       -11.5584
  60   2.0000      -0.420734       -11.4488
  61   2.0000      -0.414218       -11.2715
  62   2.0000      -0.406159       -11.0522
  63   2.0000      -0.344961        -9.3869
  64   2.0000      -0.331969        -9.0333
  65   2.0000      -0.329827        -8.9750
  66   2.0000      -0.294011        -8.0005
  67   0.0000       0.027917         0.7596
  68   0.0000       0.065858         1.7921
  69   0.0000       0.107933         2.9370
  70   0.0000       0.118865         3.2345
  71   0.0000       0.125566         3.4168

MULLIKEN ATOMIC CHARGES
-----------------------
   0 S :    0.121215
   1 C :   -0.102925
   2 C :   -0.101696
   3 C :    0.015801
   4 C :   -0.140006
   5 H :    0.025802
   6 C :    0.054271
   7 H :    0.029584
   8 H :    0.027020
   9 C :   -0.004911
  10 H :    0.009234
  11 H :    0.029453
  12 C :   -0.056866
  13 H :    0.045502
  14 H :    0.011241
  15 H :    0.018721
  16 S :    0.092851
  17 C :   -0.089423
  18 C :   -0.029481
  19 C :   -0.024443
  20 C :   -0.183619
  21 H :    0.007301
  22 C :    0.088410
  23 H :    0.020533
  24 H :    0.006876
  25 C :   -0.082801
  26 H :    0.031641
  27 H :    0.030811
  28 C :   -0.054220
  29 H :    0.037062
  30 H :    0.036161
  31 H :    0.029637
  32 H :    0.033028
  33 H :    0.068236
Sum of atomic charges:   -0.0000000

LOEWDIN ATOMIC CHARGES
----------------------
   0 S :    0.404200
   1 C :   -0.200312
   2 C :   -0.057561
   3 C :   -0.061427
   4 C :   -0.200065
   5 H :    0.033433
   6 C :   -0.032109
   7 H :    0.031873
   8 H :    0.033033
   9 C :   -0.033669
  10 H :    0.016949
  11 H :    0.029808
  12 C :   -0.070871
  13 H :    0.032940
  14 H :    0.022575
  15 H :    0.018877
  16 S :    0.380825
  17 C :   -0.180273
  18 C :   -0.067904
  19 C :   -0.050040
  20 C :   -0.184856
  21 H :    0.027823
  22 C :   -0.041337
  23 H :    0.027209
  24 H :    0.036069
  25 C :   -0.043814
  26 H :    0.027130
  27 H :    0.025602
  28 C :   -0.069579
  29 H :    0.031102
  30 H :    0.025147
  31 H :    0.022950
  32 H :    0.029349
  33 H :    0.036922

  Mayer bond orders larger than 0.100000
B(  0-S ,  1-C ) :   1.1159 B(  0-S ,  4-C ) :   1.1373 B(  1-C ,  2-C ) :   1.6539
B(  1-C , 32-H ) :   0.9652 B(  2-C ,  3-C ) :   1.1951 B(  2-C ,  6-C ) :   1.0236
B(  3-C ,  4-C ) :   1.6020 B(  3-C ,  5-H ) :   0.9902 B(  4-C , 20-C ) :   1.0366
B(  6-C ,  7-H ) :   0.9355 B(  6-C ,  8-H ) :   0.9417 B(  6-C ,  9-C ) :   1.0902
B(  9-C , 10-H ) :   0.9471 B(  9-C , 11-H ) :   0.9491 B(  9-C , 12-C ) :   1.0673
B( 12-C , 13-H ) :   0.9715 B( 12-C , 14-H ) :   0.9710 B( 12-C , 15-H ) :   0.9734
B( 16-S , 17-C ) :   1.1417 B( 16-S , 20-C ) :   1.1400 B( 17-C , 18-C ) :   1.6212
B( 17-C , 20-C ) :   0.1052 B( 17-C , 33-H ) :   0.9577 B( 18-C , 19-C ) :   1.2601
B( 18-C , 21-H ) :   0.9885 B( 19-C , 20-C ) :   1.5732 B( 19-C , 22-C ) :   1.0560
B( 22-C , 23-H ) :   0.9232 B( 22-C , 24-H ) :   0.9183 B( 22-C , 25-C ) :   1.0628
B( 25-C , 26-H ) :   0.9564 B( 25-C , 27-H ) :   0.9545 B( 25-C , 28-C ) :   1.0671
B( 28-C , 29-H ) :   0.9742 B( 28-C , 30-H ) :   0.9747 B( 28-C , 31-H ) :   0.9756

Dispersion correction           -0.016101917
FINAL SINGLE POINT ENERGY     -1339.874232061122

DIPOLE MOMENT
-------------
                                X             Y             Z
Electronic contribution:      1.97901      25.32744     -15.82844
Nuclear contribution   :     -1.93258     -25.96484      16.24669
                        -----------------------------------------
Total Dipole Moment    :      0.04643      -0.63741       0.41825
                        -----------------------------------------
Magnitude (a.u.)       :      0.76379
Magnitude (Debye)      :      1.94140

Rotational constants in cm-1:     0.019508     0.010051     0.007704
Rotational constants in MHz :   584.824664   301.323103   230.948867

                             ****ORCA TERMINATED NORMALLY****
TOTAL RUN TIME: 0 days 0 hours 0 minutes 32 seconds 967 msec
