                         Program Version 4.2.1 -  RELEASE  -
|  1> ! wB97X-D3 SP def2-SVP
|  2> %pal
|  3> nprocs 16
|  4> end
|  5>
|  6> * xyz 0 1
|  7> S 	 40.0394 	 23.8212 	 95.3105
|  8> C 	 41.38 	 24.8547 	 94.8836
|  9> C 	 42.5377 	 24.1714 	 94.6252
| 10> C 	 42.4595 	 22.7539 	 94.906
| 11> C 	 41.1238 	 22.4232 	 95.3177
| 12> H 	 43.2076 	 21.982 	 94.7324
| 13> C 	 43.757 	 24.7618 	 94.0287
| 14> H 	 43.596 	 25.8959 	 93.8818
| 15> H 	 43.9595 	 24.3365 	 93.0499
| 16> C 	 45.097 	 24.6157 	 94.8437
| 17> H 	 45.2557 	 23.5555 	 94.8522
| 18> H 	 45.8849 	 25.1314 	 94.2964
| 19> C 	 44.9684 	 25.1402 	 96.2523
| 20> H 	 45.9896 	 25.0508 	 96.7611
| 21> H 	 44.804 	 26.1674 	 96.2996
| 22> H 	 44.2563 	 24.7636 	 96.9108
| 23> S 	 40.375 	 20.821 	 97.4509
| 24> C 	 39.9843 	 19.1477 	 97.1709
| 25> C 	 40.2413 	 18.8072 	 95.8516
| 26> C 	 40.7983 	 19.875 	 95.1057
| 27> C 	 40.6897 	 21.1176 	 95.7306
| 28> H 	 40.3646 	 17.7853 	 95.5463
| 29> C 	 41.3645 	 19.5485 	 93.735
| 30> H 	 41.3097 	 20.4262 	 93.1304
| 31> H 	 40.6948 	 18.8999 	 93.2595
| 32> C 	 42.697 	 18.7779 	 93.8326
| 33> H 	 42.5799 	 18.0595 	 94.6881
| 34> H 	 43.4981 	 19.4559 	 94.1899
| 35> C 	 43.0655 	 17.9853 	 92.5293
| 36> H 	 44.0904 	 17.6985 	 92.7372
| 37> H 	 43.0261 	 18.5989 	 91.5938
| 38> H 	 42.4555 	 17.1495 	 92.4983
| 39> H 	 41.3151 	 25.9119 	 94.6174
| 40> H 	 39.7823 	 18.3511 	 97.9201
| 41> *
| 42>
| 43>                          ****END OF INPUT****

CARTESIAN COORDINATES (ANGSTROEM)
---------------------------------
  S     40.039400   23.821200   95.310500
  C     41.380000   24.854700   94.883600
  C     42.537700   24.171400   94.625200
  C     42.459500   22.753900   94.906000
  C     41.123800   22.423200   95.317700
  H     43.207600   21.982000   94.732400
  C     43.757000   24.761800   94.028700
  H     43.596000   25.895900   93.881800
  H     43.959500   24.336500   93.049900
  C     45.097000   24.615700   94.843700
  H     45.255700   23.555500   94.852200
  H     45.884900   25.131400   94.296400
  C     44.968400   25.140200   96.252300
  H     45.989600   25.050800   96.761100
  H     44.804000   26.167400   96.299600
  H     44.256300   24.763600   96.910800
  S     40.375000   20.821000   97.450900
  C     39.984300   19.147700   97.170900
  C     40.241300   18.807200   95.851600
  C     40.798300   19.875000   95.105700
  C     40.689700   21.117600   95.730600
  H     40.364600   17.785300   95.546300
  C     41.364500   19.548500   93.735000
  H     41.309700   20.426200   93.130400
  H     40.694800   18.899900   93.259500
  C     42.697000   18.777900   93.832600
  H     42.579900   18.059500   94.688100
  H     43.498100   19.455900   94.189900
  C     43.065500   17.985300   92.529300
  H     44.090400   17.698500   92.737200
  H     43.026100   18.598900   91.593800
  H     42.455500   17.149500   92.498300
  H     41.315100   25.911900   94.617400
  H     39.782300   18.351100   97.920100

 Total Charge           Charge          ....    0
 Multiplicity           Mult            ....    1
 Number of Electrons    NEL             ....  134
 Basis Dimension        Dim             ....  322

ORBITAL ENERGIES
----------------

  NO   OCC          E(Eh)            E(eV)
   0   2.0000     -88.970802     -2421.0186
   1   2.0000     -88.964031     -2420.8344
   2   2.0000     -10.334451      -281.2147
   3   2.0000     -10.323743      -280.9233
   4   2.0000     -10.321122      -280.8520
   5   2.0000     -10.312469      -280.6165
   6   2.0000     -10.303216      -280.3648
   7   2.0000     -10.300466      -280.2899
   8   2.0000     -10.299708      -280.2693
   9   2.0000     -10.296675      -280.1868
  10   2.0000     -10.294176      -280.1188
  11   2.0000     -10.288026      -279.9514
  12   2.0000     -10.287006      -279.9237
  13   2.0000     -10.282190      -279.7926
  14   2.0000     -10.281880      -279.7842
  15   2.0000     -10.266793      -279.3737
  16   2.0000      -8.084982      -220.0035
  17   2.0000      -8.078573      -219.8292
  18   2.0000      -6.043480      -164.4515
  19   2.0000      -6.039652      -164.3473
  20   2.0000      -6.037145      -164.2791
  21   2.0000      -6.035706      -164.2399
  22   2.0000      -6.033167      -164.1708
  23   2.0000      -6.029188      -164.0626
  24   2.0000      -1.003288       -27.3008
  25   2.0000      -0.981951       -26.7202
  26   2.0000      -0.911441       -24.8016
  27   2.0000      -0.908250       -24.7147
  28   2.0000      -0.869677       -23.6651
  29   2.0000      -0.849746       -23.1228
  30   2.0000      -0.846510       -23.0347
  31   2.0000      -0.809874       -22.0378
  32   2.0000      -0.784179       -21.3386
  33   2.0000      -0.773164       -21.0389
  34   2.0000      -0.710916       -19.3450
  35   2.0000      -0.700433       -19.0597
  36   2.0000      -0.694343       -18.8940
  37   2.0000      -0.660820       -17.9818
  38   2.0000      -0.636248       -17.3132
  39   2.0000      -0.615879       -16.7589
  40   2.0000      -0.593751       -16.1568
  41   2.0000      -0.566675       -15.4200
  42   2.0000      -0.562103       -15.2956
  43   2.0000      -0.551393       -15.0042
  44   2.0000      -0.543371       -14.7859
  45   2.0000      -0.525378       -14.2963
  46   2.0000      -0.518101       -14.0982
  47   2.0000      -0.509023       -13.8512
  48   2.0000      -0.504050       -13.7159
  49   2.0000      -0.499980       -13.6052
  50   2.0000      -0.494998       -13.4696
  51   2.0000      -0.476422       -12.9641
  52   2.0000      -0.471427       -12.8282
  53   2.0000      -0.464655       -12.6439
  54   2.0000      -0.456398       -12.4192
  55   2.0000      -0.453516       -12.3408
  56   2.0000      -0.447834       -12.1862
  57   2.0000      -0.439278       -11.9534
  58   2.0000      -0.433481       -11.7956
  59   2.0000      -0.427645       -11.6368
  60   2.0000      -0.422682       -11.5018
  61   2.0000      -0.415221       -11.2987
  62   2.0000      -0.408525       -11.1165
  63   2.0000      -0.339079        -9.2268
  64   2.0000      -0.328284        -8.9331
  65   2.0000      -0.325245        -8.8504
  66   2.0000      -0.295516        -8.0414
  67   0.0000       0.030927         0.8416
  68   0.0000       0.059320         1.6142
  69   0.0000       0.109123         2.9694
  70   0.0000       0.109549         2.9810
  71   0.0000       0.130921         3.5625

MULLIKEN ATOMIC CHARGES
-----------------------
   0 S :    0.129407
   1 C :   -0.116707
   2 C :   -0.074725
   3 C :    0.040760
   4 C :   -0.197429
   5 H :    0.022875
   6 C :    0.016148
   7 H :    0.022665
   8 H :    0.038640
   9 C :   -0.052106
  10 H :    0.023472
  11 H :    0.036173
  12 C :   -0.034218
  13 H :    0.031047
  14 H :    0.005443
  15 H :    0.033336
  16 S :    0.109233
  17 C :   -0.100076
  18 C :   -0.022645
  19 C :   -0.079284
  20 C :   -0.144666
  21 H :    0.017843
  22 C :    0.130582
  23 H :    0.018196
  24 H :   -0.002888
  25 C :   -0.135149
  26 H :    0.031213
  27 H :    0.032068
  28 C :   -0.014633
  29 H :    0.034555
  30 H :    0.050035
  31 H :    0.027498
  32 H :    0.049459
  33 H :    0.073879
Sum of atomic charges:    0.0000000

LOEWDIN ATOMIC CHARGES
----------------------
   0 S :    0.410233
   1 C :   -0.204427
   2 C :   -0.068262
   3 C :   -0.050730
   4 C :   -0.191164
   5 H :    0.032973
   6 C :   -0.037763
   7 H :    0.031074
   8 H :    0.030964
   9 C :   -0.033336
  10 H :    0.017830
  11 H :    0.028592
  12 C :   -0.066068
  13 H :    0.035639
  14 H :    0.016276
  15 H :    0.020603
  16 S :    0.405580
  17 C :   -0.190172
  18 C :   -0.080409
  19 C :   -0.046559
  20 C :   -0.210419
  21 H :    0.027231
  22 C :   -0.030454
  23 H :    0.025682
  24 H :    0.022569
  25 C :   -0.039162
  26 H :    0.028231
  27 H :    0.020413
  28 C :   -0.057227
  29 H :    0.030077
  30 H :    0.033446
  31 H :    0.015689
  32 H :    0.031705
  33 H :    0.041344

  Mayer bond orders larger than 0.100000
B(  0-S ,  1-C ) :   1.1256 B(  0-S ,  4-C ) :   1.1638 B(  1-C ,  2-C ) :   1.6358
B(  1-C , 32-H ) :   0.9563 B(  2-C ,  3-C ) :   1.2146 B(  2-C ,  6-C ) :   1.0363
B(  3-C ,  4-C ) :   1.5589 B(  3-C ,  5-H ) :   0.9901 B(  4-C , 20-C ) :   1.0534
B(  6-C ,  7-H ) :   0.9433 B(  6-C ,  8-H ) :   0.9389 B(  6-C ,  9-C ) :   1.0671
B(  9-C , 10-H ) :   0.9555 B(  9-C , 11-H ) :   0.9556 B(  9-C , 12-C ) :   1.0812
B( 12-C , 13-H ) :   0.9710 B( 12-C , 14-H ) :   0.9724 B( 12-C , 15-H ) :   0.9731
B( 16-S , 17-C ) :   1.1711 B( 16-S , 20-C ) :   1.1288 B( 17-C , 18-C ) :   1.5900
B( 17-C , 20-C ) :   0.1024 B( 17-C , 33-H ) :   0.9595 B( 18-C , 19-C ) :   1.2738
B( 18-C , 21-H ) :   0.9784 B( 19-C , 20-C ) :   1.5779 B( 19-C , 22-C ) :   1.0514
B( 22-C , 23-H ) :   0.9287 B( 22-C , 24-H ) :   0.9321 B( 22-C , 25-C ) :   1.0411
B( 25-C , 26-H ) :   0.9573 B( 25-C , 27-H ) :   0.9563 B( 25-C , 28-C ) :   1.0665
B( 28-C , 29-H ) :   0.9744 B( 28-C , 30-H ) :   0.9769 B( 28-C , 31-H ) :   0.9763

Dispersion correction           -0.014504592
FINAL SINGLE POINT ENERGY     -1339.865358968440

DIPOLE MOMENT
-------------
                                X             Y             Z
Electronic contribution:    -22.92279       3.72672      12.50714
Nuclear contribution   :     23.55220      -4.05913     -12.93558
                        -----------------------------------------
Total Dipole Moment    :      0.62942      -0.33242      -0.42844
                        -----------------------------------------
Magnitude (a.u.)       :      0.83080
Magnitude (Debye)      :      2.11172

Rotational constants in cm-1:     0.016995     0.008970     0.007102
Rotational constants in MHz :   509.485532   268.902622   212.908256

                             ****ORCA TERMINATED NORMALLY****
TOTAL RUN TIME: 0 days 0 hours 0 minutes 30 seconds 284 msec
