                         Program Version 4.2.1 -  RELEASE  -
|  1> ! wB97X-D3 SP def2-SVP
|  2> %pal
|  3> nprocs 16
|  4> end
|  5>
|  6> * xyz 0 1
|  7> S 	 4.94007 	 -10.5875 	 64.6282
|  8> C 	 6.58333 	 -10.8704 	 64.1892
|  9> C 	 7.42385 	 -10.6016 	 65.3353
| 10> C 	 6.66865 	 -10.3724 	 66.5343
| 11> C 	 5.29618 	 -10.3508 	 66.3023
| 12> H 	 7.11738 	 -10.0921 	 67.4726
| 13> C 	 8.96247 	 -10.6222 	 65.2646
| 14> H 	 9.3267 	 -10.0938 	 66.1153
| 15> H 	 9.34803 	 -10.0734 	 64.4599
| 16> C 	 9.58263 	 -12.0247 	 65.357
| 17> H 	 9.30827 	 -12.7053 	 64.5378
| 18> H 	 10.6564 	 -11.9208 	 65.3791
| 19> C 	 9.39314 	 -12.6797 	 66.6728
| 20> H 	 9.82627 	 -12.0335 	 67.4305
| 21> H 	 8.36555 	 -12.9252 	 66.9105
| 22> H 	 9.9137 	 -13.624 	 66.6463
| 23> S 	 3.10491 	 -8.78391 	 66.8882
| 24> C 	 2.0642 	 -9.20687 	 68.2605
| 25> C 	 2.69029 	 -10.1958 	 68.9932
| 26> C 	 3.8845 	 -10.6768 	 68.4395
| 27> C 	 4.18297 	 -10.1356 	 67.2208
| 28> H 	 2.16984 	 -10.7364 	 69.8424
| 29> C 	 4.68977 	 -11.6824 	 69.1414
| 30> H 	 4.88254 	 -11.276 	 70.1635
| 31> H 	 5.67048 	 -11.7595 	 68.6532
| 32> C 	 4.15858 	 -13.0821 	 69.2783
| 33> H 	 3.17917 	 -13.0787 	 69.8368
| 34> H 	 4.88489 	 -13.6201 	 69.7875
| 35> C 	 4.07688 	 -13.7728 	 67.9379
| 36> H 	 4.68009 	 -13.2749 	 67.1076
| 37> H 	 2.99883 	 -13.7822 	 67.5991
| 38> H 	 4.29882 	 -14.8457 	 68.0945
| 39> H 	 6.96137 	 -11.19 	 63.2053
| 40> H 	 1.05282 	 -8.86267 	 68.4019
| 41> *
| 42>
| 43>                          ****END OF INPUT****

CARTESIAN COORDINATES (ANGSTROEM)
---------------------------------
  S      4.940070  -10.587500   64.628200
  C      6.583330  -10.870400   64.189200
  C      7.423850  -10.601600   65.335300
  C      6.668650  -10.372400   66.534300
  C      5.296180  -10.350800   66.302300
  H      7.117380  -10.092100   67.472600
  C      8.962470  -10.622200   65.264600
  H      9.326700  -10.093800   66.115300
  H      9.348030  -10.073400   64.459900
  C      9.582630  -12.024700   65.357000
  H      9.308270  -12.705300   64.537800
  H     10.656400  -11.920800   65.379100
  C      9.393140  -12.679700   66.672800
  H      9.826270  -12.033500   67.430500
  H      8.365550  -12.925200   66.910500
  H      9.913700  -13.624000   66.646300
  S      3.104910   -8.783910   66.888200
  C      2.064200   -9.206870   68.260500
  C      2.690290  -10.195800   68.993200
  C      3.884500  -10.676800   68.439500
  C      4.182970  -10.135600   67.220800
  H      2.169840  -10.736400   69.842400
  C      4.689770  -11.682400   69.141400
  H      4.882540  -11.276000   70.163500
  H      5.670480  -11.759500   68.653200
  C      4.158580  -13.082100   69.278300
  H      3.179170  -13.078700   69.836800
  H      4.884890  -13.620100   69.787500
  C      4.076880  -13.772800   67.937900
  H      4.680090  -13.274900   67.107600
  H      2.998830  -13.782200   67.599100
  H      4.298820  -14.845700   68.094500
  H      6.961370  -11.190000   63.205300
  H      1.052820   -8.862670   68.401900

 Total Charge           Charge          ....    0
 Multiplicity           Mult            ....    1
 Number of Electrons    NEL             ....  134
 Basis Dimension        Dim             ....  322

ORBITAL ENERGIES
----------------

  NO   OCC          E(Eh)            E(eV)
   0   2.0000     -88.971031     -2421.0248
   1   2.0000     -88.962268     -2420.7864
   2   2.0000     -10.331122      -281.1241
   3   2.0000     -10.324557      -280.9455
   4   2.0000     -10.321262      -280.8558
   5   2.0000     -10.318096      -280.7697
   6   2.0000     -10.310106      -280.5522
   7   2.0000     -10.299598      -280.2663
   8   2.0000     -10.294695      -280.1329
   9   2.0000     -10.293064      -280.0885
  10   2.0000     -10.287250      -279.9303
  11   2.0000     -10.284127      -279.8453
  12   2.0000     -10.281761      -279.7809
  13   2.0000     -10.277971      -279.6778
  14   2.0000     -10.277758      -279.6720
  15   2.0000     -10.269468      -279.4464
  16   2.0000      -8.086011      -220.0315
  17   2.0000      -8.076661      -219.7771
  18   2.0000      -6.044356      -164.4753
  19   2.0000      -6.040214      -164.3626
  20   2.0000      -6.037186      -164.2802
  21   2.0000      -6.035237      -164.2271
  22   2.0000      -6.031262      -164.1190
  23   2.0000      -6.027316      -164.0116
  24   2.0000      -1.009419       -27.4677
  25   2.0000      -0.985356       -26.8129
  26   2.0000      -0.918202       -24.9856
  27   2.0000      -0.915817       -24.9206
  28   2.0000      -0.868638       -23.6369
  29   2.0000      -0.853675       -23.2297
  30   2.0000      -0.846978       -23.0475
  31   2.0000      -0.814900       -22.1745
  32   2.0000      -0.782705       -21.2985
  33   2.0000      -0.769988       -20.9524
  34   2.0000      -0.700362       -19.0578
  35   2.0000      -0.697360       -18.9761
  36   2.0000      -0.691273       -18.8105
  37   2.0000      -0.659127       -17.9358
  38   2.0000      -0.642830       -17.4923
  39   2.0000      -0.617037       -16.7904
  40   2.0000      -0.598472       -16.2852
  41   2.0000      -0.577471       -15.7138
  42   2.0000      -0.556879       -15.1535
  43   2.0000      -0.555837       -15.1251
  44   2.0000      -0.548867       -14.9354
  45   2.0000      -0.542250       -14.7554
  46   2.0000      -0.518190       -14.1007
  47   2.0000      -0.510669       -13.8960
  48   2.0000      -0.504541       -13.7293
  49   2.0000      -0.499212       -13.5843
  50   2.0000      -0.492213       -13.3938
  51   2.0000      -0.477737       -12.9999
  52   2.0000      -0.466477       -12.6935
  53   2.0000      -0.464177       -12.6309
  54   2.0000      -0.457057       -12.4371
  55   2.0000      -0.442188       -12.0325
  56   2.0000      -0.440610       -11.9896
  57   2.0000      -0.435348       -11.8464
  58   2.0000      -0.430462       -11.7135
  59   2.0000      -0.425966       -11.5911
  60   2.0000      -0.420698       -11.4478
  61   2.0000      -0.413943       -11.2640
  62   2.0000      -0.408218       -11.1082
  63   2.0000      -0.346518        -9.4292
  64   2.0000      -0.332193        -9.0394
  65   2.0000      -0.328071        -8.9273
  66   2.0000      -0.291354        -7.9281
  67   0.0000       0.027726         0.7545
  68   0.0000       0.065447         1.7809
  69   0.0000       0.110826         3.0157
  70   0.0000       0.118547         3.2258
  71   0.0000       0.127138         3.4596

MULLIKEN ATOMIC CHARGES
-----------------------
   0 S :    0.136404
   1 C :   -0.125371
   2 C :   -0.136226
   3 C :    0.061622
   4 C :   -0.189936
   5 H :    0.018323
   6 C :    0.115069
   7 H :   -0.001729
   8 H :    0.019937
   9 C :   -0.071681
  10 H :    0.032033
  11 H :    0.021698
  12 C :   -0.046644
  13 H :    0.020894
  14 H :    0.033921
  15 H :    0.027613
  16 S :    0.092661
  17 C :   -0.094217
  18 C :   -0.053255
  19 C :   -0.010314
  20 C :   -0.143854
  21 H :    0.040507
  22 C :    0.023517
  23 H :    0.033172
  24 H :    0.012112
  25 C :   -0.023035
  26 H :    0.034637
  27 H :    0.013794
  28 C :   -0.099534
  29 H :    0.060190
  30 H :    0.037703
  31 H :    0.035871
  32 H :    0.063422
  33 H :    0.060695
Sum of atomic charges:   -0.0000000

LOEWDIN ATOMIC CHARGES
----------------------
   0 S :    0.447011
   1 C :   -0.217968
   2 C :   -0.054951
   3 C :   -0.064425
   4 C :   -0.207716
   5 H :    0.032299
   6 C :   -0.026836
   7 H :    0.025914
   8 H :    0.024510
   9 C :   -0.040472
  10 H :    0.023001
  11 H :    0.025107
  12 C :   -0.061522
  13 H :    0.022329
  14 H :    0.019643
  15 H :    0.026859
  16 S :    0.386113
  17 C :   -0.176839
  18 C :   -0.074211
  19 C :   -0.068142
  20 C :   -0.195649
  21 H :    0.041233
  22 C :   -0.038254
  23 H :    0.036964
  24 H :    0.029212
  25 C :   -0.041597
  26 H :    0.027576
  27 H :    0.016954
  28 C :   -0.078012
  29 H :    0.036665
  30 H :    0.031990
  31 H :    0.027626
  32 H :    0.035239
  33 H :    0.030346

  Mayer bond orders larger than 0.100000
B(  0-S ,  1-C ) :   1.1698 B(  0-S ,  4-C ) :   1.1855 B(  1-C ,  2-C ) :   1.5404
B(  1-C ,  4-C ) :   0.1154 B(  1-C , 32-H ) :   0.9715 B(  2-C ,  3-C ) :   1.2884
B(  2-C ,  6-C ) :   1.0226 B(  3-C ,  4-C ) :   1.5219 B(  3-C ,  5-H ) :   0.9913
B(  4-C , 20-C ) :   1.0105 B(  6-C ,  7-H ) :   0.9343 B(  6-C ,  8-H ) :   0.9420
B(  6-C ,  9-C ) :   1.0787 B(  9-C , 10-H ) :   0.9568 B(  9-C , 11-H ) :   0.9535
B(  9-C , 12-C ) :   1.0850 B( 12-C , 13-H ) :   0.9740 B( 12-C , 14-H ) :   0.9729
B( 12-C , 15-H ) :   0.9695 B( 16-S , 17-C ) :   1.1409 B( 16-S , 20-C ) :   1.1390
B( 17-C , 18-C ) :   1.6080 B( 17-C , 20-C ) :   0.1036 B( 17-C , 33-H ) :   0.9703
B( 18-C , 19-C ) :   1.2413 B( 18-C , 21-H ) :   0.9759 B( 19-C , 20-C ) :   1.6031
B( 19-C , 22-C ) :   1.0582 B( 22-C , 23-H ) :   0.9243 B( 22-C , 24-H ) :   0.9281
B( 22-C , 25-C ) :   1.1033 B( 25-C , 26-H ) :   0.9523 B( 25-C , 27-H ) :   0.9531
B( 25-C , 28-C ) :   1.0566 B( 28-C , 29-H ) :   0.9755 B( 28-C , 30-H ) :   0.9737
B( 28-C , 31-H ) :   0.9772

Dispersion correction           -0.015356006
FINAL SINGLE POINT ENERGY     -1339.877595461106

DIPOLE MOMENT
-------------
                                X             Y             Z
Electronic contribution:    -17.46789      19.10662      -9.30630
Nuclear contribution   :     17.92190     -19.47969       9.58723
                        -----------------------------------------
Total Dipole Moment    :      0.45401      -0.37307       0.28093
                        -----------------------------------------
Magnitude (a.u.)       :      0.65133
Magnitude (Debye)      :      1.65554

Rotational constants in cm-1:     0.020343     0.009361     0.007441
Rotational constants in MHz :   609.855735   280.649748   223.071467

                             ****ORCA TERMINATED NORMALLY****
TOTAL RUN TIME: 0 days 0 hours 0 minutes 34 seconds 961 msec
