                         Program Version 4.2.1 -  RELEASE  -
|  1> ! wB97X-D3 SP def2-SVP
|  2> %pal
|  3> nprocs 16
|  4> end
|  5>
|  6> * xyz 0 1
|  7> S 	 -34.0825 	 43.2868 	 91.9015
|  8> C 	 -35.4048 	 42.6166 	 92.8549
|  9> C 	 -35.0008 	 42.1603 	 94.0983
| 10> C 	 -33.5693 	 42.2951 	 94.2302
| 11> C 	 -32.9328 	 42.8959 	 93.1462
| 12> H 	 -33.0564 	 42.0283 	 95.1093
| 13> C 	 -35.8449 	 41.4963 	 95.182
| 14> H 	 -36.7851 	 42.1196 	 95.111
| 15> H 	 -35.397 	 41.6236 	 96.1686
| 16> C 	 -36.1231 	 40.0378 	 94.8692
| 17> H 	 -36.5493 	 40.0018 	 93.8689
| 18> H 	 -35.1856 	 39.4893 	 94.8645
| 19> C 	 -37.13 	 39.3569 	 95.8032
| 20> H 	 -36.7958 	 39.0049 	 96.7599
| 21> H 	 -37.8787 	 40.1014 	 96.074
| 22> H 	 -37.5607 	 38.5076 	 95.307
| 23> S 	 -30.5444 	 42.7314 	 92.0101
| 24> C 	 -29.2546 	 43.765 	 92.4287
| 25> C 	 -29.6567 	 44.6533 	 93.3899
| 26> C 	 -31.043 	 44.4458 	 93.7953
| 27> C 	 -31.6547 	 43.5216 	 93.0714
| 28> H 	 -28.9391 	 45.4196 	 93.7491
| 29> C 	 -31.6569 	 45.2864 	 94.8952
| 30> H 	 -30.8885 	 45.7982 	 95.4747
| 31> H 	 -32.0337 	 44.5168 	 95.5956
| 32> C 	 -32.6612 	 46.3383 	 94.3508
| 33> H 	 -33.1812 	 46.8494 	 95.1513
| 34> H 	 -33.3969 	 45.9481 	 93.6898
| 35> C 	 -32.0047 	 47.3416 	 93.5032
| 36> H 	 -31.6132 	 46.8241 	 92.652
| 37> H 	 -31.1488 	 47.7932 	 93.9771
| 38> H 	 -32.5697 	 48.1731 	 93.1139
| 39> H 	 -36.4786 	 42.6604 	 92.5481
| 40> H 	 -28.2656 	 43.6502 	 91.934
| 41> *
| 42>
| 43>                          ****END OF INPUT****

CARTESIAN COORDINATES (ANGSTROEM)
---------------------------------
  S    -34.082500   43.286800   91.901500
  C    -35.404800   42.616600   92.854900
  C    -35.000800   42.160300   94.098300
  C    -33.569300   42.295100   94.230200
  C    -32.932800   42.895900   93.146200
  H    -33.056400   42.028300   95.109300
  C    -35.844900   41.496300   95.182000
  H    -36.785100   42.119600   95.111000
  H    -35.397000   41.623600   96.168600
  C    -36.123100   40.037800   94.869200
  H    -36.549300   40.001800   93.868900
  H    -35.185600   39.489300   94.864500
  C    -37.130000   39.356900   95.803200
  H    -36.795800   39.004900   96.759900
  H    -37.878700   40.101400   96.074000
  H    -37.560700   38.507600   95.307000
  S    -30.544400   42.731400   92.010100
  C    -29.254600   43.765000   92.428700
  C    -29.656700   44.653300   93.389900
  C    -31.043000   44.445800   93.795300
  C    -31.654700   43.521600   93.071400
  H    -28.939100   45.419600   93.749100
  C    -31.656900   45.286400   94.895200
  H    -30.888500   45.798200   95.474700
  H    -32.033700   44.516800   95.595600
  C    -32.661200   46.338300   94.350800
  H    -33.181200   46.849400   95.151300
  H    -33.396900   45.948100   93.689800
  C    -32.004700   47.341600   93.503200
  H    -31.613200   46.824100   92.652000
  H    -31.148800   47.793200   93.977100
  H    -32.569700   48.173100   93.113900
  H    -36.478600   42.660400   92.548100
  H    -28.265600   43.650200   91.934000

 Total Charge           Charge          ....    0
 Multiplicity           Mult            ....    1
 Number of Electrons    NEL             ....  134
 Basis Dimension        Dim             ....  322

ORBITAL ENERGIES
----------------

  NO   OCC          E(Eh)            E(eV)
   0   2.0000     -88.967562     -2420.9304
   1   2.0000     -88.955447     -2420.6008
   2   2.0000     -10.325150      -280.9616
   3   2.0000     -10.319439      -280.8062
   4   2.0000     -10.314873      -280.6820
   5   2.0000     -10.312696      -280.6227
   6   2.0000     -10.303478      -280.3719
   7   2.0000     -10.298714      -280.2423
   8   2.0000     -10.298272      -280.2302
   9   2.0000     -10.294735      -280.1340
  10   2.0000     -10.293655      -280.1046
  11   2.0000     -10.292259      -280.0666
  12   2.0000     -10.285675      -279.8874
  13   2.0000     -10.274759      -279.5904
  14   2.0000     -10.274176      -279.5745
  15   2.0000     -10.259614      -279.1783
  16   2.0000      -8.082088      -219.9248
  17   2.0000      -8.072313      -219.6588
  18   2.0000      -6.040599      -164.3731
  19   2.0000      -6.036552      -164.2629
  20   2.0000      -6.032912      -164.1639
  21   2.0000      -6.030800      -164.1064
  22   2.0000      -6.026388      -163.9863
  23   2.0000      -6.023091      -163.8966
  24   2.0000      -1.015733       -27.6395
  25   2.0000      -0.986190       -26.8356
  26   2.0000      -0.915781       -24.9197
  27   2.0000      -0.913615       -24.8607
  28   2.0000      -0.873445       -23.7676
  29   2.0000      -0.853361       -23.2211
  30   2.0000      -0.845787       -23.0150
  31   2.0000      -0.812561       -22.1109
  32   2.0000      -0.783885       -21.3306
  33   2.0000      -0.774274       -21.0691
  34   2.0000      -0.706099       -19.2139
  35   2.0000      -0.701495       -19.0887
  36   2.0000      -0.691532       -18.8175
  37   2.0000      -0.665544       -18.1104
  38   2.0000      -0.641369       -17.4525
  39   2.0000      -0.618397       -16.8274
  40   2.0000      -0.593442       -16.1484
  41   2.0000      -0.575046       -15.6478
  42   2.0000      -0.559007       -15.2113
  43   2.0000      -0.553871       -15.0716
  44   2.0000      -0.551176       -14.9983
  45   2.0000      -0.529346       -14.4042
  46   2.0000      -0.520751       -14.1704
  47   2.0000      -0.515880       -14.0378
  48   2.0000      -0.503491       -13.7007
  49   2.0000      -0.498733       -13.5712
  50   2.0000      -0.485439       -13.2095
  51   2.0000      -0.477813       -13.0020
  52   2.0000      -0.469834       -12.7848
  53   2.0000      -0.468858       -12.7583
  54   2.0000      -0.452890       -12.3238
  55   2.0000      -0.448435       -12.2025
  56   2.0000      -0.444017       -12.0823
  57   2.0000      -0.439957       -11.9718
  58   2.0000      -0.429703       -11.6928
  59   2.0000      -0.427892       -11.6435
  60   2.0000      -0.417366       -11.3571
  61   2.0000      -0.416279       -11.3275
  62   2.0000      -0.407764       -11.0958
  63   2.0000      -0.336484        -9.1562
  64   2.0000      -0.334060        -9.0902
  65   2.0000      -0.325049        -8.8450
  66   2.0000      -0.305513        -8.3134
  67   0.0000       0.041109         1.1186
  68   0.0000       0.064857         1.7649
  69   0.0000       0.113979         3.1015
  70   0.0000       0.123260         3.3541
  71   0.0000       0.133773         3.6402

MULLIKEN ATOMIC CHARGES
-----------------------
   0 S :    0.116007
   1 C :   -0.138069
   2 C :   -0.112515
   3 C :    0.064072
   4 C :   -0.146471
   5 H :   -0.008604
   6 C :    0.049875
   7 H :    0.033457
   8 H :    0.028284
   9 C :   -0.063227
  10 H :    0.025485
  11 H :    0.031405
  12 C :   -0.015774
  13 H :    0.022185
  14 H :    0.018869
  15 H :    0.033520
  16 S :    0.099035
  17 C :   -0.105091
  18 C :   -0.048285
  19 C :   -0.069283
  20 C :   -0.167910
  21 H :    0.031513
  22 C :    0.095259
  23 H :    0.013237
  24 H :    0.030630
  25 C :   -0.014798
  26 H :    0.022815
  27 H :    0.025125
  28 C :   -0.049204
  29 H :    0.027410
  30 H :    0.004731
  31 H :    0.030319
  32 H :    0.061741
  33 H :    0.074257
Sum of atomic charges:   -0.0000000

LOEWDIN ATOMIC CHARGES
----------------------
   0 S :    0.415563
   1 C :   -0.202415
   2 C :   -0.061961
   3 C :   -0.050293
   4 C :   -0.203928
   5 H :    0.021308
   6 C :   -0.032672
   7 H :    0.037028
   8 H :    0.029079
   9 C :   -0.038792
  10 H :    0.026754
  11 H :    0.025854
  12 C :   -0.064347
  13 H :    0.020355
  14 H :    0.025046
  15 H :    0.026838
  16 S :    0.424902
  17 C :   -0.198860
  18 C :   -0.082281
  19 C :   -0.056294
  20 C :   -0.219533
  21 H :    0.036868
  22 C :   -0.025188
  23 H :    0.028261
  24 H :    0.035366
  25 C :   -0.034581
  26 H :    0.021556
  27 H :    0.021962
  28 C :   -0.064318
  29 H :    0.024061
  30 H :    0.015680
  31 H :    0.025878
  32 H :    0.035247
  33 H :    0.037855

  Mayer bond orders larger than 0.100000
B(  0-S ,  1-C ) :   1.1421 B(  0-S ,  4-C ) :   1.1609 B(  1-C ,  2-C ) :   1.6155
B(  1-C , 32-H ) :   0.9611 B(  2-C ,  3-C ) :   1.2450 B(  2-C ,  6-C ) :   1.0186
B(  3-C ,  4-C ) :   1.5769 B(  3-C ,  5-H ) :   1.0064 B(  4-C , 20-C ) :   0.9870
B(  6-C ,  7-H ) :   0.9331 B(  6-C ,  8-H ) :   0.9425 B(  6-C ,  9-C ) :   1.0787
B(  9-C , 10-H ) :   0.9551 B(  9-C , 11-H ) :   0.9537 B(  9-C , 12-C ) :   1.0775
B( 12-C , 13-H ) :   0.9748 B( 12-C , 14-H ) :   0.9732 B( 12-C , 15-H ) :   0.9756
B( 16-S , 17-C ) :   1.1713 B( 16-S , 20-C ) :   1.1417 B( 17-C , 18-C ) :   1.6071
B( 17-C , 33-H ) :   0.9650 B( 18-C , 19-C ) :   1.2023 B( 18-C , 21-H ) :   0.9912
B( 19-C , 20-C ) :   1.6658 B( 19-C , 22-C ) :   1.0360 B( 22-C , 23-H ) :   0.9354
B( 22-C , 24-H ) :   0.9309 B( 22-C , 25-C ) :   1.0637 B( 25-C , 26-H ) :   0.9564
B( 25-C , 27-H ) :   0.9589 B( 25-C , 28-C ) :   1.0732 B( 28-C , 29-H ) :   0.9718
B( 28-C , 30-H ) :   0.9717 B( 28-C , 31-H ) :   0.9705

Dispersion correction           -0.015073931
FINAL SINGLE POINT ENERGY     -1339.884138808439

DIPOLE MOMENT
-------------
                                X             Y             Z
Electronic contribution:     13.20296      -2.15664     -16.63225
Nuclear contribution   :    -13.38002       2.22741      17.19853
                        -----------------------------------------
Total Dipole Moment    :     -0.17706       0.07077       0.56628
                        -----------------------------------------
Magnitude (a.u.)       :      0.59752
Magnitude (Debye)      :      1.51878

Rotational constants in cm-1:     0.023339     0.007594     0.006894
Rotational constants in MHz :   699.682601   227.665851   206.671397

                             ****ORCA TERMINATED NORMALLY****
TOTAL RUN TIME: 0 days 0 hours 0 minutes 30 seconds 988 msec
