                         Program Version 4.2.1 -  RELEASE  -
|  1> ! wB97X-D3 SP def2-SVP
|  2> %pal
|  3> nprocs 16
|  4> end
|  5>
|  6> * xyz 0 1
|  7> S 	 -35.1582 	 59.2543 	 111.455
|  8> C 	 -33.4808 	 59.7764 	 111.588
|  9> C 	 -32.7607 	 58.8934 	 112.334
| 10> C 	 -33.5756 	 57.8015 	 112.747
| 11> C 	 -34.8599 	 57.7681 	 112.336
| 12> H 	 -33.209 	 56.9535 	 113.366
| 13> C 	 -31.2167 	 58.9584 	 112.65
| 14> H 	 -31.017 	 58.5972 	 113.715
| 15> H 	 -30.957 	 60.0633 	 112.62
| 16> C 	 -30.1882 	 58.3261 	 111.647
| 17> H 	 -30.4028 	 58.8555 	 110.664
| 18> H 	 -29.2139 	 58.495 	 111.994
| 19> C 	 -30.3541 	 56.8578 	 111.295
| 20> H 	 -31.3874 	 56.7494 	 110.942
| 21> H 	 -29.6897 	 56.704 	 110.469
| 22> H 	 -30.1107 	 56.185 	 112.12
| 23> S 	 -37.4894 	 57.2582 	 112.918
| 24> C 	 -38.045 	 55.6855 	 113.251
| 25> C 	 -37.0442 	 54.7584 	 113.073
| 26> C 	 -35.7823 	 55.3178 	 112.719
| 27> C 	 -35.8442 	 56.7491 	 112.683
| 28> H 	 -37.2707 	 53.6903 	 113.143
| 29> C 	 -34.5596 	 54.4981 	 112.424
| 30> H 	 -34.8338 	 53.4402 	 112.423
| 31> H 	 -33.9178 	 54.6089 	 113.286
| 32> C 	 -33.8737 	 54.8331 	 111.123
| 33> H 	 -33.1605 	 54.0223 	 111.038
| 34> H 	 -33.3675 	 55.813 	 111.104
| 35> C 	 -34.796 	 54.5673 	 109.838
| 36> H 	 -34.4149 	 55.1206 	 108.938
| 37> H 	 -35.8608 	 54.778 	 110.024
| 38> H 	 -34.6745 	 53.5007 	 109.545
| 39> H 	 -33.1077 	 60.6445 	 111.054
| 40> H 	 -39.0316 	 55.3485 	 113.488
| 41> *
| 42>
| 43>                          ****END OF INPUT****

CARTESIAN COORDINATES (ANGSTROEM)
---------------------------------
  S    -35.158200   59.254300  111.455000
  C    -33.480800   59.776400  111.588000
  C    -32.760700   58.893400  112.334000
  C    -33.575600   57.801500  112.747000
  C    -34.859900   57.768100  112.336000
  H    -33.209000   56.953500  113.366000
  C    -31.216700   58.958400  112.650000
  H    -31.017000   58.597200  113.715000
  H    -30.957000   60.063300  112.620000
  C    -30.188200   58.326100  111.647000
  H    -30.402800   58.855500  110.664000
  H    -29.213900   58.495000  111.994000
  C    -30.354100   56.857800  111.295000
  H    -31.387400   56.749400  110.942000
  H    -29.689700   56.704000  110.469000
  H    -30.110700   56.185000  112.120000
  S    -37.489400   57.258200  112.918000
  C    -38.045000   55.685500  113.251000
  C    -37.044200   54.758400  113.073000
  C    -35.782300   55.317800  112.719000
  C    -35.844200   56.749100  112.683000
  H    -37.270700   53.690300  113.143000
  C    -34.559600   54.498100  112.424000
  H    -34.833800   53.440200  112.423000
  H    -33.917800   54.608900  113.286000
  C    -33.873700   54.833100  111.123000
  H    -33.160500   54.022300  111.038000
  H    -33.367500   55.813000  111.104000
  C    -34.796000   54.567300  109.838000
  H    -34.414900   55.120600  108.938000
  H    -35.860800   54.778000  110.024000
  H    -34.674500   53.500700  109.545000
  H    -33.107700   60.644500  111.054000
  H    -39.031600   55.348500  113.488000

 Total Charge           Charge          ....    0
 Multiplicity           Mult            ....    1
 Number of Electrons    NEL             ....  134
 Basis Dimension        Dim             ....  322

ORBITAL ENERGIES
----------------

  NO   OCC          E(Eh)            E(eV)
   0   2.0000     -88.968124     -2420.9457
   1   2.0000     -88.965475     -2420.8737
   2   2.0000     -10.330081      -281.0958
   3   2.0000     -10.328549      -281.0541
   4   2.0000     -10.317332      -280.7489
   5   2.0000     -10.311850      -280.5997
   6   2.0000     -10.308188      -280.5001
   7   2.0000     -10.306149      -280.4446
   8   2.0000     -10.305461      -280.4258
   9   2.0000     -10.292434      -280.0714
  10   2.0000     -10.290371      -280.0152
  11   2.0000     -10.290040      -280.0062
  12   2.0000     -10.289392      -279.9886
  13   2.0000     -10.284543      -279.8566
  14   2.0000     -10.281406      -279.7713
  15   2.0000     -10.274240      -279.5763
  16   2.0000      -8.083584      -219.9655
  17   2.0000      -8.080124      -219.8714
  18   2.0000      -6.041982      -164.4107
  19   2.0000      -6.038795      -164.3240
  20   2.0000      -6.037836      -164.2979
  21   2.0000      -6.034640      -164.2109
  22   2.0000      -6.034591      -164.2096
  23   2.0000      -6.030711      -164.1040
  24   2.0000      -1.011307       -27.5191
  25   2.0000      -0.989784       -26.9334
  26   2.0000      -0.910972       -24.7888
  27   2.0000      -0.904334       -24.6082
  28   2.0000      -0.873605       -23.7720
  29   2.0000      -0.845707       -23.0129
  30   2.0000      -0.841218       -22.8907
  31   2.0000      -0.815790       -22.1988
  32   2.0000      -0.782587       -21.2953
  33   2.0000      -0.773586       -21.0503
  34   2.0000      -0.710034       -19.3210
  35   2.0000      -0.693390       -18.8681
  36   2.0000      -0.685567       -18.6552
  37   2.0000      -0.661609       -18.0033
  38   2.0000      -0.638983       -17.3876
  39   2.0000      -0.615572       -16.7506
  40   2.0000      -0.591455       -16.0943
  41   2.0000      -0.575917       -15.6715
  42   2.0000      -0.557786       -15.1781
  43   2.0000      -0.547246       -14.8913
  44   2.0000      -0.544886       -14.8271
  45   2.0000      -0.539404       -14.6779
  46   2.0000      -0.512903       -13.9568
  47   2.0000      -0.509356       -13.8603
  48   2.0000      -0.505059       -13.7434
  49   2.0000      -0.499790       -13.6000
  50   2.0000      -0.481822       -13.1110
  51   2.0000      -0.480630       -13.0786
  52   2.0000      -0.475272       -12.9328
  53   2.0000      -0.467969       -12.7341
  54   2.0000      -0.460615       -12.5340
  55   2.0000      -0.443829       -12.0772
  56   2.0000      -0.440619       -11.9898
  57   2.0000      -0.438529       -11.9330
  58   2.0000      -0.428001       -11.6465
  59   2.0000      -0.419718       -11.4211
  60   2.0000      -0.417161       -11.3515
  61   2.0000      -0.412573       -11.2267
  62   2.0000      -0.409343       -11.1388
  63   2.0000      -0.357627        -9.7315
  64   2.0000      -0.333019        -9.0619
  65   2.0000      -0.330559        -8.9950
  66   2.0000      -0.287683        -7.8283
  67   0.0000       0.025169         0.6849
  68   0.0000       0.077150         2.0993
  69   0.0000       0.111152         3.0246
  70   0.0000       0.126198         3.4340
  71   0.0000       0.130753         3.5580

MULLIKEN ATOMIC CHARGES
-----------------------
   0 S :    0.098271
   1 C :   -0.141937
   2 C :   -0.050151
   3 C :   -0.031658
   4 C :   -0.106941
   5 H :    0.018139
   6 C :    0.020283
   7 H :    0.043677
   8 H :    0.036233
   9 C :   -0.074056
  10 H :    0.028935
  11 H :    0.026941
  12 C :   -0.037504
  13 H :    0.035149
  14 H :    0.029291
  15 H :    0.034648
  16 S :    0.120108
  17 C :   -0.068233
  18 C :   -0.055818
  19 C :   -0.060475
  20 C :   -0.161258
  21 H :    0.021128
  22 C :    0.076418
  23 H :    0.010266
  24 H :    0.039911
  25 C :   -0.091703
  26 H :    0.025684
  27 H :    0.079592
  28 C :   -0.089794
  29 H :    0.042086
  30 H :    0.054795
  31 H :    0.029037
  32 H :    0.053690
  33 H :    0.045245
Sum of atomic charges:   -0.0000000

LOEWDIN ATOMIC CHARGES
----------------------
   0 S :    0.391512
   1 C :   -0.185380
   2 C :   -0.071564
   3 C :   -0.075627
   4 C :   -0.193940
   5 H :    0.034169
   6 C :   -0.037917
   7 H :    0.034497
   8 H :    0.036896
   9 C :   -0.039046
  10 H :    0.031269
  11 H :    0.016168
  12 C :   -0.064836
  13 H :    0.027440
  14 H :    0.025817
  15 H :    0.022749
  16 S :    0.440673
  17 C :   -0.202136
  18 C :   -0.079090
  19 C :   -0.052953
  20 C :   -0.203649
  21 H :    0.033530
  22 C :   -0.035138
  23 H :    0.032036
  24 H :    0.033040
  25 C :   -0.042207
  26 H :    0.025605
  27 H :    0.025577
  28 C :   -0.071537
  29 H :    0.032195
  30 H :    0.026321
  31 H :    0.025021
  32 H :    0.031028
  33 H :    0.029479

  Mayer bond orders larger than 0.100000
B(  0-S ,  1-C ) :   1.1353 B(  0-S ,  4-C ) :   1.1263 B(  1-C ,  2-C ) :   1.6175
B(  1-C , 32-H ) :   0.9701 B(  2-C ,  3-C ) :   1.2417 B(  2-C ,  6-C ) :   1.0034
B(  3-C ,  4-C ) :   1.5849 B(  3-C ,  5-H ) :   0.9895 B(  4-C , 20-C ) :   1.0758
B(  6-C ,  7-H ) :   0.9466 B(  6-C ,  8-H ) :   0.9447 B(  6-C ,  9-C ) :   1.0652
B(  9-C , 10-H ) :   0.9552 B(  9-C , 11-H ) :   0.9566 B(  9-C , 12-C ) :   1.0909
B( 12-C , 13-H ) :   0.9703 B( 12-C , 14-H ) :   0.9684 B( 12-C , 15-H ) :   0.9746
B( 16-S , 17-C ) :   1.1780 B( 16-S , 20-C ) :   1.1592 B( 17-C , 18-C ) :   1.5760
B( 17-C , 20-C ) :   0.1036 B( 17-C , 33-H ) :   0.9682 B( 18-C , 19-C ) :   1.2927
B( 18-C , 21-H ) :   0.9870 B( 19-C , 20-C ) :   1.5126 B( 19-C , 22-C ) :   1.0374
B( 22-C , 23-H ) :   0.9298 B( 22-C , 24-H ) :   0.9257 B( 22-C , 25-C ) :   1.0788
B( 25-C , 26-H ) :   0.9591 B( 25-C , 27-H ) :   0.9414 B( 25-C , 28-C ) :   1.0535
B( 28-C , 29-H ) :   0.9771 B( 28-C , 30-H ) :   0.9802 B( 28-C , 31-H ) :   0.9804

Dispersion correction           -0.016188260
FINAL SINGLE POINT ENERGY     -1339.883968309738

DIPOLE MOMENT
-------------
                                X             Y             Z
Electronic contribution:    -24.15474      13.25115       7.44297
Nuclear contribution   :     24.70709     -13.71542      -7.47407
                        -----------------------------------------
Total Dipole Moment    :      0.55234      -0.46427      -0.03110
                        -----------------------------------------
Magnitude (a.u.)       :      0.72222
Magnitude (Debye)      :      1.83573

Rotational constants in cm-1:     0.020794     0.009874     0.007677
Rotational constants in MHz :   623.375459   296.011091   230.152183

                             ****ORCA TERMINATED NORMALLY****
TOTAL RUN TIME: 0 days 0 hours 0 minutes 31 seconds 571 msec
