                         Program Version 4.2.1 -  RELEASE  -
|  1> ! wB97X-D3 SP def2-SVP
|  2> %pal
|  3> nprocs 16
|  4> end
|  5>
|  6> * xyz 0 1
|  7> S 	 -2.76866 	 -9.20113 	 68.8583
|  8> C 	 -3.57394 	 -10.6883 	 68.5067
|  9> C 	 -2.81445 	 -11.7233 	 69.0296
| 10> C 	 -1.778 	 -11.1952 	 69.9141
| 11> C 	 -1.69479 	 -9.78173 	 70.0998
| 12> H 	 -1.1552 	 -11.7242 	 70.6673
| 13> C 	 -3.02478 	 -13.2389 	 68.8348
| 14> H 	 -2.22335 	 -13.8128 	 68.4313
| 15> H 	 -3.92367 	 -13.4173 	 68.2004
| 16> C 	 -3.39823 	 -13.9828 	 70.1343
| 17> H 	 -2.59891 	 -13.9056 	 70.8551
| 18> H 	 -4.21057 	 -13.4033 	 70.5881
| 19> C 	 -3.88298 	 -15.448 	 69.8264
| 20> H 	 -4.5886 	 -15.4802 	 68.9832
| 21> H 	 -3.09246 	 -16.1431 	 69.5957
| 22> H 	 -4.16931 	 -15.8542 	 70.7696
| 23> S 	 -1.85457 	 -7.72059 	 72.0148
| 24> C 	 -0.492899 	 -7.29912 	 72.9352
| 25> C 	 0.641647 	 -7.90421 	 72.488
| 26> C 	 0.361177 	 -8.82006 	 71.4302
| 27> C 	 -0.949592 	 -8.86338 	 71.0107
| 28> H 	 1.5665 	 -7.82878 	 73.0764
| 29> C 	 1.42061 	 -9.89247 	 70.9257
| 30> H 	 2.12295 	 -9.29718 	 70.4533
| 31> H 	 0.903322 	 -10.532 	 70.1684
| 32> C 	 2.05703 	 -10.7549 	 72.0188
| 33> H 	 1.36683 	 -11.5243 	 72.3554
| 34> H 	 2.37254 	 -10.1521 	 72.8364
| 35> C 	 3.35615 	 -11.4593 	 71.6315
| 36> H 	 4.09814 	 -10.7691 	 71.1159
| 37> H 	 3.21706 	 -12.2229 	 70.9239
| 38> H 	 3.86794 	 -11.8315 	 72.5348
| 39> H 	 -4.30329 	 -10.7498 	 67.6804
| 40> H 	 -0.57971 	 -6.59346 	 73.7097
| 41> *
| 42>
| 43>                          ****END OF INPUT****

CARTESIAN COORDINATES (ANGSTROEM)
---------------------------------
  S     -2.768660   -9.201130   68.858300
  C     -3.573940  -10.688300   68.506700
  C     -2.814450  -11.723300   69.029600
  C     -1.778000  -11.195200   69.914100
  C     -1.694790   -9.781730   70.099800
  H     -1.155200  -11.724200   70.667300
  C     -3.024780  -13.238900   68.834800
  H     -2.223350  -13.812800   68.431300
  H     -3.923670  -13.417300   68.200400
  C     -3.398230  -13.982800   70.134300
  H     -2.598910  -13.905600   70.855100
  H     -4.210570  -13.403300   70.588100
  C     -3.882980  -15.448000   69.826400
  H     -4.588600  -15.480200   68.983200
  H     -3.092460  -16.143100   69.595700
  H     -4.169310  -15.854200   70.769600
  S     -1.854570   -7.720590   72.014800
  C     -0.492899   -7.299120   72.935200
  C      0.641647   -7.904210   72.488000
  C      0.361177   -8.820060   71.430200
  C     -0.949592   -8.863380   71.010700
  H      1.566500   -7.828780   73.076400
  C      1.420610   -9.892470   70.925700
  H      2.122950   -9.297180   70.453300
  H      0.903322  -10.532000   70.168400
  C      2.057030  -10.754900   72.018800
  H      1.366830  -11.524300   72.355400
  H      2.372540  -10.152100   72.836400
  C      3.356150  -11.459300   71.631500
  H      4.098140  -10.769100   71.115900
  H      3.217060  -12.222900   70.923900
  H      3.867940  -11.831500   72.534800
  H     -4.303290  -10.749800   67.680400
  H     -0.579710   -6.593460   73.709700

 Total Charge           Charge          ....    0
 Multiplicity           Mult            ....    1
 Number of Electrons    NEL             ....  134
 Basis Dimension        Dim             ....  322

ORBITAL ENERGIES
----------------

  NO   OCC          E(Eh)            E(eV)
   0   2.0000     -88.964753     -2420.8540
   1   2.0000     -88.959548     -2420.7124
   2   2.0000     -10.340221      -281.3717
   3   2.0000     -10.333875      -281.1990
   4   2.0000     -10.319165      -280.7987
   5   2.0000     -10.315880      -280.7094
   6   2.0000     -10.312883      -280.6278
   7   2.0000     -10.309703      -280.5413
   8   2.0000     -10.304819      -280.4084
   9   2.0000     -10.296819      -280.1907
  10   2.0000     -10.294239      -280.1205
  11   2.0000     -10.291555      -280.0474
  12   2.0000     -10.286165      -279.9008
  13   2.0000     -10.284916      -279.8668
  14   2.0000     -10.280347      -279.7425
  15   2.0000     -10.279390      -279.7164
  16   2.0000      -8.080523      -219.8822
  17   2.0000      -8.075074      -219.7339
  18   2.0000      -6.038953      -164.3283
  19   2.0000      -6.034713      -164.2129
  20   2.0000      -6.033500      -164.1799
  21   2.0000      -6.031437      -164.1237
  22   2.0000      -6.029307      -164.0658
  23   2.0000      -6.025989      -163.9755
  24   2.0000      -1.009556       -27.4714
  25   2.0000      -0.990120       -26.9425
  26   2.0000      -0.908584       -24.7238
  27   2.0000      -0.907542       -24.6955
  28   2.0000      -0.871764       -23.7219
  29   2.0000      -0.851798       -23.1786
  30   2.0000      -0.836690       -22.7675
  31   2.0000      -0.816553       -22.2195
  32   2.0000      -0.783654       -21.3243
  33   2.0000      -0.775871       -21.1125
  34   2.0000      -0.706790       -19.2327
  35   2.0000      -0.700904       -19.0726
  36   2.0000      -0.693423       -18.8690
  37   2.0000      -0.660625       -17.9765
  38   2.0000      -0.645919       -17.5763
  39   2.0000      -0.614379       -16.7181
  40   2.0000      -0.599469       -16.3124
  41   2.0000      -0.575355       -15.6562
  42   2.0000      -0.570574       -15.5261
  43   2.0000      -0.563986       -15.3468
  44   2.0000      -0.531221       -14.4553
  45   2.0000      -0.524668       -14.2770
  46   2.0000      -0.520481       -14.1630
  47   2.0000      -0.508401       -13.8343
  48   2.0000      -0.504918       -13.7395
  49   2.0000      -0.500855       -13.6290
  50   2.0000      -0.494291       -13.4503
  51   2.0000      -0.477619       -12.9967
  52   2.0000      -0.473757       -12.8916
  53   2.0000      -0.470869       -12.8130
  54   2.0000      -0.463704       -12.6180
  55   2.0000      -0.450638       -12.2625
  56   2.0000      -0.439525       -11.9601
  57   2.0000      -0.433129       -11.7860
  58   2.0000      -0.432655       -11.7731
  59   2.0000      -0.427423       -11.6308
  60   2.0000      -0.417874       -11.3709
  61   2.0000      -0.410399       -11.1675
  62   2.0000      -0.406285       -11.0556
  63   2.0000      -0.349582        -9.5126
  64   2.0000      -0.334034        -9.0895
  65   2.0000      -0.321362        -8.7447
  66   2.0000      -0.302046        -8.2191
  67   0.0000       0.028716         0.7814
  68   0.0000       0.067340         1.8324
  69   0.0000       0.108751         2.9593
  70   0.0000       0.122308         3.3282
  71   0.0000       0.134744         3.6666

MULLIKEN ATOMIC CHARGES
-----------------------
   0 S :    0.091232
   1 C :   -0.117188
   2 C :   -0.077096
   3 C :    0.018248
   4 C :   -0.181456
   5 H :    0.024734
   6 C :    0.067897
   7 H :    0.031822
   8 H :    0.015987
   9 C :   -0.111874
  10 H :    0.027536
  11 H :    0.032274
  12 C :   -0.026877
  13 H :    0.040847
  14 H :    0.020986
  15 H :    0.027444
  16 S :    0.111983
  17 C :   -0.075586
  18 C :   -0.037258
  19 C :   -0.052161
  20 C :   -0.143862
  21 H :    0.034359
  22 C :    0.099005
  23 H :    0.008832
  24 H :    0.032965
  25 C :   -0.057940
  26 H :    0.033988
  27 H :    0.018517
  28 C :   -0.066328
  29 H :    0.028359
  30 H :    0.022678
  31 H :    0.040560
  32 H :    0.070707
  33 H :    0.046666
Sum of atomic charges:   -0.0000000

LOEWDIN ATOMIC CHARGES
----------------------
   0 S :    0.417151
   1 C :   -0.204265
   2 C :   -0.065815
   3 C :   -0.078626
   4 C :   -0.197207
   5 H :    0.029494
   6 C :   -0.031863
   7 H :    0.026841
   8 H :    0.030551
   9 C :   -0.038131
  10 H :    0.017287
  11 H :    0.024574
  12 C :   -0.065001
  13 H :    0.028798
  14 H :    0.023555
  15 H :    0.026817
  16 S :    0.425713
  17 C :   -0.176742
  18 C :   -0.084261
  19 C :   -0.044358
  20 C :   -0.209025
  21 H :    0.037759
  22 C :   -0.020518
  23 H :    0.019698
  24 H :    0.034345
  25 C :   -0.039364
  26 H :    0.026373
  27 H :    0.019433
  28 C :   -0.065218
  29 H :    0.028996
  30 H :    0.013955
  31 H :    0.030188
  32 H :    0.037541
  33 H :    0.021325

  Mayer bond orders larger than 0.100000
B(  0-S ,  1-C ) :   1.1596 B(  0-S ,  4-C ) :   1.1743 B(  1-C ,  2-C ) :   1.5782
B(  1-C ,  4-C ) :   0.1064 B(  1-C , 32-H ) :   0.9654 B(  2-C ,  3-C ) :   1.2442
B(  2-C ,  6-C ) :   1.0278 B(  3-C ,  4-C ) :   1.5574 B(  3-C ,  5-H ) :   0.9824
B(  4-C , 20-C ) :   1.0190 B(  6-C ,  7-H ) :   0.9476 B(  6-C ,  8-H ) :   0.9471
B(  6-C ,  9-C ) :   1.0530 B(  9-C , 10-H ) :   0.9572 B(  9-C , 11-H ) :   0.9586
B(  9-C , 12-C ) :   1.0771 B( 12-C , 13-H ) :   0.9752 B( 12-C , 14-H ) :   0.9727
B( 12-C , 15-H ) :   0.9720 B( 16-S , 17-C ) :   1.1942 B( 16-S , 20-C ) :   1.1315
B( 17-C , 18-C ) :   1.5847 B( 17-C , 33-H ) :   0.9724 B( 18-C , 19-C ) :   1.2457
B( 18-C , 21-H ) :   0.9894 B( 19-C , 20-C ) :   1.6129 B( 19-C , 22-C ) :   1.0195
B( 22-C , 23-H ) :   0.9285 B( 22-C , 24-H ) :   0.9399 B( 22-C , 25-C ) :   1.0725
B( 25-C , 26-H ) :   0.9542 B( 25-C , 27-H ) :   0.9551 B( 25-C , 28-C ) :   1.0838
B( 28-C , 29-H ) :   0.9734 B( 28-C , 30-H ) :   0.9775 B( 28-C , 31-H ) :   0.9753

Dispersion correction           -0.013334519
FINAL SINGLE POINT ENERGY     -1339.858600816013

DIPOLE MOMENT
-------------
                                X             Y             Z
Electronic contribution:    -10.94966      27.92228      -1.96895
Nuclear contribution   :     11.35069     -28.47634       2.26972
                        -----------------------------------------
Total Dipole Moment    :      0.40103      -0.55406       0.30077
                        -----------------------------------------
Magnitude (a.u.)       :      0.74717
Magnitude (Debye)      :      1.89917

Rotational constants in cm-1:     0.016410     0.008206     0.006255
Rotational constants in MHz :   491.965654   246.012413   187.528465

                             ****ORCA TERMINATED NORMALLY****
TOTAL RUN TIME: 0 days 0 hours 0 minutes 33 seconds 204 msec
