                         Program Version 4.2.1 -  RELEASE  -
|  1> ! wB97X-D3 SP def2-SVP
|  2> %pal
|  3> nprocs 16
|  4> end
|  5>
|  6> * xyz 0 1
|  7> S 	 -20.5582 	 2.63663 	 76.7047
|  8> C 	 -19.9682 	 1.04296 	 76.4027
|  9> C 	 -20.8347 	 0.0192413 	 76.7951
| 10> C 	 -22.1782 	 0.570604 	 76.9279
| 11> C 	 -22.1745 	 1.97311 	 76.9236
| 12> H 	 -23.0199 	 -0.0384238 	 76.9431
| 13> C 	 -20.5222 	 -1.40519 	 76.7163
| 14> H 	 -19.6756 	 -1.62219 	 76.082
| 15> H 	 -21.3797 	 -1.89971 	 76.3056
| 16> C 	 -20.2749 	 -1.95928 	 78.1064
| 17> H 	 -21.0752 	 -1.71173 	 78.7827
| 18> H 	 -20.3234 	 -3.05781 	 77.9778
| 19> C 	 -18.978 	 -1.4932 	 78.7236
| 20> H 	 -18.1367 	 -1.60075 	 78.0184
| 21> H 	 -19.0284 	 -0.460308 	 79.1169
| 22> H 	 -18.7182 	 -2.05918 	 79.6177
| 23> S 	 -22.9619 	 4.11946 	 78.5407
| 24> C 	 -24.6819 	 4.38908 	 78.6841
| 25> C 	 -25.4156 	 3.57295 	 77.9834
| 26> C 	 -24.6149 	 2.54122 	 77.3707
| 27> C 	 -23.2746 	 2.79896 	 77.3807
| 28> H 	 -26.4886 	 3.59887 	 77.8692
| 29> C 	 -25.2494 	 1.53652 	 76.4046
| 30> H 	 -24.4875 	 1.23453 	 75.678
| 31> H 	 -26.0539 	 1.97451 	 75.8339
| 32> C 	 -25.6649 	 0.219858 	 77.1344
| 33> H 	 -26.6338 	 0.490862 	 77.5866
| 34> H 	 -25.1544 	 -0.0720419 	 78.0444
| 35> C 	 -25.7957 	 -1.00968 	 76.1938
| 36> H 	 -25.949 	 -1.87722 	 76.8207
| 37> H 	 -24.9262 	 -1.29172 	 75.6152
| 38> H 	 -26.7265 	 -1.04281 	 75.6422
| 39> H 	 -19.0423 	 0.896902 	 75.8846
| 40> H 	 -25.0735 	 5.23118 	 79.2246
| 41> *
| 42>
| 43>                          ****END OF INPUT****

CARTESIAN COORDINATES (ANGSTROEM)
---------------------------------
  S    -20.558200    2.636630   76.704700
  C    -19.968200    1.042960   76.402700
  C    -20.834700    0.019241   76.795100
  C    -22.178200    0.570604   76.927900
  C    -22.174500    1.973110   76.923600
  H    -23.019900   -0.038424   76.943100
  C    -20.522200   -1.405190   76.716300
  H    -19.675600   -1.622190   76.082000
  H    -21.379700   -1.899710   76.305600
  C    -20.274900   -1.959280   78.106400
  H    -21.075200   -1.711730   78.782700
  H    -20.323400   -3.057810   77.977800
  C    -18.978000   -1.493200   78.723600
  H    -18.136700   -1.600750   78.018400
  H    -19.028400   -0.460308   79.116900
  H    -18.718200   -2.059180   79.617700
  S    -22.961900    4.119460   78.540700
  C    -24.681900    4.389080   78.684100
  C    -25.415600    3.572950   77.983400
  C    -24.614900    2.541220   77.370700
  C    -23.274600    2.798960   77.380700
  H    -26.488600    3.598870   77.869200
  C    -25.249400    1.536520   76.404600
  H    -24.487500    1.234530   75.678000
  H    -26.053900    1.974510   75.833900
  C    -25.664900    0.219858   77.134400
  H    -26.633800    0.490862   77.586600
  H    -25.154400   -0.072042   78.044400
  C    -25.795700   -1.009680   76.193800
  H    -25.949000   -1.877220   76.820700
  H    -24.926200   -1.291720   75.615200
  H    -26.726500   -1.042810   75.642200
  H    -19.042300    0.896902   75.884600
  H    -25.073500    5.231180   79.224600

 Total Charge           Charge          ....    0
 Multiplicity           Mult            ....    1
 Number of Electrons    NEL             ....  134
 Basis Dimension        Dim             ....  322

ORBITAL ENERGIES
----------------

  NO   OCC          E(Eh)            E(eV)
   0   2.0000     -88.967069     -2420.9170
   1   2.0000     -88.958212     -2420.6760
   2   2.0000     -10.330561      -281.1089
   3   2.0000     -10.322677      -280.8943
   4   2.0000     -10.311878      -280.6005
   5   2.0000     -10.305655      -280.4311
   6   2.0000     -10.301543      -280.3192
   7   2.0000     -10.296559      -280.1836
   8   2.0000     -10.293746      -280.1071
   9   2.0000     -10.290366      -280.0151
  10   2.0000     -10.289735      -279.9979
  11   2.0000     -10.285858      -279.8924
  12   2.0000     -10.284410      -279.8530
  13   2.0000     -10.284240      -279.8484
  14   2.0000     -10.278935      -279.7040
  15   2.0000     -10.276182      -279.6291
  16   2.0000      -8.082100      -219.9251
  17   2.0000      -8.073205      -219.6831
  18   2.0000      -6.040553      -164.3718
  19   2.0000      -6.036711      -164.2673
  20   2.0000      -6.032785      -164.1604
  21   2.0000      -6.031885      -164.1359
  22   2.0000      -6.027921      -164.0281
  23   2.0000      -6.023520      -163.9083
  24   2.0000      -1.007338       -27.4110
  25   2.0000      -0.985748       -26.8236
  26   2.0000      -0.923389       -25.1267
  27   2.0000      -0.903113       -24.5749
  28   2.0000      -0.871692       -23.7199
  29   2.0000      -0.852362       -23.1940
  30   2.0000      -0.844414       -22.9777
  31   2.0000      -0.815807       -22.1993
  32   2.0000      -0.785071       -21.3629
  33   2.0000      -0.773112       -21.0374
  34   2.0000      -0.709338       -19.3021
  35   2.0000      -0.699855       -19.0440
  36   2.0000      -0.693202       -18.8630
  37   2.0000      -0.664237       -18.0748
  38   2.0000      -0.641127       -17.4460
  39   2.0000      -0.626377       -17.0446
  40   2.0000      -0.599526       -16.3139
  41   2.0000      -0.571182       -15.5427
  42   2.0000      -0.563847       -15.3431
  43   2.0000      -0.553605       -15.0644
  44   2.0000      -0.544707       -14.8222
  45   2.0000      -0.521401       -14.1880
  46   2.0000      -0.519162       -14.1271
  47   2.0000      -0.511428       -13.9167
  48   2.0000      -0.505881       -13.7657
  49   2.0000      -0.495188       -13.4747
  50   2.0000      -0.492187       -13.3931
  51   2.0000      -0.484478       -13.1833
  52   2.0000      -0.472930       -12.8691
  53   2.0000      -0.466539       -12.6952
  54   2.0000      -0.457916       -12.4605
  55   2.0000      -0.450507       -12.2589
  56   2.0000      -0.442379       -12.0377
  57   2.0000      -0.439282       -11.9535
  58   2.0000      -0.435594       -11.8531
  59   2.0000      -0.430882       -11.7249
  60   2.0000      -0.418972       -11.4008
  61   2.0000      -0.413918       -11.2633
  62   2.0000      -0.404292       -11.0013
  63   2.0000      -0.358437        -9.7536
  64   2.0000      -0.330168        -8.9843
  65   2.0000      -0.325977        -8.8703
  66   2.0000      -0.280968        -7.6455
  67   0.0000       0.025555         0.6954
  68   0.0000       0.073919         2.0114
  69   0.0000       0.106994         2.9115
  70   0.0000       0.117001         3.1838
  71   0.0000       0.131741         3.5849

MULLIKEN ATOMIC CHARGES
-----------------------
   0 S :    0.109498
   1 C :   -0.117626
   2 C :   -0.091276
   3 C :    0.055336
   4 C :   -0.127267
   5 H :   -0.034712
   6 C :    0.083919
   7 H :    0.022618
   8 H :    0.014231
   9 C :   -0.073077
  10 H :    0.025122
  11 H :    0.029098
  12 C :   -0.052555
  13 H :    0.025487
  14 H :    0.046773
  15 H :    0.030017
  16 S :    0.072513
  17 C :   -0.062639
  18 C :    0.006460
  19 C :   -0.076229
  20 C :   -0.090342
  21 H :    0.013612
  22 C :    0.034631
  23 H :    0.026707
  24 H :    0.032862
  25 C :   -0.110476
  26 H :    0.017652
  27 H :    0.041551
  28 C :   -0.031305
  29 H :    0.014320
  30 H :    0.039529
  31 H :    0.033429
  32 H :    0.046030
  33 H :    0.046108
Sum of atomic charges:   -0.0000000

LOEWDIN ATOMIC CHARGES
----------------------
   0 S :    0.406003
   1 C :   -0.194790
   2 C :   -0.052777
   3 C :   -0.040943
   4 C :   -0.187012
   5 H :    0.018375
   6 C :   -0.031331
   7 H :    0.029967
   8 H :    0.028941
   9 C :   -0.039600
  10 H :    0.023320
  11 H :    0.025443
  12 C :   -0.069596
  13 H :    0.023235
  14 H :    0.032530
  15 H :    0.027027
  16 S :    0.368736
  17 C :   -0.173238
  18 C :   -0.069773
  19 C :   -0.062064
  20 C :   -0.178345
  21 H :    0.033302
  22 C :   -0.027886
  23 H :    0.026222
  24 H :    0.028912
  25 C :   -0.050458
  26 H :    0.026789
  27 H :    0.024745
  28 C :   -0.072900
  29 H :    0.027439
  30 H :    0.023349
  31 H :    0.028031
  32 H :    0.021548
  33 H :    0.026797

  Mayer bond orders larger than 0.100000
B(  0-S ,  1-C ) :   1.1465 B(  0-S ,  4-C ) :   1.1392 B(  1-C ,  2-C ) :   1.5852
B(  1-C , 32-H ) :   0.9736 B(  2-C ,  3-C ) :   1.2472 B(  2-C ,  6-C ) :   1.0454
B(  3-C ,  4-C ) :   1.5408 B(  3-C ,  5-H ) :   0.9970 B(  4-C , 20-C ) :   1.0681
B(  6-C ,  7-H ) :   0.9447 B(  6-C ,  8-H ) :   0.9321 B(  6-C ,  9-C ) :   1.0687
B(  9-C , 10-H ) :   0.9535 B(  9-C , 11-H ) :   0.9539 B(  9-C , 12-C ) :   1.0812
B( 12-C , 13-H ) :   0.9753 B( 12-C , 14-H ) :   0.9702 B( 12-C , 15-H ) :   0.9712
B( 16-S , 17-C ) :   1.1241 B( 16-S , 20-C ) :   1.1000 B( 17-C , 18-C ) :   1.6644
B( 17-C , 33-H ) :   0.9620 B( 18-C , 19-C ) :   1.1934 B( 18-C , 21-H ) :   0.9933
B( 19-C , 20-C ) :   1.6579 B( 19-C , 22-C ) :   1.0393 B( 22-C , 23-H ) :   0.9565
B( 22-C , 24-H ) :   0.9501 B( 22-C , 25-C ) :   1.0196 B( 25-C , 26-H ) :   0.9489
B( 25-C , 27-H ) :   0.9673 B( 25-C , 28-C ) :   1.0782 B( 28-C , 29-H ) :   0.9697
B( 28-C , 30-H ) :   0.9751 B( 28-C , 31-H ) :   0.9736

Dispersion correction           -0.014872677
FINAL SINGLE POINT ENERGY     -1339.866828737568

DIPOLE MOMENT
-------------
                                X             Y             Z
Electronic contribution:      5.15998      27.24920       1.25538
Nuclear contribution   :     -5.49568     -27.96052      -1.35406
                        -----------------------------------------
Total Dipole Moment    :     -0.33570      -0.71132      -0.09868
                        -----------------------------------------
Magnitude (a.u.)       :      0.79272
Magnitude (Debye)      :      2.01494

Rotational constants in cm-1:     0.017807     0.009818     0.007249
Rotational constants in MHz :   533.840997   294.330708   217.328408

                             ****ORCA TERMINATED NORMALLY****
TOTAL RUN TIME: 0 days 0 hours 0 minutes 35 seconds 385 msec
