                         Program Version 4.2.1 -  RELEASE  -
|  1> ! wB97X-D3 SP def2-SVP
|  2> %pal
|  3> nprocs 16
|  4> end
|  5>
|  6> * xyz 0 1
|  7> S 	 -57.2558 	 39.0082 	 117.486
|  8> C 	 -57.7053 	 37.5032 	 118.344
|  9> C 	 -57.4186 	 36.477 	 117.5
| 10> C 	 -56.9562 	 36.9198 	 116.221
| 11> C 	 -56.6173 	 38.2294 	 116.116
| 12> H 	 -56.8367 	 36.2008 	 115.438
| 13> C 	 -57.7058 	 35.0596 	 117.956
| 14> H 	 -58.8063 	 34.969 	 118.031
| 15> H 	 -57.4198 	 34.9842 	 118.981
| 16> C 	 -57.2132 	 33.8151 	 117.244
| 17> H 	 -57.5482 	 32.9779 	 117.912
| 18> H 	 -57.7452 	 33.7165 	 116.269
| 19> C 	 -55.7252 	 33.8073 	 117.018
| 20> H 	 -55.2982 	 33.8 	 118.042
| 21> H 	 -55.56 	 32.8559 	 116.396
| 22> H 	 -55.4256 	 34.6963 	 116.435
| 23> S 	 -57.1417 	 40.1083 	 114.203
| 24> C 	 -56.0128 	 40.4203 	 112.917
| 25> C 	 -54.8629 	 39.6657 	 113.003
| 26> C 	 -54.9281 	 38.8088 	 114.188
| 27> C 	 -56.1666 	 38.8504 	 114.871
| 28> H 	 -54.0498 	 39.7679 	 112.23
| 29> C 	 -53.6356 	 38.0762 	 114.62
| 30> H 	 -53.7909 	 37.7091 	 115.64
| 31> H 	 -52.8509 	 38.8192 	 114.689
| 32> C 	 -53.1762 	 36.8878 	 113.738
| 33> H 	 -52.1059 	 36.6912 	 113.924
| 34> H 	 -53.259 	 37.2747 	 112.696
| 35> C 	 -53.9785 	 35.6431 	 113.711
| 36> H 	 -53.7202 	 35.0272 	 114.535
| 37> H 	 -53.875 	 34.9037 	 112.884
| 38> H 	 -55.0253 	 35.9101 	 113.784
| 39> H 	 -58.152 	 37.3041 	 119.324
| 40> H 	 -56.2259 	 41.0682 	 111.983
| 41> *
| 42>
| 43>                          ****END OF INPUT****

CARTESIAN COORDINATES (ANGSTROEM)
---------------------------------
  S    -57.255800   39.008200  117.486000
  C    -57.705300   37.503200  118.344000
  C    -57.418600   36.477000  117.500000
  C    -56.956200   36.919800  116.221000
  C    -56.617300   38.229400  116.116000
  H    -56.836700   36.200800  115.438000
  C    -57.705800   35.059600  117.956000
  H    -58.806300   34.969000  118.031000
  H    -57.419800   34.984200  118.981000
  C    -57.213200   33.815100  117.244000
  H    -57.548200   32.977900  117.912000
  H    -57.745200   33.716500  116.269000
  C    -55.725200   33.807300  117.018000
  H    -55.298200   33.800000  118.042000
  H    -55.560000   32.855900  116.396000
  H    -55.425600   34.696300  116.435000
  S    -57.141700   40.108300  114.203000
  C    -56.012800   40.420300  112.917000
  C    -54.862900   39.665700  113.003000
  C    -54.928100   38.808800  114.188000
  C    -56.166600   38.850400  114.871000
  H    -54.049800   39.767900  112.230000
  C    -53.635600   38.076200  114.620000
  H    -53.790900   37.709100  115.640000
  H    -52.850900   38.819200  114.689000
  C    -53.176200   36.887800  113.738000
  H    -52.105900   36.691200  113.924000
  H    -53.259000   37.274700  112.696000
  C    -53.978500   35.643100  113.711000
  H    -53.720200   35.027200  114.535000
  H    -53.875000   34.903700  112.884000
  H    -55.025300   35.910100  113.784000
  H    -58.152000   37.304100  119.324000
  H    -56.225900   41.068200  111.983000

 Total Charge           Charge          ....    0
 Multiplicity           Mult            ....    1
 Number of Electrons    NEL             ....  134
 Basis Dimension        Dim             ....  322

ORBITAL ENERGIES
----------------

  NO   OCC          E(Eh)            E(eV)
   0   2.0000     -88.967737     -2420.9352
   1   2.0000     -88.965199     -2420.8661
   2   2.0000     -10.332734      -281.1680
   3   2.0000     -10.327825      -281.0344
   4   2.0000     -10.325142      -280.9614
   5   2.0000     -10.314512      -280.6721
   6   2.0000     -10.313965      -280.6573
   7   2.0000     -10.303134      -280.3625
   8   2.0000     -10.297321      -280.2043
   9   2.0000     -10.293559      -280.1020
  10   2.0000     -10.289279      -279.9855
  11   2.0000     -10.289186      -279.9830
  12   2.0000     -10.288267      -279.9580
  13   2.0000     -10.286573      -279.9119
  14   2.0000     -10.283796      -279.8363
  15   2.0000     -10.271101      -279.4909
  16   2.0000      -8.083071      -219.9515
  17   2.0000      -8.080073      -219.8700
  18   2.0000      -6.041590      -164.4000
  19   2.0000      -6.038712      -164.3217
  20   2.0000      -6.037413      -164.2864
  21   2.0000      -6.034512      -164.2074
  22   2.0000      -6.033840      -164.1891
  23   2.0000      -6.030663      -164.1027
  24   2.0000      -1.013544       -27.5799
  25   2.0000      -0.988677       -26.9033
  26   2.0000      -0.918206       -24.9857
  27   2.0000      -0.907572       -24.6963
  28   2.0000      -0.875893       -23.8343
  29   2.0000      -0.849123       -23.1058
  30   2.0000      -0.841836       -22.9075
  31   2.0000      -0.821251       -22.3474
  32   2.0000      -0.785098       -21.3636
  33   2.0000      -0.775089       -21.0912
  34   2.0000      -0.709052       -19.2943
  35   2.0000      -0.690374       -18.7860
  36   2.0000      -0.685057       -18.6414
  37   2.0000      -0.651892       -17.7389
  38   2.0000      -0.635268       -17.2865
  39   2.0000      -0.626775       -17.0554
  40   2.0000      -0.593629       -16.1535
  41   2.0000      -0.575424       -15.6581
  42   2.0000      -0.556158       -15.1338
  43   2.0000      -0.551763       -15.0142
  44   2.0000      -0.543121       -14.7791
  45   2.0000      -0.537638       -14.6299
  46   2.0000      -0.516495       -14.0546
  47   2.0000      -0.514922       -14.0118
  48   2.0000      -0.509691       -13.8694
  49   2.0000      -0.500043       -13.6068
  50   2.0000      -0.492381       -13.3984
  51   2.0000      -0.482853       -13.1391
  52   2.0000      -0.475751       -12.9458
  53   2.0000      -0.463464       -12.6115
  54   2.0000      -0.460160       -12.5216
  55   2.0000      -0.448581       -12.2065
  56   2.0000      -0.444572       -12.0974
  57   2.0000      -0.437831       -11.9140
  58   2.0000      -0.423720       -11.5300
  59   2.0000      -0.421763       -11.4768
  60   2.0000      -0.417598       -11.3634
  61   2.0000      -0.410009       -11.1569
  62   2.0000      -0.400300       -10.8927
  63   2.0000      -0.345879        -9.4118
  64   2.0000      -0.331065        -9.0087
  65   2.0000      -0.325084        -8.8460
  66   2.0000      -0.301683        -8.2092
  67   0.0000       0.034891         0.9494
  68   0.0000       0.064998         1.7687
  69   0.0000       0.110668         3.0114
  70   0.0000       0.123489         3.3603
  71   0.0000       0.130043         3.5386

MULLIKEN ATOMIC CHARGES
-----------------------
   0 S :    0.102678
   1 C :   -0.130789
   2 C :   -0.084601
   3 C :    0.017513
   4 C :   -0.107272
   5 H :    0.005515
   6 C :    0.032557
   7 H :    0.040891
   8 H :    0.014155
   9 C :   -0.087132
  10 H :    0.036440
  11 H :    0.030812
  12 C :   -0.063132
  13 H :    0.039706
  14 H :    0.050399
  15 H :    0.039645
  16 S :    0.115556
  17 C :   -0.123756
  18 C :   -0.049815
  19 C :   -0.071910
  20 C :   -0.153366
  21 H :    0.051676
  22 C :    0.074540
  23 H :    0.024637
  24 H :    0.034986
  25 C :   -0.080238
  26 H :    0.033072
  27 H :    0.020645
  28 C :   -0.041455
  29 H :    0.025020
  30 H :    0.037252
  31 H :    0.026956
  32 H :    0.050638
  33 H :    0.088178
Sum of atomic charges:   -0.0000000

LOEWDIN ATOMIC CHARGES
----------------------
   0 S :    0.410606
   1 C :   -0.189258
   2 C :   -0.066006
   3 C :   -0.066040
   4 C :   -0.213626
   5 H :    0.022446
   6 C :   -0.044483
   7 H :    0.039578
   8 H :    0.026390
   9 C :   -0.052170
  10 H :    0.032938
  11 H :    0.022401
  12 C :   -0.072338
  13 H :    0.030353
  14 H :    0.037786
  15 H :    0.025263
  16 S :    0.423202
  17 C :   -0.202607
  18 C :   -0.082659
  19 C :   -0.051318
  20 C :   -0.208198
  21 H :    0.045346
  22 C :   -0.027955
  23 H :    0.028001
  24 H :    0.034484
  25 C :   -0.046903
  26 H :    0.026069
  27 H :    0.024340
  28 C :   -0.071789
  29 H :    0.019226
  30 H :    0.034182
  31 H :    0.023841
  32 H :    0.039079
  33 H :    0.049821

  Mayer bond orders larger than 0.100000
B(  0-S ,  1-C ) :   1.1234 B(  0-S ,  4-C ) :   1.1537 B(  1-C ,  2-C ) :   1.6171
B(  1-C , 32-H ) :   0.9703 B(  2-C ,  3-C ) :   1.2630 B(  2-C ,  6-C ) :   1.0039
B(  3-C ,  4-C ) :   1.5532 B(  3-C ,  5-H ) :   0.9878 B(  4-C , 20-C ) :   1.0243
B(  6-C ,  7-H ) :   0.9347 B(  6-C ,  8-H ) :   0.9385 B(  6-C ,  9-C ) :   1.0880
B(  9-C , 10-H ) :   0.9486 B(  9-C , 11-H ) :   0.9469 B(  9-C , 12-C ) :   1.0801
B( 12-C , 13-H ) :   0.9717 B( 12-C , 14-H ) :   0.9726 B( 12-C , 15-H ) :   0.9676
B( 16-S , 17-C ) :   1.1631 B( 16-S , 20-C ) :   1.1441 B( 17-C , 18-C ) :   1.6275
B( 17-C , 33-H ) :   0.9511 B( 18-C , 19-C ) :   1.2305 B( 18-C , 21-H ) :   0.9792
B( 19-C , 20-C ) :   1.5959 B( 19-C , 22-C ) :   1.0385 B( 22-C , 23-H ) :   0.9371
B( 22-C , 24-H ) :   0.9398 B( 22-C , 25-C ) :   1.0631 B( 25-C , 26-H ) :   0.9556
B( 25-C , 27-H ) :   0.9579 B( 25-C , 28-C ) :   1.0786 B( 28-C , 29-H ) :   0.9668
B( 28-C , 30-H ) :   0.9691 B( 28-C , 31-H ) :   0.9702

Dispersion correction           -0.015387122
FINAL SINGLE POINT ENERGY     -1339.864181068471

DIPOLE MOMENT
-------------
                                X             Y             Z
Electronic contribution:    -12.47488      27.43892       1.57687
Nuclear contribution   :     12.67311     -27.99798      -1.69728
                        -----------------------------------------
Total Dipole Moment    :      0.19823      -0.55906      -0.12041
                        -----------------------------------------
Magnitude (a.u.)       :      0.60526
Magnitude (Debye)      :      1.53846

Rotational constants in cm-1:     0.017770     0.010454     0.007262
Rotational constants in MHz :   532.722096   313.408307   217.701083

                             ****ORCA TERMINATED NORMALLY****
TOTAL RUN TIME: 0 days 0 hours 0 minutes 32 seconds 844 msec
