                         Program Version 4.2.1 -  RELEASE  -
|  1> ! wB97X-D3 SP def2-SVP
|  2> %pal
|  3> nprocs 16
|  4> end
|  5>
|  6> * xyz 0 1
|  7> S 	 -37.1836 	 70.7757 	 106.016
|  8> C 	 -36.7793 	 70.5197 	 104.307
|  9> C 	 -35.691 	 71.2582 	 103.903
| 10> C 	 -35.1602 	 71.9905 	 104.982
| 11> C 	 -35.8542 	 71.8772 	 106.197
| 12> H 	 -34.3165 	 72.5174 	 104.925
| 13> C 	 -34.9219 	 71.1969 	 102.564
| 14> H 	 -34.7963 	 72.206 	 102.147
| 15> H 	 -35.345 	 70.851 	 101.66
| 16> C 	 -33.427 	 70.7081 	 102.718
| 17> H 	 -32.9936 	 71.3536 	 103.422
| 18> H 	 -33.3384 	 69.7287 	 103.243
| 19> C 	 -32.5967 	 70.7665 	 101.411
| 20> H 	 -31.6463 	 70.2293 	 101.647
| 21> H 	 -33.1274 	 70.1677 	 100.644
| 22> H 	 -32.3972 	 71.8072 	 101.048
| 23> S 	 -34.9607 	 71.5319 	 108.869
| 24> C 	 -34.7615 	 73.0101 	 109.755
| 25> C 	 -35.0321 	 74.1875 	 109.058
| 26> C 	 -35.4196 	 73.8554 	 107.7
| 27> C 	 -35.548 	 72.4983 	 107.451
| 28> H 	 -34.841 	 75.1345 	 109.524
| 29> C 	 -35.6387 	 74.9783 	 106.692
| 30> H 	 -34.9232 	 74.7571 	 105.952
| 31> H 	 -35.3928 	 75.98 	 107.234
| 32> C 	 -37.0979 	 75.0713 	 106.169
| 33> H 	 -37.6925 	 75.1576 	 107.093
| 34> H 	 -37.3827 	 74.1474 	 105.562
| 35> C 	 -37.4825 	 76.2733 	 105.253
| 36> H 	 -36.8674 	 76.2645 	 104.373
| 37> H 	 -37.3385 	 77.2528 	 105.705
| 38> H 	 -38.5291 	 76.1721 	 105.047
| 39> H 	 -37.2153 	 69.777 	 103.609
| 40> H 	 -34.4458 	 73.0275 	 110.777
| 41> *
| 42>
| 43>                          ****END OF INPUT****

CARTESIAN COORDINATES (ANGSTROEM)
---------------------------------
  S    -37.183600   70.775700  106.016000
  C    -36.779300   70.519700  104.307000
  C    -35.691000   71.258200  103.903000
  C    -35.160200   71.990500  104.982000
  C    -35.854200   71.877200  106.197000
  H    -34.316500   72.517400  104.925000
  C    -34.921900   71.196900  102.564000
  H    -34.796300   72.206000  102.147000
  H    -35.345000   70.851000  101.660000
  C    -33.427000   70.708100  102.718000
  H    -32.993600   71.353600  103.422000
  H    -33.338400   69.728700  103.243000
  C    -32.596700   70.766500  101.411000
  H    -31.646300   70.229300  101.647000
  H    -33.127400   70.167700  100.644000
  H    -32.397200   71.807200  101.048000
  S    -34.960700   71.531900  108.869000
  C    -34.761500   73.010100  109.755000
  C    -35.032100   74.187500  109.058000
  C    -35.419600   73.855400  107.700000
  C    -35.548000   72.498300  107.451000
  H    -34.841000   75.134500  109.524000
  C    -35.638700   74.978300  106.692000
  H    -34.923200   74.757100  105.952000
  H    -35.392800   75.980000  107.234000
  C    -37.097900   75.071300  106.169000
  H    -37.692500   75.157600  107.093000
  H    -37.382700   74.147400  105.562000
  C    -37.482500   76.273300  105.253000
  H    -36.867400   76.264500  104.373000
  H    -37.338500   77.252800  105.705000
  H    -38.529100   76.172100  105.047000
  H    -37.215300   69.777000  103.609000
  H    -34.445800   73.027500  110.777000

 Total Charge           Charge          ....    0
 Multiplicity           Mult            ....    1
 Number of Electrons    NEL             ....  134
 Basis Dimension        Dim             ....  322

ORBITAL ENERGIES
----------------

  NO   OCC          E(Eh)            E(eV)
   0   2.0000     -88.968512     -2420.9563
   1   2.0000     -88.967922     -2420.9402
   2   2.0000     -10.327580      -281.0277
   3   2.0000     -10.324935      -280.9558
   4   2.0000     -10.318186      -280.7721
   5   2.0000     -10.317012      -280.7402
   6   2.0000     -10.306772      -280.4615
   7   2.0000     -10.303309      -280.3673
   8   2.0000     -10.296119      -280.1716
   9   2.0000     -10.295775      -280.1623
  10   2.0000     -10.295062      -280.1429
  11   2.0000     -10.290552      -280.0202
  12   2.0000     -10.289358      -279.9877
  13   2.0000     -10.288505      -279.9645
  14   2.0000     -10.285010      -279.8694
  15   2.0000     -10.272200      -279.5208
  16   2.0000      -8.082802      -219.9442
  17   2.0000      -8.081993      -219.9222
  18   2.0000      -6.041264      -164.3911
  19   2.0000      -6.040499      -164.3703
  20   2.0000      -6.037312      -164.2836
  21   2.0000      -6.036741      -164.2681
  22   2.0000      -6.033691      -164.1851
  23   2.0000      -6.032655      -164.1569
  24   2.0000      -1.003553       -27.3081
  25   2.0000      -0.979598       -26.6562
  26   2.0000      -0.906850       -24.6766
  27   2.0000      -0.900435       -24.5021
  28   2.0000      -0.868196       -23.6248
  29   2.0000      -0.849785       -23.1238
  30   2.0000      -0.845291       -23.0015
  31   2.0000      -0.809659       -22.0319
  32   2.0000      -0.785358       -21.3707
  33   2.0000      -0.771937       -21.0055
  34   2.0000      -0.710074       -19.3221
  35   2.0000      -0.698727       -19.0133
  36   2.0000      -0.684815       -18.6348
  37   2.0000      -0.662014       -18.0143
  38   2.0000      -0.644376       -17.5344
  39   2.0000      -0.627902       -17.0861
  40   2.0000      -0.588359       -16.0101
  41   2.0000      -0.570591       -15.5266
  42   2.0000      -0.561830       -15.2882
  43   2.0000      -0.553171       -15.0525
  44   2.0000      -0.525924       -14.3111
  45   2.0000      -0.521542       -14.1919
  46   2.0000      -0.513195       -13.9647
  47   2.0000      -0.509752       -13.8711
  48   2.0000      -0.501012       -13.6332
  49   2.0000      -0.496925       -13.5220
  50   2.0000      -0.491683       -13.3794
  51   2.0000      -0.479218       -13.0402
  52   2.0000      -0.466920       -12.7055
  53   2.0000      -0.463483       -12.6120
  54   2.0000      -0.461533       -12.5590
  55   2.0000      -0.452225       -12.3057
  56   2.0000      -0.444730       -12.1017
  57   2.0000      -0.437770       -11.9123
  58   2.0000      -0.432108       -11.7583
  59   2.0000      -0.426591       -11.6081
  60   2.0000      -0.416074       -11.3219
  61   2.0000      -0.413115       -11.2414
  62   2.0000      -0.411738       -11.2040
  63   2.0000      -0.336131        -9.1466
  64   2.0000      -0.333727        -9.0812
  65   2.0000      -0.330861        -9.0032
  66   2.0000      -0.295956        -8.0534
  67   0.0000       0.030594         0.8325
  68   0.0000       0.061959         1.6860
  69   0.0000       0.109464         2.9787
  70   0.0000       0.119941         3.2637
  71   0.0000       0.126060         3.4303

MULLIKEN ATOMIC CHARGES
-----------------------
   0 S :    0.121847
   1 C :   -0.137164
   2 C :   -0.024280
   3 C :    0.068921
   4 C :   -0.195257
   5 H :   -0.043110
   6 C :    0.068607
   7 H :    0.013369
   8 H :   -0.000633
   9 C :   -0.092989
  10 H :    0.014362
  11 H :    0.039471
  12 C :   -0.073805
  13 H :    0.046833
  14 H :    0.039569
  15 H :    0.048414
  16 S :    0.114286
  17 C :   -0.089220
  18 C :   -0.025576
  19 C :   -0.051947
  20 C :   -0.142200
  21 H :    0.018364
  22 C :    0.096389
  23 H :    0.017443
  24 H :    0.030523
  25 C :   -0.130400
  26 H :    0.035809
  27 H :    0.062401
  28 C :   -0.019478
  29 H :    0.026260
  30 H :    0.020685
  31 H :    0.037091
  32 H :    0.055237
  33 H :    0.050179
Sum of atomic charges:    0.0000000

LOEWDIN ATOMIC CHARGES
----------------------
   0 S :    0.410733
   1 C :   -0.195596
   2 C :   -0.060639
   3 C :   -0.043773
   4 C :   -0.198473
   5 H :    0.005026
   6 C :   -0.037366
   7 H :    0.034964
   8 H :    0.020750
   9 C :   -0.040749
  10 H :    0.012986
  11 H :    0.028727
  12 C :   -0.070598
  13 H :    0.035443
  14 H :    0.026492
  15 H :    0.030371
  16 S :    0.388020
  17 C :   -0.174965
  18 C :   -0.074238
  19 C :   -0.038315
  20 C :   -0.201780
  21 H :    0.031909
  22 C :   -0.032500
  23 H :    0.021282
  24 H :    0.038738
  25 C :   -0.044614
  26 H :    0.026396
  27 H :    0.036065
  28 C :   -0.063348
  29 H :    0.021362
  30 H :    0.020441
  31 H :    0.027367
  32 H :    0.036761
  33 H :    0.023121

  Mayer bond orders larger than 0.100000
B(  0-S ,  1-C ) :   1.1393 B(  0-S ,  4-C ) :   1.1513 B(  1-C ,  2-C ) :   1.6186
B(  1-C ,  4-C ) :   0.1005 B(  1-C , 32-H ) :   0.9603 B(  2-C ,  3-C ) :   1.2487
B(  2-C ,  6-C ) :   1.0168 B(  3-C ,  4-C ) :   1.5538 B(  3-C ,  5-H ) :   1.0144
B(  4-C , 20-C ) :   1.0635 B(  6-C ,  7-H ) :   0.9322 B(  6-C ,  8-H ) :   0.9511
B(  6-C ,  9-C ) :   1.0451 B(  9-C , 10-H ) :   0.9536 B(  9-C , 11-H ) :   0.9590
B(  9-C , 12-C ) :   1.0800 B( 12-C , 13-H ) :   0.9730 B( 12-C , 14-H ) :   0.9772
B( 12-C , 15-H ) :   0.9742 B( 16-S , 17-C ) :   1.1704 B( 16-S , 20-C ) :   1.1036
B( 17-C , 18-C ) :   1.6206 B( 17-C , 33-H ) :   0.9631 B( 18-C , 19-C ) :   1.2216
B( 18-C , 21-H ) :   0.9931 B( 19-C , 20-C ) :   1.6167 B( 19-C , 22-C ) :   1.0310
B( 22-C , 23-H ) :   0.9213 B( 22-C , 24-H ) :   0.9399 B( 22-C , 25-C ) :   1.0599
B( 25-C , 26-H ) :   0.9575 B( 25-C , 27-H ) :   0.9524 B( 25-C , 28-C ) :   1.0868
B( 28-C , 29-H ) :   0.9748 B( 28-C , 30-H ) :   0.9743 B( 28-C , 31-H ) :   0.9749

Dispersion correction           -0.014463780
FINAL SINGLE POINT ENERGY     -1339.864524098398

DIPOLE MOMENT
-------------
                                X             Y             Z
Electronic contribution:     -6.39908     -12.94139      22.45323
Nuclear contribution   :      6.79601      13.34026     -22.81361
                        -----------------------------------------
Total Dipole Moment    :      0.39693       0.39887      -0.36038
                        -----------------------------------------
Magnitude (a.u.)       :      0.66822
Magnitude (Debye)      :      1.69849

Rotational constants in cm-1:     0.016725     0.008476     0.007392
Rotational constants in MHz :   501.404684   254.103778   221.614050

                             ****ORCA TERMINATED NORMALLY****
TOTAL RUN TIME: 0 days 0 hours 0 minutes 30 seconds 286 msec
