                         Program Version 4.2.1 -  RELEASE  -
|  1> ! wB97X-D3 SP def2-SVP
|  2> %pal
|  3> nprocs 16
|  4> end
|  5>
|  6> * xyz 0 1
|  7> S 	 37.6167 	 8.3683 	 90.9094
|  8> C 	 38.9493 	 7.4925 	 90.2636
|  9> C 	 38.9771 	 7.43638 	 88.9179
| 10> C 	 37.8319 	 8.03039 	 88.2887
| 11> C 	 37.0151 	 8.67189 	 89.2526
| 12> H 	 37.4968 	 7.96179 	 87.1795
| 13> C 	 40.0166 	 6.74723 	 88.0217
| 14> H 	 39.5168 	 5.91068 	 87.4939
| 15> H 	 40.7087 	 6.21539 	 88.663
| 16> C 	 40.8284 	 7.52769 	 86.9968
| 17> H 	 41.2901 	 8.40876 	 87.4874
| 18> H 	 41.629 	 6.8812 	 86.6427
| 19> C 	 40.0072 	 8.03015 	 85.7243
| 20> H 	 39.3581 	 8.84418 	 85.8931
| 21> H 	 40.7901 	 8.37244 	 84.9851
| 22> H 	 39.4747 	 7.22813 	 85.1775
| 23> S 	 34.3387 	 8.9422 	 89.6764
| 24> C 	 33.4816 	 9.89809 	 88.4464
| 25> C 	 34.3373 	 10.6009 	 87.6398
| 26> C 	 35.6675 	 10.2931 	 87.9409
| 27> C 	 35.868 	 9.51768 	 89.0246
| 28> H 	 33.9377 	 11.1776 	 86.807
| 29> C 	 36.7431 	 10.8595 	 87.0075
| 30> H 	 36.6127 	 10.645 	 85.9369
| 31> H 	 37.665 	 10.3211 	 87.1999
| 32> C 	 37.1171 	 12.2738 	 87.3355
| 33> H 	 36.2488 	 12.9796 	 87.2477
| 34> H 	 37.8239 	 12.579 	 86.5266
| 35> C 	 37.8398 	 12.4518 	 88.6792
| 36> H 	 38.1056 	 13.5265 	 88.8776
| 37> H 	 38.7639 	 11.8274 	 88.5765
| 38> H 	 37.2672 	 12.1473 	 89.5314
| 39> H 	 39.7084 	 7.07299 	 90.8695
| 40> H 	 32.4765 	 10.0803 	 88.4827
| 41> *
| 42>
| 43>                          ****END OF INPUT****

CARTESIAN COORDINATES (ANGSTROEM)
---------------------------------
  S     37.616700    8.368300   90.909400
  C     38.949300    7.492500   90.263600
  C     38.977100    7.436380   88.917900
  C     37.831900    8.030390   88.288700
  C     37.015100    8.671890   89.252600
  H     37.496800    7.961790   87.179500
  C     40.016600    6.747230   88.021700
  H     39.516800    5.910680   87.493900
  H     40.708700    6.215390   88.663000
  C     40.828400    7.527690   86.996800
  H     41.290100    8.408760   87.487400
  H     41.629000    6.881200   86.642700
  C     40.007200    8.030150   85.724300
  H     39.358100    8.844180   85.893100
  H     40.790100    8.372440   84.985100
  H     39.474700    7.228130   85.177500
  S     34.338700    8.942200   89.676400
  C     33.481600    9.898090   88.446400
  C     34.337300   10.600900   87.639800
  C     35.667500   10.293100   87.940900
  C     35.868000    9.517680   89.024600
  H     33.937700   11.177600   86.807000
  C     36.743100   10.859500   87.007500
  H     36.612700   10.645000   85.936900
  H     37.665000   10.321100   87.199900
  C     37.117100   12.273800   87.335500
  H     36.248800   12.979600   87.247700
  H     37.823900   12.579000   86.526600
  C     37.839800   12.451800   88.679200
  H     38.105600   13.526500   88.877600
  H     38.763900   11.827400   88.576500
  H     37.267200   12.147300   89.531400
  H     39.708400    7.072990   90.869500
  H     32.476500   10.080300   88.482700

 Total Charge           Charge          ....    0
 Multiplicity           Mult            ....    1
 Number of Electrons    NEL             ....  134
 Basis Dimension        Dim             ....  322

ORBITAL ENERGIES
----------------

  NO   OCC          E(Eh)            E(eV)
   0   2.0000     -88.965201     -2420.8662
   1   2.0000     -88.964017     -2420.8340
   2   2.0000     -10.331588      -281.1368
   3   2.0000     -10.319398      -280.8051
   4   2.0000     -10.314630      -280.6754
   5   2.0000     -10.306452      -280.4528
   6   2.0000     -10.303667      -280.3770
   7   2.0000     -10.298423      -280.2343
   8   2.0000     -10.298297      -280.2309
   9   2.0000     -10.295179      -280.1461
  10   2.0000     -10.292212      -280.0653
  11   2.0000     -10.291915      -280.0572
  12   2.0000     -10.287155      -279.9277
  13   2.0000     -10.286824      -279.9187
  14   2.0000     -10.285373      -279.8792
  15   2.0000     -10.276115      -279.6273
  16   2.0000      -8.080024      -219.8686
  17   2.0000      -8.078630      -219.8307
  18   2.0000      -6.038431      -164.3141
  19   2.0000      -6.037204      -164.2807
  20   2.0000      -6.034630      -164.2106
  21   2.0000      -6.033234      -164.1726
  22   2.0000      -6.030797      -164.1063
  23   2.0000      -6.029221      -164.0634
  24   2.0000      -1.009762       -27.4770
  25   2.0000      -0.985504       -26.8169
  26   2.0000      -0.910783       -24.7837
  27   2.0000      -0.905164       -24.6308
  28   2.0000      -0.873569       -23.7710
  29   2.0000      -0.847648       -23.0657
  30   2.0000      -0.841041       -22.8859
  31   2.0000      -0.811960       -22.0945
  32   2.0000      -0.784664       -21.3518
  33   2.0000      -0.775396       -21.0996
  34   2.0000      -0.706942       -19.2369
  35   2.0000      -0.699826       -19.0432
  36   2.0000      -0.689989       -18.7756
  37   2.0000      -0.664743       -18.0886
  38   2.0000      -0.638587       -17.3768
  39   2.0000      -0.615267       -16.7423
  40   2.0000      -0.602303       -16.3895
  41   2.0000      -0.571458       -15.5502
  42   2.0000      -0.553238       -15.0544
  43   2.0000      -0.546009       -14.8577
  44   2.0000      -0.537071       -14.6145
  45   2.0000      -0.534569       -14.5464
  46   2.0000      -0.515720       -14.0335
  47   2.0000      -0.507854       -13.8194
  48   2.0000      -0.506718       -13.7885
  49   2.0000      -0.493630       -13.4324
  50   2.0000      -0.486662       -13.2427
  51   2.0000      -0.485173       -13.2022
  52   2.0000      -0.469408       -12.7732
  53   2.0000      -0.461644       -12.5620
  54   2.0000      -0.454302       -12.3622
  55   2.0000      -0.447000       -12.1635
  56   2.0000      -0.441781       -12.0215
  57   2.0000      -0.439802       -11.9676
  58   2.0000      -0.432305       -11.7636
  59   2.0000      -0.423135       -11.5141
  60   2.0000      -0.418580       -11.3901
  61   2.0000      -0.414056       -11.2670
  62   2.0000      -0.407438       -11.0869
  63   2.0000      -0.349967        -9.5231
  64   2.0000      -0.332863        -9.0577
  65   2.0000      -0.330524        -8.9940
  66   2.0000      -0.292839        -7.9685
  67   0.0000       0.027270         0.7420
  68   0.0000       0.069939         1.9031
  69   0.0000       0.107437         2.9235
  70   0.0000       0.117517         3.1978
  71   0.0000       0.123831         3.3696

MULLIKEN ATOMIC CHARGES
-----------------------
   0 S :    0.106478
   1 C :   -0.099587
   2 C :   -0.080616
   3 C :   -0.006363
   4 C :   -0.179246
   5 H :    0.065982
   6 C :    0.062173
   7 H :    0.031966
   8 H :    0.003900
   9 C :   -0.059557
  10 H :    0.037175
  11 H :    0.035597
  12 C :   -0.083135
  13 H :    0.032154
  14 H :    0.037539
  15 H :    0.034753
  16 S :    0.088943
  17 C :   -0.057911
  18 C :   -0.025699
  19 C :   -0.077405
  20 C :   -0.084331
  21 H :    0.028185
  22 C :    0.059069
  23 H :    0.034967
  24 H :    0.007042
  25 C :   -0.084569
  26 H :    0.027748
  27 H :    0.030056
  28 C :   -0.060272
  29 H :    0.040439
  30 H :    0.037407
  31 H :    0.042766
  32 H :    0.027685
  33 H :    0.026665
Sum of atomic charges:   -0.0000000

LOEWDIN ATOMIC CHARGES
----------------------
   0 S :    0.396471
   1 C :   -0.198247
   2 C :   -0.069603
   3 C :   -0.068072
   4 C :   -0.179521
   5 H :    0.053579
   6 C :   -0.037951
   7 H :    0.034525
   8 H :    0.025059
   9 C :   -0.035912
  10 H :    0.029261
  11 H :    0.028186
  12 C :   -0.074158
  13 H :    0.013538
  14 H :    0.034128
  15 H :    0.025863
  16 S :    0.389611
  17 C :   -0.148146
  18 C :   -0.065272
  19 C :   -0.049979
  20 C :   -0.210274
  21 H :    0.038312
  22 C :   -0.039289
  23 H :    0.032617
  24 H :    0.024574
  25 C :   -0.045144
  26 H :    0.019338
  27 H :    0.027850
  28 C :   -0.066261
  29 H :    0.031954
  30 H :    0.031002
  31 H :    0.021757
  32 H :    0.021334
  33 H :    0.008867

  Mayer bond orders larger than 0.100000
B(  0-S ,  1-C ) :   1.1290 B(  0-S ,  4-C ) :   1.1467 B(  1-C ,  2-C ) :   1.6555
B(  1-C , 32-H ) :   0.9650 B(  2-C ,  3-C ) :   1.2243 B(  2-C ,  6-C ) :   1.0158
B(  3-C ,  4-C ) :   1.5873 B(  3-C ,  5-H ) :   0.9666 B(  4-C , 20-C ) :   1.0133
B(  6-C ,  7-H ) :   0.9401 B(  6-C ,  8-H ) :   0.9367 B(  6-C ,  9-C ) :   1.0781
B(  9-C , 10-H ) :   0.9540 B(  9-C , 11-H ) :   0.9547 B(  9-C , 12-C ) :   1.0730
B( 12-C , 13-H ) :   0.9769 B( 12-C , 14-H ) :   0.9720 B( 12-C , 15-H ) :   0.9745
B( 16-S , 17-C ) :   1.1618 B( 16-S , 20-C ) :   1.1168 B( 17-C , 18-C ) :   1.6145
B( 17-C , 33-H ) :   0.9710 B( 18-C , 19-C ) :   1.2301 B( 18-C , 21-H ) :   0.9950
B( 19-C , 20-C ) :   1.6327 B( 19-C , 22-C ) :   1.0259 B( 22-C , 23-H ) :   0.9411
B( 22-C , 24-H ) :   0.9235 B( 22-C , 25-C ) :   1.0761 B( 25-C , 26-H ) :   0.9560
B( 25-C , 27-H ) :   0.9518 B( 25-C , 28-C ) :   1.0750 B( 28-C , 29-H ) :   0.9730
B( 28-C , 30-H ) :   0.9707 B( 28-C , 31-H ) :   0.9759

Dispersion correction           -0.015963360
FINAL SINGLE POINT ENERGY     -1339.874038301195

DIPOLE MOMENT
-------------
                                X             Y             Z
Electronic contribution:    -18.70023      -7.23257      19.61999
Nuclear contribution   :     18.98269       7.27356     -20.32759
                        -----------------------------------------
Total Dipole Moment    :      0.28246       0.04098      -0.70760
                        -----------------------------------------
Magnitude (a.u.)       :      0.76299
Magnitude (Debye)      :      1.93937

Rotational constants in cm-1:     0.018075     0.010221     0.008209
Rotational constants in MHz :   541.888337   306.429725   246.109709

                             ****ORCA TERMINATED NORMALLY****
TOTAL RUN TIME: 0 days 0 hours 0 minutes 33 seconds 223 msec
