                         Program Version 4.2.1 -  RELEASE  -
|  1> ! wB97X-D3 SP def2-SVP
|  2> %pal
|  3> nprocs 16
|  4> end
|  5>
|  6> * xyz 0 1
|  7> S 	 -66.6801 	 39.5978 	 124.029
|  8> C 	 -67.3977 	 41.1967 	 123.788
|  9> C 	 -68.0252 	 41.6189 	 124.903
| 10> C 	 -67.8225 	 40.723 	 126.021
| 11> C 	 -67.2066 	 39.5546 	 125.682
| 12> H 	 -68.2586 	 40.8447 	 127.075
| 13> C 	 -68.8474 	 42.9057 	 125.108
| 14> H 	 -68.5518 	 43.6558 	 124.388
| 15> H 	 -68.6237 	 43.2127 	 126.068
| 16> C 	 -70.3764 	 42.6624 	 124.948
| 17> H 	 -70.5677 	 42.3489 	 123.932
| 18> H 	 -70.6853 	 41.9464 	 125.625
| 19> C 	 -71.1718 	 43.9829 	 125.021
| 20> H 	 -71.0521 	 44.6629 	 125.89
| 21> H 	 -70.9008 	 44.5502 	 124.144
| 22> H 	 -72.2023 	 43.7864 	 124.938
| 23> S 	 -67.9908 	 37.0328 	 126.073
| 24> C 	 -67.1028 	 35.8769 	 127.071
| 25> C 	 -66.4073 	 36.62 	 127.979
| 26> C 	 -66.4088 	 38.0127 	 127.658
| 27> C 	 -67.0482 	 38.3395 	 126.47
| 28> H 	 -65.9341 	 36.1336 	 128.849
| 29> C 	 -65.6027 	 38.9975 	 128.479
| 30> H 	 -66.3549 	 39.3263 	 129.231
| 31> H 	 -65.5015 	 39.8909 	 127.896
| 32> C 	 -64.2442 	 38.5581 	 128.993
| 33> H 	 -63.612 	 38.3151 	 128.118
| 34> H 	 -64.3575 	 37.6349 	 129.607
| 35> C 	 -63.7696 	 39.673 	 129.872
| 36> H 	 -63.8076 	 40.6384 	 129.286
| 37> H 	 -62.7106 	 39.5035 	 130.034
| 38> H 	 -64.2411 	 39.818 	 130.817
| 39> H 	 -67.591 	 41.6601 	 122.815
| 40> H 	 -67.2799 	 34.8101 	 127.216
| 41> *
| 42>
| 43>                          ****END OF INPUT****

CARTESIAN COORDINATES (ANGSTROEM)
---------------------------------
  S    -66.680100   39.597800  124.029000
  C    -67.397700   41.196700  123.788000
  C    -68.025200   41.618900  124.903000
  C    -67.822500   40.723000  126.021000
  C    -67.206600   39.554600  125.682000
  H    -68.258600   40.844700  127.075000
  C    -68.847400   42.905700  125.108000
  H    -68.551800   43.655800  124.388000
  H    -68.623700   43.212700  126.068000
  C    -70.376400   42.662400  124.948000
  H    -70.567700   42.348900  123.932000
  H    -70.685300   41.946400  125.625000
  C    -71.171800   43.982900  125.021000
  H    -71.052100   44.662900  125.890000
  H    -70.900800   44.550200  124.144000
  H    -72.202300   43.786400  124.938000
  S    -67.990800   37.032800  126.073000
  C    -67.102800   35.876900  127.071000
  C    -66.407300   36.620000  127.979000
  C    -66.408800   38.012700  127.658000
  C    -67.048200   38.339500  126.470000
  H    -65.934100   36.133600  128.849000
  C    -65.602700   38.997500  128.479000
  H    -66.354900   39.326300  129.231000
  H    -65.501500   39.890900  127.896000
  C    -64.244200   38.558100  128.993000
  H    -63.612000   38.315100  128.118000
  H    -64.357500   37.634900  129.607000
  C    -63.769600   39.673000  129.872000
  H    -63.807600   40.638400  129.286000
  H    -62.710600   39.503500  130.034000
  H    -64.241100   39.818000  130.817000
  H    -67.591000   41.660100  122.815000
  H    -67.279900   34.810100  127.216000

 Total Charge           Charge          ....    0
 Multiplicity           Mult            ....    1
 Number of Electrons    NEL             ....  134
 Basis Dimension        Dim             ....  322

ORBITAL ENERGIES
----------------

  NO   OCC          E(Eh)            E(eV)
   0   2.0000     -88.964026     -2420.8342
   1   2.0000     -88.956329     -2420.6248
   2   2.0000     -10.328975      -281.0657
   3   2.0000     -10.317152      -280.7440
   4   2.0000     -10.314043      -280.6594
   5   2.0000     -10.312879      -280.6277
   6   2.0000     -10.300391      -280.2879
   7   2.0000     -10.299946      -280.2758
   8   2.0000     -10.296940      -280.1940
   9   2.0000     -10.291473      -280.0452
  10   2.0000     -10.288595      -279.9669
  11   2.0000     -10.287176      -279.9283
  12   2.0000     -10.283110      -279.8177
  13   2.0000     -10.281790      -279.7817
  14   2.0000     -10.275595      -279.6131
  15   2.0000     -10.274830      -279.5923
  16   2.0000      -8.078935      -219.8390
  17   2.0000      -8.072888      -219.6745
  18   2.0000      -6.037547      -164.2900
  19   2.0000      -6.033456      -164.1787
  20   2.0000      -6.031419      -164.1233
  21   2.0000      -6.029505      -164.0712
  22   2.0000      -6.027138      -164.0068
  23   2.0000      -6.023453      -163.9065
  24   2.0000      -1.016327       -27.6557
  25   2.0000      -0.990784       -26.9606
  26   2.0000      -0.914404       -24.8822
  27   2.0000      -0.911998       -24.8167
  28   2.0000      -0.875779       -23.8311
  29   2.0000      -0.847506       -23.0618
  30   2.0000      -0.845569       -23.0091
  31   2.0000      -0.820142       -22.3172
  32   2.0000      -0.783464       -21.3191
  33   2.0000      -0.764438       -20.8014
  34   2.0000      -0.707966       -19.2647
  35   2.0000      -0.703380       -19.1399
  36   2.0000      -0.700355       -19.0576
  37   2.0000      -0.652584       -17.7577
  38   2.0000      -0.640440       -17.4273
  39   2.0000      -0.618708       -16.8359
  40   2.0000      -0.594245       -16.1702
  41   2.0000      -0.572848       -15.5880
  42   2.0000      -0.571232       -15.5440
  43   2.0000      -0.565271       -15.3818
  44   2.0000      -0.528979       -14.3943
  45   2.0000      -0.522750       -14.2248
  46   2.0000      -0.520930       -14.1752
  47   2.0000      -0.512386       -13.9427
  48   2.0000      -0.506893       -13.7933
  49   2.0000      -0.502159       -13.6644
  50   2.0000      -0.498524       -13.5655
  51   2.0000      -0.476723       -12.9723
  52   2.0000      -0.468958       -12.7610
  53   2.0000      -0.466528       -12.6949
  54   2.0000      -0.457688       -12.4543
  55   2.0000      -0.447852       -12.1867
  56   2.0000      -0.444096       -12.0845
  57   2.0000      -0.438413       -11.9298
  58   2.0000      -0.433266       -11.7898
  59   2.0000      -0.431880       -11.7520
  60   2.0000      -0.419251       -11.4084
  61   2.0000      -0.416530       -11.3344
  62   2.0000      -0.402575       -10.9546
  63   2.0000      -0.342121        -9.3096
  64   2.0000      -0.330077        -8.9819
  65   2.0000      -0.321466        -8.7475
  66   2.0000      -0.301676        -8.2090
  67   0.0000       0.033953         0.9239
  68   0.0000       0.070430         1.9165
  69   0.0000       0.116630         3.1737
  70   0.0000       0.121738         3.3127
  71   0.0000       0.131856         3.5880

MULLIKEN ATOMIC CHARGES
-----------------------
   0 S :    0.113818
   1 C :   -0.117213
   2 C :   -0.112074
   3 C :    0.023987
   4 C :   -0.174248
   5 H :    0.039709
   6 C :    0.107599
   7 H :    0.013969
   8 H :    0.006030
   9 C :   -0.045203
  10 H :    0.024199
  11 H :    0.017735
  12 C :   -0.039472
  13 H :    0.033765
  14 H :    0.021134
  15 H :    0.025207
  16 S :    0.105366
  17 C :   -0.088648
  18 C :   -0.057531
  19 C :   -0.034762
  20 C :   -0.159413
  21 H :    0.029755
  22 C :    0.041149
  23 H :    0.032725
  24 H :    0.009610
  25 C :   -0.072839
  26 H :    0.047984
  27 H :    0.032727
  28 C :   -0.028287
  29 H :    0.028810
  30 H :    0.024027
  31 H :    0.035728
  32 H :    0.053787
  33 H :    0.060870
Sum of atomic charges:    0.0000000

LOEWDIN ATOMIC CHARGES
----------------------
   0 S :    0.405528
   1 C :   -0.195161
   2 C :   -0.062622
   3 C :   -0.071313
   4 C :   -0.200908
   5 H :    0.044016
   6 C :   -0.014889
   7 H :    0.027213
   8 H :    0.018790
   9 C :   -0.023243
  10 H :    0.027047
  11 H :    0.011917
  12 C :   -0.064870
  13 H :    0.025672
  14 H :    0.023623
  15 H :    0.020540
  16 S :    0.435385
  17 C :   -0.185000
  18 C :   -0.078773
  19 C :   -0.062381
  20 C :   -0.236707
  21 H :    0.035808
  22 C :   -0.042428
  23 H :    0.037251
  24 H :    0.024357
  25 C :   -0.042534
  26 H :    0.034610
  27 H :    0.024777
  28 C :   -0.063673
  29 H :    0.031095
  30 H :    0.024261
  31 H :    0.023458
  32 H :    0.034274
  33 H :    0.034878

  Mayer bond orders larger than 0.100000
B(  0-S ,  1-C ) :   1.1151 B(  0-S ,  4-C ) :   1.1562 B(  1-C ,  2-C ) :   1.6747
B(  1-C , 32-H ) :   0.9610 B(  2-C ,  3-C ) :   1.2073 B(  2-C ,  6-C ) :   1.0166
B(  3-C ,  4-C ) :   1.6160 B(  3-C ,  5-H ) :   0.9798 B(  4-C , 20-C ) :   1.0007
B(  6-C ,  7-H ) :   0.9442 B(  6-C ,  8-H ) :   0.9365 B(  6-C ,  9-C ) :   1.0696
B(  9-C , 10-H ) :   0.9563 B(  9-C , 11-H ) :   0.9612 B(  9-C , 12-C ) :   1.0786
B( 12-C , 13-H ) :   0.9768 B( 12-C , 14-H ) :   0.9750 B( 12-C , 15-H ) :   0.9744
B( 16-S , 17-C ) :   1.1544 B( 16-S , 20-C ) :   1.1764 B( 17-C , 18-C ) :   1.5886
B( 17-C , 20-C ) :   0.1055 B( 17-C , 33-H ) :   0.9679 B( 18-C , 19-C ) :   1.2569
B( 18-C , 21-H ) :   0.9877 B( 19-C , 20-C ) :   1.5555 B( 19-C , 22-C ) :   1.0406
B( 22-C , 23-H ) :   0.9249 B( 22-C , 24-H ) :   0.9322 B( 22-C , 25-C ) :   1.0680
B( 25-C , 26-H ) :   0.9537 B( 25-C , 27-H ) :   0.9457 B( 25-C , 28-C ) :   1.0885
B( 28-C , 29-H ) :   0.9699 B( 28-C , 30-H ) :   0.9700 B( 28-C , 31-H ) :   0.9751

Dispersion correction           -0.013463582
FINAL SINGLE POINT ENERGY     -1339.860869475773

DIPOLE MOMENT
-------------
                                X             Y             Z
Electronic contribution:      1.01223     -19.09998     -12.83554
Nuclear contribution   :     -1.19040      19.47725      13.29844
                        -----------------------------------------
Total Dipole Moment    :     -0.17817       0.37727       0.46290
                        -----------------------------------------
Magnitude (a.u.)       :      0.62318
Magnitude (Debye)      :      1.58399

Rotational constants in cm-1:     0.019442     0.007317     0.006408
Rotational constants in MHz :   582.848537   219.352257   192.116883

                             ****ORCA TERMINATED NORMALLY****
TOTAL RUN TIME: 0 days 0 hours 0 minutes 32 seconds 680 msec
