                         Program Version 4.2.1 -  RELEASE  -
|  1> ! wB97X-D3 SP def2-SVP
|  2> %pal
|  3> nprocs 16
|  4> end
|  5>
|  6> * xyz 0 1
|  7> S 	 -106.595 	 44.8931 	 131.393
|  8> C 	 -105.621 	 44.8457 	 132.86
|  9> C 	 -104.43 	 44.1949 	 132.601
| 10> C 	 -104.359 	 43.8131 	 131.251
| 11> C 	 -105.527 	 43.9344 	 130.468
| 12> H 	 -103.491 	 43.4038 	 130.753
| 13> C 	 -103.289 	 44.1242 	 133.567
| 14> H 	 -103.237 	 45.0734 	 134.116
| 15> H 	 -102.305 	 44.1197 	 132.936
| 16> C 	 -103.353 	 42.9963 	 134.562
| 17> H 	 -102.648 	 43.1781 	 135.373
| 18> H 	 -104.288 	 43.1368 	 135.088
| 19> C 	 -103.281 	 41.5585 	 133.958
| 20> H 	 -102.762 	 40.9021 	 134.681
| 21> H 	 -104.261 	 41.1238 	 133.639
| 22> H 	 -102.62 	 41.4545 	 133.145
| 23> S 	 -106.378 	 44.818 	 127.907
| 24> C 	 -106.189 	 43.7515 	 126.58
| 25> C 	 -105.809 	 42.4886 	 126.989
| 26> C 	 -105.473 	 42.3998 	 128.367
| 27> C 	 -105.676 	 43.6179 	 129.069
| 28> H 	 -105.693 	 41.7657 	 126.221
| 29> C 	 -104.798 	 41.1528 	 128.925
| 30> H 	 -105.592 	 40.4054 	 128.912
| 31> H 	 -104.664 	 41.3626 	 129.969
| 32> C 	 -103.48 	 40.7248 	 128.386
| 33> H 	 -103.105 	 40.0896 	 129.101
| 34> H 	 -102.759 	 41.5692 	 128.226
| 35> C 	 -103.451 	 39.9111 	 127.049
| 36> H 	 -103.962 	 38.9537 	 127.273
| 37> H 	 -102.387 	 39.7117 	 126.714
| 38> H 	 -104 	 40.5494 	 126.227
| 39> H 	 -105.853 	 45.3396 	 133.841
| 40> H 	 -106.349 	 43.9987 	 125.56
| 41> *
| 42>
| 43>                          ****END OF INPUT****

CARTESIAN COORDINATES (ANGSTROEM)
---------------------------------
  S    -106.595000   44.893100  131.393000
  C    -105.621000   44.845700  132.860000
  C    -104.430000   44.194900  132.601000
  C    -104.359000   43.813100  131.251000
  C    -105.527000   43.934400  130.468000
  H    -103.491000   43.403800  130.753000
  C    -103.289000   44.124200  133.567000
  H    -103.237000   45.073400  134.116000
  H    -102.305000   44.119700  132.936000
  C    -103.353000   42.996300  134.562000
  H    -102.648000   43.178100  135.373000
  H    -104.288000   43.136800  135.088000
  C    -103.281000   41.558500  133.958000
  H    -102.762000   40.902100  134.681000
  H    -104.261000   41.123800  133.639000
  H    -102.620000   41.454500  133.145000
  S    -106.378000   44.818000  127.907000
  C    -106.189000   43.751500  126.580000
  C    -105.809000   42.488600  126.989000
  C    -105.473000   42.399800  128.367000
  C    -105.676000   43.617900  129.069000
  H    -105.693000   41.765700  126.221000
  C    -104.798000   41.152800  128.925000
  H    -105.592000   40.405400  128.912000
  H    -104.664000   41.362600  129.969000
  C    -103.480000   40.724800  128.386000
  H    -103.105000   40.089600  129.101000
  H    -102.759000   41.569200  128.226000
  C    -103.451000   39.911100  127.049000
  H    -103.962000   38.953700  127.273000
  H    -102.387000   39.711700  126.714000
  H    -104.000000   40.549400  126.227000
  H    -105.853000   45.339600  133.841000
  H    -106.349000   43.998700  125.560000

 Total Charge           Charge          ....    0
 Multiplicity           Mult            ....    1
 Number of Electrons    NEL             ....  134
 Basis Dimension        Dim             ....  322

ORBITAL ENERGIES
----------------

  NO   OCC          E(Eh)            E(eV)
   0   2.0000     -88.966587     -2420.9039
   1   2.0000     -88.966458     -2420.9004
   2   2.0000     -10.334440      -281.2144
   3   2.0000     -10.329205      -281.0719
   4   2.0000     -10.318353      -280.7767
   5   2.0000     -10.315688      -280.7041
   6   2.0000     -10.308372      -280.5051
   7   2.0000     -10.297634      -280.2129
   8   2.0000     -10.297215      -280.2015
   9   2.0000     -10.294297      -280.1221
  10   2.0000     -10.291354      -280.0420
  11   2.0000     -10.289858      -280.0013
  12   2.0000     -10.287848      -279.9466
  13   2.0000     -10.287216      -279.9294
  14   2.0000     -10.284193      -279.8471
  15   2.0000     -10.280057      -279.7346
  16   2.0000      -8.081488      -219.9085
  17   2.0000      -8.081027      -219.8959
  18   2.0000      -6.039930      -164.3549
  19   2.0000      -6.039567      -164.3450
  20   2.0000      -6.035799      -164.2424
  21   2.0000      -6.035481      -164.2338
  22   2.0000      -6.032432      -164.1508
  23   2.0000      -6.031869      -164.1355
  24   2.0000      -1.007920       -27.4269
  25   2.0000      -0.985921       -26.8283
  26   2.0000      -0.915610       -24.9150
  27   2.0000      -0.913793       -24.8656
  28   2.0000      -0.870241       -23.6805
  29   2.0000      -0.849204       -23.1080
  30   2.0000      -0.840965       -22.8838
  31   2.0000      -0.812338       -22.1048
  32   2.0000      -0.787926       -21.4406
  33   2.0000      -0.775397       -21.0996
  34   2.0000      -0.710002       -19.3201
  35   2.0000      -0.705888       -19.2082
  36   2.0000      -0.692277       -18.8378
  37   2.0000      -0.658480       -17.9181
  38   2.0000      -0.636526       -17.3207
  39   2.0000      -0.615831       -16.7576
  40   2.0000      -0.596999       -16.2452
  41   2.0000      -0.575856       -15.6698
  42   2.0000      -0.553797       -15.0696
  43   2.0000      -0.548083       -14.9141
  44   2.0000      -0.544203       -14.8085
  45   2.0000      -0.538078       -14.6418
  46   2.0000      -0.516430       -14.0528
  47   2.0000      -0.510432       -13.8896
  48   2.0000      -0.506645       -13.7865
  49   2.0000      -0.504565       -13.7299
  50   2.0000      -0.493189       -13.4203
  51   2.0000      -0.478861       -13.0305
  52   2.0000      -0.475382       -12.9358
  53   2.0000      -0.470051       -12.7907
  54   2.0000      -0.460991       -12.5442
  55   2.0000      -0.441960       -12.0263
  56   2.0000      -0.439817       -11.9680
  57   2.0000      -0.434854       -11.8330
  58   2.0000      -0.431392       -11.7388
  59   2.0000      -0.429024       -11.6743
  60   2.0000      -0.414638       -11.2829
  61   2.0000      -0.412006       -11.2113
  62   2.0000      -0.408028       -11.1030
  63   2.0000      -0.349368        -9.5068
  64   2.0000      -0.332590        -9.0502
  65   2.0000      -0.330417        -8.9911
  66   2.0000      -0.286109        -7.7854
  67   0.0000       0.024256         0.6600
  68   0.0000       0.066538         1.8106
  69   0.0000       0.112623         3.0646
  70   0.0000       0.121743         3.3128
  71   0.0000       0.129336         3.5194

MULLIKEN ATOMIC CHARGES
-----------------------
   0 S :    0.110900
   1 C :   -0.145265
   2 C :   -0.055256
   3 C :    0.004064
   4 C :   -0.152845
   5 H :    0.006144
   6 C :    0.012943
   7 H :    0.027922
   8 H :    0.039552
   9 C :   -0.037746
  10 H :    0.026931
  11 H :    0.016902
  12 C :   -0.048875
  13 H :    0.030733
  14 H :    0.056385
  15 H :    0.011769
  16 S :    0.106806
  17 C :   -0.077524
  18 C :   -0.035147
  19 C :   -0.041548
  20 C :   -0.156965
  21 H :    0.006829
  22 C :    0.093841
  23 H :    0.029971
  24 H :    0.009759
  25 C :   -0.039477
  26 H :    0.014580
  27 H :    0.040371
  28 C :   -0.107928
  29 H :    0.040202
  30 H :    0.049779
  31 H :    0.046555
  32 H :    0.067722
  33 H :    0.047913
Sum of atomic charges:   -0.0000000

LOEWDIN ATOMIC CHARGES
----------------------
   0 S :    0.427174
   1 C :   -0.203483
   2 C :   -0.074152
   3 C :   -0.066204
   4 C :   -0.214030
   5 H :    0.025168
   6 C :   -0.037729
   7 H :    0.032135
   8 H :    0.037608
   9 C :   -0.042955
  10 H :    0.025458
  11 H :    0.024748
  12 C :   -0.070552
  13 H :    0.032553
  14 H :    0.035830
  15 H :    0.015684
  16 S :    0.397114
  17 C :   -0.181176
  18 C :   -0.076039
  19 C :   -0.041976
  20 C :   -0.189164
  21 H :    0.023885
  22 C :   -0.034082
  23 H :    0.036281
  24 H :    0.029505
  25 C :   -0.040649
  26 H :    0.016759
  27 H :    0.032329
  28 C :   -0.076967
  29 H :    0.024946
  30 H :    0.032288
  31 H :    0.032145
  32 H :    0.041484
  33 H :    0.026065

  Mayer bond orders larger than 0.100000
B(  0-S ,  1-C ) :   1.1594 B(  0-S ,  4-C ) :   1.1660 B(  1-C ,  2-C ) :   1.5593
B(  1-C ,  4-C ) :   0.1068 B(  1-C , 32-H ) :   0.9614 B(  2-C ,  3-C ) :   1.2952
B(  2-C ,  6-C ) :   1.0090 B(  3-C ,  4-C ) :   1.5039 B(  3-C ,  5-H ) :   0.9931
B(  4-C , 20-C ) :   1.0884 B(  6-C ,  7-H ) :   0.9414 B(  6-C ,  8-H ) :   0.9479
B(  6-C ,  9-C ) :   1.0855 B(  9-C , 10-H ) :   0.9577 B(  9-C , 11-H ) :   0.9510
B(  9-C , 12-C ) :   1.0571 B( 12-C , 13-H ) :   0.9741 B( 12-C , 14-H ) :   0.9758
B( 12-C , 15-H ) :   0.9784 B( 16-S , 17-C ) :   1.1729 B( 16-S , 20-C ) :   1.1245
B( 17-C , 18-C ) :   1.5971 B( 17-C , 20-C ) :   0.1027 B( 17-C , 33-H ) :   0.9691
B( 18-C , 19-C ) :   1.2429 B( 18-C , 21-H ) :   0.9945 B( 19-C , 20-C ) :   1.5637
B( 19-C , 22-C ) :   1.0433 B( 22-C , 23-H ) :   0.9240 B( 22-C , 24-H ) :   0.9226
B( 22-C , 25-C ) :   1.0714 B( 25-C , 26-H ) :   0.9515 B( 25-C , 27-H ) :   0.9540
B( 25-C , 28-C ) :   1.0728 B( 28-C , 29-H ) :   0.9754 B( 28-C , 30-H ) :   0.9721
B( 28-C , 31-H ) :   0.9715

Dispersion correction           -0.014489534
FINAL SINGLE POINT ENERGY     -1339.866791105635

DIPOLE MOMENT
-------------
                                X             Y             Z
Electronic contribution:    -19.10916      21.23465      -7.90067
Nuclear contribution   :     19.67214     -21.64416       8.03890
                        -----------------------------------------
Total Dipole Moment    :      0.56297      -0.40952       0.13824
                        -----------------------------------------
Magnitude (a.u.)       :      0.70976
Magnitude (Debye)      :      1.80406

Rotational constants in cm-1:     0.018166     0.009280     0.006460
Rotational constants in MHz :   544.598228   278.220941   193.662664

                             ****ORCA TERMINATED NORMALLY****
TOTAL RUN TIME: 0 days 0 hours 0 minutes 34 seconds 691 msec
