                         Program Version 4.2.1 -  RELEASE  -
|  1> ! wB97X-D3 SP def2-SVP
|  2> %pal
|  3> nprocs 16
|  4> end
|  5>
|  6> * xyz 0 1
|  7> S 	 -8.65443 	 34.4877 	 36.8688
|  8> C 	 -8.18269 	 34.453 	 35.1891
|  9> C 	 -9.08524 	 35.0519 	 34.3201
| 10> C 	 -10.1517 	 35.7139 	 35.0324
| 11> C 	 -10.0293 	 35.5167 	 36.3881
| 12> H 	 -10.9562 	 36.3275 	 34.6124
| 13> C 	 -8.93115 	 35.1565 	 32.8168
| 14> H 	 -7.88715 	 35.4045 	 32.8021
| 15> H 	 -9.50251 	 35.9232 	 32.4694
| 16> C 	 -9.35814 	 33.8778 	 32.0777
| 17> H 	 -8.71985 	 33.0595 	 32.3426
| 18> H 	 -10.4349 	 33.6384 	 32.3546
| 19> C 	 -9.19086 	 34.1839 	 30.5644
| 20> H 	 -9.36302 	 33.2321 	 30.0742
| 21> H 	 -9.97999 	 34.8708 	 30.2394
| 22> H 	 -8.27374 	 34.6709 	 30.1413
| 23> S 	 -10.4433 	 37.6937 	 38.2096
| 24> C 	 -11.9052 	 37.6212 	 39.2655
| 25> C 	 -12.7459 	 36.6347 	 38.8567
| 26> C 	 -12.1564 	 35.8113 	 37.8619
| 27> C 	 -10.9104 	 36.2073 	 37.3834
| 28> H 	 -13.6726 	 36.4921 	 39.3488
| 29> C 	 -12.9232 	 34.5278 	 37.4915
| 30> H 	 -13.4055 	 34.0872 	 38.37
| 31> H 	 -12.221 	 33.7409 	 37.2837
| 32> C 	 -13.9278 	 34.6885 	 36.3157
| 33> H 	 -14.2378 	 33.653 	 36.0549
| 34> H 	 -13.3163 	 35.0776 	 35.4645
| 35> C 	 -15.2231 	 35.3962 	 36.4571
| 36> H 	 -15.8471 	 34.9156 	 37.1945
| 37> H 	 -15.8649 	 35.4771 	 35.623
| 38> H 	 -15.0662 	 36.3729 	 36.9403
| 39> H 	 -7.30888 	 33.8666 	 34.7712
| 40> H 	 -12.0926 	 38.3526 	 40.0491
| 41> *
| 42>
| 43>                          ****END OF INPUT****

CARTESIAN COORDINATES (ANGSTROEM)
---------------------------------
  S     -8.654430   34.487700   36.868800
  C     -8.182690   34.453000   35.189100
  C     -9.085240   35.051900   34.320100
  C    -10.151700   35.713900   35.032400
  C    -10.029300   35.516700   36.388100
  H    -10.956200   36.327500   34.612400
  C     -8.931150   35.156500   32.816800
  H     -7.887150   35.404500   32.802100
  H     -9.502510   35.923200   32.469400
  C     -9.358140   33.877800   32.077700
  H     -8.719850   33.059500   32.342600
  H    -10.434900   33.638400   32.354600
  C     -9.190860   34.183900   30.564400
  H     -9.363020   33.232100   30.074200
  H     -9.979990   34.870800   30.239400
  H     -8.273740   34.670900   30.141300
  S    -10.443300   37.693700   38.209600
  C    -11.905200   37.621200   39.265500
  C    -12.745900   36.634700   38.856700
  C    -12.156400   35.811300   37.861900
  C    -10.910400   36.207300   37.383400
  H    -13.672600   36.492100   39.348800
  C    -12.923200   34.527800   37.491500
  H    -13.405500   34.087200   38.370000
  H    -12.221000   33.740900   37.283700
  C    -13.927800   34.688500   36.315700
  H    -14.237800   33.653000   36.054900
  H    -13.316300   35.077600   35.464500
  C    -15.223100   35.396200   36.457100
  H    -15.847100   34.915600   37.194500
  H    -15.864900   35.477100   35.623000
  H    -15.066200   36.372900   36.940300
  H     -7.308880   33.866600   34.771200
  H    -12.092600   38.352600   40.049100

 Total Charge           Charge          ....    0
 Multiplicity           Mult            ....    1
 Number of Electrons    NEL             ....  134
 Basis Dimension        Dim             ....  322

ORBITAL ENERGIES
----------------

  NO   OCC          E(Eh)            E(eV)
   0   2.0000     -88.971565     -2421.0394
   1   2.0000     -88.961832     -2420.7745
   2   2.0000     -10.331822      -281.1432
   3   2.0000     -10.327214      -281.0178
   4   2.0000     -10.319648      -280.8119
   5   2.0000     -10.317030      -280.7407
   6   2.0000     -10.300373      -280.2874
   7   2.0000     -10.299223      -280.2561
   8   2.0000     -10.297318      -280.2043
   9   2.0000     -10.294295      -280.1220
  10   2.0000     -10.288639      -279.9681
  11   2.0000     -10.288445      -279.9628
  12   2.0000     -10.286196      -279.9016
  13   2.0000     -10.281977      -279.7868
  14   2.0000     -10.281537      -279.7749
  15   2.0000     -10.269564      -279.4490
  16   2.0000      -8.085434      -220.0158
  17   2.0000      -8.075663      -219.7500
  18   2.0000      -6.043931      -164.4637
  19   2.0000      -6.040254      -164.3637
  20   2.0000      -6.036069      -164.2498
  21   2.0000      -6.034292      -164.2014
  22   2.0000      -6.030283      -164.0923
  23   2.0000      -6.026363      -163.9857
  24   2.0000      -0.998628       -27.1741
  25   2.0000      -0.979645       -26.6575
  26   2.0000      -0.913552       -24.8590
  27   2.0000      -0.902533       -24.5592
  28   2.0000      -0.864542       -23.5254
  29   2.0000      -0.850328       -23.1386
  30   2.0000      -0.845721       -23.0132
  31   2.0000      -0.816279       -22.2121
  32   2.0000      -0.782103       -21.2821
  33   2.0000      -0.768451       -20.9106
  34   2.0000      -0.704866       -19.1804
  35   2.0000      -0.700722       -19.0676
  36   2.0000      -0.685178       -18.6446
  37   2.0000      -0.658963       -17.9313
  38   2.0000      -0.638297       -17.3689
  39   2.0000      -0.613051       -16.6820
  40   2.0000      -0.593977       -16.1629
  41   2.0000      -0.581423       -15.8213
  42   2.0000      -0.557602       -15.1731
  43   2.0000      -0.546176       -14.8622
  44   2.0000      -0.544496       -14.8165
  45   2.0000      -0.526101       -14.3159
  46   2.0000      -0.517298       -14.0764
  47   2.0000      -0.505750       -13.7622
  48   2.0000      -0.501665       -13.6510
  49   2.0000      -0.494802       -13.4642
  50   2.0000      -0.488013       -13.2795
  51   2.0000      -0.476542       -12.9674
  52   2.0000      -0.470301       -12.7975
  53   2.0000      -0.465452       -12.6656
  54   2.0000      -0.462608       -12.5882
  55   2.0000      -0.452632       -12.3167
  56   2.0000      -0.446160       -12.1406
  57   2.0000      -0.443384       -12.0651
  58   2.0000      -0.429047       -11.6749
  59   2.0000      -0.425626       -11.5819
  60   2.0000      -0.414272       -11.2729
  61   2.0000      -0.410434       -11.1685
  62   2.0000      -0.399456       -10.8697
  63   2.0000      -0.340091        -9.2543
  64   2.0000      -0.331192        -9.0122
  65   2.0000      -0.315838        -8.5944
  66   2.0000      -0.308498        -8.3947
  67   0.0000       0.040900         1.1129
  68   0.0000       0.055513         1.5106
  69   0.0000       0.111452         3.0328
  70   0.0000       0.120298         3.2735
  71   0.0000       0.128965         3.5093

MULLIKEN ATOMIC CHARGES
-----------------------
   0 S :    0.131484
   1 C :   -0.143633
   2 C :   -0.115337
   3 C :    0.039189
   4 C :   -0.175924
   5 H :    0.032729
   6 C :    0.119081
   7 H :    0.031884
   8 H :   -0.012622
   9 C :   -0.077917
  10 H :    0.027337
  11 H :    0.048712
  12 C :   -0.059302
  13 H :    0.033900
  14 H :    0.026967
  15 H :    0.043894
  16 S :    0.091265
  17 C :   -0.107805
  18 C :    0.004561
  19 C :   -0.042693
  20 C :   -0.166861
  21 H :    0.011364
  22 C :    0.079090
  23 H :    0.015704
  24 H :    0.017637
  25 C :   -0.079079
  26 H :    0.024578
  27 H :    0.027965
  28 C :   -0.009987
  29 H :    0.006217
  30 H :    0.032025
  31 H :    0.021387
  32 H :    0.062611
  33 H :    0.061581
Sum of atomic charges:   -0.0000000

LOEWDIN ATOMIC CHARGES
----------------------
   0 S :    0.399209
   1 C :   -0.213762
   2 C :   -0.061150
   3 C :   -0.054607
   4 C :   -0.184965
   5 H :    0.038756
   6 C :   -0.023865
   7 H :    0.035206
   8 H :    0.014291
   9 C :   -0.030306
  10 H :    0.018668
  11 H :    0.037308
  12 C :   -0.075435
  13 H :    0.024439
  14 H :    0.024394
  15 H :    0.032461
  16 S :    0.372788
  17 C :   -0.159304
  18 C :   -0.070644
  19 C :   -0.056234
  20 C :   -0.203583
  21 H :    0.029085
  22 C :   -0.029626
  23 H :    0.027610
  24 H :    0.030175
  25 C :   -0.043936
  26 H :    0.026500
  27 H :    0.025661
  28 C :   -0.069243
  29 H :    0.022381
  30 H :    0.024672
  31 H :    0.025047
  32 H :    0.037918
  33 H :    0.030092

  Mayer bond orders larger than 0.100000
B(  0-S ,  1-C ) :   1.1296 B(  0-S ,  4-C ) :   1.1400 B(  1-C ,  2-C ) :   1.6433
B(  1-C , 32-H ) :   0.9538 B(  2-C ,  3-C ) :   1.2194 B(  2-C ,  6-C ) :   1.0042
B(  3-C ,  4-C ) :   1.6138 B(  3-C ,  5-H ) :   0.9837 B(  4-C , 20-C ) :   1.0106
B(  6-C ,  7-H ) :   0.9397 B(  6-C ,  8-H ) :   0.9386 B(  6-C ,  9-C ) :   1.0648
B(  9-C , 10-H ) :   0.9608 B(  9-C , 11-H ) :   0.9534 B(  9-C , 12-C ) :   1.0716
B( 12-C , 13-H ) :   0.9753 B( 12-C , 14-H ) :   0.9741 B( 12-C , 15-H ) :   0.9760
B( 16-S , 17-C ) :   1.1489 B( 16-S , 20-C ) :   1.1251 B( 17-C , 18-C ) :   1.6159
B( 17-C , 33-H ) :   0.9656 B( 18-C , 19-C ) :   1.2322 B( 18-C , 21-H ) :   0.9958
B( 19-C , 20-C ) :   1.6259 B( 19-C , 22-C ) :   1.0322 B( 22-C , 23-H ) :   0.9428
B( 22-C , 24-H ) :   0.9259 B( 22-C , 25-C ) :   1.0744 B( 25-C , 26-H ) :   0.9527
B( 25-C , 27-H ) :   0.9524 B( 25-C , 28-C ) :   1.0877 B( 28-C , 29-H ) :   0.9660
B( 28-C , 30-H ) :   0.9712 B( 28-C , 31-H ) :   0.9690

Dispersion correction           -0.014400944
FINAL SINGLE POINT ENERGY     -1339.867312632875

DIPOLE MOMENT
-------------
                                X             Y             Z
Electronic contribution:     14.21406       9.17375      22.13025
Nuclear contribution   :    -14.59026      -9.39954     -22.54064
                        -----------------------------------------
Total Dipole Moment    :     -0.37620      -0.22580      -0.41039
                        -----------------------------------------
Magnitude (a.u.)       :      0.60077
Magnitude (Debye)      :      1.52705

Rotational constants in cm-1:     0.019178     0.007938     0.006439
Rotational constants in MHz :   574.938201   237.974106   193.035934

                             ****ORCA TERMINATED NORMALLY****
TOTAL RUN TIME: 0 days 0 hours 0 minutes 33 seconds 74 msec
