                         Program Version 4.2.1 -  RELEASE  -
|  1> ! wB97X-D3 SP def2-SVP
|  2> %pal
|  3> nprocs 16
|  4> end
|  5>
|  6> * xyz 0 1
|  7> S 	 3.58936 	 -28.5976 	 82.0049
|  8> C 	 2.06358 	 -29.383 	 81.7446
|  9> C 	 2.12847 	 -30.3014 	 80.6799
| 10> C 	 3.38264 	 -30.2188 	 80.061
| 11> C 	 4.35258 	 -29.4782 	 80.7284
| 12> H 	 3.6686 	 -30.6972 	 79.1866
| 13> C 	 0.935573 	 -31.0369 	 80.1506
| 14> H 	 0.587479 	 -30.4427 	 79.3532
| 15> H 	 0.111432 	 -31.066 	 80.8531
| 16> C 	 1.24521 	 -32.549 	 79.6989
| 17> H 	 0.449506 	 -32.9076 	 79.0055
| 18> H 	 2.12333 	 -32.6067 	 79.2021
| 19> C 	 1.3854 	 -33.5276 	 80.8068
| 20> H 	 1.64711 	 -34.4777 	 80.3981
| 21> H 	 2.13666 	 -33.2405 	 81.5086
| 22> H 	 0.443107 	 -33.6449 	 81.3155
| 23> S 	 6.31486 	 -27.5838 	 80.224
| 24> C 	 7.92094 	 -28.1706 	 79.7741
| 25> C 	 8.00324 	 -29.5299 	 79.7002
| 26> C 	 6.75493 	 -30.1683 	 79.9757
| 27> C 	 5.74531 	 -29.2812 	 80.3693
| 28> H 	 8.92053 	 -30.02 	 79.3751
| 29> C 	 6.73294 	 -31.6297 	 80.1285
| 30> H 	 7.61885 	 -32.061 	 79.5964
| 31> H 	 5.87574 	 -32.0258 	 79.576
| 32> C 	 6.56367 	 -32.2644 	 81.4948
| 33> H 	 6.3149 	 -33.3257 	 81.2909
| 34> H 	 5.72347 	 -31.8226 	 82.0725
| 35> C 	 7.88443 	 -32.1319 	 82.4033
| 36> H 	 7.71112 	 -32.2643 	 83.4784
| 37> H 	 8.1946 	 -31.0669 	 82.2743
| 38> H 	 8.54945 	 -32.9889 	 82.0615
| 39> H 	 1.18449 	 -29.2101 	 82.3357
| 40> H 	 8.83855 	 -27.4989 	 79.8014
| 41> *
| 42>
| 43>                          ****END OF INPUT****

CARTESIAN COORDINATES (ANGSTROEM)
---------------------------------
  S      3.589360  -28.597600   82.004900
  C      2.063580  -29.383000   81.744600
  C      2.128470  -30.301400   80.679900
  C      3.382640  -30.218800   80.061000
  C      4.352580  -29.478200   80.728400
  H      3.668600  -30.697200   79.186600
  C      0.935573  -31.036900   80.150600
  H      0.587479  -30.442700   79.353200
  H      0.111432  -31.066000   80.853100
  C      1.245210  -32.549000   79.698900
  H      0.449506  -32.907600   79.005500
  H      2.123330  -32.606700   79.202100
  C      1.385400  -33.527600   80.806800
  H      1.647110  -34.477700   80.398100
  H      2.136660  -33.240500   81.508600
  H      0.443107  -33.644900   81.315500
  S      6.314860  -27.583800   80.224000
  C      7.920940  -28.170600   79.774100
  C      8.003240  -29.529900   79.700200
  C      6.754930  -30.168300   79.975700
  C      5.745310  -29.281200   80.369300
  H      8.920530  -30.020000   79.375100
  C      6.732940  -31.629700   80.128500
  H      7.618850  -32.061000   79.596400
  H      5.875740  -32.025800   79.576000
  C      6.563670  -32.264400   81.494800
  H      6.314900  -33.325700   81.290900
  H      5.723470  -31.822600   82.072500
  C      7.884430  -32.131900   82.403300
  H      7.711120  -32.264300   83.478400
  H      8.194600  -31.066900   82.274300
  H      8.549450  -32.988900   82.061500
  H      1.184490  -29.210100   82.335700
  H      8.838550  -27.498900   79.801400

 Total Charge           Charge          ....    0
 Multiplicity           Mult            ....    1
 Number of Electrons    NEL             ....  134
 Basis Dimension        Dim             ....  322

ORBITAL ENERGIES
----------------

  NO   OCC          E(Eh)            E(eV)
   0   2.0000     -88.968076     -2420.9444
   1   2.0000     -88.966085     -2420.8903
   2   2.0000     -10.331576      -281.1365
   3   2.0000     -10.327799      -281.0337
   4   2.0000     -10.322451      -280.8882
   5   2.0000     -10.313865      -280.6545
   6   2.0000     -10.303303      -280.3671
   7   2.0000     -10.301713      -280.3239
   8   2.0000     -10.294703      -280.1331
   9   2.0000     -10.292636      -280.0769
  10   2.0000     -10.289742      -279.9981
  11   2.0000     -10.288988      -279.9776
  12   2.0000     -10.287974      -279.9500
  13   2.0000     -10.284379      -279.8522
  14   2.0000     -10.281835      -279.7830
  15   2.0000     -10.267030      -279.3801
  16   2.0000      -8.083155      -219.9538
  17   2.0000      -8.080020      -219.8685
  18   2.0000      -6.041494      -164.3974
  19   2.0000      -6.038584      -164.3182
  20   2.0000      -6.037470      -164.2879
  21   2.0000      -6.034706      -164.2127
  22   2.0000      -6.034227      -164.1997
  23   2.0000      -6.030703      -164.1038
  24   2.0000      -1.008012       -27.4294
  25   2.0000      -0.984205       -26.7816
  26   2.0000      -0.913754       -24.8645
  27   2.0000      -0.906593       -24.6696
  28   2.0000      -0.872798       -23.7500
  29   2.0000      -0.853850       -23.2345
  30   2.0000      -0.841363       -22.8947
  31   2.0000      -0.816206       -22.2101
  32   2.0000      -0.784252       -21.3406
  33   2.0000      -0.769360       -20.9354
  34   2.0000      -0.713659       -19.4196
  35   2.0000      -0.699766       -19.0416
  36   2.0000      -0.681130       -18.5345
  37   2.0000      -0.660959       -17.9856
  38   2.0000      -0.645395       -17.5621
  39   2.0000      -0.625721       -17.0267
  40   2.0000      -0.592135       -16.1128
  41   2.0000      -0.570463       -15.5231
  42   2.0000      -0.557175       -15.1615
  43   2.0000      -0.549285       -14.9468
  44   2.0000      -0.543626       -14.7928
  45   2.0000      -0.541293       -14.7293
  46   2.0000      -0.518540       -14.1102
  47   2.0000      -0.508554       -13.8385
  48   2.0000      -0.501096       -13.6355
  49   2.0000      -0.494288       -13.4503
  50   2.0000      -0.490301       -13.3418
  51   2.0000      -0.482261       -13.1230
  52   2.0000      -0.469514       -12.7761
  53   2.0000      -0.467204       -12.7133
  54   2.0000      -0.460362       -12.5271
  55   2.0000      -0.447769       -12.1844
  56   2.0000      -0.445100       -12.1118
  57   2.0000      -0.438365       -11.9285
  58   2.0000      -0.435322       -11.8457
  59   2.0000      -0.429712       -11.6931
  60   2.0000      -0.419486       -11.4148
  61   2.0000      -0.413683       -11.2569
  62   2.0000      -0.403989       -10.9931
  63   2.0000      -0.346424        -9.4267
  64   2.0000      -0.332835        -9.0569
  65   2.0000      -0.330930        -9.0051
  66   2.0000      -0.288465        -7.8495
  67   0.0000       0.021528         0.5858
  68   0.0000       0.069677         1.8960
  69   0.0000       0.106608         2.9009
  70   0.0000       0.120840         3.2882
  71   0.0000       0.128161         3.4874

MULLIKEN ATOMIC CHARGES
-----------------------
   0 S :    0.119788
   1 C :   -0.120248
   2 C :   -0.084788
   3 C :    0.046814
   4 C :   -0.167070
   5 H :   -0.014037
   6 C :    0.089426
   7 H :    0.036533
   8 H :    0.012572
   9 C :   -0.066638
  10 H :    0.029838
  11 H :    0.000798
  12 C :   -0.017703
  13 H :    0.022829
  14 H :    0.031682
  15 H :    0.019776
  16 S :    0.094361
  17 C :   -0.109875
  18 C :   -0.040095
  19 C :   -0.022455
  20 C :   -0.146272
  21 H :    0.028511
  22 C :    0.046320
  23 H :    0.021273
  24 H :    0.019525
  25 C :   -0.082653
  26 H :    0.032069
  27 H :    0.047351
  28 C :   -0.095025
  29 H :    0.039379
  30 H :    0.054762
  31 H :    0.047088
  32 H :    0.044396
  33 H :    0.081768
Sum of atomic charges:    0.0000000

LOEWDIN ATOMIC CHARGES
----------------------
   0 S :    0.427471
   1 C :   -0.201102
   2 C :   -0.062361
   3 C :   -0.055400
   4 C :   -0.207350
   5 H :    0.017873
   6 C :   -0.022612
   7 H :    0.032073
   8 H :    0.027696
   9 C :   -0.031223
  10 H :    0.028997
  11 H :    0.005638
  12 C :   -0.055557
  13 H :    0.024477
  14 H :    0.023791
  15 H :    0.021107
  16 S :    0.377241
  17 C :   -0.185507
  18 C :   -0.074266
  19 C :   -0.059431
  20 C :   -0.183148
  21 H :    0.037051
  22 C :   -0.045131
  23 H :    0.033923
  24 H :    0.033168
  25 C :   -0.038948
  26 H :    0.024896
  27 H :    0.028640
  28 C :   -0.080408
  29 H :    0.024165
  30 H :    0.033236
  31 H :    0.032938
  32 H :    0.024552
  33 H :    0.043512

  Mayer bond orders larger than 0.100000
B(  0-S ,  1-C ) :   1.1640 B(  0-S ,  4-C ) :   1.1641 B(  1-C ,  2-C ) :   1.5531
B(  1-C ,  4-C ) :   0.1083 B(  1-C , 32-H ) :   0.9720 B(  2-C ,  3-C ) :   1.2715
B(  2-C ,  6-C ) :   1.0267 B(  3-C ,  4-C ) :   1.5374 B(  3-C ,  5-H ) :   1.0025
B(  4-C , 20-C ) :   1.0572 B(  6-C ,  7-H ) :   0.9370 B(  6-C ,  8-H ) :   0.9444
B(  6-C ,  9-C ) :   1.0567 B(  9-C , 10-H ) :   0.9565 B(  9-C , 11-H ) :   0.9605
B(  9-C , 12-C ) :   1.0899 B( 12-C , 13-H ) :   0.9697 B( 12-C , 14-H ) :   0.9742
B( 12-C , 15-H ) :   0.9735 B( 16-S , 17-C ) :   1.1465 B( 16-S , 20-C ) :   1.1275
B( 17-C , 18-C ) :   1.6309 B( 17-C , 33-H ) :   0.9518 B( 18-C , 19-C ) :   1.2282
B( 18-C , 21-H ) :   0.9867 B( 19-C , 20-C ) :   1.5840 B( 19-C , 22-C ) :   1.0730
B( 22-C , 23-H ) :   0.9327 B( 22-C , 24-H ) :   0.9146 B( 22-C , 25-C ) :   1.0703
B( 25-C , 26-H ) :   0.9584 B( 25-C , 27-H ) :   0.9561 B( 25-C , 28-C ) :   1.0547
B( 28-C , 29-H ) :   0.9789 B( 28-C , 30-H ) :   0.9775 B( 28-C , 31-H ) :   0.9773

Dispersion correction           -0.014980175
FINAL SINGLE POINT ENERGY     -1339.873244955994

DIPOLE MOMENT
-------------
                                X             Y             Z
Electronic contribution:      4.32177      27.25374      -0.14797
Nuclear contribution   :     -4.45296     -27.83507      -0.05391
                        -----------------------------------------
Total Dipole Moment    :     -0.13119      -0.58132      -0.20188
                        -----------------------------------------
Magnitude (a.u.)       :      0.62921
Magnitude (Debye)      :      1.59932

Rotational constants in cm-1:     0.019147     0.009307     0.007374
Rotational constants in MHz :   574.013795   279.016811   221.057175

                             ****ORCA TERMINATED NORMALLY****
TOTAL RUN TIME: 0 days 0 hours 0 minutes 35 seconds 480 msec
