                         Program Version 4.2.1 -  RELEASE  -
|  1> ! wB97X-D3 SP def2-SVP
|  2> %pal
|  3> nprocs 16
|  4> end
|  5>
|  6> * xyz 0 1
|  7> S 	 -106.064 	 40.1221 	 129.961
|  8> C 	 -104.632 	 39.855 	 130.914
|  9> C 	 -103.577 	 39.3706 	 130.161
| 10> C 	 -103.926 	 39.2607 	 128.773
| 11> C 	 -105.251 	 39.5404 	 128.525
| 12> H 	 -103.353 	 38.8538 	 127.956
| 13> C 	 -102.229 	 38.8105 	 130.656
| 14> H 	 -102.404 	 37.7388 	 130.797
| 15> H 	 -101.933 	 39.2209 	 131.588
| 16> C 	 -101.063 	 38.9947 	 129.597
| 17> H 	 -101.285 	 38.3351 	 128.79
| 18> H 	 -101.034 	 39.9605 	 129.174
| 19> C 	 -99.6305 	 38.8593 	 130.118
| 20> H 	 -99.3015 	 37.9548 	 130.639
| 21> H 	 -99.0318 	 38.7722 	 129.165
| 22> H 	 -99.1877 	 39.7578 	 130.702
| 23> S 	 -106.703 	 37.7117 	 127.055
| 24> C 	 -107.231 	 38.2181 	 125.46
| 25> C 	 -106.926 	 39.5503 	 125.254
| 26> C 	 -106.246 	 40.1792 	 126.336
| 27> C 	 -105.969 	 39.2921 	 127.335
| 28> H 	 -107.073 	 40.0817 	 124.3
| 29> C 	 -105.831 	 41.6621 	 126.196
| 30> H 	 -104.908 	 41.8425 	 126.695
| 31> H 	 -106.497 	 42.3001 	 126.786
| 32> C 	 -105.794 	 42.2685 	 124.78
| 33> H 	 -106.716 	 42.2244 	 124.231
| 34> H 	 -105.156 	 41.5742 	 124.238
| 35> C 	 -105.124 	 43.6391 	 124.736
| 36> H 	 -104.622 	 43.5023 	 123.81
| 37> H 	 -104.426 	 43.7356 	 125.558
| 38> H 	 -105.838 	 44.4697 	 124.781
| 39> H 	 -104.533 	 40.2251 	 131.922
| 40> H 	 -107.894 	 37.7277 	 124.768
| 41> *
| 42>
| 43>                          ****END OF INPUT****

CARTESIAN COORDINATES (ANGSTROEM)
---------------------------------
  S    -106.064000   40.122100  129.961000
  C    -104.632000   39.855000  130.914000
  C    -103.577000   39.370600  130.161000
  C    -103.926000   39.260700  128.773000
  C    -105.251000   39.540400  128.525000
  H    -103.353000   38.853800  127.956000
  C    -102.229000   38.810500  130.656000
  H    -102.404000   37.738800  130.797000
  H    -101.933000   39.220900  131.588000
  C    -101.063000   38.994700  129.597000
  H    -101.285000   38.335100  128.790000
  H    -101.034000   39.960500  129.174000
  C    -99.630500   38.859300  130.118000
  H    -99.301500   37.954800  130.639000
  H    -99.031800   38.772200  129.165000
  H    -99.187700   39.757800  130.702000
  S    -106.703000   37.711700  127.055000
  C    -107.231000   38.218100  125.460000
  C    -106.926000   39.550300  125.254000
  C    -106.246000   40.179200  126.336000
  C    -105.969000   39.292100  127.335000
  H    -107.073000   40.081700  124.300000
  C    -105.831000   41.662100  126.196000
  H    -104.908000   41.842500  126.695000
  H    -106.497000   42.300100  126.786000
  C    -105.794000   42.268500  124.780000
  H    -106.716000   42.224400  124.231000
  H    -105.156000   41.574200  124.238000
  C    -105.124000   43.639100  124.736000
  H    -104.622000   43.502300  123.810000
  H    -104.426000   43.735600  125.558000
  H    -105.838000   44.469700  124.781000
  H    -104.533000   40.225100  131.922000
  H    -107.894000   37.727700  124.768000

 Total Charge           Charge          ....    0
 Multiplicity           Mult            ....    1
 Number of Electrons    NEL             ....  134
 Basis Dimension        Dim             ....  322

ORBITAL ENERGIES
----------------

  NO   OCC          E(Eh)            E(eV)
   0   2.0000     -88.966206     -2420.8935
   1   2.0000     -88.962514     -2420.7931
   2   2.0000     -10.319655      -280.8121
   3   2.0000     -10.317206      -280.7455
   4   2.0000     -10.315963      -280.7116
   5   2.0000     -10.310655      -280.5672
   6   2.0000     -10.302674      -280.3500
   7   2.0000     -10.299147      -280.2540
   8   2.0000     -10.293587      -280.1027
   9   2.0000     -10.291130      -280.0359
  10   2.0000     -10.289929      -280.0032
  11   2.0000     -10.289748      -279.9983
  12   2.0000     -10.289113      -279.9810
  13   2.0000     -10.286501      -279.9099
  14   2.0000     -10.284177      -279.8467
  15   2.0000     -10.276600      -279.6405
  16   2.0000      -8.080473      -219.8809
  17   2.0000      -8.077593      -219.8025
  18   2.0000      -6.039048      -164.3308
  19   2.0000      -6.035983      -164.2474
  20   2.0000      -6.035052      -164.2221
  21   2.0000      -6.032076      -164.1411
  22   2.0000      -6.031178      -164.1167
  23   2.0000      -6.028440      -164.0422
  24   2.0000      -1.007217       -27.4078
  25   2.0000      -0.981759       -26.7150
  26   2.0000      -0.910876       -24.7862
  27   2.0000      -0.905205       -24.6319
  28   2.0000      -0.872217       -23.7342
  29   2.0000      -0.851225       -23.1630
  30   2.0000      -0.846426       -23.0324
  31   2.0000      -0.811487       -22.0817
  32   2.0000      -0.783383       -21.3169
  33   2.0000      -0.770601       -20.9691
  34   2.0000      -0.710658       -19.3380
  35   2.0000      -0.705734       -19.2040
  36   2.0000      -0.692864       -18.8538
  37   2.0000      -0.652779       -17.7630
  38   2.0000      -0.643891       -17.5212
  39   2.0000      -0.615459       -16.7475
  40   2.0000      -0.600024       -16.3275
  41   2.0000      -0.569136       -15.4870
  42   2.0000      -0.567585       -15.4448
  43   2.0000      -0.556861       -15.1530
  44   2.0000      -0.531747       -14.4696
  45   2.0000      -0.521660       -14.1951
  46   2.0000      -0.517643       -14.0858
  47   2.0000      -0.508753       -13.8439
  48   2.0000      -0.505410       -13.7529
  49   2.0000      -0.493122       -13.4185
  50   2.0000      -0.487881       -13.2759
  51   2.0000      -0.481689       -13.1074
  52   2.0000      -0.474448       -12.9104
  53   2.0000      -0.466501       -12.6941
  54   2.0000      -0.458697       -12.4818
  55   2.0000      -0.452111       -12.3026
  56   2.0000      -0.447539       -12.1781
  57   2.0000      -0.437816       -11.9136
  58   2.0000      -0.431295       -11.7361
  59   2.0000      -0.426532       -11.6065
  60   2.0000      -0.419798       -11.4233
  61   2.0000      -0.412101       -11.2138
  62   2.0000      -0.409852       -11.1526
  63   2.0000      -0.335500        -9.1294
  64   2.0000      -0.328468        -8.9381
  65   2.0000      -0.314506        -8.5581
  66   2.0000      -0.311906        -8.4874
  67   0.0000       0.047280         1.2865
  68   0.0000       0.052048         1.4163
  69   0.0000       0.118330         3.2199
  70   0.0000       0.125714         3.4208
  71   0.0000       0.128612         3.4997

MULLIKEN ATOMIC CHARGES
-----------------------
   0 S :    0.117644
   1 C :   -0.131225
   2 C :   -0.084550
   3 C :    0.035712
   4 C :   -0.199249
   5 H :    0.011264
   6 C :    0.100466
   7 H :    0.050429
   8 H :    0.008820
   9 C :   -0.081274
  10 H :    0.032224
  11 H :    0.027195
  12 C :   -0.090169
  13 H :    0.033456
  14 H :    0.032634
  15 H :    0.054118
  16 S :    0.125532
  17 C :   -0.070207
  18 C :   -0.062821
  19 C :   -0.009193
  20 C :   -0.200156
  21 H :    0.025445
  22 C :    0.105854
  23 H :    0.014613
  24 H :    0.026923
  25 C :   -0.140157
  26 H :    0.036838
  27 H :    0.023084
  28 C :    0.005341
  29 H :    0.031671
  30 H :    0.026067
  31 H :    0.043763
  32 H :    0.048163
  33 H :    0.051743
Sum of atomic charges:   -0.0000000

LOEWDIN ATOMIC CHARGES
----------------------
   0 S :    0.408965
   1 C :   -0.203488
   2 C :   -0.061908
   3 C :   -0.058534
   4 C :   -0.197581
   5 H :    0.031927
   6 C :   -0.021859
   7 H :    0.039464
   8 H :    0.020028
   9 C :   -0.039736
  10 H :    0.020520
  11 H :    0.024712
  12 C :   -0.081879
  13 H :    0.020958
  14 H :    0.035404
  15 H :    0.036275
  16 S :    0.403464
  17 C :   -0.186851
  18 C :   -0.076127
  19 C :   -0.048713
  20 C :   -0.210063
  21 H :    0.032965
  22 C :   -0.030643
  23 H :    0.025895
  24 H :    0.033437
  25 C :   -0.043959
  26 H :    0.019924
  27 H :    0.020225
  28 C :   -0.054068
  29 H :    0.030227
  30 H :    0.025166
  31 H :    0.028380
  32 H :    0.026262
  33 H :    0.031212

  Mayer bond orders larger than 0.100000
B(  0-S ,  1-C ) :   1.1419 B(  0-S ,  4-C ) :   1.1497 B(  1-C ,  2-C ) :   1.6251
B(  1-C , 32-H ) :   0.9675 B(  2-C ,  3-C ) :   1.2223 B(  2-C ,  6-C ) :   1.0182
B(  3-C ,  4-C ) :   1.6018 B(  3-C ,  5-H ) :   0.9927 B(  4-C , 20-C ) :   1.0421
B(  6-C ,  7-H ) :   0.9381 B(  6-C ,  8-H ) :   0.9464 B(  6-C ,  9-C ) :   1.0580
B(  9-C , 10-H ) :   0.9511 B(  9-C , 11-H ) :   0.9616 B(  9-C , 12-C ) :   1.0781
B( 12-C , 13-H ) :   0.9753 B( 12-C , 14-H ) :   0.9708 B( 12-C , 15-H ) :   0.9750
B( 16-S , 17-C ) :   1.1475 B( 16-S , 20-C ) :   1.1300 B( 17-C , 18-C ) :   1.6140
B( 17-C , 33-H ) :   0.9614 B( 18-C , 19-C ) :   1.2653 B( 18-C , 21-H ) :   0.9718
B( 19-C , 20-C ) :   1.6227 B( 19-C , 22-C ) :   1.0257 B( 22-C , 23-H ) :   0.9273
B( 22-C , 24-H ) :   0.9201 B( 22-C , 25-C ) :   1.0755 B( 25-C , 26-H ) :   0.9435
B( 25-C , 27-H ) :   0.9671 B( 25-C , 28-C ) :   1.0611 B( 28-C , 29-H ) :   0.9775
B( 28-C , 30-H ) :   0.9758 B( 28-C , 31-H ) :   0.9763

Dispersion correction           -0.013449155
FINAL SINGLE POINT ENERGY     -1339.866581432069

DIPOLE MOMENT
-------------
                                X             Y             Z
Electronic contribution:    -21.87530     -12.07914       6.42717
Nuclear contribution   :     22.33101      12.33784      -6.71905
                        -----------------------------------------
Total Dipole Moment    :      0.45571       0.25870      -0.29188
                        -----------------------------------------
Magnitude (a.u.)       :      0.59983
Magnitude (Debye)      :      1.52465

Rotational constants in cm-1:     0.016794     0.007749     0.006738
Rotational constants in MHz :   503.467636   232.319571   202.010060

                             ****ORCA TERMINATED NORMALLY****
TOTAL RUN TIME: 0 days 0 hours 0 minutes 32 seconds 216 msec
