                         Program Version 4.2.1 -  RELEASE  -
|  1> ! wB97X-D3 SP def2-SVP
|  2> %pal
|  3> nprocs 16
|  4> end
|  5>
|  6> * xyz 0 1
|  7> S 	 -112.551 	 55.0638 	 112.97
|  8> C 	 -112.163 	 55.7597 	 111.419
|  9> C 	 -111.394 	 54.8786 	 110.681
| 10> C 	 -110.935 	 53.7693 	 111.407
| 11> C 	 -111.649 	 53.5483 	 112.539
| 12> H 	 -110.146 	 53.0644 	 111.105
| 13> C 	 -110.978 	 55.2127 	 109.298
| 14> H 	 -111.684 	 54.82 	 108.604
| 15> H 	 -110.121 	 54.6455 	 109.046
| 16> C 	 -110.722 	 56.7263 	 109.028
| 17> H 	 -110.731 	 57.0376 	 107.928
| 18> H 	 -111.728 	 57.1465 	 109.281
| 19> C 	 -109.493 	 57.2767 	 109.83
| 20> H 	 -109.321 	 58.3623 	 109.796
| 21> H 	 -109.561 	 57.0116 	 110.891
| 22> H 	 -108.622 	 56.7725 	 109.587
| 23> S 	 -111.296 	 52.8697 	 115.245
| 24> C 	 -110.976 	 51.1202 	 115.647
| 25> C 	 -111.324 	 50.3015 	 114.591
| 26> C 	 -111.542 	 51.0358 	 113.347
| 27> C 	 -111.546 	 52.4738 	 113.549
| 28> H 	 -111.32 	 49.2576 	 114.763
| 29> C 	 -111.917 	 50.2108 	 112.082
| 30> H 	 -111.04 	 49.7542 	 111.666
| 31> H 	 -112.528 	 50.7856 	 111.341
| 32> C 	 -112.94 	 49.0296 	 112.333
| 33> H 	 -112.51 	 48.296 	 113.021
| 34> H 	 -113.101 	 48.5181 	 111.397
| 35> C 	 -114.264 	 49.6314 	 112.887
| 36> H 	 -114.173 	 50.204 	 113.808
| 37> H 	 -114.966 	 48.8006 	 113.077
| 38> H 	 -114.754 	 50.3402 	 112.229
| 39> H 	 -112.426 	 56.7611 	 111.223
| 40> H 	 -110.687 	 50.7155 	 116.61
| 41> *
| 42>
| 43>                          ****END OF INPUT****

CARTESIAN COORDINATES (ANGSTROEM)
---------------------------------
  S    -112.551000   55.063800  112.970000
  C    -112.163000   55.759700  111.419000
  C    -111.394000   54.878600  110.681000
  C    -110.935000   53.769300  111.407000
  C    -111.649000   53.548300  112.539000
  H    -110.146000   53.064400  111.105000
  C    -110.978000   55.212700  109.298000
  H    -111.684000   54.820000  108.604000
  H    -110.121000   54.645500  109.046000
  C    -110.722000   56.726300  109.028000
  H    -110.731000   57.037600  107.928000
  H    -111.728000   57.146500  109.281000
  C    -109.493000   57.276700  109.830000
  H    -109.321000   58.362300  109.796000
  H    -109.561000   57.011600  110.891000
  H    -108.622000   56.772500  109.587000
  S    -111.296000   52.869700  115.245000
  C    -110.976000   51.120200  115.647000
  C    -111.324000   50.301500  114.591000
  C    -111.542000   51.035800  113.347000
  C    -111.546000   52.473800  113.549000
  H    -111.320000   49.257600  114.763000
  C    -111.917000   50.210800  112.082000
  H    -111.040000   49.754200  111.666000
  H    -112.528000   50.785600  111.341000
  C    -112.940000   49.029600  112.333000
  H    -112.510000   48.296000  113.021000
  H    -113.101000   48.518100  111.397000
  C    -114.264000   49.631400  112.887000
  H    -114.173000   50.204000  113.808000
  H    -114.966000   48.800600  113.077000
  H    -114.754000   50.340200  112.229000
  H    -112.426000   56.761100  111.223000
  H    -110.687000   50.715500  116.610000

 Total Charge           Charge          ....    0
 Multiplicity           Mult            ....    1
 Number of Electrons    NEL             ....  134
 Basis Dimension        Dim             ....  322

ORBITAL ENERGIES
----------------

  NO   OCC          E(Eh)            E(eV)
   0   2.0000     -88.969099     -2420.9723
   1   2.0000     -88.960733     -2420.7446
   2   2.0000     -10.338841      -281.3342
   3   2.0000     -10.333538      -281.1899
   4   2.0000     -10.324854      -280.9536
   5   2.0000     -10.318272      -280.7744
   6   2.0000     -10.310313      -280.5579
   7   2.0000     -10.299873      -280.2738
   8   2.0000     -10.298142      -280.2267
   9   2.0000     -10.298011      -280.2231
  10   2.0000     -10.297521      -280.2098
  11   2.0000     -10.295476      -280.1541
  12   2.0000     -10.291325      -280.0412
  13   2.0000     -10.284179      -279.8467
  14   2.0000     -10.275697      -279.6159
  15   2.0000     -10.274317      -279.5784
  16   2.0000      -8.082370      -219.9325
  17   2.0000      -8.075121      -219.7352
  18   2.0000      -6.041102      -164.3867
  19   2.0000      -6.037187      -164.2802
  20   2.0000      -6.033664      -164.1844
  21   2.0000      -6.032850      -164.1622
  22   2.0000      -6.029749      -164.0778
  23   2.0000      -6.025818      -163.9708
  24   2.0000      -1.001005       -27.2387
  25   2.0000      -0.975496       -26.5446
  26   2.0000      -0.909350       -24.7447
  27   2.0000      -0.899853       -24.4862
  28   2.0000      -0.864154       -23.5148
  29   2.0000      -0.848918       -23.1002
  30   2.0000      -0.835321       -22.7302
  31   2.0000      -0.815348       -22.1868
  32   2.0000      -0.782022       -21.2799
  33   2.0000      -0.767962       -20.8973
  34   2.0000      -0.713965       -19.4280
  35   2.0000      -0.705094       -19.1866
  36   2.0000      -0.690639       -18.7932
  37   2.0000      -0.656111       -17.8537
  38   2.0000      -0.644046       -17.5254
  39   2.0000      -0.614299       -16.7159
  40   2.0000      -0.592504       -16.1229
  41   2.0000      -0.572991       -15.5919
  42   2.0000      -0.555154       -15.1065
  43   2.0000      -0.553363       -15.0578
  44   2.0000      -0.536522       -14.5995
  45   2.0000      -0.526277       -14.3207
  46   2.0000      -0.517969       -14.0947
  47   2.0000      -0.512587       -13.9482
  48   2.0000      -0.498995       -13.5784
  49   2.0000      -0.496470       -13.5096
  50   2.0000      -0.486827       -13.2472
  51   2.0000      -0.479098       -13.0369
  52   2.0000      -0.472869       -12.8674
  53   2.0000      -0.460370       -12.5273
  54   2.0000      -0.451618       -12.2892
  55   2.0000      -0.448359       -12.2005
  56   2.0000      -0.441023       -12.0009
  57   2.0000      -0.437078       -11.8935
  58   2.0000      -0.433987       -11.8094
  59   2.0000      -0.429244       -11.6803
  60   2.0000      -0.419745       -11.4219
  61   2.0000      -0.409615       -11.1462
  62   2.0000      -0.406738       -11.0679
  63   2.0000      -0.351619        -9.5680
  64   2.0000      -0.332728        -9.0540
  65   2.0000      -0.323134        -8.7929
  66   2.0000      -0.286340        -7.7917
  67   0.0000       0.021081         0.5736
  68   0.0000       0.066507         1.8097
  69   0.0000       0.096339         2.6215
  70   0.0000       0.116403         3.1675
  71   0.0000       0.136324         3.7096

MULLIKEN ATOMIC CHARGES
-----------------------
   0 S :    0.074664
   1 C :   -0.116887
   2 C :   -0.107703
   3 C :    0.026924
   4 C :   -0.137189
   5 H :    0.032039
   6 C :    0.122228
   7 H :    0.031633
   8 H :   -0.003742
   9 C :   -0.122823
  10 H :    0.037070
  11 H :    0.025489
  12 C :   -0.016199
  13 H :    0.043822
  14 H :    0.031889
  15 H :    0.012242
  16 S :    0.101122
  17 C :   -0.097984
  18 C :   -0.017878
  19 C :   -0.046468
  20 C :   -0.140284
  21 H :    0.015593
  22 C :    0.049956
  23 H :    0.035112
  24 H :    0.041496
  25 C :   -0.086321
  26 H :    0.028168
  27 H :    0.033235
  28 C :   -0.064772
  29 H :    0.045210
  30 H :    0.034836
  31 H :    0.028554
  32 H :    0.049790
  33 H :    0.057177
Sum of atomic charges:   -0.0000000

LOEWDIN ATOMIC CHARGES
----------------------
   0 S :    0.369589
   1 C :   -0.184426
   2 C :   -0.066211
   3 C :   -0.059092
   4 C :   -0.165441
   5 H :    0.042189
   6 C :   -0.029971
   7 H :    0.034420
   8 H :    0.020158
   9 C :   -0.047089
  10 H :    0.031366
  11 H :    0.022244
  12 C :   -0.066426
  13 H :    0.030380
  14 H :    0.030911
  15 H :    0.017087
  16 S :    0.375303
  17 C :   -0.161713
  18 C :   -0.063684
  19 C :   -0.051290
  20 C :   -0.200778
  21 H :    0.027726
  22 C :   -0.032927
  23 H :    0.026206
  24 H :    0.035870
  25 C :   -0.035809
  26 H :    0.017230
  27 H :    0.024793
  28 C :   -0.070341
  29 H :    0.028903
  30 H :    0.027109
  31 H :    0.024523
  32 H :    0.018691
  33 H :    0.030497

  Mayer bond orders larger than 0.100000
B(  0-S ,  1-C ) :   1.1384 B(  0-S ,  4-C ) :   1.1287 B(  1-C ,  2-C ) :   1.5898
B(  1-C , 32-H ) :   0.9749 B(  2-C ,  3-C ) :   1.2373 B(  2-C ,  6-C ) :   1.0210
B(  3-C ,  4-C ) :   1.6006 B(  3-C ,  5-H ) :   0.9856 B(  4-C , 20-C ) :   1.0486
B(  6-C ,  7-H ) :   0.9227 B(  6-C ,  8-H ) :   0.9373 B(  6-C ,  9-C ) :   1.0707
B(  9-C , 10-H ) :   0.9571 B(  9-C , 11-H ) :   0.9525 B(  9-C , 12-C ) :   1.0536
B( 12-C , 13-H ) :   0.9778 B( 12-C , 14-H ) :   0.9727 B( 12-C , 15-H ) :   0.9737
B( 16-S , 17-C ) :   1.1286 B( 16-S , 20-C ) :   1.1346 B( 17-C , 18-C ) :   1.6439
B( 17-C , 33-H ) :   0.9657 B( 18-C , 19-C ) :   1.2130 B( 18-C , 21-H ) :   0.9898
B( 19-C , 20-C ) :   1.5807 B( 19-C , 22-C ) :   1.0330 B( 22-C , 23-H ) :   0.9348
B( 22-C , 24-H ) :   0.9511 B( 22-C , 25-C ) :   1.0717 B( 25-C , 26-H ) :   0.9518
B( 25-C , 27-H ) :   0.9571 B( 25-C , 28-C ) :   1.0694 B( 28-C , 29-H ) :   0.9745
B( 28-C , 30-H ) :   0.9756 B( 28-C , 31-H ) :   0.9756

Dispersion correction           -0.014443153
FINAL SINGLE POINT ENERGY     -1339.855834645301

DIPOLE MOMENT
-------------
                                X             Y             Z
Electronic contribution:     -0.22488       4.45033      18.51748
Nuclear contribution   :      0.42434      -4.87981     -18.96869
                        -----------------------------------------
Total Dipole Moment    :      0.19946      -0.42948      -0.45121
                        -----------------------------------------
Magnitude (a.u.)       :      0.65408
Magnitude (Debye)      :      1.66255

Rotational constants in cm-1:     0.023517     0.007410     0.006483
Rotational constants in MHz :   705.013541   222.141594   194.356104

                             ****ORCA TERMINATED NORMALLY****
TOTAL RUN TIME: 0 days 0 hours 0 minutes 33 seconds 459 msec
