                         Program Version 4.2.1 -  RELEASE  -
|  1> ! wB97X-D3 SP def2-SVP
|  2> %pal
|  3> nprocs 16
|  4> end
|  5>
|  6> * xyz 0 1
|  7> S 	 -41.3098 	 13.7681 	 77.7622
|  8> C 	 -40.5283 	 13.8964 	 76.1703
|  9> C 	 -41.1485 	 13.0549 	 75.2087
| 10> C 	 -42.3265 	 12.4455 	 75.8162
| 11> C 	 -42.5698 	 12.7541 	 77.1479
| 12> H 	 -43.0312 	 11.8682 	 75.232
| 13> C 	 -40.8502 	 13.1458 	 73.737
| 14> H 	 -40.184 	 12.3223 	 73.6218
| 15> H 	 -40.5097 	 14.1666 	 73.6519
| 16> C 	 -42.0461 	 13.1091 	 72.7609
| 17> H 	 -43.0044 	 13.6253 	 73.093
| 18> H 	 -41.6449 	 13.6031 	 71.8021
| 19> C 	 -42.4714 	 11.6425 	 72.3841
| 20> H 	 -41.6227 	 11.0422 	 72.1454
| 21> H 	 -43.051 	 11.2371 	 73.2329
| 22> H 	 -43.1535 	 11.6578 	 71.5763
| 23> S 	 -45.0726 	 13.0293 	 78.0721
| 24> C 	 -45.6573 	 11.968 	 79.3723
| 25> C 	 -44.8697 	 10.8408 	 79.3907
| 26> C 	 -43.6451 	 10.9342 	 78.6756
| 27> C 	 -43.6117 	 12.1101 	 77.9413
| 28> H 	 -45.0991 	 10.2145 	 80.2288
| 29> C 	 -42.4684 	 10.0089 	 78.766
| 30> H 	 -41.7879 	 10.2977 	 79.585
| 31> H 	 -41.9497 	 10.1271 	 77.8878
| 32> C 	 -42.854 	 8.49797 	 78.9095
| 33> H 	 -43.2887 	 8.31889 	 79.8605
| 34> H 	 -41.981 	 7.92652 	 78.8197
| 35> C 	 -43.6596 	 7.98001 	 77.7002
| 36> H 	 -43.2244 	 8.21083 	 76.8072
| 37> H 	 -44.561 	 8.473 	 77.5743
| 38> H 	 -43.8533 	 6.92302 	 77.7003
| 39> H 	 -39.5601 	 14.3959 	 75.889
| 40> H 	 -46.6408 	 12.1393 	 79.8105
| 41> *
| 42>
| 43>                          ****END OF INPUT****

CARTESIAN COORDINATES (ANGSTROEM)
---------------------------------
  S    -41.309800   13.768100   77.762200
  C    -40.528300   13.896400   76.170300
  C    -41.148500   13.054900   75.208700
  C    -42.326500   12.445500   75.816200
  C    -42.569800   12.754100   77.147900
  H    -43.031200   11.868200   75.232000
  C    -40.850200   13.145800   73.737000
  H    -40.184000   12.322300   73.621800
  H    -40.509700   14.166600   73.651900
  C    -42.046100   13.109100   72.760900
  H    -43.004400   13.625300   73.093000
  H    -41.644900   13.603100   71.802100
  C    -42.471400   11.642500   72.384100
  H    -41.622700   11.042200   72.145400
  H    -43.051000   11.237100   73.232900
  H    -43.153500   11.657800   71.576300
  S    -45.072600   13.029300   78.072100
  C    -45.657300   11.968000   79.372300
  C    -44.869700   10.840800   79.390700
  C    -43.645100   10.934200   78.675600
  C    -43.611700   12.110100   77.941300
  H    -45.099100   10.214500   80.228800
  C    -42.468400   10.008900   78.766000
  H    -41.787900   10.297700   79.585000
  H    -41.949700   10.127100   77.887800
  C    -42.854000    8.497970   78.909500
  H    -43.288700    8.318890   79.860500
  H    -41.981000    7.926520   78.819700
  C    -43.659600    7.980010   77.700200
  H    -43.224400    8.210830   76.807200
  H    -44.561000    8.473000   77.574300
  H    -43.853300    6.923020   77.700300
  H    -39.560100   14.395900   75.889000
  H    -46.640800   12.139300   79.810500

 Total Charge           Charge          ....    0
 Multiplicity           Mult            ....    1
 Number of Electrons    NEL             ....  134
 Basis Dimension        Dim             ....  322

ORBITAL ENERGIES
----------------

  NO   OCC          E(Eh)            E(eV)
   0   2.0000     -88.969676     -2420.9880
   1   2.0000     -88.958821     -2420.6926
   2   2.0000     -10.325807      -280.9795
   3   2.0000     -10.321459      -280.8612
   4   2.0000     -10.320759      -280.8421
   5   2.0000     -10.318081      -280.7693
   6   2.0000     -10.303246      -280.3656
   7   2.0000     -10.302654      -280.3495
   8   2.0000     -10.302370      -280.3417
   9   2.0000     -10.294028      -280.1147
  10   2.0000     -10.292362      -280.0694
  11   2.0000     -10.291544      -280.0472
  12   2.0000     -10.284302      -279.8501
  13   2.0000     -10.279396      -279.7166
  14   2.0000     -10.277087      -279.6537
  15   2.0000     -10.258134      -279.1380
  16   2.0000      -8.083595      -219.9658
  17   2.0000      -8.074028      -219.7055
  18   2.0000      -6.042164      -164.4156
  19   2.0000      -6.038116      -164.3055
  20   2.0000      -6.034431      -164.2052
  21   2.0000      -6.032416      -164.1504
  22   2.0000      -6.028414      -164.0415
  23   2.0000      -6.024942      -163.9470
  24   2.0000      -1.004911       -27.3450
  25   2.0000      -0.979639       -26.6573
  26   2.0000      -0.912584       -24.8327
  27   2.0000      -0.908566       -24.7233
  28   2.0000      -0.867336       -23.6014
  29   2.0000      -0.847503       -23.0617
  30   2.0000      -0.842436       -22.9238
  31   2.0000      -0.814816       -22.1723
  32   2.0000      -0.786654       -21.4059
  33   2.0000      -0.774180       -21.0665
  34   2.0000      -0.712907       -19.3992
  35   2.0000      -0.702844       -19.1254
  36   2.0000      -0.690336       -18.7850
  37   2.0000      -0.655016       -17.8239
  38   2.0000      -0.630722       -17.1628
  39   2.0000      -0.618478       -16.8296
  40   2.0000      -0.598769       -16.2933
  41   2.0000      -0.574241       -15.6259
  42   2.0000      -0.556077       -15.1316
  43   2.0000      -0.553286       -15.0557
  44   2.0000      -0.541244       -14.7280
  45   2.0000      -0.531514       -14.4632
  46   2.0000      -0.527107       -14.3433
  47   2.0000      -0.520443       -14.1620
  48   2.0000      -0.497703       -13.5432
  49   2.0000      -0.492297       -13.3961
  50   2.0000      -0.488772       -13.3002
  51   2.0000      -0.483945       -13.1688
  52   2.0000      -0.474940       -12.9238
  53   2.0000      -0.465038       -12.6543
  54   2.0000      -0.456977       -12.4350
  55   2.0000      -0.445478       -12.1221
  56   2.0000      -0.441258       -12.0073
  57   2.0000      -0.433265       -11.7897
  58   2.0000      -0.430503       -11.7146
  59   2.0000      -0.424837       -11.5604
  60   2.0000      -0.417858       -11.3705
  61   2.0000      -0.415648       -11.3104
  62   2.0000      -0.414022       -11.2661
  63   2.0000      -0.333186        -9.0664
  64   2.0000      -0.329230        -8.9588
  65   2.0000      -0.314965        -8.5706
  66   2.0000      -0.310960        -8.4617
  67   0.0000       0.042984         1.1697
  68   0.0000       0.051795         1.4094
  69   0.0000       0.113003         3.0750
  70   0.0000       0.125465         3.4141
  71   0.0000       0.126943         3.4543

MULLIKEN ATOMIC CHARGES
-----------------------
   0 S :    0.131566
   1 C :   -0.151533
   2 C :   -0.121059
   3 C :    0.043801
   4 C :   -0.154896
   5 H :   -0.002976
   6 C :    0.102423
   7 H :    0.043543
   8 H :    0.037881
   9 C :   -0.149604
  10 H :    0.058240
  11 H :    0.045563
  12 C :   -0.037471
  13 H :    0.030931
  14 H :    0.031551
  15 H :    0.025769
  16 S :    0.093713
  17 C :   -0.120581
  18 C :   -0.020672
  19 C :   -0.041607
  20 C :   -0.204210
  21 H :    0.025072
  22 C :    0.120528
  23 H :    0.047074
  24 H :    0.000544
  25 C :   -0.049531
  26 H :    0.025683
  27 H :    0.018039
  28 C :    0.000216
  29 H :   -0.004774
  30 H :    0.009211
  31 H :    0.029640
  32 H :    0.069366
  33 H :    0.068560
Sum of atomic charges:   -0.0000000

LOEWDIN ATOMIC CHARGES
----------------------
   0 S :    0.413575
   1 C :   -0.210655
   2 C :   -0.061783
   3 C :   -0.063680
   4 C :   -0.218263
   5 H :    0.024011
   6 C :   -0.034227
   7 H :    0.035580
   8 H :    0.039283
   9 C :   -0.046269
  10 H :    0.035959
  11 H :    0.032980
  12 C :   -0.062847
  13 H :    0.019765
  14 H :    0.024627
  15 H :    0.020508
  16 S :    0.398960
  17 C :   -0.171357
  18 C :   -0.076184
  19 C :   -0.053657
  20 C :   -0.204059
  21 H :    0.031153
  22 C :   -0.019781
  23 H :    0.040071
  24 H :    0.019893
  25 C :   -0.025703
  26 H :    0.016815
  27 H :    0.021283
  28 C :   -0.055155
  29 H :    0.015242
  30 H :    0.016617
  31 H :    0.026492
  32 H :    0.040391
  33 H :    0.030413

  Mayer bond orders larger than 0.100000
B(  0-S ,  1-C ) :   1.1462 B(  0-S ,  4-C ) :   1.1447 B(  1-C ,  2-C ) :   1.6132
B(  1-C , 32-H ) :   0.9561 B(  2-C ,  3-C ) :   1.2484 B(  2-C ,  6-C ) :   0.9949
B(  3-C ,  4-C ) :   1.5818 B(  3-C ,  5-H ) :   0.9853 B(  4-C , 20-C ) :   1.0050
B(  6-C ,  7-H ) :   0.9278 B(  6-C ,  8-H ) :   0.9513 B(  6-C ,  9-C ) :   1.0705
B(  9-C , 10-H ) :   0.9583 B(  9-C , 11-H ) :   0.9593 B(  9-C , 12-C ) :   1.0659
B( 12-C , 13-H ) :   0.9760 B( 12-C , 14-H ) :   0.9787 B( 12-C , 15-H ) :   0.9715
B( 16-S , 17-C ) :   1.1500 B( 16-S , 20-C ) :   1.1672 B( 17-C , 18-C ) :   1.6222
B( 17-C , 20-C ) :   0.1032 B( 17-C , 33-H ) :   0.9661 B( 18-C , 19-C ) :   1.2188
B( 18-C , 21-H ) :   0.9822 B( 19-C , 20-C ) :   1.6073 B( 19-C , 22-C ) :   1.0430
B( 22-C , 23-H ) :   0.9288 B( 22-C , 24-H ) :   0.9198 B( 22-C , 25-C ) :   1.0853
B( 25-C , 26-H ) :   0.9569 B( 25-C , 27-H ) :   0.9557 B( 25-C , 28-C ) :   1.0722
B( 28-C , 29-H ) :   0.9674 B( 28-C , 30-H ) :   0.9694 B( 28-C , 31-H ) :   0.9748

Dispersion correction           -0.014771327
FINAL SINGLE POINT ENERGY     -1339.847148852954

DIPOLE MOMENT
-------------
                                X             Y             Z
Electronic contribution:     -3.11831      18.11553      15.64373
Nuclear contribution   :      3.27087     -18.50896     -15.97738
                        -----------------------------------------
Total Dipole Moment    :      0.15255      -0.39342      -0.33365
                        -----------------------------------------
Magnitude (a.u.)       :      0.53794
Magnitude (Debye)      :      1.36733

Rotational constants in cm-1:     0.017787     0.008655     0.007710
Rotational constants in MHz :   533.230079   259.480045   231.140920

                             ****ORCA TERMINATED NORMALLY****
TOTAL RUN TIME: 0 days 0 hours 0 minutes 29 seconds 334 msec
