                         Program Version 4.2.1 -  RELEASE  -
|  1> ! wB97X-D3 SP def2-SVP
|  2> %pal
|  3> nprocs 16
|  4> end
|  5>
|  6> * xyz 0 1
|  7> S 	 -5.89398 	 44.0369 	 40.4412
|  8> C 	 -7.38747 	 43.237 	 40.8563
|  9> C 	 -7.77033 	 43.7709 	 42.0591
| 10> C 	 -6.85157 	 44.6963 	 42.6967
| 11> C 	 -5.71354 	 44.8345 	 41.9537
| 12> H 	 -6.98608 	 45.3012 	 43.5602
| 13> C 	 -9.07809 	 43.4391 	 42.6716
| 14> H 	 -9.33873 	 42.4248 	 42.3989
| 15> H 	 -9.86098 	 44.0052 	 42.2624
| 16> C 	 -9.07073 	 43.6034 	 44.2485
| 17> H 	 -9.86378 	 42.9294 	 44.4811
| 18> H 	 -8.11152 	 43.2118 	 44.6793
| 19> C 	 -9.5748 	 44.9967 	 44.6605
| 20> H 	 -9.84804 	 45.03 	 45.7449
| 21> H 	 -8.79375 	 45.8099 	 44.4181
| 22> H 	 -10.4897 	 45.2025 	 44.1597
| 23> S 	 -3.44157 	 45.3859 	 43.3953
| 24> C 	 -2.57038 	 46.8796 	 43.0512
| 25> C 	 -3.16887 	 47.5582 	 42.015
| 26> C 	 -4.42961 	 47.0288 	 41.6098
| 27> C 	 -4.62489 	 45.7719 	 42.2039
| 28> H 	 -2.67869 	 48.437 	 41.6238
| 29> C 	 -5.40342 	 47.7125 	 40.6055
| 30> H 	 -6.26825 	 47.0523 	 40.4814
| 31> H 	 -4.98355 	 47.8121 	 39.6009
| 32> C 	 -5.83545 	 49.056 	 41.113
| 33> H 	 -4.93129 	 49.6799 	 41.3318
| 34> H 	 -6.20198 	 48.88 	 42.1263
| 35> C 	 -7.0283 	 49.8335 	 40.4402
| 36> H 	 -7.95192 	 49.4134 	 40.8049
| 37> H 	 -7.04352 	 49.5878 	 39.3745
| 38> H 	 -7.07963 	 50.9123 	 40.5305
| 39> H 	 -8.11066 	 42.8885 	 40.1483
| 40> H 	 -1.6118 	 47.1491 	 43.4856
| 41> *
| 42>
| 43>                          ****END OF INPUT****

CARTESIAN COORDINATES (ANGSTROEM)
---------------------------------
  S     -5.893980   44.036900   40.441200
  C     -7.387470   43.237000   40.856300
  C     -7.770330   43.770900   42.059100
  C     -6.851570   44.696300   42.696700
  C     -5.713540   44.834500   41.953700
  H     -6.986080   45.301200   43.560200
  C     -9.078090   43.439100   42.671600
  H     -9.338730   42.424800   42.398900
  H     -9.860980   44.005200   42.262400
  C     -9.070730   43.603400   44.248500
  H     -9.863780   42.929400   44.481100
  H     -8.111520   43.211800   44.679300
  C     -9.574800   44.996700   44.660500
  H     -9.848040   45.030000   45.744900
  H     -8.793750   45.809900   44.418100
  H    -10.489700   45.202500   44.159700
  S     -3.441570   45.385900   43.395300
  C     -2.570380   46.879600   43.051200
  C     -3.168870   47.558200   42.015000
  C     -4.429610   47.028800   41.609800
  C     -4.624890   45.771900   42.203900
  H     -2.678690   48.437000   41.623800
  C     -5.403420   47.712500   40.605500
  H     -6.268250   47.052300   40.481400
  H     -4.983550   47.812100   39.600900
  C     -5.835450   49.056000   41.113000
  H     -4.931290   49.679900   41.331800
  H     -6.201980   48.880000   42.126300
  C     -7.028300   49.833500   40.440200
  H     -7.951920   49.413400   40.804900
  H     -7.043520   49.587800   39.374500
  H     -7.079630   50.912300   40.530500
  H     -8.110660   42.888500   40.148300
  H     -1.611800   47.149100   43.485600

 Total Charge           Charge          ....    0
 Multiplicity           Mult            ....    1
 Number of Electrons    NEL             ....  134
 Basis Dimension        Dim             ....  322

ORBITAL ENERGIES
----------------

  NO   OCC          E(Eh)            E(eV)
   0   2.0000     -88.968108     -2420.9453
   1   2.0000     -88.959940     -2420.7230
   2   2.0000     -10.325930      -280.9828
   3   2.0000     -10.324304      -280.9386
   4   2.0000     -10.317294      -280.7478
   5   2.0000     -10.308093      -280.4975
   6   2.0000     -10.306200      -280.4460
   7   2.0000     -10.298117      -280.2260
   8   2.0000     -10.294210      -280.1197
   9   2.0000     -10.293781      -280.1080
  10   2.0000     -10.290511      -280.0190
  11   2.0000     -10.289466      -279.9906
  12   2.0000     -10.287729      -279.9433
  13   2.0000     -10.286315      -279.9049
  14   2.0000     -10.282332      -279.7965
  15   2.0000     -10.279587      -279.7218
  16   2.0000      -8.082983      -219.9491
  17   2.0000      -8.075224      -219.7380
  18   2.0000      -6.041374      -164.3941
  19   2.0000      -6.037481      -164.2882
  20   2.0000      -6.033851      -164.1894
  21   2.0000      -6.033724      -164.1860
  22   2.0000      -6.029543      -164.0722
  23   2.0000      -6.026029      -163.9766
  24   2.0000      -1.010994       -27.5105
  25   2.0000      -0.987707       -26.8769
  26   2.0000      -0.912065       -24.8186
  27   2.0000      -0.906031       -24.6544
  28   2.0000      -0.873393       -23.7662
  29   2.0000      -0.846232       -23.0271
  30   2.0000      -0.840029       -22.8583
  31   2.0000      -0.820783       -22.3346
  32   2.0000      -0.785267       -21.3682
  33   2.0000      -0.770817       -20.9750
  34   2.0000      -0.708376       -19.2759
  35   2.0000      -0.697562       -18.9816
  36   2.0000      -0.690763       -18.7966
  37   2.0000      -0.657854       -17.9011
  38   2.0000      -0.644343       -17.5335
  39   2.0000      -0.624789       -17.0014
  40   2.0000      -0.598736       -16.2924
  41   2.0000      -0.572060       -15.5665
  42   2.0000      -0.558617       -15.2007
  43   2.0000      -0.547488       -14.8979
  44   2.0000      -0.530046       -14.4233
  45   2.0000      -0.522074       -14.2064
  46   2.0000      -0.518574       -14.1111
  47   2.0000      -0.515100       -14.0166
  48   2.0000      -0.508886       -13.8475
  49   2.0000      -0.504035       -13.7155
  50   2.0000      -0.489505       -13.3201
  51   2.0000      -0.483303       -13.1514
  52   2.0000      -0.473884       -12.8950
  53   2.0000      -0.467203       -12.7132
  54   2.0000      -0.458908       -12.4875
  55   2.0000      -0.453984       -12.3535
  56   2.0000      -0.449747       -12.2383
  57   2.0000      -0.435881       -11.8609
  58   2.0000      -0.428563       -11.6618
  59   2.0000      -0.425142       -11.5687
  60   2.0000      -0.421761       -11.4767
  61   2.0000      -0.405849       -11.0437
  62   2.0000      -0.402825       -10.9614
  63   2.0000      -0.336586        -9.1590
  64   2.0000      -0.333961        -9.0875
  65   2.0000      -0.317743        -8.6462
  66   2.0000      -0.309122        -8.4116
  67   0.0000       0.039547         1.0761
  68   0.0000       0.059987         1.6323
  69   0.0000       0.111837         3.0432
  70   0.0000       0.122328         3.3287
  71   0.0000       0.133085         3.6214

MULLIKEN ATOMIC CHARGES
-----------------------
   0 S :    0.099258
   1 C :   -0.097018
   2 C :   -0.124846
   3 C :    0.057634
   4 C :   -0.155820
   5 H :   -0.000796
   6 C :    0.079811
   7 H :    0.017713
   8 H :    0.015970
   9 C :   -0.092461
  10 H :    0.020413
  11 H :    0.053740
  12 C :   -0.058812
  13 H :    0.043713
  14 H :    0.045340
  15 H :    0.023185
  16 S :    0.124286
  17 C :   -0.102479
  18 C :   -0.029163
  19 C :   -0.036372
  20 C :   -0.197003
  21 H :    0.021307
  22 C :    0.126951
  23 H :    0.020758
  24 H :    0.035084
  25 C :   -0.136216
  26 H :    0.031296
  27 H :    0.025600
  28 C :   -0.019324
  29 H :    0.025883
  30 H :    0.021632
  31 H :    0.042796
  32 H :    0.058211
  33 H :    0.059729
Sum of atomic charges:   -0.0000000

LOEWDIN ATOMIC CHARGES
----------------------
   0 S :    0.421519
   1 C :   -0.213371
   2 C :   -0.057006
   3 C :   -0.064293
   4 C :   -0.200567
   5 H :    0.027745
   6 C :   -0.030034
   7 H :    0.029239
   8 H :    0.023700
   9 C :   -0.042920
  10 H :    0.022918
  11 H :    0.032618
  12 C :   -0.069142
  13 H :    0.031472
  14 H :    0.029988
  15 H :    0.020150
  16 S :    0.419810
  17 C :   -0.186203
  18 C :   -0.067095
  19 C :   -0.048505
  20 C :   -0.212121
  21 H :    0.031219
  22 C :   -0.029048
  23 H :    0.027670
  24 H :    0.030711
  25 C :   -0.054040
  26 H :    0.024696
  27 H :    0.025076
  28 C :   -0.065535
  29 H :    0.024818
  30 H :    0.024040
  31 H :    0.029139
  32 H :    0.032499
  33 H :    0.030849

  Mayer bond orders larger than 0.100000
B(  0-S ,  1-C ) :   1.1201 B(  0-S ,  4-C ) :   1.1749 B(  1-C ,  2-C ) :   1.6270
B(  1-C , 32-H ) :   0.9677 B(  2-C ,  3-C ) :   1.2257 B(  2-C ,  6-C ) :   1.0315
B(  3-C ,  4-C ) :   1.5756 B(  3-C ,  5-H ) :   0.9962 B(  4-C , 20-C ) :   0.9949
B(  6-C ,  7-H ) :   0.9432 B(  6-C ,  8-H ) :   0.9221 B(  6-C ,  9-C ) :   1.0701
B(  9-C , 10-H ) :   0.9527 B(  9-C , 11-H ) :   0.9615 B(  9-C , 12-C ) :   1.0680
B( 12-C , 13-H ) :   0.9717 B( 12-C , 14-H ) :   0.9759 B( 12-C , 15-H ) :   0.9698
B( 16-S , 17-C ) :   1.1462 B( 16-S , 20-C ) :   1.1682 B( 17-C , 18-C ) :   1.6199
B( 17-C , 20-C ) :   0.1021 B( 17-C , 33-H ) :   0.9673 B( 18-C , 19-C ) :   1.2360
B( 18-C , 21-H ) :   0.9865 B( 19-C , 20-C ) :   1.5889 B( 19-C , 22-C ) :   1.0384
B( 22-C , 23-H ) :   0.9272 B( 22-C , 24-H ) :   0.9319 B( 22-C , 25-C ) :   1.0577
B( 25-C , 26-H ) :   0.9606 B( 25-C , 27-H ) :   0.9584 B( 25-C , 28-C ) :   1.0619
B( 28-C , 29-H ) :   0.9770 B( 28-C , 30-H ) :   0.9769 B( 28-C , 31-H ) :   0.9776

Dispersion correction           -0.014470590
FINAL SINGLE POINT ENERGY     -1339.867809070285

DIPOLE MOMENT
-------------
                                X             Y             Z
Electronic contribution:     20.87849     -13.21329      -3.09141
Nuclear contribution   :    -21.46300      13.63008       3.13051
                        -----------------------------------------
Total Dipole Moment    :     -0.58452       0.41679       0.03909
                        -----------------------------------------
Magnitude (a.u.)       :      0.71896
Magnitude (Debye)      :      1.82745

Rotational constants in cm-1:     0.016326     0.009037     0.007957
Rotational constants in MHz :   489.455968   270.927263   238.540489

                             ****ORCA TERMINATED NORMALLY****
TOTAL RUN TIME: 0 days 0 hours 0 minutes 31 seconds 611 msec
