                         Program Version 4.2.1 -  RELEASE  -
|  1> ! wB97X-D3 SP def2-SVP
|  2> %pal
|  3> nprocs 16
|  4> end
|  5>
|  6> * xyz 0 1
|  7> S 	 -34.3444 	 54.9603 	 108.908
|  8> C 	 -32.6364 	 55.2008 	 108.642
|  9> C 	 -32.3593 	 56.5365 	 108.512
| 10> C 	 -33.4718 	 57.3701 	 108.723
| 11> C 	 -34.6586 	 56.7224 	 109.022
| 12> H 	 -33.3941 	 58.3922 	 108.752
| 13> C 	 -31.0592 	 57.2106 	 108.253
| 14> H 	 -30.2784 	 56.5224 	 108.477
| 15> H 	 -30.975 	 58.0569 	 108.919
| 16> C 	 -30.9378 	 57.7141 	 106.78
| 17> H 	 -31.0378 	 56.8666 	 106.184
| 18> H 	 -31.7468 	 58.405 	 106.469
| 19> C 	 -29.6659 	 58.3857 	 106.524
| 20> H 	 -28.9641 	 57.6313 	 106.744
| 21> H 	 -29.5359 	 58.7173 	 105.445
| 22> H 	 -29.5305 	 59.2802 	 107.227
| 23> S 	 -37.012 	 56.15 	 110.338
| 24> C 	 -38.3751 	 57.1966 	 110.148
| 25> C 	 -38.0131 	 58.2961 	 109.367
| 26> C 	 -36.6622 	 58.3136 	 108.84
| 27> C 	 -35.9954 	 57.176 	 109.321
| 28> H 	 -38.6924 	 59.1417 	 109.261
| 29> C 	 -36.2735 	 59.4655 	 107.901
| 30> H 	 -37.1558 	 59.5399 	 107.172
| 31> H 	 -35.4548 	 59.2037 	 107.268
| 32> C 	 -36.0632 	 60.7627 	 108.657
| 33> H 	 -35.3783 	 60.4709 	 109.339
| 34> H 	 -36.9256 	 61.0491 	 109.218
| 35> C 	 -35.5824 	 61.8552 	 107.686
| 36> H 	 -34.6009 	 61.5354 	 107.179
| 37> H 	 -35.5499 	 62.8808 	 108.154
| 38> H 	 -36.2265 	 61.9065 	 106.786
| 39> H 	 -31.8759 	 54.4264 	 108.569
| 40> H 	 -39.3867 	 57.155 	 110.602
| 41> *
| 42>
| 43>                          ****END OF INPUT****

CARTESIAN COORDINATES (ANGSTROEM)
---------------------------------
  S    -34.344400   54.960300  108.908000
  C    -32.636400   55.200800  108.642000
  C    -32.359300   56.536500  108.512000
  C    -33.471800   57.370100  108.723000
  C    -34.658600   56.722400  109.022000
  H    -33.394100   58.392200  108.752000
  C    -31.059200   57.210600  108.253000
  H    -30.278400   56.522400  108.477000
  H    -30.975000   58.056900  108.919000
  C    -30.937800   57.714100  106.780000
  H    -31.037800   56.866600  106.184000
  H    -31.746800   58.405000  106.469000
  C    -29.665900   58.385700  106.524000
  H    -28.964100   57.631300  106.744000
  H    -29.535900   58.717300  105.445000
  H    -29.530500   59.280200  107.227000
  S    -37.012000   56.150000  110.338000
  C    -38.375100   57.196600  110.148000
  C    -38.013100   58.296100  109.367000
  C    -36.662200   58.313600  108.840000
  C    -35.995400   57.176000  109.321000
  H    -38.692400   59.141700  109.261000
  C    -36.273500   59.465500  107.901000
  H    -37.155800   59.539900  107.172000
  H    -35.454800   59.203700  107.268000
  C    -36.063200   60.762700  108.657000
  H    -35.378300   60.470900  109.339000
  H    -36.925600   61.049100  109.218000
  C    -35.582400   61.855200  107.686000
  H    -34.600900   61.535400  107.179000
  H    -35.549900   62.880800  108.154000
  H    -36.226500   61.906500  106.786000
  H    -31.875900   54.426400  108.569000
  H    -39.386700   57.155000  110.602000

 Total Charge           Charge          ....    0
 Multiplicity           Mult            ....    1
 Number of Electrons    NEL             ....  134
 Basis Dimension        Dim             ....  322

ORBITAL ENERGIES
----------------

  NO   OCC          E(Eh)            E(eV)
   0   2.0000     -88.970782     -2421.0181
   1   2.0000     -88.962194     -2420.7844
   2   2.0000     -10.333039      -281.1763
   3   2.0000     -10.332041      -281.1491
   4   2.0000     -10.321495      -280.8622
   5   2.0000     -10.311807      -280.5985
   6   2.0000     -10.309708      -280.5414
   7   2.0000     -10.299790      -280.2715
   8   2.0000     -10.295474      -280.1541
   9   2.0000     -10.293796      -280.1084
  10   2.0000     -10.292712      -280.0789
  11   2.0000     -10.287744      -279.9437
  12   2.0000     -10.284524      -279.8561
  13   2.0000     -10.280642      -279.7505
  14   2.0000     -10.279551      -279.7208
  15   2.0000     -10.278479      -279.6916
  16   2.0000      -8.085202      -220.0095
  17   2.0000      -8.076459      -219.7716
  18   2.0000      -6.043874      -164.4622
  19   2.0000      -6.039663      -164.3476
  20   2.0000      -6.035880      -164.2446
  21   2.0000      -6.035130      -164.2242
  22   2.0000      -6.031017      -164.1123
  23   2.0000      -6.027082      -164.0052
  24   2.0000      -1.005581       -27.3632
  25   2.0000      -0.983607       -26.7653
  26   2.0000      -0.920347       -25.0439
  27   2.0000      -0.918003       -24.9801
  28   2.0000      -0.873135       -23.7592
  29   2.0000      -0.855675       -23.2841
  30   2.0000      -0.846894       -23.0452
  31   2.0000      -0.813637       -22.1402
  32   2.0000      -0.780332       -21.2339
  33   2.0000      -0.768549       -20.9133
  34   2.0000      -0.714094       -19.4315
  35   2.0000      -0.702070       -19.1043
  36   2.0000      -0.696362       -18.9490
  37   2.0000      -0.662256       -18.0209
  38   2.0000      -0.640309       -17.4237
  39   2.0000      -0.628978       -17.1154
  40   2.0000      -0.598116       -16.2756
  41   2.0000      -0.576724       -15.6935
  42   2.0000      -0.567592       -15.4450
  43   2.0000      -0.560411       -15.2495
  44   2.0000      -0.530587       -14.4380
  45   2.0000      -0.526688       -14.3319
  46   2.0000      -0.519621       -14.1396
  47   2.0000      -0.510811       -13.8999
  48   2.0000      -0.509695       -13.8695
  49   2.0000      -0.503289       -13.6952
  50   2.0000      -0.489353       -13.3160
  51   2.0000      -0.488185       -13.2842
  52   2.0000      -0.466936       -12.7060
  53   2.0000      -0.462477       -12.5846
  54   2.0000      -0.458301       -12.4710
  55   2.0000      -0.453298       -12.3349
  56   2.0000      -0.446475       -12.1492
  57   2.0000      -0.444085       -12.0842
  58   2.0000      -0.429869       -11.6973
  59   2.0000      -0.427915       -11.6442
  60   2.0000      -0.421643       -11.4735
  61   2.0000      -0.420628       -11.4459
  62   2.0000      -0.415248       -11.2995
  63   2.0000      -0.357363        -9.7244
  64   2.0000      -0.330806        -9.0017
  65   2.0000      -0.328265        -8.9326
  66   2.0000      -0.284519        -7.7422
  67   0.0000       0.021446         0.5836
  68   0.0000       0.080296         2.1850
  69   0.0000       0.106431         2.8961
  70   0.0000       0.118304         3.2192
  71   0.0000       0.125153         3.4056

MULLIKEN ATOMIC CHARGES
-----------------------
   0 S :    0.085566
   1 C :   -0.117479
   2 C :   -0.081598
   3 C :    0.033969
   4 C :   -0.115883
   5 H :   -0.032535
   6 C :    0.077040
   7 H :    0.005531
   8 H :    0.021059
   9 C :   -0.061940
  10 H :    0.011770
  11 H :    0.025412
  12 C :   -0.037400
  13 H :    0.014934
  14 H :    0.047811
  15 H :    0.037403
  16 S :    0.122148
  17 C :   -0.093292
  18 C :   -0.057673
  19 C :   -0.041616
  20 C :   -0.146665
  21 H :    0.020344
  22 C :    0.028565
  23 H :    0.039552
  24 H :    0.017042
  25 C :   -0.000178
  26 H :    0.006531
  27 H :    0.023361
  28 C :   -0.065729
  29 H :    0.034172
  30 H :    0.055849
  31 H :    0.027967
  32 H :    0.043121
  33 H :    0.072842
Sum of atomic charges:    0.0000000

LOEWDIN ATOMIC CHARGES
----------------------
   0 S :    0.382281
   1 C :   -0.200684
   2 C :   -0.065531
   3 C :   -0.058878
   4 C :   -0.166231
   5 H :    0.013853
   6 C :   -0.021333
   7 H :    0.023821
   8 H :    0.028423
   9 C :   -0.039235
  10 H :    0.016373
  11 H :    0.023461
  12 C :   -0.068141
  13 H :    0.017160
  14 H :    0.034603
  15 H :    0.031425
  16 S :    0.413746
  17 C :   -0.205078
  18 C :   -0.072581
  19 C :   -0.049777
  20 C :   -0.198502
  21 H :    0.026993
  22 C :   -0.026012
  23 H :    0.038801
  24 H :    0.023296
  25 C :   -0.032328
  26 H :    0.012473
  27 H :    0.023987
  28 C :   -0.073988
  29 H :    0.033244
  30 H :    0.033541
  31 H :    0.026054
  32 H :    0.030743
  33 H :    0.044020

  Mayer bond orders larger than 0.100000
B(  0-S ,  1-C ) :   1.1238 B(  0-S ,  4-C ) :   1.1364 B(  1-C ,  2-C ) :   1.6109
B(  1-C , 32-H ) :   0.9674 B(  2-C ,  3-C ) :   1.2485 B(  2-C ,  6-C ) :   1.0386
B(  3-C ,  4-C ) :   1.5584 B(  3-C ,  5-H ) :   1.0117 B(  4-C , 20-C ) :   1.0804
B(  6-C ,  7-H ) :   0.9346 B(  6-C ,  8-H ) :   0.9375 B(  6-C ,  9-C ) :   1.0572
B(  9-C , 10-H ) :   0.9499 B(  9-C , 11-H ) :   0.9541 B(  9-C , 12-C ) :   1.0944
B( 12-C , 13-H ) :   0.9707 B( 12-C , 14-H ) :   0.9698 B( 12-C , 15-H ) :   0.9706
B( 16-S , 17-C ) :   1.1422 B( 16-S , 20-C ) :   1.1394 B( 17-C , 18-C ) :   1.6186
B( 17-C , 33-H ) :   0.9627 B( 18-C , 19-C ) :   1.2430 B( 18-C , 21-H ) :   0.9795
B( 19-C , 20-C ) :   1.5689 B( 19-C , 22-C ) :   1.0376 B( 22-C , 23-H ) :   0.9325
B( 22-C , 24-H ) :   0.9379 B( 22-C , 25-C ) :   1.0528 B( 25-C , 26-H ) :   0.9511
B( 25-C , 27-H ) :   0.9523 B( 25-C , 28-C ) :   1.0793 B( 28-C , 29-H ) :   0.9708
B( 28-C , 30-H ) :   0.9739 B( 28-C , 31-H ) :   0.9722

Dispersion correction           -0.013694683
FINAL SINGLE POINT ENERGY     -1339.871889568054

DIPOLE MOMENT
-------------
                                X             Y             Z
Electronic contribution:    -16.41386     -24.79764      13.94982
Nuclear contribution   :     16.57846      25.46581     -14.17985
                        -----------------------------------------
Total Dipole Moment    :      0.16460       0.66817      -0.23003
                        -----------------------------------------
Magnitude (a.u.)       :      0.72558
Magnitude (Debye)      :      1.84427

Rotational constants in cm-1:     0.016769     0.009386     0.006220
Rotational constants in MHz :   502.727493   281.388046   186.464991

                             ****ORCA TERMINATED NORMALLY****
TOTAL RUN TIME: 0 days 0 hours 0 minutes 27 seconds 928 msec
