                         Program Version 4.2.1 -  RELEASE  -
|  1> ! wB97X-D3 SP def2-SVP
|  2> %pal
|  3> nprocs 16
|  4> end
|  5>
|  6> * xyz 0 1
|  7> S 	 -82.184 	 52.5887 	 133.767
|  8> C 	 -82.9852 	 51.0531 	 134.377
|  9> C 	 -82.8941 	 50.9852 	 135.725
| 10> C 	 -82.4229 	 52.1815 	 136.278
| 11> C 	 -81.9882 	 53.1634 	 135.387
| 12> H 	 -82.3216 	 52.4242 	 137.36
| 13> C 	 -83.4504 	 49.9127 	 136.618
| 14> H 	 -82.6565 	 49.7869 	 137.391
| 15> H 	 -83.6223 	 48.9744 	 136.047
| 16> C 	 -84.6916 	 50.4068 	 137.416
| 17> H 	 -84.3441 	 51.0996 	 138.157
| 18> H 	 -85.3432 	 50.9363 	 136.836
| 19> C 	 -85.477 	 49.2964 	 138.241
| 20> H 	 -84.872 	 48.7498 	 139.033
| 21> H 	 -86.2829 	 49.8757 	 138.683
| 22> H 	 -85.9252 	 48.4959 	 137.623
| 23> S 	 -82.2503 	 55.8892 	 135.069
| 24> C 	 -81.1327 	 56.956 	 135.879
| 25> C 	 -79.9829 	 56.201 	 136.199
| 26> C 	 -80.1679 	 54.7925 	 136.23
| 27> C 	 -81.3929 	 54.45 	 135.686
| 28> H 	 -79.0281 	 56.7255 	 136.447
| 29> C 	 -79.0436 	 53.8401 	 136.634
| 30> H 	 -78.3796 	 53.8075 	 135.814
| 31> H 	 -79.5278 	 52.8262 	 136.6
| 32> C 	 -78.4317 	 54.0238 	 138.059
| 33> H 	 -77.8714 	 55.0093 	 138.103
| 34> H 	 -77.7001 	 53.3323 	 138.182
| 35> C 	 -79.3206 	 54.0792 	 139.253
| 36> H 	 -79.0146 	 54.801 	 140.016
| 37> H 	 -79.2213 	 53.1404 	 139.781
| 38> H 	 -80.3178 	 54.4432 	 139.045
| 39> H 	 -83.3063 	 50.2105 	 133.671
| 40> H 	 -81.1544 	 58.0052 	 135.938
| 41> *
| 42>
| 43>                          ****END OF INPUT****

CARTESIAN COORDINATES (ANGSTROEM)
---------------------------------
  S    -82.184000   52.588700  133.767000
  C    -82.985200   51.053100  134.377000
  C    -82.894100   50.985200  135.725000
  C    -82.422900   52.181500  136.278000
  C    -81.988200   53.163400  135.387000
  H    -82.321600   52.424200  137.360000
  C    -83.450400   49.912700  136.618000
  H    -82.656500   49.786900  137.391000
  H    -83.622300   48.974400  136.047000
  C    -84.691600   50.406800  137.416000
  H    -84.344100   51.099600  138.157000
  H    -85.343200   50.936300  136.836000
  C    -85.477000   49.296400  138.241000
  H    -84.872000   48.749800  139.033000
  H    -86.282900   49.875700  138.683000
  H    -85.925200   48.495900  137.623000
  S    -82.250300   55.889200  135.069000
  C    -81.132700   56.956000  135.879000
  C    -79.982900   56.201000  136.199000
  C    -80.167900   54.792500  136.230000
  C    -81.392900   54.450000  135.686000
  H    -79.028100   56.725500  136.447000
  C    -79.043600   53.840100  136.634000
  H    -78.379600   53.807500  135.814000
  H    -79.527800   52.826200  136.600000
  C    -78.431700   54.023800  138.059000
  H    -77.871400   55.009300  138.103000
  H    -77.700100   53.332300  138.182000
  C    -79.320600   54.079200  139.253000
  H    -79.014600   54.801000  140.016000
  H    -79.221300   53.140400  139.781000
  H    -80.317800   54.443200  139.045000
  H    -83.306300   50.210500  133.671000
  H    -81.154400   58.005200  135.938000

 Total Charge           Charge          ....    0
 Multiplicity           Mult            ....    1
 Number of Electrons    NEL             ....  134
 Basis Dimension        Dim             ....  322

ORBITAL ENERGIES
----------------

  NO   OCC          E(Eh)            E(eV)
   0   2.0000     -88.965780     -2420.8820
   1   2.0000     -88.962993     -2420.8061
   2   2.0000     -10.328092      -281.0417
   3   2.0000     -10.327554      -281.0270
   4   2.0000     -10.320693      -280.8403
   5   2.0000     -10.319354      -280.8039
   6   2.0000     -10.305607      -280.4298
   7   2.0000     -10.298241      -280.2294
   8   2.0000     -10.297566      -280.2110
   9   2.0000     -10.296523      -280.1826
  10   2.0000     -10.294715      -280.1334
  11   2.0000     -10.291654      -280.0502
  12   2.0000     -10.287643      -279.9410
  13   2.0000     -10.283498      -279.8282
  14   2.0000     -10.282937      -279.8129
  15   2.0000     -10.272267      -279.5226
  16   2.0000      -8.080074      -219.8700
  17   2.0000      -8.077002      -219.7864
  18   2.0000      -6.038638      -164.3197
  19   2.0000      -6.035578      -164.2364
  20   2.0000      -6.034725      -164.2132
  21   2.0000      -6.031662      -164.1299
  22   2.0000      -6.030701      -164.1037
  23   2.0000      -6.027667      -164.0211
  24   2.0000      -1.004534       -27.3348
  25   2.0000      -0.982152       -26.7257
  26   2.0000      -0.909911       -24.7599
  27   2.0000      -0.908497       -24.7215
  28   2.0000      -0.866792       -23.5866
  29   2.0000      -0.854215       -23.2444
  30   2.0000      -0.838052       -22.8045
  31   2.0000      -0.807234       -21.9660
  32   2.0000      -0.785785       -21.3823
  33   2.0000      -0.774967       -21.0879
  34   2.0000      -0.710562       -19.3354
  35   2.0000      -0.702519       -19.1165
  36   2.0000      -0.697630       -18.9835
  37   2.0000      -0.656647       -17.8683
  38   2.0000      -0.636365       -17.3164
  39   2.0000      -0.613463       -16.6932
  40   2.0000      -0.592446       -16.1213
  41   2.0000      -0.567706       -15.4481
  42   2.0000      -0.559703       -15.2303
  43   2.0000      -0.552396       -15.0315
  44   2.0000      -0.548398       -14.9227
  45   2.0000      -0.525742       -14.3062
  46   2.0000      -0.518946       -14.1212
  47   2.0000      -0.506017       -13.7694
  48   2.0000      -0.499441       -13.5905
  49   2.0000      -0.498173       -13.5560
  50   2.0000      -0.492286       -13.3958
  51   2.0000      -0.474828       -12.9207
  52   2.0000      -0.469685       -12.7808
  53   2.0000      -0.465410       -12.6644
  54   2.0000      -0.455686       -12.3999
  55   2.0000      -0.452189       -12.3047
  56   2.0000      -0.444223       -12.0879
  57   2.0000      -0.441176       -12.0050
  58   2.0000      -0.435835       -11.8597
  59   2.0000      -0.425494       -11.5783
  60   2.0000      -0.422732       -11.5031
  61   2.0000      -0.414925       -11.2907
  62   2.0000      -0.395800       -10.7703
  63   2.0000      -0.337641        -9.1877
  64   2.0000      -0.330065        -8.9815
  65   2.0000      -0.327634        -8.9154
  66   2.0000      -0.295836        -8.0501
  67   0.0000       0.033228         0.9042
  68   0.0000       0.055585         1.5125
  69   0.0000       0.104469         2.8427
  70   0.0000       0.116930         3.1818
  71   0.0000       0.138021         3.7557

MULLIKEN ATOMIC CHARGES
-----------------------
   0 S :    0.092637
   1 C :   -0.175623
   2 C :   -0.040206
   3 C :   -0.000392
   4 C :   -0.158303
   5 H :    0.022164
   6 C :    0.068417
   7 H :    0.033558
   8 H :    0.029477
   9 C :   -0.056669
  10 H :    0.025480
  11 H :    0.017981
  12 C :   -0.077247
  13 H :    0.043260
  14 H :    0.039301
  15 H :    0.037075
  16 S :    0.110818
  17 C :   -0.072379
  18 C :   -0.070536
  19 C :   -0.029721
  20 C :   -0.184860
  21 H :    0.036958
  22 C :    0.092300
  23 H :    0.035183
  24 H :    0.026495
  25 C :   -0.048161
  26 H :    0.023573
  27 H :    0.005503
  28 C :   -0.039893
  29 H :    0.022781
  30 H :    0.029223
  31 H :    0.040731
  32 H :    0.075721
  33 H :    0.045357
Sum of atomic charges:    0.0000000

LOEWDIN ATOMIC CHARGES
----------------------
   0 S :    0.375229
   1 C :   -0.184965
   2 C :   -0.073038
   3 C :   -0.072748
   4 C :   -0.199786
   5 H :    0.035256
   6 C :   -0.028923
   7 H :    0.038106
   8 H :    0.030527
   9 C :   -0.027353
  10 H :    0.024183
  11 H :    0.012371
  12 C :   -0.070333
  13 H :    0.030969
  14 H :    0.028217
  15 H :    0.023935
  16 S :    0.400037
  17 C :   -0.179252
  18 C :   -0.073950
  19 C :   -0.054806
  20 C :   -0.194597
  21 H :    0.035097
  22 C :   -0.024984
  23 H :    0.032141
  24 H :    0.036484
  25 C :   -0.039415
  26 H :    0.028064
  27 H :    0.011762
  28 C :   -0.069920
  29 H :    0.030731
  30 H :    0.026998
  31 H :    0.028296
  32 H :    0.044064
  33 H :    0.021602

  Mayer bond orders larger than 0.100000
B(  0-S ,  1-C ) :   1.1104 B(  0-S ,  4-C ) :   1.1561 B(  1-C ,  2-C ) :   1.6267
B(  1-C , 32-H ) :   0.9576 B(  2-C ,  3-C ) :   1.2136 B(  2-C ,  6-C ) :   1.0340
B(  3-C ,  4-C ) :   1.5898 B(  3-C ,  5-H ) :   0.9907 B(  4-C , 20-C ) :   1.0307
B(  6-C ,  7-H ) :   0.9312 B(  6-C ,  8-H ) :   0.9478 B(  6-C ,  9-C ) :   1.0574
B(  9-C , 10-H ) :   0.9506 B(  9-C , 11-H ) :   0.9626 B(  9-C , 12-C ) :   1.0761
B( 12-C , 13-H ) :   0.9769 B( 12-C , 14-H ) :   0.9764 B( 12-C , 15-H ) :   0.9785
B( 16-S , 17-C ) :   1.1596 B( 16-S , 20-C ) :   1.1389 B( 17-C , 18-C ) :   1.5916
B( 17-C , 20-C ) :   0.1130 B( 17-C , 33-H ) :   0.9767 B( 18-C , 19-C ) :   1.2417
B( 18-C , 21-H ) :   0.9798 B( 19-C , 20-C ) :   1.5830 B( 19-C , 22-C ) :   1.0307
B( 22-C , 23-H ) :   0.9374 B( 22-C , 24-H ) :   0.9293 B( 22-C , 25-C ) :   1.0625
B( 25-C , 26-H ) :   0.9594 B( 25-C , 27-H ) :   0.9588 B( 25-C , 28-C ) :   1.0771
B( 28-C , 29-H ) :   0.9733 B( 28-C , 30-H ) :   0.9762 B( 28-C , 31-H ) :   0.9706

Dispersion correction           -0.014216196
FINAL SINGLE POINT ENERGY     -1339.852687246548

DIPOLE MOMENT
-------------
                                X             Y             Z
Electronic contribution:     -1.36233      14.55751     -23.19081
Nuclear contribution   :      1.66905     -14.76394      23.72975
                        -----------------------------------------
Total Dipole Moment    :      0.30672      -0.20643       0.53894
                        -----------------------------------------
Magnitude (a.u.)       :      0.65356
Magnitude (Debye)      :      1.66123

Rotational constants in cm-1:     0.018051     0.008232     0.006832
Rotational constants in MHz :   541.161519   246.799647   204.824771

                             ****ORCA TERMINATED NORMALLY****
TOTAL RUN TIME: 0 days 0 hours 0 minutes 35 seconds 441 msec
