                         Program Version 4.2.1 -  RELEASE  -
|  1> ! wB97X-D3 SP def2-SVP
|  2> %pal
|  3> nprocs 16
|  4> end
|  5>
|  6> * xyz 0 1
|  7> S 	 -6.8444 	 -14.512 	 79.3821
|  8> C 	 -5.95383 	 -13.3258 	 78.3838
|  9> C 	 -5.1506 	 -12.4306 	 79.1005
| 10> C 	 -5.22335 	 -12.7836 	 80.4888
| 11> C 	 -5.94538 	 -13.9652 	 80.7964
| 12> H 	 -4.86614 	 -12.2563 	 81.3072
| 13> C 	 -4.3772 	 -11.1283 	 78.6488
| 14> H 	 -3.99683 	 -11.3601 	 77.6704
| 15> H 	 -3.47626 	 -11.0123 	 79.2149
| 16> C 	 -5.18416 	 -9.81564 	 78.748
| 17> H 	 -4.65255 	 -9.0123 	 78.235
| 18> H 	 -6.07229 	 -10.1071 	 78.1633
| 19> C 	 -5.64866 	 -9.41254 	 80.1498
| 20> H 	 -6.57335 	 -8.89777 	 80.0687
| 21> H 	 -5.72232 	 -10.2024 	 80.9064
| 22> H 	 -4.95612 	 -8.71299 	 80.7128
| 23> S 	 -8.13835 	 -14.1015 	 82.5508
| 24> C 	 -7.83631 	 -14.4638 	 84.2436
| 25> C 	 -6.48057 	 -14.743 	 84.4164
| 26> C 	 -5.67234 	 -14.5444 	 83.2639
| 27> C 	 -6.40553 	 -14.2476 	 82.1325
| 28> H 	 -6.09338 	 -14.9724 	 85.3947
| 29> C 	 -4.22807 	 -14.5267 	 83.2661
| 30> H 	 -3.95297 	 -14.8603 	 82.3522
| 31> H 	 -3.82117 	 -15.1182 	 84.0898
| 32> C 	 -3.5921 	 -13.1207 	 83.4803
| 33> H 	 -4.2396 	 -12.3533 	 83.1625
| 34> H 	 -2.7115 	 -13.018 	 82.8575
| 35> C 	 -3.22399 	 -12.7301 	 84.959
| 36> H 	 -3.8902 	 -13.0988 	 85.743
| 37> H 	 -3.24447 	 -11.6233 	 85.0835
| 38> H 	 -2.14902 	 -13.0202 	 85.1074
| 39> H 	 -6.27299 	 -13.1067 	 77.4087
| 40> H 	 -8.61601 	 -14.5636 	 84.9829
| 41> *
| 42>
| 43>                          ****END OF INPUT****

CARTESIAN COORDINATES (ANGSTROEM)
---------------------------------
  S     -6.844400  -14.512000   79.382100
  C     -5.953830  -13.325800   78.383800
  C     -5.150600  -12.430600   79.100500
  C     -5.223350  -12.783600   80.488800
  C     -5.945380  -13.965200   80.796400
  H     -4.866140  -12.256300   81.307200
  C     -4.377200  -11.128300   78.648800
  H     -3.996830  -11.360100   77.670400
  H     -3.476260  -11.012300   79.214900
  C     -5.184160   -9.815640   78.748000
  H     -4.652550   -9.012300   78.235000
  H     -6.072290  -10.107100   78.163300
  C     -5.648660   -9.412540   80.149800
  H     -6.573350   -8.897770   80.068700
  H     -5.722320  -10.202400   80.906400
  H     -4.956120   -8.712990   80.712800
  S     -8.138350  -14.101500   82.550800
  C     -7.836310  -14.463800   84.243600
  C     -6.480570  -14.743000   84.416400
  C     -5.672340  -14.544400   83.263900
  C     -6.405530  -14.247600   82.132500
  H     -6.093380  -14.972400   85.394700
  C     -4.228070  -14.526700   83.266100
  H     -3.952970  -14.860300   82.352200
  H     -3.821170  -15.118200   84.089800
  C     -3.592100  -13.120700   83.480300
  H     -4.239600  -12.353300   83.162500
  H     -2.711500  -13.018000   82.857500
  C     -3.223990  -12.730100   84.959000
  H     -3.890200  -13.098800   85.743000
  H     -3.244470  -11.623300   85.083500
  H     -2.149020  -13.020200   85.107400
  H     -6.272990  -13.106700   77.408700
  H     -8.616010  -14.563600   84.982900

 Total Charge           Charge          ....    0
 Multiplicity           Mult            ....    1
 Number of Electrons    NEL             ....  134
 Basis Dimension        Dim             ....  322

ORBITAL ENERGIES
----------------

  NO   OCC          E(Eh)            E(eV)
   0   2.0000     -88.972542     -2421.0659
   1   2.0000     -88.962686     -2420.7978
   2   2.0000     -10.329251      -281.0732
   3   2.0000     -10.322547      -280.8908
   4   2.0000     -10.320213      -280.8273
   5   2.0000     -10.318740      -280.7872
   6   2.0000     -10.312790      -280.6253
   7   2.0000     -10.298607      -280.2394
   8   2.0000     -10.295030      -280.1420
   9   2.0000     -10.293973      -280.1132
  10   2.0000     -10.293356      -280.0964
  11   2.0000     -10.292147      -280.0636
  12   2.0000     -10.285668      -279.8873
  13   2.0000     -10.284420      -279.8533
  14   2.0000     -10.281062      -279.7619
  15   2.0000     -10.277351      -279.6609
  16   2.0000      -8.086167      -220.0358
  17   2.0000      -8.076713      -219.7785
  18   2.0000      -6.044641      -164.4830
  19   2.0000      -6.040954      -164.3827
  20   2.0000      -6.036894      -164.2722
  21   2.0000      -6.035334      -164.2298
  22   2.0000      -6.031262      -164.1190
  23   2.0000      -6.027457      -164.0154
  24   2.0000      -1.002770       -27.2867
  25   2.0000      -0.977427       -26.5972
  26   2.0000      -0.911664       -24.8076
  27   2.0000      -0.909455       -24.7475
  28   2.0000      -0.867841       -23.6151
  29   2.0000      -0.848595       -23.0914
  30   2.0000      -0.843573       -22.9548
  31   2.0000      -0.810599       -22.0575
  32   2.0000      -0.789250       -21.4766
  33   2.0000      -0.774596       -21.0778
  34   2.0000      -0.708770       -19.2866
  35   2.0000      -0.703488       -19.1429
  36   2.0000      -0.696841       -18.9620
  37   2.0000      -0.664832       -18.0910
  38   2.0000      -0.647508       -17.6196
  39   2.0000      -0.612746       -16.6737
  40   2.0000      -0.597194       -16.2505
  41   2.0000      -0.572240       -15.5714
  42   2.0000      -0.560489       -15.2517
  43   2.0000      -0.548569       -14.9273
  44   2.0000      -0.545183       -14.8352
  45   2.0000      -0.540019       -14.6947
  46   2.0000      -0.519559       -14.1379
  47   2.0000      -0.509006       -13.8507
  48   2.0000      -0.499944       -13.6042
  49   2.0000      -0.496120       -13.5001
  50   2.0000      -0.487694       -13.2708
  51   2.0000      -0.480415       -13.0728
  52   2.0000      -0.477991       -13.0068
  53   2.0000      -0.464292       -12.6340
  54   2.0000      -0.456749       -12.4288
  55   2.0000      -0.445151       -12.1132
  56   2.0000      -0.442222       -12.0335
  57   2.0000      -0.437552       -11.9064
  58   2.0000      -0.432212       -11.7611
  59   2.0000      -0.426366       -11.6020
  60   2.0000      -0.425380       -11.5752
  61   2.0000      -0.416871       -11.3436
  62   2.0000      -0.413675       -11.2567
  63   2.0000      -0.342370        -9.3164
  64   2.0000      -0.334694        -9.1075
  65   2.0000      -0.326231        -8.8772
  66   2.0000      -0.289934        -7.8895
  67   0.0000       0.021216         0.5773
  68   0.0000       0.060960         1.6588
  69   0.0000       0.104431         2.8417
  70   0.0000       0.118779         3.2321
  71   0.0000       0.130268         3.5448

MULLIKEN ATOMIC CHARGES
-----------------------
   0 S :    0.108561
   1 C :   -0.104578
   2 C :   -0.086844
   3 C :    0.038925
   4 C :   -0.160835
   5 H :   -0.026051
   6 C :    0.084957
   7 H :    0.020957
   8 H :    0.019394
   9 C :   -0.052431
  10 H :    0.044473
  11 H :    0.030961
  12 C :   -0.062447
  13 H :    0.036302
  14 H :    0.030585
  15 H :    0.030106
  16 S :    0.096722
  17 C :   -0.100396
  18 C :   -0.019246
  19 C :   -0.065707
  20 C :   -0.149982
  21 H :    0.009445
  22 C :    0.148723
  23 H :    0.000690
  24 H :    0.020429
  25 C :   -0.096426
  26 H :    0.040105
  27 H :    0.029455
  28 C :   -0.075314
  29 H :    0.040200
  30 H :    0.032291
  31 H :    0.041491
  32 H :    0.035367
  33 H :    0.060116
Sum of atomic charges:   -0.0000000

LOEWDIN ATOMIC CHARGES
----------------------
   0 S :    0.397523
   1 C :   -0.174299
   2 C :   -0.054176
   3 C :   -0.038877
   4 C :   -0.202215
   5 H :    0.012000
   6 C :   -0.024167
   7 H :    0.029028
   8 H :    0.024567
   9 C :   -0.039669
  10 H :    0.029533
  11 H :    0.028770
  12 C :   -0.072535
  13 H :    0.026042
  14 H :    0.028416
  15 H :    0.031047
  16 S :    0.382391
  17 C :   -0.181329
  18 C :   -0.070122
  19 C :   -0.058861
  20 C :   -0.191695
  21 H :    0.026523
  22 C :   -0.021688
  23 H :    0.019566
  24 H :    0.034339
  25 C :   -0.032729
  26 H :    0.012690
  27 H :    0.025763
  28 C :   -0.073643
  29 H :    0.023881
  30 H :    0.029488
  31 H :    0.030308
  32 H :    0.014809
  33 H :    0.029321

  Mayer bond orders larger than 0.100000
B(  0-S ,  1-C ) :   1.1553 B(  0-S ,  4-C ) :   1.1319 B(  1-C ,  2-C ) :   1.6035
B(  1-C , 32-H ) :   0.9663 B(  2-C ,  3-C ) :   1.2561 B(  2-C ,  6-C ) :   1.0111
B(  3-C ,  4-C ) :   1.5531 B(  3-C ,  5-H ) :   0.9845 B(  4-C , 20-C ) :   1.0630
B(  6-C ,  7-H ) :   0.9410 B(  6-C ,  8-H ) :   0.9440 B(  6-C ,  9-C ) :   1.0643
B(  9-C , 10-H ) :   0.9564 B(  9-C , 11-H ) :   0.9605 B(  9-C , 12-C ) :   1.0642
B( 12-C , 13-H ) :   0.9756 B( 12-C , 14-H ) :   0.9761 B( 12-C , 15-H ) :   0.9729
B( 16-S , 17-C ) :   1.1561 B( 16-S , 20-C ) :   1.1218 B( 17-C , 18-C ) :   1.5861
B( 17-C , 33-H ) :   0.9699 B( 18-C , 19-C ) :   1.2495 B( 18-C , 21-H ) :   0.9915
B( 19-C , 20-C ) :   1.5857 B( 19-C , 22-C ) :   1.0937 B( 22-C , 23-H ) :   0.8981
B( 22-C , 24-H ) :   0.9341 B( 22-C , 25-C ) :   1.0552 B( 25-C , 26-H ) :   0.9514
B( 25-C , 27-H ) :   0.9611 B( 25-C , 28-C ) :   1.0641 B( 28-C , 29-H ) :   0.9767
B( 28-C , 30-H ) :   0.9780 B( 28-C , 31-H ) :   0.9772

Dispersion correction           -0.015364558
FINAL SINGLE POINT ENERGY     -1339.854197722187

DIPOLE MOMENT
-------------
                                X             Y             Z
Electronic contribution:    -18.54017     -18.99085      -6.09333
Nuclear contribution   :     18.93789      19.63124       6.21332
                        -----------------------------------------
Total Dipole Moment    :      0.39773       0.64039       0.12000
                        -----------------------------------------
Magnitude (a.u.)       :      0.76334
Magnitude (Debye)      :      1.94025

Rotational constants in cm-1:     0.017191     0.010003     0.007854
Rotational constants in MHz :   515.382876   299.869292   235.444861

                             ****ORCA TERMINATED NORMALLY****
TOTAL RUN TIME: 0 days 0 hours 0 minutes 34 seconds 323 msec
