                         Program Version 4.2.1 -  RELEASE  -
|  1> ! wB97X-D3 SP def2-SVP
|  2> %pal
|  3> nprocs 16
|  4> end
|  5>
|  6> * xyz 0 1
|  7> S 	 10.9207 	 -12.4288 	 71.6049
|  8> C 	 9.32891 	 -11.6299 	 71.3949
|  9> C 	 9.09356 	 -11.2421 	 70.0587
| 10> C 	 10.2551 	 -11.5157 	 69.2712
| 11> C 	 11.2952 	 -12.1077 	 69.9139
| 12> H 	 10.3573 	 -11.3549 	 68.1898
| 13> C 	 7.83084 	 -10.5589 	 69.6146
| 14> H 	 6.98289 	 -10.8916 	 70.2041
| 15> H 	 7.59194 	 -11.0309 	 68.595
| 16> C 	 7.82757 	 -9.06948 	 69.4229
| 17> H 	 7.90098 	 -8.52787 	 70.4093
| 18> H 	 8.75645 	 -8.74217 	 68.8951
| 19> C 	 6.65824 	 -8.40649 	 68.6381
| 20> H 	 5.75988 	 -8.94405 	 68.9699
| 21> H 	 6.61775 	 -7.37233 	 68.9341
| 22> H 	 6.79385 	 -8.67015 	 67.6364
| 23> S 	 13.194 	 -14.0929 	 69.9866
| 24> C 	 14.5603 	 -14.0003 	 68.8841
| 25> C 	 14.4057 	 -12.9528 	 67.9446
| 26> C 	 13.2855 	 -12.0997 	 68.2454
| 27> C 	 12.5188 	 -12.6361 	 69.3137
| 28> H 	 15.0802 	 -13.061 	 67.0799
| 29> C 	 12.8945 	 -10.973 	 67.3092
| 30> H 	 12.6298 	 -10.0972 	 67.8554
| 31> H 	 12.0306 	 -11.3397 	 66.6617
| 32> C 	 14.0108 	 -10.4071 	 66.3072
| 33> H 	 14.3125 	 -11.153 	 65.6367
| 34> H 	 14.9202 	 -10.1298 	 66.8647
| 35> C 	 13.473 	 -9.28017 	 65.4882
| 36> H 	 14.3004 	 -8.89775 	 64.8802
| 37> H 	 13.1428 	 -8.43548 	 66.1254
| 38> H 	 12.6007 	 -9.58356 	 64.8772
| 39> H 	 8.67929 	 -11.2741 	 72.1663
| 40> H 	 15.3667 	 -14.7351 	 68.7837
| 41> *
| 42>
| 43>                          ****END OF INPUT****

CARTESIAN COORDINATES (ANGSTROEM)
---------------------------------
  S     10.920700  -12.428800   71.604900
  C      9.328910  -11.629900   71.394900
  C      9.093560  -11.242100   70.058700
  C     10.255100  -11.515700   69.271200
  C     11.295200  -12.107700   69.913900
  H     10.357300  -11.354900   68.189800
  C      7.830840  -10.558900   69.614600
  H      6.982890  -10.891600   70.204100
  H      7.591940  -11.030900   68.595000
  C      7.827570   -9.069480   69.422900
  H      7.900980   -8.527870   70.409300
  H      8.756450   -8.742170   68.895100
  C      6.658240   -8.406490   68.638100
  H      5.759880   -8.944050   68.969900
  H      6.617750   -7.372330   68.934100
  H      6.793850   -8.670150   67.636400
  S     13.194000  -14.092900   69.986600
  C     14.560300  -14.000300   68.884100
  C     14.405700  -12.952800   67.944600
  C     13.285500  -12.099700   68.245400
  C     12.518800  -12.636100   69.313700
  H     15.080200  -13.061000   67.079900
  C     12.894500  -10.973000   67.309200
  H     12.629800  -10.097200   67.855400
  H     12.030600  -11.339700   66.661700
  C     14.010800  -10.407100   66.307200
  H     14.312500  -11.153000   65.636700
  H     14.920200  -10.129800   66.864700
  C     13.473000   -9.280170   65.488200
  H     14.300400   -8.897750   64.880200
  H     13.142800   -8.435480   66.125400
  H     12.600700   -9.583560   64.877200
  H      8.679290  -11.274100   72.166300
  H     15.366700  -14.735100   68.783700

 Total Charge           Charge          ....    0
 Multiplicity           Mult            ....    1
 Number of Electrons    NEL             ....  134
 Basis Dimension        Dim             ....  322

ORBITAL ENERGIES
----------------

  NO   OCC          E(Eh)            E(eV)
   0   2.0000     -88.971192     -2421.0292
   1   2.0000     -88.967878     -2420.9390
   2   2.0000     -10.330983      -281.1203
   3   2.0000     -10.328898      -281.0636
   4   2.0000     -10.319387      -280.8048
   5   2.0000     -10.316513      -280.7266
   6   2.0000     -10.310219      -280.5553
   7   2.0000     -10.306461      -280.4531
   8   2.0000     -10.299997      -280.2772
   9   2.0000     -10.299986      -280.2769
  10   2.0000     -10.298768      -280.2437
  11   2.0000     -10.293025      -280.0875
  12   2.0000     -10.290466      -280.0178
  13   2.0000     -10.285817      -279.8913
  14   2.0000     -10.282034      -279.7884
  15   2.0000     -10.277653      -279.6691
  16   2.0000      -8.085497      -220.0175
  17   2.0000      -8.081627      -219.9122
  18   2.0000      -6.043978      -164.4650
  19   2.0000      -6.040257      -164.3638
  20   2.0000      -6.040032      -164.3576
  21   2.0000      -6.036376      -164.2581
  22   2.0000      -6.036356      -164.2576
  23   2.0000      -6.032216      -164.1449
  24   2.0000      -1.003443       -27.3051
  25   2.0000      -0.977394       -26.5962
  26   2.0000      -0.913019       -24.8445
  27   2.0000      -0.908142       -24.7118
  28   2.0000      -0.866918       -23.5900
  29   2.0000      -0.857407       -23.3312
  30   2.0000      -0.844528       -22.9808
  31   2.0000      -0.815051       -22.1787
  32   2.0000      -0.783451       -21.3188
  33   2.0000      -0.768363       -20.9082
  34   2.0000      -0.705422       -19.1955
  35   2.0000      -0.697656       -18.9842
  36   2.0000      -0.694753       -18.9052
  37   2.0000      -0.651884       -17.7387
  38   2.0000      -0.638174       -17.3656
  39   2.0000      -0.619608       -16.8604
  40   2.0000      -0.594870       -16.1872
  41   2.0000      -0.573247       -15.5988
  42   2.0000      -0.569283       -15.4910
  43   2.0000      -0.561203       -15.2711
  44   2.0000      -0.530279       -14.4296
  45   2.0000      -0.525143       -14.2899
  46   2.0000      -0.517777       -14.0894
  47   2.0000      -0.511497       -13.9186
  48   2.0000      -0.504083       -13.7168
  49   2.0000      -0.497572       -13.5396
  50   2.0000      -0.487516       -13.2660
  51   2.0000      -0.481396       -13.0995
  52   2.0000      -0.475736       -12.9454
  53   2.0000      -0.463345       -12.6083
  54   2.0000      -0.458374       -12.4730
  55   2.0000      -0.453577       -12.3424
  56   2.0000      -0.447109       -12.1665
  57   2.0000      -0.439929       -11.9711
  58   2.0000      -0.432455       -11.7677
  59   2.0000      -0.428456       -11.6589
  60   2.0000      -0.419425       -11.4131
  61   2.0000      -0.412620       -11.2279
  62   2.0000      -0.407666       -11.0932
  63   2.0000      -0.352024        -9.5791
  64   2.0000      -0.333350        -9.0709
  65   2.0000      -0.331652        -9.0247
  66   2.0000      -0.281341        -7.6557
  67   0.0000       0.022191         0.6038
  68   0.0000       0.072699         1.9782
  69   0.0000       0.096053         2.6137
  70   0.0000       0.117635         3.2010
  71   0.0000       0.129300         3.5184

MULLIKEN ATOMIC CHARGES
-----------------------
   0 S :    0.098296
   1 C :   -0.108078
   2 C :   -0.074584
   3 C :   -0.008236
   4 C :   -0.116370
   5 H :    0.006375
   6 C :    0.057913
   7 H :    0.023387
   8 H :    0.026745
   9 C :   -0.114450
  10 H :    0.027637
  11 H :    0.028049
  12 C :   -0.009814
  13 H :    0.022549
  14 H :    0.047346
  15 H :    0.028016
  16 S :    0.117098
  17 C :   -0.110134
  18 C :   -0.068529
  19 C :   -0.009846
  20 C :   -0.137669
  21 H :    0.039224
  22 C :   -0.014360
  23 H :    0.032868
  24 H :    0.065366
  25 C :   -0.068285
  26 H :    0.018486
  27 H :    0.037455
  28 C :   -0.046107
  29 H :    0.039419
  30 H :    0.030093
  31 H :    0.036940
  32 H :    0.042834
  33 H :    0.060365
Sum of atomic charges:   -0.0000000

LOEWDIN ATOMIC CHARGES
----------------------
   0 S :    0.378323
   1 C :   -0.182043
   2 C :   -0.055495
   3 C :   -0.069031
   4 C :   -0.183029
   5 H :    0.033137
   6 C :   -0.042902
   7 H :    0.030153
   8 H :    0.039417
   9 C :   -0.051387
  10 H :    0.024660
  11 H :    0.024596
  12 C :   -0.054323
  13 H :    0.025500
  14 H :    0.031457
  15 H :    0.017730
  16 S :    0.413118
  17 C :   -0.195593
  18 C :   -0.074125
  19 C :   -0.059712
  20 C :   -0.198355
  21 H :    0.039280
  22 C :   -0.036022
  23 H :    0.028008
  24 H :    0.040258
  25 C :   -0.039775
  26 H :    0.013527
  27 H :    0.028292
  28 C :   -0.066401
  29 H :    0.030975
  30 H :    0.025822
  31 H :    0.028302
  32 H :    0.024460
  33 H :    0.031179

  Mayer bond orders larger than 0.100000
B(  0-S ,  1-C ) :   1.1245 B(  0-S ,  4-C ) :   1.1258 B(  1-C ,  2-C ) :   1.6197
B(  1-C , 32-H ) :   0.9665 B(  2-C ,  3-C ) :   1.2242 B(  2-C ,  6-C ) :   1.0334
B(  3-C ,  4-C ) :   1.5964 B(  3-C ,  5-H ) :   0.9848 B(  4-C , 20-C ) :   1.0669
B(  6-C ,  7-H ) :   0.9333 B(  6-C ,  8-H ) :   0.9338 B(  6-C ,  9-C ) :   1.0647
B(  9-C , 10-H ) :   0.9545 B(  9-C , 11-H ) :   0.9573 B(  9-C , 12-C ) :   1.0707
B( 12-C , 13-H ) :   0.9768 B( 12-C , 14-H ) :   0.9747 B( 12-C , 15-H ) :   0.9771
B( 16-S , 17-C ) :   1.1534 B( 16-S , 20-C ) :   1.1503 B( 17-C , 18-C ) :   1.6095
B( 17-C , 20-C ) :   0.1015 B( 17-C , 33-H ) :   0.9627 B( 18-C , 19-C ) :   1.2446
B( 18-C , 21-H ) :   0.9808 B( 19-C , 20-C ) :   1.5639 B( 19-C , 22-C ) :   1.0450
B( 22-C , 23-H ) :   0.9318 B( 22-C , 24-H ) :   0.9300 B( 22-C , 25-C ) :   1.0717
B( 25-C , 26-H ) :   0.9436 B( 25-C , 27-H ) :   0.9550 B( 25-C , 28-C ) :   1.0961
B( 28-C , 29-H ) :   0.9696 B( 28-C , 30-H ) :   0.9729 B( 28-C , 31-H ) :   0.9715

Dispersion correction           -0.013231425
FINAL SINGLE POINT ENERGY     -1339.872960999966

DIPOLE MOMENT
-------------
                                X             Y             Z
Electronic contribution:     10.86276     -23.77442      20.53755
Nuclear contribution   :    -11.02741      24.17415     -21.20023
                        -----------------------------------------
Total Dipole Moment    :     -0.16464       0.39973      -0.66268
                        -----------------------------------------
Magnitude (a.u.)       :      0.79123
Magnitude (Debye)      :      2.01114

Rotational constants in cm-1:     0.015956     0.008862     0.005895
Rotational constants in MHz :   478.350816   265.667838   176.718232

                             ****ORCA TERMINATED NORMALLY****
TOTAL RUN TIME: 0 days 0 hours 0 minutes 31 seconds 257 msec
