                         Program Version 4.2.1 -  RELEASE  -
|  1> ! wB97X-D3 SP def2-SVP
|  2> %pal
|  3> nprocs 16
|  4> end
|  5>
|  6> * xyz 0 1
|  7> S 	 -63.4623 	 50.9843 	 122.829
|  8> C 	 -63.7303 	 50.3252 	 124.451
|  9> C 	 -63.495 	 51.2169 	 125.509
| 10> C 	 -62.966 	 52.42 	 125.003
| 11> C 	 -63.0874 	 52.5405 	 123.612
| 12> H 	 -62.521 	 53.2057 	 125.63
| 13> C 	 -63.4137 	 50.8708 	 127.012
| 14> H 	 -62.7217 	 51.5579 	 127.554
| 15> H 	 -62.9315 	 49.8886 	 127.233
| 16> C 	 -64.7232 	 50.8379 	 127.8
| 17> H 	 -64.9195 	 49.7569 	 128.097
| 18> H 	 -64.6113 	 51.3153 	 128.788
| 19> C 	 -65.9404 	 51.3004 	 127.063
| 20> H 	 -66.2039 	 50.6865 	 126.147
| 21> H 	 -66.7856 	 51.2621 	 127.786
| 22> H 	 -65.7438 	 52.3058 	 126.762
| 23> S 	 -61.3364 	 53.4038 	 121.58
| 24> C 	 -61.1196 	 55.0833 	 121.278
| 25> C 	 -61.9622 	 55.8159 	 122.043
| 26> C 	 -62.8761 	 55.072 	 122.848
| 27> C 	 -62.6591 	 53.6973 	 122.791
| 28> H 	 -61.9732 	 56.8771 	 122.066
| 29> C 	 -63.8594 	 55.7044 	 123.809
| 30> H 	 -63.6181 	 56.8363 	 123.676
| 31> H 	 -63.6291 	 55.3571 	 124.808
| 32> C 	 -65.334 	 55.5502 	 123.61
| 33> H 	 -65.5508 	 54.4434 	 123.601
| 34> H 	 -65.5943 	 55.8765 	 122.547
| 35> C 	 -66.2018 	 56.1992 	 124.752
| 36> H 	 -67.2494 	 56.106 	 124.622
| 37> H 	 -65.9521 	 57.2454 	 124.883
| 38> H 	 -66.142 	 55.6914 	 125.819
| 39> H 	 -63.8235 	 49.2664 	 124.647
| 40> H 	 -60.3113 	 55.4314 	 120.72
| 41> *
| 42>
| 43>                          ****END OF INPUT****

CARTESIAN COORDINATES (ANGSTROEM)
---------------------------------
  S    -63.462300   50.984300  122.829000
  C    -63.730300   50.325200  124.451000
  C    -63.495000   51.216900  125.509000
  C    -62.966000   52.420000  125.003000
  C    -63.087400   52.540500  123.612000
  H    -62.521000   53.205700  125.630000
  C    -63.413700   50.870800  127.012000
  H    -62.721700   51.557900  127.554000
  H    -62.931500   49.888600  127.233000
  C    -64.723200   50.837900  127.800000
  H    -64.919500   49.756900  128.097000
  H    -64.611300   51.315300  128.788000
  C    -65.940400   51.300400  127.063000
  H    -66.203900   50.686500  126.147000
  H    -66.785600   51.262100  127.786000
  H    -65.743800   52.305800  126.762000
  S    -61.336400   53.403800  121.580000
  C    -61.119600   55.083300  121.278000
  C    -61.962200   55.815900  122.043000
  C    -62.876100   55.072000  122.848000
  C    -62.659100   53.697300  122.791000
  H    -61.973200   56.877100  122.066000
  C    -63.859400   55.704400  123.809000
  H    -63.618100   56.836300  123.676000
  H    -63.629100   55.357100  124.808000
  C    -65.334000   55.550200  123.610000
  H    -65.550800   54.443400  123.601000
  H    -65.594300   55.876500  122.547000
  C    -66.201800   56.199200  124.752000
  H    -67.249400   56.106000  124.622000
  H    -65.952100   57.245400  124.883000
  H    -66.142000   55.691400  125.819000
  H    -63.823500   49.266400  124.647000
  H    -60.311300   55.431400  120.720000

 Total Charge           Charge          ....    0
 Multiplicity           Mult            ....    1
 Number of Electrons    NEL             ....  134
 Basis Dimension        Dim             ....  322

ORBITAL ENERGIES
----------------

  NO   OCC          E(Eh)            E(eV)
   0   2.0000     -88.975337     -2421.1420
   1   2.0000     -88.960327     -2420.7336
   2   2.0000     -10.337443      -281.2961
   3   2.0000     -10.331300      -281.1290
   4   2.0000     -10.320072      -280.8234
   5   2.0000     -10.312517      -280.6179
   6   2.0000     -10.308078      -280.4971
   7   2.0000     -10.304189      -280.3912
   8   2.0000     -10.301114      -280.3076
   9   2.0000     -10.299763      -280.2708
  10   2.0000     -10.294803      -280.1358
  11   2.0000     -10.294503      -280.1277
  12   2.0000     -10.290176      -280.0099
  13   2.0000     -10.286746      -279.9166
  14   2.0000     -10.286632      -279.9135
  15   2.0000     -10.275871      -279.6207
  16   2.0000      -8.088846      -220.1087
  17   2.0000      -8.075184      -219.7369
  18   2.0000      -6.047272      -164.5546
  19   2.0000      -6.043736      -164.4584
  20   2.0000      -6.039563      -164.3449
  21   2.0000      -6.033623      -164.1832
  22   2.0000      -6.029630      -164.0746
  23   2.0000      -6.026031      -163.9766
  24   2.0000      -1.002170       -27.2704
  25   2.0000      -0.983063       -26.7505
  26   2.0000      -0.911417       -24.8009
  27   2.0000      -0.907290       -24.6886
  28   2.0000      -0.864900       -23.5351
  29   2.0000      -0.852322       -23.1929
  30   2.0000      -0.844443       -22.9785
  31   2.0000      -0.809535       -22.0286
  32   2.0000      -0.784681       -21.3523
  33   2.0000      -0.774157       -21.0659
  34   2.0000      -0.706287       -19.2190
  35   2.0000      -0.692334       -18.8394
  36   2.0000      -0.687120       -18.6975
  37   2.0000      -0.665192       -18.1008
  38   2.0000      -0.636674       -17.3248
  39   2.0000      -0.614898       -16.7322
  40   2.0000      -0.599575       -16.3153
  41   2.0000      -0.566397       -15.4124
  42   2.0000      -0.560951       -15.2642
  43   2.0000      -0.555760       -15.1230
  44   2.0000      -0.545331       -14.8392
  45   2.0000      -0.523450       -14.2438
  46   2.0000      -0.512764       -13.9530
  47   2.0000      -0.503989       -13.7142
  48   2.0000      -0.499850       -13.6016
  49   2.0000      -0.496530       -13.5113
  50   2.0000      -0.484622       -13.1872
  51   2.0000      -0.479107       -13.0372
  52   2.0000      -0.469655       -12.7800
  53   2.0000      -0.465686       -12.6720
  54   2.0000      -0.458971       -12.4892
  55   2.0000      -0.454326       -12.3628
  56   2.0000      -0.445999       -12.1363
  57   2.0000      -0.435294       -11.8449
  58   2.0000      -0.432225       -11.7614
  59   2.0000      -0.430246       -11.7076
  60   2.0000      -0.419988       -11.4284
  61   2.0000      -0.401473       -10.9246
  62   2.0000      -0.395827       -10.7710
  63   2.0000      -0.344069        -9.3626
  64   2.0000      -0.337754        -9.1908
  65   2.0000      -0.330575        -8.9954
  66   2.0000      -0.290791        -7.9128
  67   0.0000       0.021044         0.5726
  68   0.0000       0.060786         1.6541
  69   0.0000       0.097398         2.6503
  70   0.0000       0.117250         3.1905
  71   0.0000       0.121133         3.2962

MULLIKEN ATOMIC CHARGES
-----------------------
   0 S :    0.119595
   1 C :   -0.102230
   2 C :   -0.092227
   3 C :    0.016362
   4 C :   -0.156230
   5 H :    0.035704
   6 C :    0.052151
   7 H :    0.029105
   8 H :    0.039297
   9 C :   -0.134935
  10 H :    0.022976
  11 H :    0.031888
  12 C :   -0.010710
  13 H :    0.044353
  14 H :    0.037214
  15 H :    0.021980
  16 S :    0.077512
  17 C :   -0.051701
  18 C :   -0.020332
  19 C :   -0.038923
  20 C :   -0.147613
  21 H :    0.003030
  22 C :    0.049735
  23 H :    0.022707
  24 H :    0.022890
  25 C :   -0.083817
  26 H :    0.043048
  27 H :    0.038046
  28 C :   -0.065354
  29 H :    0.030922
  30 H :    0.033900
  31 H :    0.040001
  32 H :    0.049046
  33 H :    0.042607
Sum of atomic charges:    0.0000000

LOEWDIN ATOMIC CHARGES
----------------------
   0 S :    0.397369
   1 C :   -0.185425
   2 C :   -0.062403
   3 C :   -0.055068
   4 C :   -0.189264
   5 H :    0.037226
   6 C :   -0.040795
   7 H :    0.034823
   8 H :    0.038766
   9 C :   -0.056363
  10 H :    0.024643
  11 H :    0.025984
  12 C :   -0.068920
  13 H :    0.034697
  14 H :    0.029880
  15 H :    0.018790
  16 S :    0.383749
  17 C :   -0.174628
  18 C :   -0.072544
  19 C :   -0.056913
  20 C :   -0.180946
  21 H :    0.024961
  22 C :   -0.038894
  23 H :    0.035472
  24 H :    0.027862
  25 C :   -0.048718
  26 H :    0.030512
  27 H :    0.031506
  28 C :   -0.073632
  29 H :    0.021815
  30 H :    0.021845
  31 H :    0.038941
  32 H :    0.024638
  33 H :    0.021035

  Mayer bond orders larger than 0.100000
B(  0-S ,  1-C ) :   1.1488 B(  0-S ,  4-C ) :   1.1448 B(  1-C ,  2-C ) :   1.5954
B(  1-C ,  4-C ) :   0.1054 B(  1-C , 32-H ) :   0.9613 B(  2-C ,  3-C ) :   1.2672
B(  2-C ,  6-C ) :   1.0255 B(  3-C ,  4-C ) :   1.5636 B(  3-C ,  5-H ) :   0.9803
B(  4-C , 20-C ) :   1.0391 B(  6-C ,  7-H ) :   0.9512 B(  6-C ,  8-H ) :   0.9491
B(  6-C ,  9-C ) :   1.0368 B(  9-C , 10-H ) :   0.9561 B(  9-C , 11-H ) :   0.9574
B(  9-C , 12-C ) :   1.1283 B( 12-C , 13-H ) :   0.9589 B( 12-C , 14-H ) :   0.9700
B( 12-C , 15-H ) :   0.9643 B( 16-S , 17-C ) :   1.1638 B( 16-S , 20-C ) :   1.1270
B( 17-C , 18-C ) :   1.5853 B( 17-C , 33-H ) :   0.9747 B( 18-C , 19-C ) :   1.2675
B( 18-C , 21-H ) :   0.9931 B( 19-C , 20-C ) :   1.5937 B( 19-C , 22-C ) :   1.0322
B( 22-C , 23-H ) :   0.9308 B( 22-C , 24-H ) :   0.9325 B( 22-C , 25-C ) :   1.0708
B( 25-C , 26-H ) :   0.9537 B( 25-C , 27-H ) :   0.9520 B( 25-C , 28-C ) :   1.0680
B( 28-C , 29-H ) :   0.9754 B( 28-C , 30-H ) :   0.9772 B( 28-C , 31-H ) :   0.9716

Dispersion correction           -0.014612953
FINAL SINGLE POINT ENERGY     -1339.862212242179

DIPOLE MOMENT
-------------
                                X             Y             Z
Electronic contribution:     17.97167      -7.49297     -23.06532
Nuclear contribution   :    -17.93794       7.70857      23.69208
                        -----------------------------------------
Total Dipole Moment    :      0.03374       0.21560       0.62676
                        -----------------------------------------
Magnitude (a.u.)       :      0.66366
Magnitude (Debye)      :      1.68689

Rotational constants in cm-1:     0.018011     0.009470     0.007008
Rotational constants in MHz :   539.971034   283.894270   210.097134

                             ****ORCA TERMINATED NORMALLY****
TOTAL RUN TIME: 0 days 0 hours 0 minutes 34 seconds 802 msec
