                         Program Version 4.2.1 -  RELEASE  -
|  1> ! wB97X-D3 SP def2-SVP
|  2> %pal
|  3> nprocs 16
|  4> end
|  5>
|  6> * xyz 0 1
|  7> S 	 -13.7599 	 74.6392 	 52.3906
|  8> C 	 -13.3734 	 73.2291 	 51.4506
|  9> C 	 -13.3337 	 72.035 	 52.2155
| 10> C 	 -13.3389 	 72.3378 	 53.6483
| 11> C 	 -13.484 	 73.6927 	 53.9106
| 12> H 	 -13.2043 	 71.6542 	 54.4962
| 13> C 	 -13.2453 	 70.6682 	 51.5859
| 14> H 	 -13.7189 	 69.9005 	 52.2301
| 15> H 	 -12.1545 	 70.3833 	 51.5303
| 16> C 	 -13.8739 	 70.4132 	 50.2439
| 17> H 	 -14.9886 	 70.6477 	 50.32
| 18> H 	 -13.4682 	 71.1288 	 49.5265
| 19> C 	 -13.9375 	 68.9522 	 49.7637
| 20> H 	 -14.4371 	 68.3775 	 50.5585
| 21> H 	 -14.501 	 68.8113 	 48.8737
| 22> H 	 -12.942 	 68.5436 	 49.603
| 23> S 	 -14.6498 	 75.329 	 55.8641
| 24> C 	 -14.0597 	 75.351 	 57.432
| 25> C 	 -12.8541 	 74.7397 	 57.5419
| 26> C 	 -12.4995 	 74.0501 	 56.3114
| 27> C 	 -13.3904 	 74.2292 	 55.2694
| 28> H 	 -12.3574 	 74.6772 	 58.5055
| 29> C 	 -11.1608 	 73.3203 	 56.2548
| 30> H 	 -11.356 	 72.3847 	 55.8969
| 31> H 	 -10.6787 	 73.1973 	 57.3009
| 32> C 	 -10.2433 	 73.9506 	 55.2952
| 33> H 	 -9.99791 	 74.9909 	 55.6336
| 34> H 	 -10.7292 	 74.1717 	 54.3087
| 35> C 	 -8.94854 	 73.2409 	 55.0664
| 36> H 	 -8.53389 	 73.0125 	 56.0411
| 37> H 	 -8.20309 	 73.6434 	 54.4313
| 38> H 	 -9.10913 	 72.2778 	 54.5735
| 39> H 	 -13.2871 	 73.2891 	 50.3294
| 40> H 	 -14.5792 	 75.7906 	 58.1938
| 41> *
| 42>
| 43>                          ****END OF INPUT****

CARTESIAN COORDINATES (ANGSTROEM)
---------------------------------
  S    -13.759900   74.639200   52.390600
  C    -13.373400   73.229100   51.450600
  C    -13.333700   72.035000   52.215500
  C    -13.338900   72.337800   53.648300
  C    -13.484000   73.692700   53.910600
  H    -13.204300   71.654200   54.496200
  C    -13.245300   70.668200   51.585900
  H    -13.718900   69.900500   52.230100
  H    -12.154500   70.383300   51.530300
  C    -13.873900   70.413200   50.243900
  H    -14.988600   70.647700   50.320000
  H    -13.468200   71.128800   49.526500
  C    -13.937500   68.952200   49.763700
  H    -14.437100   68.377500   50.558500
  H    -14.501000   68.811300   48.873700
  H    -12.942000   68.543600   49.603000
  S    -14.649800   75.329000   55.864100
  C    -14.059700   75.351000   57.432000
  C    -12.854100   74.739700   57.541900
  C    -12.499500   74.050100   56.311400
  C    -13.390400   74.229200   55.269400
  H    -12.357400   74.677200   58.505500
  C    -11.160800   73.320300   56.254800
  H    -11.356000   72.384700   55.896900
  H    -10.678700   73.197300   57.300900
  C    -10.243300   73.950600   55.295200
  H     -9.997910   74.990900   55.633600
  H    -10.729200   74.171700   54.308700
  C     -8.948540   73.240900   55.066400
  H     -8.533890   73.012500   56.041100
  H     -8.203090   73.643400   54.431300
  H     -9.109130   72.277800   54.573500
  H    -13.287100   73.289100   50.329400
  H    -14.579200   75.790600   58.193800

 Total Charge           Charge          ....    0
 Multiplicity           Mult            ....    1
 Number of Electrons    NEL             ....  134
 Basis Dimension        Dim             ....  322

ORBITAL ENERGIES
----------------

  NO   OCC          E(Eh)            E(eV)
   0   2.0000     -88.971417     -2421.0353
   1   2.0000     -88.959262     -2420.7046
   2   2.0000     -10.337418      -281.2954
   3   2.0000     -10.328280      -281.0468
   4   2.0000     -10.323593      -280.9192
   5   2.0000     -10.313434      -280.6428
   6   2.0000     -10.306152      -280.4447
   7   2.0000     -10.305002      -280.4134
   8   2.0000     -10.304443      -280.3982
   9   2.0000     -10.298250      -280.2296
  10   2.0000     -10.291649      -280.0500
  11   2.0000     -10.290921      -280.0302
  12   2.0000     -10.286409      -279.9074
  13   2.0000     -10.281409      -279.7714
  14   2.0000     -10.277790      -279.6729
  15   2.0000     -10.266936      -279.3775
  16   2.0000      -8.085174      -220.0088
  17   2.0000      -8.075690      -219.7507
  18   2.0000      -6.043838      -164.4612
  19   2.0000      -6.039970      -164.3559
  20   2.0000      -6.035680      -164.2392
  21   2.0000      -6.034127      -164.1970
  22   2.0000      -6.029888      -164.0816
  23   2.0000      -6.026496      -163.9893
  24   2.0000      -1.006777       -27.3958
  25   2.0000      -0.982025       -26.7223
  26   2.0000      -0.919140       -25.0111
  27   2.0000      -0.913561       -24.8593
  28   2.0000      -0.871441       -23.7131
  29   2.0000      -0.852204       -23.1896
  30   2.0000      -0.847383       -23.0585
  31   2.0000      -0.816400       -22.2154
  32   2.0000      -0.785016       -21.3614
  33   2.0000      -0.771346       -20.9894
  34   2.0000      -0.706247       -19.2180
  35   2.0000      -0.698512       -19.0075
  36   2.0000      -0.686697       -18.6860
  37   2.0000      -0.665353       -18.1052
  38   2.0000      -0.639368       -17.3981
  39   2.0000      -0.613793       -16.7022
  40   2.0000      -0.600910       -16.3516
  41   2.0000      -0.578475       -15.7411
  42   2.0000      -0.568108       -15.4590
  43   2.0000      -0.563486       -15.3332
  44   2.0000      -0.528287       -14.3754
  45   2.0000      -0.522783       -14.2257
  46   2.0000      -0.518316       -14.1041
  47   2.0000      -0.511897       -13.9294
  48   2.0000      -0.507699       -13.8152
  49   2.0000      -0.499153       -13.5826
  50   2.0000      -0.494865       -13.4660
  51   2.0000      -0.483275       -13.1506
  52   2.0000      -0.478658       -13.0250
  53   2.0000      -0.466573       -12.6961
  54   2.0000      -0.459560       -12.5053
  55   2.0000      -0.453784       -12.3481
  56   2.0000      -0.444938       -12.1074
  57   2.0000      -0.438085       -11.9209
  58   2.0000      -0.431147       -11.7321
  59   2.0000      -0.422311       -11.4917
  60   2.0000      -0.415097       -11.2954
  61   2.0000      -0.410254       -11.1636
  62   2.0000      -0.401394       -10.9225
  63   2.0000      -0.353112        -9.6087
  64   2.0000      -0.330023        -8.9804
  65   2.0000      -0.327901        -8.9226
  66   2.0000      -0.288823        -7.8593
  67   0.0000       0.030212         0.8221
  68   0.0000       0.061953         1.6858
  69   0.0000       0.109970         2.9924
  70   0.0000       0.119252         3.2450
  71   0.0000       0.131086         3.5670

MULLIKEN ATOMIC CHARGES
-----------------------
   0 S :    0.120060
   1 C :   -0.155384
   2 C :   -0.062075
   3 C :    0.013221
   4 C :   -0.139555
   5 H :    0.033518
   6 C :    0.048307
   7 H :    0.023025
   8 H :    0.047490
   9 C :   -0.129217
  10 H :    0.037657
  11 H :    0.028598
  12 C :   -0.022620
  13 H :    0.030456
  14 H :    0.034780
  15 H :    0.028176
  16 S :    0.095741
  17 C :   -0.047776
  18 C :   -0.031387
  19 C :   -0.071169
  20 C :   -0.158001
  21 H :    0.021205
  22 C :    0.136558
  23 H :   -0.020372
  24 H :    0.031540
  25 C :   -0.109849
  26 H :    0.021318
  27 H :    0.044702
  28 C :   -0.003844
  29 H :    0.013878
  30 H :    0.026652
  31 H :    0.013474
  32 H :    0.076605
  33 H :    0.024290
Sum of atomic charges:    0.0000000

LOEWDIN ATOMIC CHARGES
----------------------
   0 S :    0.385760
   1 C :   -0.207255
   2 C :   -0.059411
   3 C :   -0.055436
   4 C :   -0.178617
   5 H :    0.038700
   6 C :   -0.045395
   7 H :    0.032836
   8 H :    0.039536
   9 C :   -0.051365
  10 H :    0.033252
  11 H :    0.016421
  12 C :   -0.058209
  13 H :    0.028746
  14 H :    0.025350
  15 H :    0.021662
  16 S :    0.419169
  17 C :   -0.182965
  18 C :   -0.078309
  19 C :   -0.045381
  20 C :   -0.196852
  21 H :    0.033511
  22 C :   -0.027589
  23 H :    0.012438
  24 H :    0.039209
  25 C :   -0.050877
  26 H :    0.025309
  27 H :    0.031966
  28 C :   -0.064934
  29 H :    0.021753
  30 H :    0.023131
  31 H :    0.023517
  32 H :    0.037749
  33 H :    0.012580

  Mayer bond orders larger than 0.100000
B(  0-S ,  1-C ) :   1.1382 B(  0-S ,  4-C ) :   1.1174 B(  1-C ,  2-C ) :   1.6107
B(  1-C , 32-H ) :   0.9586 B(  2-C ,  3-C ) :   1.2099 B(  2-C ,  6-C ) :   1.0267
B(  3-C ,  4-C ) :   1.5992 B(  3-C ,  5-H ) :   0.9906 B(  4-C , 20-C ) :   1.0562
B(  6-C ,  7-H ) :   0.9441 B(  6-C ,  8-H ) :   0.9252 B(  6-C ,  9-C ) :   1.0715
B(  9-C , 10-H ) :   0.9587 B(  9-C , 11-H ) :   0.9478 B(  9-C , 12-C ) :   1.0837
B( 12-C , 13-H ) :   0.9718 B( 12-C , 14-H ) :   0.9740 B( 12-C , 15-H ) :   0.9752
B( 16-S , 17-C ) :   1.1882 B( 16-S , 20-C ) :   1.1186 B( 17-C , 18-C ) :   1.5882
B( 17-C , 33-H ) :   0.9773 B( 18-C , 19-C ) :   1.2398 B( 18-C , 21-H ) :   0.9960
B( 19-C , 20-C ) :   1.6030 B( 19-C , 22-C ) :   1.0372 B( 22-C , 23-H ) :   0.9127
B( 22-C , 24-H ) :   0.9325 B( 22-C , 25-C ) :   1.0727 B( 25-C , 26-H ) :   0.9476
B( 25-C , 27-H ) :   0.9510 B( 25-C , 28-C ) :   1.0892 B( 28-C , 29-H ) :   0.9690
B( 28-C , 30-H ) :   0.9722 B( 28-C , 31-H ) :   0.9686

Dispersion correction           -0.014109322
FINAL SINGLE POINT ENERGY     -1339.869065355482

DIPOLE MOMENT
-------------
                                X             Y             Z
Electronic contribution:    -15.26438      21.53430       8.94954
Nuclear contribution   :     15.53808     -22.11982      -8.94483
                        -----------------------------------------
Total Dipole Moment    :      0.27371      -0.58552       0.00471
                        -----------------------------------------
Magnitude (a.u.)       :      0.64635
Magnitude (Debye)      :      1.64289

Rotational constants in cm-1:     0.020469     0.007621     0.006409
Rotational constants in MHz :   613.632633   228.465492   192.151558

                             ****ORCA TERMINATED NORMALLY****
TOTAL RUN TIME: 0 days 0 hours 0 minutes 33 seconds 114 msec
