                         Program Version 4.2.1 -  RELEASE  -
|  1> ! wB97X-D3 SP def2-SVP
|  2> %pal
|  3> nprocs 16
|  4> end
|  5>
|  6> * xyz 0 1
|  7> S 	 9.85913 	 11.5968 	 84.2248
|  8> C 	 10.0464 	 11.4083 	 82.4508
|  9> C 	 9.19288 	 10.4303 	 82.0259
| 10> C 	 8.42201 	 9.80909 	 83.0846
| 11> C 	 8.64767 	 10.3802 	 84.3107
| 12> H 	 7.78154 	 8.91501 	 82.9434
| 13> C 	 9.19553 	 9.74846 	 80.6389
| 14> H 	 8.20502 	 9.27048 	 80.3871
| 15> H 	 9.8446 	 8.83534 	 80.7119
| 16> C 	 9.76092 	 10.5535 	 79.4377
| 17> H 	 10.8286 	 10.8224 	 79.6411
| 18> H 	 9.68936 	 9.96336 	 78.5739
| 19> C 	 9.14304 	 11.925 	 79.157
| 20> H 	 8.02277 	 11.7445 	 79.102
| 21> H 	 9.36953 	 12.7706 	 79.7726
| 22> H 	 9.279 	 12.2741 	 78.1411
| 23> S 	 6.78838 	 11.1135 	 86.2911
| 24> C 	 6.3811 	 10.0092 	 87.4386
| 25> C 	 7.21234 	 8.90229 	 87.4305
| 26> C 	 8.00984 	 8.80123 	 86.3285
| 27> C 	 7.97452 	 9.99753 	 85.5745
| 28> H 	 7.02572 	 8.25064 	 88.239
| 29> C 	 8.79779 	 7.62098 	 86.0099
| 30> H 	 9.7236 	 7.65842 	 86.5249
| 31> H 	 9.06861 	 7.79114 	 84.942
| 32> C 	 8.17714 	 6.26166 	 86.3184
| 33> H 	 8.08957 	 6.22305 	 87.3712
| 34> H 	 8.81406 	 5.39487 	 85.8685
| 35> C 	 6.89737 	 5.9677 	 85.6157
| 36> H 	 7.1344 	 5.63636 	 84.6096
| 37> H 	 6.22145 	 6.77728 	 85.6113
| 38> H 	 6.45149 	 5.13046 	 86.1267
| 39> H 	 10.8552 	 11.8153 	 81.8138
| 40> H 	 5.73248 	 10.1832 	 88.2645
| 41> *
| 42>
| 43>                          ****END OF INPUT****

CARTESIAN COORDINATES (ANGSTROEM)
---------------------------------
  S      9.859130   11.596800   84.224800
  C     10.046400   11.408300   82.450800
  C      9.192880   10.430300   82.025900
  C      8.422010    9.809090   83.084600
  C      8.647670   10.380200   84.310700
  H      7.781540    8.915010   82.943400
  C      9.195530    9.748460   80.638900
  H      8.205020    9.270480   80.387100
  H      9.844600    8.835340   80.711900
  C      9.760920   10.553500   79.437700
  H     10.828600   10.822400   79.641100
  H      9.689360    9.963360   78.573900
  C      9.143040   11.925000   79.157000
  H      8.022770   11.744500   79.102000
  H      9.369530   12.770600   79.772600
  H      9.279000   12.274100   78.141100
  S      6.788380   11.113500   86.291100
  C      6.381100   10.009200   87.438600
  C      7.212340    8.902290   87.430500
  C      8.009840    8.801230   86.328500
  C      7.974520    9.997530   85.574500
  H      7.025720    8.250640   88.239000
  C      8.797790    7.620980   86.009900
  H      9.723600    7.658420   86.524900
  H      9.068610    7.791140   84.942000
  C      8.177140    6.261660   86.318400
  H      8.089570    6.223050   87.371200
  H      8.814060    5.394870   85.868500
  C      6.897370    5.967700   85.615700
  H      7.134400    5.636360   84.609600
  H      6.221450    6.777280   85.611300
  H      6.451490    5.130460   86.126700
  H     10.855200   11.815300   81.813800
  H      5.732480   10.183200   88.264500

 Total Charge           Charge          ....    0
 Multiplicity           Mult            ....    1
 Number of Electrons    NEL             ....  134
 Basis Dimension        Dim             ....  322

ORBITAL ENERGIES
----------------

  NO   OCC          E(Eh)            E(eV)
   0   2.0000     -88.966394     -2420.8986
   1   2.0000     -88.964644     -2420.8510
   2   2.0000     -10.328592      -281.0553
   3   2.0000     -10.325834      -280.9802
   4   2.0000     -10.317618      -280.7566
   5   2.0000     -10.305648      -280.4309
   6   2.0000     -10.303873      -280.3826
   7   2.0000     -10.302985      -280.3585
   8   2.0000     -10.298092      -280.2253
   9   2.0000     -10.294662      -280.1320
  10   2.0000     -10.289848      -280.0010
  11   2.0000     -10.286554      -279.9114
  12   2.0000     -10.280894      -279.7573
  13   2.0000     -10.279784      -279.7272
  14   2.0000     -10.275581      -279.6128
  15   2.0000     -10.265777      -279.3460
  16   2.0000      -8.082687      -219.9411
  17   2.0000      -8.079243      -219.8474
  18   2.0000      -6.040755      -164.3773
  19   2.0000      -6.037896      -164.2995
  20   2.0000      -6.036848      -164.2710
  21   2.0000      -6.033937      -164.1918
  22   2.0000      -6.033730      -164.1861
  23   2.0000      -6.029885      -164.0815
  24   2.0000      -1.012706       -27.5571
  25   2.0000      -0.989611       -26.9287
  26   2.0000      -0.922712       -25.1083
  27   2.0000      -0.906695       -24.6724
  28   2.0000      -0.867166       -23.5968
  29   2.0000      -0.860205       -23.4074
  30   2.0000      -0.843435       -22.9510
  31   2.0000      -0.812616       -22.1124
  32   2.0000      -0.788710       -21.4619
  33   2.0000      -0.778017       -21.1709
  34   2.0000      -0.705216       -19.1899
  35   2.0000      -0.701599       -19.0915
  36   2.0000      -0.694937       -18.9102
  37   2.0000      -0.651221       -17.7206
  38   2.0000      -0.633720       -17.2444
  39   2.0000      -0.613572       -16.6961
  40   2.0000      -0.597987       -16.2721
  41   2.0000      -0.580792       -15.8042
  42   2.0000      -0.560390       -15.2490
  43   2.0000      -0.555329       -15.1113
  44   2.0000      -0.548457       -14.9243
  45   2.0000      -0.539849       -14.6900
  46   2.0000      -0.526218       -14.3191
  47   2.0000      -0.509092       -13.8531
  48   2.0000      -0.502812       -13.6822
  49   2.0000      -0.493360       -13.4250
  50   2.0000      -0.492587       -13.4040
  51   2.0000      -0.475930       -12.9507
  52   2.0000      -0.472171       -12.8484
  53   2.0000      -0.468842       -12.7578
  54   2.0000      -0.462320       -12.5804
  55   2.0000      -0.449225       -12.2240
  56   2.0000      -0.440892       -11.9973
  57   2.0000      -0.439496       -11.9593
  58   2.0000      -0.431676       -11.7465
  59   2.0000      -0.421151       -11.4601
  60   2.0000      -0.417930       -11.3725
  61   2.0000      -0.414373       -11.2757
  62   2.0000      -0.405314       -11.0292
  63   2.0000      -0.335589        -9.1318
  64   2.0000      -0.334374        -9.0988
  65   2.0000      -0.326839        -8.8937
  66   2.0000      -0.298856        -8.1323
  67   0.0000       0.043162         1.1745
  68   0.0000       0.058478         1.5913
  69   0.0000       0.113037         3.0759
  70   0.0000       0.125459         3.4139
  71   0.0000       0.132946         3.6176

MULLIKEN ATOMIC CHARGES
-----------------------
   0 S :    0.107719
   1 C :   -0.148533
   2 C :   -0.059433
   3 C :    0.027549
   4 C :   -0.164005
   5 H :    0.028578
   6 C :    0.010588
   7 H :    0.034077
   8 H :    0.049678
   9 C :   -0.055641
  10 H :    0.029196
  11 H :    0.024014
  12 C :   -0.065631
  13 H :    0.024498
  14 H :    0.040466
  15 H :    0.022191
  16 S :    0.142174
  17 C :   -0.082713
  18 C :   -0.060995
  19 C :   -0.012660
  20 C :   -0.188574
  21 H :   -0.003281
  22 C :    0.128517
  23 H :    0.032084
  24 H :    0.011726
  25 C :   -0.118528
  26 H :    0.027968
  27 H :    0.043819
  28 C :   -0.010808
  29 H :    0.021829
  30 H :    0.029741
  31 H :    0.024201
  32 H :    0.065038
  33 H :    0.045151
Sum of atomic charges:    0.0000000

LOEWDIN ATOMIC CHARGES
----------------------
   0 S :    0.401331
   1 C :   -0.197902
   2 C :   -0.062360
   3 C :   -0.067521
   4 C :   -0.205402
   5 H :    0.037578
   6 C :   -0.038875
   7 H :    0.032726
   8 H :    0.041654
   9 C :   -0.043173
  10 H :    0.025868
  11 H :    0.022425
  12 C :   -0.075934
  13 H :    0.030993
  14 H :    0.021196
  15 H :    0.025119
  16 S :    0.456524
  17 C :   -0.211712
  18 C :   -0.079576
  19 C :   -0.051005
  20 C :   -0.205823
  21 H :    0.024243
  22 C :   -0.037155
  23 H :    0.035129
  24 H :    0.034583
  25 C :   -0.041923
  26 H :    0.014955
  27 H :    0.042327
  28 C :   -0.059122
  29 H :    0.024256
  30 H :    0.015848
  31 H :    0.027296
  32 H :    0.038566
  33 H :    0.024863

  Mayer bond orders larger than 0.100000
B(  0-S ,  1-C ) :   1.1105 B(  0-S ,  4-C ) :   1.1618 B(  1-C ,  2-C ) :   1.6452
B(  1-C , 32-H ) :   0.9622 B(  2-C ,  3-C ) :   1.2241 B(  2-C ,  6-C ) :   1.0082
B(  3-C ,  4-C ) :   1.5919 B(  3-C ,  5-H ) :   0.9909 B(  4-C , 20-C ) :   1.0009
B(  6-C ,  7-H ) :   0.9436 B(  6-C ,  8-H ) :   0.9403 B(  6-C ,  9-C ) :   1.0838
B(  9-C , 10-H ) :   0.9516 B(  9-C , 11-H ) :   0.9523 B(  9-C , 12-C ) :   1.0786
B( 12-C , 13-H ) :   0.9724 B( 12-C , 14-H ) :   0.9770 B( 12-C , 15-H ) :   0.9731
B( 16-S , 17-C ) :   1.2164 B( 16-S , 20-C ) :   1.1731 B( 17-C , 18-C ) :   1.5581
B( 17-C , 20-C ) :   0.1134 B( 17-C , 33-H ) :   0.9633 B( 18-C , 19-C ) :   1.2751
B( 18-C , 21-H ) :   1.0017 B( 19-C , 20-C ) :   1.5282 B( 19-C , 22-C ) :   1.0494
B( 22-C , 23-H ) :   0.9160 B( 22-C , 24-H ) :   0.9192 B( 22-C , 25-C ) :   1.0765
B( 25-C , 26-H ) :   0.9520 B( 25-C , 27-H ) :   0.9582 B( 25-C , 28-C ) :   1.0811
B( 28-C , 29-H ) :   0.9772 B( 28-C , 30-H ) :   0.9743 B( 28-C , 31-H ) :   0.9705

Dispersion correction           -0.014446490
FINAL SINGLE POINT ENERGY     -1339.860862335802

DIPOLE MOMENT
-------------
                                X             Y             Z
Electronic contribution:     -0.91471      16.54481      16.77827
Nuclear contribution   :      0.93986     -17.19324     -16.97462
                        -----------------------------------------
Total Dipole Moment    :      0.02515      -0.64843      -0.19636
                        -----------------------------------------
Magnitude (a.u.)       :      0.67797
Magnitude (Debye)      :      1.72327

Rotational constants in cm-1:     0.022432     0.007585     0.006403
Rotational constants in MHz :   672.490705   227.380092   191.942869

                             ****ORCA TERMINATED NORMALLY****
TOTAL RUN TIME: 0 days 0 hours 0 minutes 34 seconds 929 msec
