                         Program Version 4.2.1 -  RELEASE  -
|  1> ! wB97X-D3 SP def2-SVP
|  2> %pal
|  3> nprocs 16
|  4> end
|  5>
|  6> * xyz 0 1
|  7> S 	 -4.77872 	 70.5368 	 54.5181
|  8> C 	 -5.60537 	 68.9503 	 54.6655
|  9> C 	 -6.75063 	 68.9178 	 53.8815
| 10> C 	 -6.93602 	 70.0372 	 53.1198
| 11> C 	 -5.90001 	 70.9729 	 53.2399
| 12> H 	 -7.72431 	 70.0384 	 52.4115
| 13> C 	 -7.73987 	 67.7415 	 53.8574
| 14> H 	 -7.26645 	 66.7736 	 54.1779
| 15> H 	 -8.06458 	 67.47 	 52.8752
| 16> C 	 -8.91859 	 67.9524 	 54.8094
| 17> H 	 -8.55939 	 68.4265 	 55.7184
| 18> H 	 -9.54994 	 68.6948 	 54.3883
| 19> C 	 -9.69088 	 66.6732 	 55.1112
| 20> H 	 -10.5219 	 66.9242 	 55.7074
| 21> H 	 -9.9349 	 66.2752 	 54.1054
| 22> H 	 -9.0822 	 65.9479 	 55.6451
| 23> S 	 -5.45838 	 73.5756 	 53.695
| 24> C 	 -5.36494 	 74.7451 	 52.2866
| 25> C 	 -5.97626 	 74.1333 	 51.1727
| 26> C 	 -6.08642 	 72.6964 	 51.2433
| 27> C 	 -5.84094 	 72.2913 	 52.5543
| 28> H 	 -6.16001 	 74.7407 	 50.2608
| 29> C 	 -6.68918 	 72.0148 	 50.0216
| 30> H 	 -7.66965 	 72.5742 	 49.8611
| 31> H 	 -6.98147 	 71.0039 	 50.2146
| 32> C 	 -5.8479 	 71.9955 	 48.706
| 33> H 	 -4.92257 	 71.5943 	 48.8999
| 34> H 	 -5.66793 	 73.0144 	 48.4155
| 35> C 	 -6.55482 	 71.4105 	 47.4701
| 36> H 	 -6.14593 	 71.7856 	 46.5747
| 37> H 	 -7.63441 	 71.4854 	 47.5777
| 38> H 	 -6.21019 	 70.3969 	 47.4694
| 39> H 	 -5.35763 	 68.1155 	 55.3646
| 40> H 	 -5.12113 	 75.7871 	 52.2679
| 41> *
| 42>
| 43>                          ****END OF INPUT****

CARTESIAN COORDINATES (ANGSTROEM)
---------------------------------
  S     -4.778720   70.536800   54.518100
  C     -5.605370   68.950300   54.665500
  C     -6.750630   68.917800   53.881500
  C     -6.936020   70.037200   53.119800
  C     -5.900010   70.972900   53.239900
  H     -7.724310   70.038400   52.411500
  C     -7.739870   67.741500   53.857400
  H     -7.266450   66.773600   54.177900
  H     -8.064580   67.470000   52.875200
  C     -8.918590   67.952400   54.809400
  H     -8.559390   68.426500   55.718400
  H     -9.549940   68.694800   54.388300
  C     -9.690880   66.673200   55.111200
  H    -10.521900   66.924200   55.707400
  H     -9.934900   66.275200   54.105400
  H     -9.082200   65.947900   55.645100
  S     -5.458380   73.575600   53.695000
  C     -5.364940   74.745100   52.286600
  C     -5.976260   74.133300   51.172700
  C     -6.086420   72.696400   51.243300
  C     -5.840940   72.291300   52.554300
  H     -6.160010   74.740700   50.260800
  C     -6.689180   72.014800   50.021600
  H     -7.669650   72.574200   49.861100
  H     -6.981470   71.003900   50.214600
  C     -5.847900   71.995500   48.706000
  H     -4.922570   71.594300   48.899900
  H     -5.667930   73.014400   48.415500
  C     -6.554820   71.410500   47.470100
  H     -6.145930   71.785600   46.574700
  H     -7.634410   71.485400   47.577700
  H     -6.210190   70.396900   47.469400
  H     -5.357630   68.115500   55.364600
  H     -5.121130   75.787100   52.267900

 Total Charge           Charge          ....    0
 Multiplicity           Mult            ....    1
 Number of Electrons    NEL             ....  134
 Basis Dimension        Dim             ....  322

ORBITAL ENERGIES
----------------

  NO   OCC          E(Eh)            E(eV)
   0   2.0000     -88.973456     -2421.0908
   1   2.0000     -88.967767     -2420.9360
   2   2.0000     -10.333922      -281.2003
   3   2.0000     -10.333638      -281.1926
   4   2.0000     -10.321397      -280.8595
   5   2.0000     -10.318141      -280.7709
   6   2.0000     -10.308193      -280.5002
   7   2.0000     -10.300425      -280.2888
   8   2.0000     -10.299738      -280.2701
   9   2.0000     -10.295890      -280.1654
  10   2.0000     -10.292862      -280.0830
  11   2.0000     -10.287748      -279.9439
  12   2.0000     -10.278490      -279.6919
  13   2.0000     -10.278461      -279.6911
  14   2.0000     -10.277042      -279.6525
  15   2.0000     -10.274036      -279.5707
  16   2.0000      -8.086805      -220.0532
  17   2.0000      -8.080972      -219.8944
  18   2.0000      -6.045354      -164.5025
  19   2.0000      -6.041503      -164.3976
  20   2.0000      -6.039793      -164.3511
  21   2.0000      -6.037596      -164.2913
  22   2.0000      -6.035866      -164.2443
  23   2.0000      -6.031298      -164.1200
  24   2.0000      -1.002120       -27.2691
  25   2.0000      -0.976249       -26.5651
  26   2.0000      -0.913561       -24.8593
  27   2.0000      -0.906137       -24.6573
  28   2.0000      -0.865889       -23.5620
  29   2.0000      -0.851418       -23.1683
  30   2.0000      -0.848050       -23.0766
  31   2.0000      -0.809403       -22.0250
  32   2.0000      -0.781478       -21.2651
  33   2.0000      -0.771892       -21.0043
  34   2.0000      -0.707941       -19.2641
  35   2.0000      -0.699612       -19.0374
  36   2.0000      -0.696323       -18.9479
  37   2.0000      -0.661212       -17.9925
  38   2.0000      -0.634499       -17.2656
  39   2.0000      -0.626027       -17.0351
  40   2.0000      -0.594507       -16.1774
  41   2.0000      -0.570416       -15.5218
  42   2.0000      -0.567102       -15.4316
  43   2.0000      -0.552588       -15.0367
  44   2.0000      -0.530816       -14.4442
  45   2.0000      -0.529935       -14.4203
  46   2.0000      -0.514302       -13.9949
  47   2.0000      -0.512343       -13.9416
  48   2.0000      -0.503368       -13.6973
  49   2.0000      -0.494520       -13.4566
  50   2.0000      -0.492071       -13.3899
  51   2.0000      -0.474671       -12.9164
  52   2.0000      -0.471983       -12.8433
  53   2.0000      -0.463144       -12.6028
  54   2.0000      -0.454787       -12.3754
  55   2.0000      -0.453258       -12.3338
  56   2.0000      -0.446491       -12.1496
  57   2.0000      -0.440714       -11.9924
  58   2.0000      -0.436639       -11.8816
  59   2.0000      -0.427947       -11.6450
  60   2.0000      -0.427036       -11.6202
  61   2.0000      -0.413440       -11.2503
  62   2.0000      -0.408320       -11.1110
  63   2.0000      -0.342634        -9.3235
  64   2.0000      -0.337633        -9.1875
  65   2.0000      -0.328868        -8.9490
  66   2.0000      -0.285271        -7.7626
  67   0.0000       0.020671         0.5625
  68   0.0000       0.068887         1.8745
  69   0.0000       0.085081         2.3152
  70   0.0000       0.114294         3.1101
  71   0.0000       0.139148         3.7864

MULLIKEN ATOMIC CHARGES
-----------------------
   0 S :    0.118438
   1 C :   -0.137913
   2 C :   -0.075905
   3 C :    0.048891
   4 C :   -0.132623
   5 H :   -0.004091
   6 C :    0.041258
   7 H :    0.014189
   8 H :    0.016739
   9 C :   -0.067786
  10 H :    0.023711
  11 H :    0.015267
  12 C :   -0.018284
  13 H :    0.033063
  14 H :    0.030017
  15 H :    0.032675
  16 S :    0.088763
  17 C :   -0.090319
  18 C :   -0.062692
  19 C :   -0.014143
  20 C :   -0.143657
  21 H :    0.041162
  22 C :    0.028926
  23 H :    0.046357
  24 H :    0.009390
  25 C :   -0.059445
  26 H :    0.017019
  27 H :    0.011496
  28 C :   -0.007486
  29 H :    0.024333
  30 H :    0.037944
  31 H :    0.022399
  32 H :    0.059932
  33 H :    0.052375
Sum of atomic charges:   -0.0000000

LOEWDIN ATOMIC CHARGES
----------------------
   0 S :    0.399266
   1 C :   -0.196068
   2 C :   -0.063336
   3 C :   -0.061014
   4 C :   -0.190086
   5 H :    0.025670
   6 C :   -0.030536
   7 H :    0.030539
   8 H :    0.021725
   9 C :   -0.039960
  10 H :    0.022432
  11 H :    0.017013
  12 C :   -0.056068
  13 H :    0.022624
  14 H :    0.029098
  15 H :    0.024058
  16 S :    0.368216
  17 C :   -0.170781
  18 C :   -0.061008
  19 C :   -0.064667
  20 C :   -0.179612
  21 H :    0.035055
  22 C :   -0.030120
  23 H :    0.042841
  24 H :    0.019255
  25 C :   -0.030973
  26 H :    0.014410
  27 H :    0.017095
  28 C :   -0.055867
  29 H :    0.022763
  30 H :    0.027948
  31 H :    0.026084
  32 H :    0.037832
  33 H :    0.026171

  Mayer bond orders larger than 0.100000
B(  0-S ,  1-C ) :   1.1288 B(  0-S ,  4-C ) :   1.1677 B(  1-C ,  2-C ) :   1.5871
B(  1-C ,  4-C ) :   0.1111 B(  1-C , 32-H ) :   0.9601 B(  2-C ,  3-C ) :   1.3101
B(  2-C ,  6-C ) :   1.0230 B(  3-C ,  4-C ) :   1.5097 B(  3-C ,  5-H ) :   0.9939
B(  4-C , 20-C ) :   1.0304 B(  6-C ,  7-H ) :   0.9470 B(  6-C ,  8-H ) :   0.9399
B(  6-C ,  9-C ) :   1.0518 B(  9-C , 10-H ) :   0.9551 B(  9-C , 11-H ) :   0.9527
B(  9-C , 12-C ) :   1.0857 B( 12-C , 13-H ) :   0.9730 B( 12-C , 14-H ) :   0.9731
B( 12-C , 15-H ) :   0.9758 B( 16-S , 17-C ) :   1.1045 B( 16-S , 20-C ) :   1.1395
B( 17-C , 18-C ) :   1.6578 B( 17-C , 33-H ) :   0.9703 B( 18-C , 19-C ) :   1.2013
B( 18-C , 21-H ) :   0.9710 B( 19-C , 20-C ) :   1.6208 B( 19-C , 22-C ) :   1.0408
B( 22-C , 23-H ) :   0.9387 B( 22-C , 24-H ) :   0.9377 B( 22-C , 25-C ) :   1.0573
B( 25-C , 26-H ) :   0.9598 B( 25-C , 27-H ) :   0.9598 B( 25-C , 28-C ) :   1.0744
B( 28-C , 29-H ) :   0.9753 B( 28-C , 30-H ) :   0.9750 B( 28-C , 31-H ) :   0.9761

Dispersion correction           -0.013126551
FINAL SINGLE POINT ENERGY     -1339.851817876507

DIPOLE MOMENT
-------------
                                X             Y             Z
Electronic contribution:     16.76774      16.30315      15.59715
Nuclear contribution   :    -17.24719     -16.56838     -16.07864
                        -----------------------------------------
Total Dipole Moment    :     -0.47945      -0.26522      -0.48148
                        -----------------------------------------
Magnitude (a.u.)       :      0.72941
Magnitude (Debye)      :      1.85402

Rotational constants in cm-1:     0.017165     0.007796     0.006041
Rotational constants in MHz :   514.589104   233.732498   181.096902

                             ****ORCA TERMINATED NORMALLY****
TOTAL RUN TIME: 0 days 0 hours 0 minutes 30 seconds 679 msec
