                         Program Version 4.2.1 -  RELEASE  -
|  1> ! wB97X-D3 SP def2-SVP
|  2> %pal
|  3> nprocs 16
|  4> end
|  5>
|  6> * xyz 0 1
|  7> S 	 37.8811 	 14.83 	 79.014
|  8> C 	 37.1712 	 13.6861 	 77.8981
|  9> C 	 38.0054 	 13.6666 	 76.8293
| 10> C 	 39.1555 	 14.5567 	 76.8527
| 11> C 	 39.2999 	 15.1808 	 78.0843
| 12> H 	 39.8881 	 14.7102 	 76.102
| 13> C 	 37.7072 	 12.5975 	 75.7287
| 14> H 	 36.7464 	 12.8492 	 75.2386
| 15> H 	 37.5657 	 11.5746 	 76.1258
| 16> C 	 38.7993 	 12.4285 	 74.6309
| 17> H 	 38.7596 	 13.3785 	 74.2476
| 18> H 	 39.7857 	 12.3533 	 75.106
| 19> C 	 38.5112 	 11.3788 	 73.5074
| 20> H 	 38.7781 	 10.3667 	 73.832
| 21> H 	 37.4706 	 11.4169 	 73.1411
| 22> H 	 39.2093 	 11.5017 	 72.6769
| 23> S 	 39.9943 	 17.6838 	 79.1246
| 24> C 	 41.6735 	 18.1637 	 79.2721
| 25> C 	 42.4868 	 17.2446 	 78.6779
| 26> C 	 41.8046 	 16.0664 	 78.2123
| 27> C 	 40.3998 	 16.0265 	 78.5606
| 28> H 	 43.5552 	 17.468 	 78.4878
| 29> C 	 42.5885 	 14.9738 	 77.5268
| 30> H 	 42.0649 	 14.0001 	 77.6338
| 31> H 	 43.5254 	 14.8908 	 78.0782
| 32> C 	 42.9033 	 15.2774 	 76.0163
| 33> H 	 43.325 	 16.2789 	 76.0179
| 34> H 	 42.0372 	 15.3398 	 75.3379
| 35> C 	 43.9113 	 14.3961 	 75.3547
| 36> H 	 43.8808 	 13.3766 	 75.6508
| 37> H 	 44.9524 	 14.8114 	 75.5397
| 38> H 	 43.8811 	 14.3886 	 74.2221
| 39> H 	 36.3869 	 12.9973 	 78.0264
| 40> H 	 41.9774 	 19.1607 	 79.5773
| 41> *
| 42>
| 43>                          ****END OF INPUT****

CARTESIAN COORDINATES (ANGSTROEM)
---------------------------------
  S     37.881100   14.830000   79.014000
  C     37.171200   13.686100   77.898100
  C     38.005400   13.666600   76.829300
  C     39.155500   14.556700   76.852700
  C     39.299900   15.180800   78.084300
  H     39.888100   14.710200   76.102000
  C     37.707200   12.597500   75.728700
  H     36.746400   12.849200   75.238600
  H     37.565700   11.574600   76.125800
  C     38.799300   12.428500   74.630900
  H     38.759600   13.378500   74.247600
  H     39.785700   12.353300   75.106000
  C     38.511200   11.378800   73.507400
  H     38.778100   10.366700   73.832000
  H     37.470600   11.416900   73.141100
  H     39.209300   11.501700   72.676900
  S     39.994300   17.683800   79.124600
  C     41.673500   18.163700   79.272100
  C     42.486800   17.244600   78.677900
  C     41.804600   16.066400   78.212300
  C     40.399800   16.026500   78.560600
  H     43.555200   17.468000   78.487800
  C     42.588500   14.973800   77.526800
  H     42.064900   14.000100   77.633800
  H     43.525400   14.890800   78.078200
  C     42.903300   15.277400   76.016300
  H     43.325000   16.278900   76.017900
  H     42.037200   15.339800   75.337900
  C     43.911300   14.396100   75.354700
  H     43.880800   13.376600   75.650800
  H     44.952400   14.811400   75.539700
  H     43.881100   14.388600   74.222100
  H     36.386900   12.997300   78.026400
  H     41.977400   19.160700   79.577300

 Total Charge           Charge          ....    0
 Multiplicity           Mult            ....    1
 Number of Electrons    NEL             ....  134
 Basis Dimension        Dim             ....  322

ORBITAL ENERGIES
----------------

  NO   OCC          E(Eh)            E(eV)
   0   2.0000     -88.965602     -2420.8771
   1   2.0000     -88.962727     -2420.7989
   2   2.0000     -10.340276      -281.3732
   3   2.0000     -10.335392      -281.2403
   4   2.0000     -10.322642      -280.8934
   5   2.0000     -10.316456      -280.7250
   6   2.0000     -10.310062      -280.5511
   7   2.0000     -10.304669      -280.4043
   8   2.0000     -10.299892      -280.2743
   9   2.0000     -10.299266      -280.2573
  10   2.0000     -10.297974      -280.2221
  11   2.0000     -10.295106      -280.1441
  12   2.0000     -10.291416      -280.0437
  13   2.0000     -10.285864      -279.8926
  14   2.0000     -10.283946      -279.8404
  15   2.0000     -10.282143      -279.7913
  16   2.0000      -8.079727      -219.8605
  17   2.0000      -8.077843      -219.8093
  18   2.0000      -6.038339      -164.3116
  19   2.0000      -6.036407      -164.2590
  20   2.0000      -6.034339      -164.2027
  21   2.0000      -6.032105      -164.1419
  22   2.0000      -6.030360      -164.0944
  23   2.0000      -6.028646      -164.0478
  24   2.0000      -1.006308       -27.3830
  25   2.0000      -0.984210       -26.7817
  26   2.0000      -0.909984       -24.7619
  27   2.0000      -0.904499       -24.6127
  28   2.0000      -0.874293       -23.7907
  29   2.0000      -0.853101       -23.2141
  30   2.0000      -0.838016       -22.8036
  31   2.0000      -0.821391       -22.3512
  32   2.0000      -0.780423       -21.2364
  33   2.0000      -0.771211       -20.9857
  34   2.0000      -0.715592       -19.4722
  35   2.0000      -0.699318       -19.0294
  36   2.0000      -0.690961       -18.8020
  37   2.0000      -0.656877       -17.8745
  38   2.0000      -0.645038       -17.5524
  39   2.0000      -0.617925       -16.8146
  40   2.0000      -0.597352       -16.2548
  41   2.0000      -0.572201       -15.5704
  42   2.0000      -0.566272       -15.4090
  43   2.0000      -0.562773       -15.3138
  44   2.0000      -0.528740       -14.3877
  45   2.0000      -0.525940       -14.3116
  46   2.0000      -0.518171       -14.1002
  47   2.0000      -0.515060       -14.0155
  48   2.0000      -0.512009       -13.9325
  49   2.0000      -0.501672       -13.6512
  50   2.0000      -0.490077       -13.3357
  51   2.0000      -0.486673       -13.2431
  52   2.0000      -0.473315       -12.8796
  53   2.0000      -0.465500       -12.6669
  54   2.0000      -0.463524       -12.6131
  55   2.0000      -0.454060       -12.3556
  56   2.0000      -0.448016       -12.1911
  57   2.0000      -0.437153       -11.8956
  58   2.0000      -0.432740       -11.7755
  59   2.0000      -0.421214       -11.4618
  60   2.0000      -0.414301       -11.2737
  61   2.0000      -0.413144       -11.2422
  62   2.0000      -0.400258       -10.8916
  63   2.0000      -0.354361        -9.6427
  64   2.0000      -0.328013        -8.9257
  65   2.0000      -0.326899        -8.8954
  66   2.0000      -0.295251        -8.0342
  67   0.0000       0.019301         0.5252
  68   0.0000       0.068071         1.8523
  69   0.0000       0.106168         2.8890
  70   0.0000       0.125047         3.4027
  71   0.0000       0.127939         3.4814

MULLIKEN ATOMIC CHARGES
-----------------------
   0 S :    0.103207
   1 C :   -0.077903
   2 C :   -0.088743
   3 C :    0.046846
   4 C :   -0.145043
   5 H :   -0.020351
   6 C :   -0.002436
   7 H :    0.037121
   8 H :    0.034451
   9 C :   -0.080130
  10 H :    0.014242
  11 H :    0.032688
  12 C :   -0.032409
  13 H :    0.030339
  14 H :    0.042010
  15 H :    0.031131
  16 S :    0.085698
  17 C :   -0.079853
  18 C :   -0.035959
  19 C :   -0.062280
  20 C :   -0.103629
  21 H :    0.036052
  22 C :    0.043515
  23 H :    0.039729
  24 H :    0.029418
  25 C :   -0.074353
  26 H :    0.019911
  27 H :    0.039409
  28 C :   -0.065053
  29 H :    0.029903
  30 H :    0.033472
  31 H :    0.039290
  32 H :    0.035920
  33 H :    0.063788
Sum of atomic charges:   -0.0000000

LOEWDIN ATOMIC CHARGES
----------------------
   0 S :    0.414659
   1 C :   -0.187871
   2 C :   -0.062292
   3 C :   -0.067070
   4 C :   -0.197408
   5 H :    0.022622
   6 C :   -0.035544
   7 H :    0.030476
   8 H :    0.027043
   9 C :   -0.044922
  10 H :    0.010198
  11 H :    0.024663
  12 C :   -0.064645
  13 H :    0.025878
  14 H :    0.030246
  15 H :    0.028938
  16 S :    0.391121
  17 C :   -0.175609
  18 C :   -0.081208
  19 C :   -0.045004
  20 C :   -0.190746
  21 H :    0.039089
  22 C :   -0.033379
  23 H :    0.033733
  24 H :    0.033250
  25 C :   -0.046942
  26 H :    0.024749
  27 H :    0.024734
  28 C :   -0.074438
  29 H :    0.018345
  30 H :    0.031122
  31 H :    0.034460
  32 H :    0.028798
  33 H :    0.032954

  Mayer bond orders larger than 0.100000
B(  0-S ,  1-C ) :   1.1214 B(  0-S ,  4-C ) :   1.1697 B(  1-C ,  2-C ) :   1.6252
B(  1-C , 32-H ) :   0.9825 B(  2-C ,  3-C ) :   1.2327 B(  2-C ,  6-C ) :   0.9968
B(  3-C ,  4-C ) :   1.5451 B(  3-C ,  5-H ) :   1.0027 B(  4-C , 20-C ) :   1.0396
B(  6-C ,  7-H ) :   0.9439 B(  6-C ,  8-H ) :   0.9567 B(  6-C ,  9-C ) :   1.0715
B(  9-C , 10-H ) :   0.9503 B(  9-C , 11-H ) :   0.9570 B(  9-C , 12-C ) :   1.0766
B( 12-C , 13-H ) :   0.9754 B( 12-C , 14-H ) :   0.9750 B( 12-C , 15-H ) :   0.9736
B( 16-S , 17-C ) :   1.1649 B( 16-S , 20-C ) :   1.1334 B( 17-C , 18-C ) :   1.5919
B( 17-C , 20-C ) :   0.1023 B( 17-C , 33-H ) :   0.9662 B( 18-C , 19-C ) :   1.2617
B( 18-C , 21-H ) :   0.9827 B( 19-C , 20-C ) :   1.5543 B( 19-C , 22-C ) :   1.0516
B( 22-C , 23-H ) :   0.9379 B( 22-C , 24-H ) :   0.9415 B( 22-C , 25-C ) :   1.0466
B( 25-C , 26-H ) :   0.9566 B( 25-C , 27-H ) :   0.9544 B( 25-C , 28-C ) :   1.0818
B( 28-C , 29-H ) :   0.9748 B( 28-C , 30-H ) :   0.9763 B( 28-C , 31-H ) :   0.9740

Dispersion correction           -0.013948221
FINAL SINGLE POINT ENERGY     -1339.862040129668

DIPOLE MOMENT
-------------
                                X             Y             Z
Electronic contribution:    -12.54315      18.38098      25.92113
Nuclear contribution   :     13.07646     -18.62965     -26.59499
                        -----------------------------------------
Total Dipole Moment    :      0.53331      -0.24867      -0.67386
                        -----------------------------------------
Magnitude (a.u.)       :      0.89462
Magnitude (Debye)      :      2.27394

Rotational constants in cm-1:     0.016340     0.009519     0.006305
Rotational constants in MHz :   489.858143   285.384843   189.027659

                             ****ORCA TERMINATED NORMALLY****
TOTAL RUN TIME: 0 days 0 hours 0 minutes 29 seconds 993 msec
