                         Program Version 4.2.1 -  RELEASE  -
|  1> ! wB97X-D3 SP def2-SVP
|  2> %pal
|  3> nprocs 16
|  4> end
|  5>
|  6> * xyz 0 1
|  7> S 	 -15.325 	 -4.32644 	 78.2685
|  8> C 	 -13.6481 	 -4.11071 	 78.823
|  9> C 	 -13.3452 	 -5.0404 	 79.7323
| 10> C 	 -14.3771 	 -6.01303 	 79.8761
| 11> C 	 -15.5752 	 -5.7093 	 79.1909
| 12> H 	 -14.3272 	 -6.89703 	 80.5461
| 13> C 	 -11.9114 	 -5.17362 	 80.3047
| 14> H 	 -11.1806 	 -4.76159 	 79.6453
| 15> H 	 -11.8679 	 -6.23673 	 80.2933
| 16> C 	 -11.6931 	 -4.77194 	 81.7642
| 17> H 	 -11.6547 	 -3.64239 	 81.8663
| 18> H 	 -12.5401 	 -5.14118 	 82.3678
| 19> C 	 -10.4423 	 -5.39932 	 82.399
| 20> H 	 -9.5412 	 -5.13866 	 81.8054
| 21> H 	 -10.5247 	 -5.13941 	 83.4894
| 22> H 	 -10.5349 	 -6.47417 	 82.3821
| 23> S 	 -18.3269 	 -5.57315 	 79.688
| 24> C 	 -19.3833 	 -6.95642 	 79.1083
| 25> C 	 -18.5771 	 -7.86982 	 78.5416
| 26> C 	 -17.1432 	 -7.64641 	 78.7279
| 27> C 	 -16.8639 	 -6.38021 	 79.2204
| 28> H 	 -18.9703 	 -8.74677 	 78.0712
| 29> C 	 -16.0477 	 -8.55663 	 78.1562
| 30> H 	 -15.1599 	 -7.99824 	 78.1398
| 31> H 	 -16.3924 	 -8.82698 	 77.0843
| 32> C 	 -15.8351 	 -9.88348 	 78.9309
| 33> H 	 -15.1691 	 -10.4492 	 78.2708
| 34> H 	 -16.7068 	 -10.4814 	 79.1628
| 35> C 	 -15.0865 	 -9.53367 	 80.2528
| 36> H 	 -15.6709 	 -8.80758 	 80.8384
| 37> H 	 -14.1337 	 -9.03704 	 79.9831
| 38> H 	 -14.9765 	 -10.4935 	 80.7435
| 39> H 	 -13.0032 	 -3.25853 	 78.5564
| 40> H 	 -20.4898 	 -6.87414 	 79.0149
| 41> *
| 42>
| 43>                          ****END OF INPUT****

CARTESIAN COORDINATES (ANGSTROEM)
---------------------------------
  S    -15.325000   -4.326440   78.268500
  C    -13.648100   -4.110710   78.823000
  C    -13.345200   -5.040400   79.732300
  C    -14.377100   -6.013030   79.876100
  C    -15.575200   -5.709300   79.190900
  H    -14.327200   -6.897030   80.546100
  C    -11.911400   -5.173620   80.304700
  H    -11.180600   -4.761590   79.645300
  H    -11.867900   -6.236730   80.293300
  C    -11.693100   -4.771940   81.764200
  H    -11.654700   -3.642390   81.866300
  H    -12.540100   -5.141180   82.367800
  C    -10.442300   -5.399320   82.399000
  H     -9.541200   -5.138660   81.805400
  H    -10.524700   -5.139410   83.489400
  H    -10.534900   -6.474170   82.382100
  S    -18.326900   -5.573150   79.688000
  C    -19.383300   -6.956420   79.108300
  C    -18.577100   -7.869820   78.541600
  C    -17.143200   -7.646410   78.727900
  C    -16.863900   -6.380210   79.220400
  H    -18.970300   -8.746770   78.071200
  C    -16.047700   -8.556630   78.156200
  H    -15.159900   -7.998240   78.139800
  H    -16.392400   -8.826980   77.084300
  C    -15.835100   -9.883480   78.930900
  H    -15.169100  -10.449200   78.270800
  H    -16.706800  -10.481400   79.162800
  C    -15.086500   -9.533670   80.252800
  H    -15.670900   -8.807580   80.838400
  H    -14.133700   -9.037040   79.983100
  H    -14.976500  -10.493500   80.743500
  H    -13.003200   -3.258530   78.556400
  H    -20.489800   -6.874140   79.014900

 Total Charge           Charge          ....    0
 Multiplicity           Mult            ....    1
 Number of Electrons    NEL             ....  134
 Basis Dimension        Dim             ....  322

ORBITAL ENERGIES
----------------

  NO   OCC          E(Eh)            E(eV)
   0   2.0000     -88.964410     -2420.8447
   1   2.0000     -88.962060     -2420.7807
   2   2.0000     -10.330228      -281.0998
   3   2.0000     -10.327633      -281.0292
   4   2.0000     -10.326345      -280.9941
   5   2.0000     -10.311553      -280.5916
   6   2.0000     -10.304464      -280.3987
   7   2.0000     -10.298646      -280.2404
   8   2.0000     -10.298331      -280.2318
   9   2.0000     -10.297026      -280.1963
  10   2.0000     -10.292871      -280.0833
  11   2.0000     -10.291335      -280.0415
  12   2.0000     -10.290286      -280.0129
  13   2.0000     -10.287554      -279.9386
  14   2.0000     -10.284139      -279.8457
  15   2.0000     -10.279709      -279.7251
  16   2.0000      -8.080075      -219.8700
  17   2.0000      -8.076196      -219.7645
  18   2.0000      -6.038480      -164.3154
  19   2.0000      -6.034980      -164.2202
  20   2.0000      -6.034293      -164.2014
  21   2.0000      -6.031009      -164.1121
  22   2.0000      -6.030817      -164.1069
  23   2.0000      -6.026636      -163.9931
  24   2.0000      -1.011311       -27.5192
  25   2.0000      -0.984069       -26.7779
  26   2.0000      -0.914222       -24.8773
  27   2.0000      -0.905096       -24.6289
  28   2.0000      -0.876306       -23.8455
  29   2.0000      -0.846040       -23.0219
  30   2.0000      -0.839900       -22.8549
  31   2.0000      -0.816425       -22.2160
  32   2.0000      -0.784293       -21.3417
  33   2.0000      -0.767820       -20.8934
  34   2.0000      -0.707406       -19.2495
  35   2.0000      -0.695961       -18.9381
  36   2.0000      -0.692533       -18.8448
  37   2.0000      -0.655791       -17.8450
  38   2.0000      -0.639633       -17.4053
  39   2.0000      -0.619909       -16.8686
  40   2.0000      -0.596671       -16.2362
  41   2.0000      -0.570898       -15.5349
  42   2.0000      -0.563667       -15.3382
  43   2.0000      -0.548075       -14.9139
  44   2.0000      -0.542714       -14.7680
  45   2.0000      -0.531619       -14.4661
  46   2.0000      -0.524864       -14.2823
  47   2.0000      -0.511705       -13.9242
  48   2.0000      -0.506417       -13.7803
  49   2.0000      -0.500979       -13.6323
  50   2.0000      -0.490252       -13.3404
  51   2.0000      -0.477259       -12.9869
  52   2.0000      -0.468981       -12.7616
  53   2.0000      -0.466477       -12.6935
  54   2.0000      -0.463925       -12.6241
  55   2.0000      -0.446837       -12.1591
  56   2.0000      -0.440508       -11.9868
  57   2.0000      -0.437240       -11.8979
  58   2.0000      -0.435471       -11.8498
  59   2.0000      -0.423751       -11.5309
  60   2.0000      -0.415706       -11.3119
  61   2.0000      -0.409706       -11.1487
  62   2.0000      -0.406796       -11.0695
  63   2.0000      -0.347456        -9.4547
  64   2.0000      -0.335715        -9.1353
  65   2.0000      -0.322777        -8.7832
  66   2.0000      -0.300106        -8.1663
  67   0.0000       0.033441         0.9100
  68   0.0000       0.068111         1.8534
  69   0.0000       0.111126         3.0239
  70   0.0000       0.117682         3.2023
  71   0.0000       0.125494         3.4149

MULLIKEN ATOMIC CHARGES
-----------------------
   0 S :    0.117429
   1 C :   -0.152185
   2 C :   -0.058130
   3 C :    0.014267
   4 C :   -0.178278
   5 H :    0.008809
   6 C :    0.087934
   7 H :    0.022593
   8 H :    0.008064
   9 C :   -0.100552
  10 H :    0.040109
  11 H :    0.029979
  12 C :   -0.054896
  13 H :    0.043554
  14 H :    0.049344
  15 H :    0.023086
  16 S :    0.083858
  17 C :   -0.105293
  18 C :   -0.001470
  19 C :   -0.059997
  20 C :   -0.139265
  21 H :    0.016860
  22 C :    0.046582
  23 H :    0.021137
  24 H :    0.041783
  25 C :   -0.063714
  26 H :    0.030971
  27 H :    0.034007
  28 C :   -0.076566
  29 H :    0.054976
  30 H :    0.035759
  31 H :    0.039751
  32 H :    0.057463
  33 H :    0.082032
Sum of atomic charges:   -0.0000000

LOEWDIN ATOMIC CHARGES
----------------------
   0 S :    0.429844
   1 C :   -0.192481
   2 C :   -0.066678
   3 C :   -0.077441
   4 C :   -0.212837
   5 H :    0.031391
   6 C :   -0.023574
   7 H :    0.025829
   8 H :    0.028113
   9 C :   -0.047216
  10 H :    0.026984
  11 H :    0.026463
  12 C :   -0.069748
  13 H :    0.028679
  14 H :    0.037854
  15 H :    0.019618
  16 S :    0.368169
  17 C :   -0.162657
  18 C :   -0.063838
  19 C :   -0.056214
  20 C :   -0.208831
  21 H :    0.029461
  22 C :   -0.028103
  23 H :    0.021024
  24 H :    0.038392
  25 C :   -0.035958
  26 H :    0.024594
  27 H :    0.020902
  28 C :   -0.066167
  29 H :    0.025832
  30 H :    0.023832
  31 H :    0.025783
  32 H :    0.035694
  33 H :    0.043288

  Mayer bond orders larger than 0.100000
B(  0-S ,  1-C ) :   1.1289 B(  0-S ,  4-C ) :   1.1904 B(  1-C ,  2-C ) :   1.6206
B(  1-C , 32-H ) :   0.9673 B(  2-C ,  3-C ) :   1.2615 B(  2-C ,  6-C ) :   0.9976
B(  3-C ,  4-C ) :   1.5397 B(  3-C ,  5-H ) :   0.9818 B(  4-C , 20-C ) :   1.0317
B(  6-C ,  7-H ) :   0.9494 B(  6-C ,  8-H ) :   0.9386 B(  6-C ,  9-C ) :   1.0634
B(  9-C , 10-H ) :   0.9544 B(  9-C , 11-H ) :   0.9562 B(  9-C , 12-C ) :   1.0799
B( 12-C , 13-H ) :   0.9746 B( 12-C , 14-H ) :   0.9734 B( 12-C , 15-H ) :   0.9749
B( 16-S , 17-C ) :   1.1088 B( 16-S , 20-C ) :   1.1350 B( 17-C , 18-C ) :   1.6579
B( 17-C , 33-H ) :   0.9626 B( 18-C , 19-C ) :   1.2135 B( 18-C , 21-H ) :   0.9870
B( 19-C , 20-C ) :   1.5976 B( 19-C , 22-C ) :   1.0503 B( 22-C , 23-H ) :   0.9327
B( 22-C , 24-H ) :   0.9395 B( 22-C , 25-C ) :   1.0579 B( 25-C , 26-H ) :   0.9557
B( 25-C , 27-H ) :   0.9629 B( 25-C , 28-C ) :   1.0679 B( 28-C , 29-H ) :   0.9731
B( 28-C , 30-H ) :   0.9706 B( 28-C , 31-H ) :   0.9701

Dispersion correction           -0.014753813
FINAL SINGLE POINT ENERGY     -1339.871956237183

DIPOLE MOMENT
-------------
                                X             Y             Z
Electronic contribution:    -22.50785      14.54309     -10.50115
Nuclear contribution   :     22.85015     -15.04606      10.44315
                        -----------------------------------------
Total Dipole Moment    :      0.34230      -0.50297      -0.05800
                        -----------------------------------------
Magnitude (a.u.)       :      0.61116
Magnitude (Debye)      :      1.55343

Rotational constants in cm-1:     0.020318     0.008293     0.006785
Rotational constants in MHz :   609.123956   248.631967   203.407248

                             ****ORCA TERMINATED NORMALLY****
TOTAL RUN TIME: 0 days 0 hours 0 minutes 35 seconds 18 msec
