                         Program Version 4.2.1 -  RELEASE  -
|  1> ! wB97X-D3 SP def2-SVP
|  2> %pal
|  3> nprocs 16
|  4> end
|  5>
|  6> * xyz 0 1
|  7> S 	 44.1439 	 11.5867 	 53.292
|  8> C 	 43.2738 	 11.0368 	 51.8597
|  9> C 	 44.0725 	 10.5275 	 50.8979
| 10> C 	 45.429 	 10.7958 	 51.277
| 11> C 	 45.6879 	 11.3781 	 52.5418
| 12> H 	 46.3049 	 10.6676 	 50.6207
| 13> C 	 43.6351 	 10.0295 	 49.5043
| 14> H 	 42.5736 	 9.9665 	 49.434
| 15> H 	 44.1126 	 9.02673 	 49.4032
| 16> C 	 44.2246 	 10.8753 	 48.3636
| 17> H 	 45.2946 	 11.0007 	 48.5707
| 18> H 	 44.2867 	 10.3428 	 47.424
| 19> C 	 43.6396 	 12.2343 	 48.2371
| 20> H 	 43.713 	 12.7045 	 49.238
| 21> H 	 44.2147 	 12.8224 	 47.4856
| 22> H 	 42.5842 	 12.3204 	 47.9017
| 23> S 	 48.1978 	 10.4169 	 53.086
| 24> C 	 49.353 	 11.4757 	 53.8321
| 25> C 	 48.8525 	 12.7527 	 53.8963
| 26> C 	 47.4863 	 12.8539 	 53.5356
| 27> C 	 46.9438 	 11.6762 	 53.1439
| 28> H 	 49.5787 	 13.3905 	 54.3312
| 29> C 	 46.8404 	 14.271 	 53.5594
| 30> H 	 47.4301 	 14.9439 	 54.2172
| 31> H 	 45.8656 	 14.163 	 54.1189
| 32> C 	 46.5404 	 14.859 	 52.1368
| 33> H 	 46.5046 	 15.9444 	 52.2248
| 34> H 	 45.6787 	 14.4511 	 51.7596
| 35> C 	 47.5915 	 14.785 	 51.0334
| 36> H 	 47.415 	 15.5444 	 50.256
| 37> H 	 47.7474 	 13.7514 	 50.6577
| 38> H 	 48.5306 	 15.0724 	 51.4877
| 39> H 	 42.1938 	 10.8934 	 51.8916
| 40> H 	 50.3788 	 11.1658 	 53.9956
| 41> *
| 42>
| 43>                          ****END OF INPUT****

CARTESIAN COORDINATES (ANGSTROEM)
---------------------------------
  S     44.143900   11.586700   53.292000
  C     43.273800   11.036800   51.859700
  C     44.072500   10.527500   50.897900
  C     45.429000   10.795800   51.277000
  C     45.687900   11.378100   52.541800
  H     46.304900   10.667600   50.620700
  C     43.635100   10.029500   49.504300
  H     42.573600    9.966500   49.434000
  H     44.112600    9.026730   49.403200
  C     44.224600   10.875300   48.363600
  H     45.294600   11.000700   48.570700
  H     44.286700   10.342800   47.424000
  C     43.639600   12.234300   48.237100
  H     43.713000   12.704500   49.238000
  H     44.214700   12.822400   47.485600
  H     42.584200   12.320400   47.901700
  S     48.197800   10.416900   53.086000
  C     49.353000   11.475700   53.832100
  C     48.852500   12.752700   53.896300
  C     47.486300   12.853900   53.535600
  C     46.943800   11.676200   53.143900
  H     49.578700   13.390500   54.331200
  C     46.840400   14.271000   53.559400
  H     47.430100   14.943900   54.217200
  H     45.865600   14.163000   54.118900
  C     46.540400   14.859000   52.136800
  H     46.504600   15.944400   52.224800
  H     45.678700   14.451100   51.759600
  C     47.591500   14.785000   51.033400
  H     47.415000   15.544400   50.256000
  H     47.747400   13.751400   50.657700
  H     48.530600   15.072400   51.487700
  H     42.193800   10.893400   51.891600
  H     50.378800   11.165800   53.995600

 Total Charge           Charge          ....    0
 Multiplicity           Mult            ....    1
 Number of Electrons    NEL             ....  134
 Basis Dimension        Dim             ....  322

ORBITAL ENERGIES
----------------

  NO   OCC          E(Eh)            E(eV)
   0   2.0000     -88.965259     -2420.8678
   1   2.0000     -88.963569     -2420.8218
   2   2.0000     -10.329884      -281.0904
   3   2.0000     -10.325434      -280.9693
   4   2.0000     -10.316153      -280.7168
   5   2.0000     -10.312861      -280.6272
   6   2.0000     -10.306129      -280.4440
   7   2.0000     -10.302900      -280.3562
   8   2.0000     -10.301826      -280.3269
   9   2.0000     -10.298908      -280.2475
  10   2.0000     -10.297399      -280.2065
  11   2.0000     -10.289893      -280.0022
  12   2.0000     -10.283595      -279.8308
  13   2.0000     -10.277206      -279.6570
  14   2.0000     -10.277182      -279.6563
  15   2.0000     -10.273053      -279.5440
  16   2.0000      -8.080020      -219.8685
  17   2.0000      -8.078404      -219.8246
  18   2.0000      -6.038555      -164.3174
  19   2.0000      -6.036887      -164.2721
  20   2.0000      -6.034444      -164.2056
  21   2.0000      -6.032868      -164.1627
  22   2.0000      -6.030830      -164.1072
  23   2.0000      -6.029212      -164.0632
  24   2.0000      -1.010709       -27.5028
  25   2.0000      -0.988242       -26.8914
  26   2.0000      -0.916734       -24.9456
  27   2.0000      -0.901605       -24.5339
  28   2.0000      -0.876824       -23.8596
  29   2.0000      -0.850358       -23.1394
  30   2.0000      -0.843568       -22.9547
  31   2.0000      -0.810479       -22.0543
  32   2.0000      -0.786123       -21.3915
  33   2.0000      -0.777295       -21.1513
  34   2.0000      -0.714585       -19.4448
  35   2.0000      -0.694023       -18.8853
  36   2.0000      -0.686085       -18.6693
  37   2.0000      -0.667050       -18.1513
  38   2.0000      -0.636405       -17.3175
  39   2.0000      -0.619542       -16.8586
  40   2.0000      -0.587597       -15.9893
  41   2.0000      -0.572502       -15.5786
  42   2.0000      -0.563385       -15.3305
  43   2.0000      -0.557184       -15.1618
  44   2.0000      -0.541976       -14.7479
  45   2.0000      -0.534424       -14.5424
  46   2.0000      -0.521317       -14.1857
  47   2.0000      -0.516678       -14.0595
  48   2.0000      -0.504263       -13.7217
  49   2.0000      -0.489881       -13.3303
  50   2.0000      -0.484528       -13.1847
  51   2.0000      -0.479729       -13.0541
  52   2.0000      -0.470303       -12.7976
  53   2.0000      -0.468514       -12.7489
  54   2.0000      -0.459722       -12.5097
  55   2.0000      -0.443002       -12.0547
  56   2.0000      -0.439570       -11.9613
  57   2.0000      -0.438368       -11.9286
  58   2.0000      -0.431706       -11.7473
  59   2.0000      -0.426702       -11.6111
  60   2.0000      -0.417892       -11.3714
  61   2.0000      -0.407993       -11.1021
  62   2.0000      -0.403290       -10.9741
  63   2.0000      -0.348594        -9.4857
  64   2.0000      -0.333642        -9.0789
  65   2.0000      -0.330107        -8.9827
  66   2.0000      -0.296383        -8.0650
  67   0.0000       0.028985         0.7887
  68   0.0000       0.068634         1.8676
  69   0.0000       0.108247         2.9456
  70   0.0000       0.122423         3.3313
  71   0.0000       0.128971         3.5095

MULLIKEN ATOMIC CHARGES
-----------------------
   0 S :    0.106955
   1 C :   -0.140727
   2 C :   -0.073729
   3 C :   -0.021524
   4 C :   -0.165994
   5 H :    0.017982
   6 C :    0.102609
   7 H :    0.017636
   8 H :    0.041889
   9 C :   -0.074043
  10 H :    0.020849
  11 H :    0.023223
  12 C :   -0.064963
  13 H :    0.045707
  14 H :    0.036337
  15 H :    0.032656
  16 S :    0.102947
  17 C :   -0.108561
  18 C :   -0.034037
  19 C :   -0.007017
  20 C :   -0.154646
  21 H :    0.010203
  22 C :    0.062041
  23 H :    0.025897
  24 H :    0.040516
  25 C :   -0.040836
  26 H :    0.026161
  27 H :    0.024970
  28 C :   -0.057434
  29 H :    0.040323
  30 H :    0.040873
  31 H :    0.009545
  32 H :    0.052597
  33 H :    0.061598
Sum of atomic charges:   -0.0000000

LOEWDIN ATOMIC CHARGES
----------------------
   0 S :    0.409005
   1 C :   -0.192072
   2 C :   -0.067888
   3 C :   -0.072748
   4 C :   -0.204951
   5 H :    0.024650
   6 C :   -0.018320
   7 H :    0.024078
   8 H :    0.042148
   9 C :   -0.048903
  10 H :    0.027165
  11 H :    0.022164
  12 C :   -0.072591
  13 H :    0.031732
  14 H :    0.030489
  15 H :    0.024589
  16 S :    0.402861
  17 C :   -0.179734
  18 C :   -0.075752
  19 C :   -0.051260
  20 C :   -0.197225
  21 H :    0.029745
  22 C :   -0.030402
  23 H :    0.031181
  24 H :    0.037856
  25 C :   -0.034309
  26 H :    0.029790
  27 H :    0.012358
  28 C :   -0.066889
  29 H :    0.030317
  30 H :    0.025673
  31 H :    0.019559
  32 H :    0.027807
  33 H :    0.029876

  Mayer bond orders larger than 0.100000
B(  0-S ,  1-C ) :   1.1450 B(  0-S ,  4-C ) :   1.1461 B(  1-C ,  2-C ) :   1.6182
B(  1-C , 32-H ) :   0.9599 B(  2-C ,  3-C ) :   1.2308 B(  2-C ,  6-C ) :   1.0250
B(  3-C ,  4-C ) :   1.5795 B(  3-C ,  5-H ) :   0.9821 B(  4-C , 20-C ) :   1.0673
B(  6-C ,  7-H ) :   0.9489 B(  6-C ,  8-H ) :   0.9280 B(  6-C ,  9-C ) :   1.0748
B(  9-C , 10-H ) :   0.9488 B(  9-C , 11-H ) :   0.9518 B(  9-C , 12-C ) :   1.0800
B( 12-C , 13-H ) :   0.9726 B( 12-C , 14-H ) :   0.9708 B( 12-C , 15-H ) :   0.9737
B( 16-S , 17-C ) :   1.1653 B( 16-S , 20-C ) :   1.1272 B( 17-C , 18-C ) :   1.6146
B( 17-C , 33-H ) :   0.9663 B( 18-C , 19-C ) :   1.2178 B( 18-C , 21-H ) :   1.0010
B( 19-C , 20-C ) :   1.5967 B( 19-C , 22-C ) :   1.0280 B( 22-C , 23-H ) :   0.9410
B( 22-C , 24-H ) :   0.9381 B( 22-C , 25-C ) :   1.0611 B( 25-C , 26-H ) :   0.9587
B( 25-C , 27-H ) :   0.9589 B( 25-C , 28-C ) :   1.0821 B( 28-C , 29-H ) :   0.9759
B( 28-C , 30-H ) :   0.9695 B( 28-C , 31-H ) :   0.9747

Dispersion correction           -0.015818582
FINAL SINGLE POINT ENERGY     -1339.875101975210

DIPOLE MOMENT
-------------
                                X             Y             Z
Electronic contribution:      3.68788     -13.43645      19.68599
Nuclear contribution   :     -3.52629      13.70227     -20.08075
                        -----------------------------------------
Total Dipole Moment    :      0.16160       0.26582      -0.39476
                        -----------------------------------------
Magnitude (a.u.)       :      0.50260
Magnitude (Debye)      :      1.27750

Rotational constants in cm-1:     0.019587     0.009190     0.008366
Rotational constants in MHz :   587.199363   275.507224   250.800400

                             ****ORCA TERMINATED NORMALLY****
TOTAL RUN TIME: 0 days 0 hours 0 minutes 34 seconds 701 msec
