                         Program Version 4.2.1 -  RELEASE  -
|  1> ! wB97X-D3 SP def2-SVP
|  2> %pal
|  3> nprocs 16
|  4> end
|  5>
|  6> * xyz 0 1
|  7> S 	 47.8839 	 14.427 	 81.793
|  8> C 	 47.7712 	 16.0613 	 82.2252
|  9> C 	 49.0327 	 16.6348 	 82.3615
| 10> C 	 50.0874 	 15.7767 	 81.9129
| 11> C 	 49.6236 	 14.5051 	 81.6785
| 12> H 	 51.2245 	 15.8481 	 81.8492
| 13> C 	 49.3001 	 18.1087 	 82.7726
| 14> H 	 48.4698 	 18.6393 	 82.2588
| 15> H 	 50.1749 	 18.2923 	 82.0812
| 16> C 	 49.471 	 18.308 	 84.2991
| 17> H 	 50.2727 	 17.6279 	 84.7085
| 18> H 	 49.7221 	 19.3067 	 84.4575
| 19> C 	 48.1438 	 17.9212 	 85.0164
| 20> H 	 48.1682 	 18.2602 	 86.036
| 21> H 	 47.3583 	 18.4355 	 84.5506
| 22> H 	 48.0428 	 16.8097 	 84.9133
| 23> S 	 50.0243 	 12.285 	 83.1362
| 24> C 	 51.4717 	 11.2789 	 82.8438
| 25> C 	 52.2774 	 11.7915 	 81.8281
| 26> C 	 51.7131 	 12.9849 	 81.2223
| 27> C 	 50.4943 	 13.3233 	 81.8648
| 28> H 	 53.1855 	 11.2779 	 81.5627
| 29> C 	 52.3019 	 13.789 	 80.0559
| 30> H 	 51.8085 	 14.7931 	 80.0808
| 31> H 	 52.0733 	 13.1856 	 79.2046
| 32> C 	 53.7725 	 14.1379 	 80.0917
| 33> H 	 54.1402 	 14.3955 	 79.0766
| 34> H 	 54.3186 	 13.1646 	 80.3591
| 35> C 	 54.2071 	 15.2097 	 81.1233
| 36> H 	 54.2174 	 14.839 	 82.2458
| 37> H 	 53.5642 	 16.0753 	 80.8993
| 38> H 	 55.2461 	 15.5399 	 80.8647
| 39> H 	 46.8583 	 16.6822 	 82.3109
| 40> H 	 51.6872 	 10.3741 	 83.3831
| 41> *
| 42>
| 43>                          ****END OF INPUT****

CARTESIAN COORDINATES (ANGSTROEM)
---------------------------------
  S     47.883900   14.427000   81.793000
  C     47.771200   16.061300   82.225200
  C     49.032700   16.634800   82.361500
  C     50.087400   15.776700   81.912900
  C     49.623600   14.505100   81.678500
  H     51.224500   15.848100   81.849200
  C     49.300100   18.108700   82.772600
  H     48.469800   18.639300   82.258800
  H     50.174900   18.292300   82.081200
  C     49.471000   18.308000   84.299100
  H     50.272700   17.627900   84.708500
  H     49.722100   19.306700   84.457500
  C     48.143800   17.921200   85.016400
  H     48.168200   18.260200   86.036000
  H     47.358300   18.435500   84.550600
  H     48.042800   16.809700   84.913300
  S     50.024300   12.285000   83.136200
  C     51.471700   11.278900   82.843800
  C     52.277400   11.791500   81.828100
  C     51.713100   12.984900   81.222300
  C     50.494300   13.323300   81.864800
  H     53.185500   11.277900   81.562700
  C     52.301900   13.789000   80.055900
  H     51.808500   14.793100   80.080800
  H     52.073300   13.185600   79.204600
  C     53.772500   14.137900   80.091700
  H     54.140200   14.395500   79.076600
  H     54.318600   13.164600   80.359100
  C     54.207100   15.209700   81.123300
  H     54.217400   14.839000   82.245800
  H     53.564200   16.075300   80.899300
  H     55.246100   15.539900   80.864700
  H     46.858300   16.682200   82.310900
  H     51.687200   10.374100   83.383100

 Total Charge           Charge          ....    0
 Multiplicity           Mult            ....    1
 Number of Electrons    NEL             ....  134
 Basis Dimension        Dim             ....  322

ORBITAL ENERGIES
----------------

  NO   OCC          E(Eh)            E(eV)
   0   2.0000     -88.968251     -2420.9492
   1   2.0000     -88.967076     -2420.9172
   2   2.0000     -10.326181      -280.9897
   3   2.0000     -10.324392      -280.9410
   4   2.0000     -10.316214      -280.7184
   5   2.0000     -10.313712      -280.6504
   6   2.0000     -10.305615      -280.4300
   7   2.0000     -10.302844      -280.3546
   8   2.0000     -10.298384      -280.2333
   9   2.0000     -10.298138      -280.2266
  10   2.0000     -10.298075      -280.2249
  11   2.0000     -10.294994      -280.1410
  12   2.0000     -10.294762      -280.1347
  13   2.0000     -10.292353      -280.0692
  14   2.0000     -10.289453      -279.9903
  15   2.0000     -10.273531      -279.5570
  16   2.0000      -8.083767      -219.9705
  17   2.0000      -8.081757      -219.9158
  18   2.0000      -6.042125      -164.4146
  19   2.0000      -6.040178      -164.3616
  20   2.0000      -6.038096      -164.3049
  21   2.0000      -6.036336      -164.2570
  22   2.0000      -6.034707      -164.2127
  23   2.0000      -6.032541      -164.1538
  24   2.0000      -1.010608       -27.5001
  25   2.0000      -0.981735       -26.7144
  26   2.0000      -0.909018       -24.7356
  27   2.0000      -0.905833       -24.6490
  28   2.0000      -0.867859       -23.6156
  29   2.0000      -0.851140       -23.1607
  30   2.0000      -0.842040       -22.9131
  31   2.0000      -0.811821       -22.0908
  32   2.0000      -0.778137       -21.1742
  33   2.0000      -0.768875       -20.9221
  34   2.0000      -0.703754       -19.1501
  35   2.0000      -0.693297       -18.8656
  36   2.0000      -0.689466       -18.7613
  37   2.0000      -0.653970       -17.7954
  38   2.0000      -0.638977       -17.3875
  39   2.0000      -0.610845       -16.6219
  40   2.0000      -0.590583       -16.0706
  41   2.0000      -0.568341       -15.4654
  42   2.0000      -0.561915       -15.2905
  43   2.0000      -0.547927       -14.9099
  44   2.0000      -0.540863       -14.7176
  45   2.0000      -0.537529       -14.6269
  46   2.0000      -0.518237       -14.1020
  47   2.0000      -0.508490       -13.8367
  48   2.0000      -0.499965       -13.6047
  49   2.0000      -0.487281       -13.2596
  50   2.0000      -0.481399       -13.0995
  51   2.0000      -0.476216       -12.9585
  52   2.0000      -0.466826       -12.7030
  53   2.0000      -0.463436       -12.6107
  54   2.0000      -0.461796       -12.5661
  55   2.0000      -0.447340       -12.1727
  56   2.0000      -0.443090       -12.0571
  57   2.0000      -0.441855       -12.0235
  58   2.0000      -0.439451       -11.9581
  59   2.0000      -0.422398       -11.4940
  60   2.0000      -0.419226       -11.4077
  61   2.0000      -0.410781       -11.1779
  62   2.0000      -0.406851       -11.0710
  63   2.0000      -0.352896        -9.6028
  64   2.0000      -0.331101        -9.0097
  65   2.0000      -0.326080        -8.8731
  66   2.0000      -0.285449        -7.7675
  67   0.0000       0.033823         0.9204
  68   0.0000       0.069026         1.8783
  69   0.0000       0.112495         3.0612
  70   0.0000       0.116454         3.1689
  71   0.0000       0.127068         3.4577

MULLIKEN ATOMIC CHARGES
-----------------------
   0 S :    0.121353
   1 C :   -0.114176
   2 C :   -0.154076
   3 C :    0.031519
   4 C :   -0.169523
   5 H :    0.040836
   6 C :    0.016771
   7 H :    0.032812
   8 H :    0.034872
   9 C :   -0.027806
  10 H :    0.044733
  11 H :    0.023843
  12 C :   -0.050871
  13 H :    0.033614
  14 H :    0.011718
  15 H :    0.063108
  16 S :    0.115668
  17 C :   -0.106805
  18 C :   -0.027468
  19 C :   -0.070599
  20 C :   -0.156157
  21 H :    0.020440
  22 C :    0.095710
  23 H :    0.020220
  24 H :    0.041591
  25 C :   -0.110473
  26 H :    0.037641
  27 H :    0.027301
  28 C :   -0.092671
  29 H :    0.073498
  30 H :    0.036914
  31 H :    0.042639
  32 H :    0.062296
  33 H :    0.051532
Sum of atomic charges:   -0.0000000

LOEWDIN ATOMIC CHARGES
----------------------
   0 S :    0.430395
   1 C :   -0.225836
   2 C :   -0.069448
   3 C :   -0.070016
   4 C :   -0.206845
   5 H :    0.045465
   6 C :   -0.040503
   7 H :    0.031342
   8 H :    0.035862
   9 C :   -0.031437
  10 H :    0.034718
  11 H :    0.013911
  12 C :   -0.059618
  13 H :    0.024175
  14 H :    0.012801
  15 H :    0.036510
  16 S :    0.413548
  17 C :   -0.183178
  18 C :   -0.065384
  19 C :   -0.066766
  20 C :   -0.204739
  21 H :    0.030321
  22 C :   -0.034605
  23 H :    0.032512
  24 H :    0.035671
  25 C :   -0.052696
  26 H :    0.028645
  27 H :    0.024095
  28 C :   -0.081521
  29 H :    0.045783
  30 H :    0.022013
  31 H :    0.032172
  32 H :    0.038295
  33 H :    0.024359

  Mayer bond orders larger than 0.100000
B(  0-S ,  1-C ) :   1.1480 B(  0-S ,  4-C ) :   1.1632 B(  1-C ,  2-C ) :   1.5890
B(  1-C , 32-H ) :   0.9641 B(  2-C ,  3-C ) :   1.2755 B(  2-C ,  6-C ) :   0.9835
B(  3-C ,  4-C ) :   1.5544 B(  3-C ,  5-H ) :   0.9658 B(  4-C , 20-C ) :   1.0132
B(  6-C ,  7-H ) :   0.9527 B(  6-C ,  8-H ) :   0.9512 B(  6-C ,  9-C ) :   1.0465
B(  9-C , 10-H ) :   0.9582 B(  9-C , 11-H ) :   0.9592 B(  9-C , 12-C ) :   1.0740
B( 12-C , 13-H ) :   0.9729 B( 12-C , 14-H ) :   0.9767 B( 12-C , 15-H ) :   0.9717
B( 16-S , 17-C ) :   1.1376 B( 16-S , 20-C ) :   1.1682 B( 17-C , 18-C ) :   1.6218
B( 17-C , 33-H ) :   0.9701 B( 18-C , 19-C ) :   1.2304 B( 18-C , 21-H ) :   0.9898
B( 19-C , 20-C ) :   1.5847 B( 19-C , 22-C ) :   1.0264 B( 22-C , 23-H ) :   0.9354
B( 22-C , 24-H ) :   0.9275 B( 22-C , 25-C ) :   1.0784 B( 25-C , 26-H ) :   0.9547
B( 25-C , 27-H ) :   0.9505 B( 25-C , 28-C ) :   1.0699 B( 28-C , 29-H ) :   0.9710
B( 28-C , 30-H ) :   0.9666 B( 28-C , 31-H ) :   0.9715

Dispersion correction           -0.014973129
FINAL SINGLE POINT ENERGY     -1339.860575573418

DIPOLE MOMENT
-------------
                                X             Y             Z
Electronic contribution:    -14.20822     -18.70645      -1.15707
Nuclear contribution   :     14.63598      19.10756       1.14010
                        -----------------------------------------
Total Dipole Moment    :      0.42776       0.40111      -0.01696
                        -----------------------------------------
Magnitude (a.u.)       :      0.58665
Magnitude (Debye)      :      1.49114

Rotational constants in cm-1:     0.018945     0.009086     0.007417
Rotational constants in MHz :   567.950196   272.379113   222.344586

                             ****ORCA TERMINATED NORMALLY****
TOTAL RUN TIME: 0 days 0 hours 0 minutes 30 seconds 680 msec
