                         Program Version 4.2.1 -  RELEASE  -
|  1> ! wB97X-D3 SP def2-SVP
|  2> %pal
|  3> nprocs 16
|  4> end
|  5>
|  6> * xyz 0 1
|  7> S 	 -57.345 	 41.2929 	 114.112
|  8> C 	 -58.1851 	 41.0553 	 112.631
|  9> C 	 -57.5078 	 40.4043 	 111.649
| 10> C 	 -56.2639 	 39.9177 	 112.187
| 11> C 	 -56.0353 	 40.398 	 113.453
| 12> H 	 -55.5813 	 39.2865 	 111.699
| 13> C 	 -57.9188 	 40.2653 	 110.195
| 14> H 	 -58.5292 	 41.1321 	 110.031
| 15> H 	 -58.5888 	 39.3869 	 110.095
| 16> C 	 -56.8201 	 40.1094 	 109.131
| 17> H 	 -56.2649 	 41.0896 	 109.034
| 18> H 	 -56.0561 	 39.3629 	 109.415
| 19> C 	 -57.3432 	 39.8604 	 107.706
| 20> H 	 -58.2143 	 39.2506 	 107.735
| 21> H 	 -57.4493 	 40.8287 	 107.084
| 22> H 	 -56.6825 	 39.2727 	 107.11
| 23> S 	 -54.3073 	 41.5514 	 115.311
| 24> C 	 -52.9508 	 40.6226 	 115.95
| 25> C 	 -53.0265 	 39.3328 	 115.543
| 26> C 	 -54.0722 	 39.0559 	 114.617
| 27> C 	 -54.8624 	 40.1299 	 114.347
| 28> H 	 -52.2291 	 38.6694 	 115.824
| 29> C 	 -54.2597 	 37.6284 	 114.114
| 30> H 	 -53.2627 	 37.2873 	 113.68
| 31> H 	 -54.7481 	 37.6285 	 113.178
| 32> C 	 -55.1058 	 36.7436 	 115.104
| 33> H 	 -54.6903 	 37.014 	 116.098
| 34> H 	 -55.0897 	 35.6518 	 115.118
| 35> C 	 -56.5974 	 37.067 	 115.025
| 36> H 	 -56.6872 	 38.1385 	 115.248
| 37> H 	 -57.2784 	 36.5684 	 115.776
| 38> H 	 -57.0839 	 36.8021 	 114.127
| 39> H 	 -59.2415 	 41.3402 	 112.511
| 40> H 	 -52.177 	 41.094 	 116.474
| 41> *
| 42>
| 43>                          ****END OF INPUT****

CARTESIAN COORDINATES (ANGSTROEM)
---------------------------------
  S    -57.345000   41.292900  114.112000
  C    -58.185100   41.055300  112.631000
  C    -57.507800   40.404300  111.649000
  C    -56.263900   39.917700  112.187000
  C    -56.035300   40.398000  113.453000
  H    -55.581300   39.286500  111.699000
  C    -57.918800   40.265300  110.195000
  H    -58.529200   41.132100  110.031000
  H    -58.588800   39.386900  110.095000
  C    -56.820100   40.109400  109.131000
  H    -56.264900   41.089600  109.034000
  H    -56.056100   39.362900  109.415000
  C    -57.343200   39.860400  107.706000
  H    -58.214300   39.250600  107.735000
  H    -57.449300   40.828700  107.084000
  H    -56.682500   39.272700  107.110000
  S    -54.307300   41.551400  115.311000
  C    -52.950800   40.622600  115.950000
  C    -53.026500   39.332800  115.543000
  C    -54.072200   39.055900  114.617000
  C    -54.862400   40.129900  114.347000
  H    -52.229100   38.669400  115.824000
  C    -54.259700   37.628400  114.114000
  H    -53.262700   37.287300  113.680000
  H    -54.748100   37.628500  113.178000
  C    -55.105800   36.743600  115.104000
  H    -54.690300   37.014000  116.098000
  H    -55.089700   35.651800  115.118000
  C    -56.597400   37.067000  115.025000
  H    -56.687200   38.138500  115.248000
  H    -57.278400   36.568400  115.776000
  H    -57.083900   36.802100  114.127000
  H    -59.241500   41.340200  112.511000
  H    -52.177000   41.094000  116.474000

 Total Charge           Charge          ....    0
 Multiplicity           Mult            ....    1
 Number of Electrons    NEL             ....  134
 Basis Dimension        Dim             ....  322

ORBITAL ENERGIES
----------------

  NO   OCC          E(Eh)            E(eV)
   0   2.0000     -88.968950     -2420.9682
   1   2.0000     -88.959133     -2420.7011
   2   2.0000     -10.331330      -281.1298
   3   2.0000     -10.328241      -281.0457
   4   2.0000     -10.312650      -280.6215
   5   2.0000     -10.307914      -280.4926
   6   2.0000     -10.301805      -280.3264
   7   2.0000     -10.300181      -280.2822
   8   2.0000     -10.296750      -280.1888
   9   2.0000     -10.296288      -280.1762
  10   2.0000     -10.296238      -280.1749
  11   2.0000     -10.290748      -280.0255
  12   2.0000     -10.290496      -280.0186
  13   2.0000     -10.289693      -279.9968
  14   2.0000     -10.282356      -279.7971
  15   2.0000     -10.270106      -279.4638
  16   2.0000      -8.084662      -219.9949
  17   2.0000      -8.073527      -219.6918
  18   2.0000      -6.043020      -164.4389
  19   2.0000      -6.039217      -164.3354
  20   2.0000      -6.035337      -164.2299
  21   2.0000      -6.032102      -164.1419
  22   2.0000      -6.028176      -164.0350
  23   2.0000      -6.024150      -163.9254
  24   2.0000      -1.010679       -27.5020
  25   2.0000      -0.986635       -26.8477
  26   2.0000      -0.912352       -24.8264
  27   2.0000      -0.902307       -24.5530
  28   2.0000      -0.868619       -23.6363
  29   2.0000      -0.853205       -23.2169
  30   2.0000      -0.842680       -22.9305
  31   2.0000      -0.818018       -22.2594
  32   2.0000      -0.783480       -21.3196
  33   2.0000      -0.773412       -21.0456
  34   2.0000      -0.709754       -19.3134
  35   2.0000      -0.698801       -19.0153
  36   2.0000      -0.688459       -18.7339
  37   2.0000      -0.662365       -18.0239
  38   2.0000      -0.642670       -17.4879
  39   2.0000      -0.626321       -17.0431
  40   2.0000      -0.601746       -16.3743
  41   2.0000      -0.571506       -15.5515
  42   2.0000      -0.562895       -15.3171
  43   2.0000      -0.558742       -15.2042
  44   2.0000      -0.530277       -14.4296
  45   2.0000      -0.520614       -14.1666
  46   2.0000      -0.515433       -14.0256
  47   2.0000      -0.509548       -13.8655
  48   2.0000      -0.504883       -13.7386
  49   2.0000      -0.492547       -13.4029
  50   2.0000      -0.491194       -13.3661
  51   2.0000      -0.479183       -13.0392
  52   2.0000      -0.473363       -12.8809
  53   2.0000      -0.466462       -12.6931
  54   2.0000      -0.459214       -12.4958
  55   2.0000      -0.451168       -12.2769
  56   2.0000      -0.439856       -11.9691
  57   2.0000      -0.434257       -11.8167
  58   2.0000      -0.428306       -11.6548
  59   2.0000      -0.424397       -11.5484
  60   2.0000      -0.420051       -11.4302
  61   2.0000      -0.414461       -11.2781
  62   2.0000      -0.405919       -11.0456
  63   2.0000      -0.353154        -9.6098
  64   2.0000      -0.333660        -9.0794
  65   2.0000      -0.331274        -9.0144
  66   2.0000      -0.290056        -7.8928
  67   0.0000       0.035101         0.9552
  68   0.0000       0.069683         1.8962
  69   0.0000       0.107792         2.9332
  70   0.0000       0.119809         3.2602
  71   0.0000       0.139275         3.7899

MULLIKEN ATOMIC CHARGES
-----------------------
   0 S :    0.130504
   1 C :   -0.142787
   2 C :   -0.075624
   3 C :    0.021673
   4 C :   -0.121156
   5 H :   -0.008269
   6 C :    0.093355
   7 H :    0.024769
   8 H :    0.037583
   9 C :   -0.122489
  10 H :    0.043498
  11 H :    0.042167
  12 C :   -0.040058
  13 H :    0.019984
  14 H :    0.052379
  15 H :    0.019320
  16 S :    0.062177
  17 C :   -0.069418
  18 C :   -0.015529
  19 C :   -0.080784
  20 C :   -0.134672
  21 H :    0.016333
  22 C :    0.090567
  23 H :    0.034992
  24 H :   -0.013115
  25 C :   -0.043999
  26 H :    0.028449
  27 H :    0.032877
  28 C :   -0.066581
  29 H :    0.038605
  30 H :    0.031442
  31 H :    0.024128
  32 H :    0.047117
  33 H :    0.042559
Sum of atomic charges:    0.0000000

LOEWDIN ATOMIC CHARGES
----------------------
   0 S :    0.432684
   1 C :   -0.210661
   2 C :   -0.059401
   3 C :   -0.056483
   4 C :   -0.195356
   5 H :    0.019777
   6 C :   -0.032890
   7 H :    0.031684
   8 H :    0.035116
   9 C :   -0.049101
  10 H :    0.034580
  11 H :    0.025214
  12 C :   -0.069427
  13 H :    0.018742
  14 H :    0.039559
  15 H :    0.023456
  16 S :    0.357905
  17 C :   -0.161620
  18 C :   -0.068068
  19 C :   -0.068066
  20 C :   -0.169409
  21 H :    0.031941
  22 C :   -0.035260
  23 H :    0.041577
  24 H :    0.017917
  25 C :   -0.040565
  26 H :    0.026675
  27 H :    0.024837
  28 C :   -0.069428
  29 H :    0.027097
  30 H :    0.031651
  31 H :    0.016702
  32 H :    0.028917
  33 H :    0.019703

  Mayer bond orders larger than 0.100000
B(  0-S ,  1-C ) :   1.1363 B(  0-S ,  4-C ) :   1.1614 B(  1-C ,  2-C ) :   1.6516
B(  1-C , 32-H ) :   0.9607 B(  2-C ,  3-C ) :   1.2215 B(  2-C ,  6-C ) :   1.0057
B(  3-C ,  4-C ) :   1.5992 B(  3-C ,  5-H ) :   1.0017 B(  4-C , 20-C ) :   0.9978
B(  6-C ,  7-H ) :   0.9446 B(  6-C ,  8-H ) :   0.9251 B(  6-C ,  9-C ) :   1.0735
B(  9-C , 10-H ) :   0.9590 B(  9-C , 11-H ) :   0.9547 B(  9-C , 12-C ) :   1.0772
B( 12-C , 13-H ) :   0.9745 B( 12-C , 14-H ) :   0.9777 B( 12-C , 15-H ) :   0.9726
B( 16-S , 17-C ) :   1.1320 B( 16-S , 20-C ) :   1.1213 B( 17-C , 18-C ) :   1.6357
B( 17-C , 33-H ) :   0.9767 B( 18-C , 19-C ) :   1.2045 B( 18-C , 21-H ) :   0.9926
B( 19-C , 20-C ) :   1.6575 B( 19-C , 22-C ) :   1.0459 B( 22-C , 23-H ) :   0.9340
B( 22-C , 24-H ) :   0.9340 B( 22-C , 25-C ) :   1.0249 B( 25-C , 26-H ) :   0.9614
B( 25-C , 27-H ) :   0.9634 B( 25-C , 28-C ) :   1.0753 B( 28-C , 29-H ) :   0.9749
B( 28-C , 30-H ) :   0.9724 B( 28-C , 31-H ) :   0.9754

Dispersion correction           -0.014820945
FINAL SINGLE POINT ENERGY     -1339.867529284323

DIPOLE MOMENT
-------------
                                X             Y             Z
Electronic contribution:      4.87137      17.33994      18.64219
Nuclear contribution   :     -4.83602     -17.80890     -19.17311
                        -----------------------------------------
Total Dipole Moment    :      0.03536      -0.46896      -0.53093
                        -----------------------------------------
Magnitude (a.u.)       :      0.70927
Magnitude (Debye)      :      1.80281

Rotational constants in cm-1:     0.019880     0.008112     0.007288
Rotational constants in MHz :   595.989176   243.205567   218.493146

                             ****ORCA TERMINATED NORMALLY****
TOTAL RUN TIME: 0 days 0 hours 0 minutes 30 seconds 845 msec
