                         Program Version 4.2.1 -  RELEASE  -
|  1> ! wB97X-D3 SP def2-SVP
|  2> %pal
|  3> nprocs 16
|  4> end
|  5>
|  6> * xyz 0 1
|  7> S 	 -111.034 	 52.6764 	 111.544
|  8> C 	 -110.231 	 53.7203 	 110.302
|  9> C 	 -110.786 	 54.9918 	 110.306
| 10> C 	 -111.835 	 55.1665 	 111.265
| 11> C 	 -112.107 	 53.9864 	 111.982
| 12> H 	 -112.404 	 56.0297 	 111.675
| 13> C 	 -110.33 	 56.1695 	 109.546
| 14> H 	 -109.356 	 56.4654 	 109.89
| 15> H 	 -111.021 	 57.0076 	 109.733
| 16> C 	 -110.267 	 56.0867 	 108.029
| 17> H 	 -109.764 	 56.9954 	 107.596
| 18> H 	 -109.662 	 55.2599 	 107.833
| 19> C 	 -111.6 	 55.9629 	 107.339
| 20> H 	 -112.252 	 56.8509 	 107.477
| 21> H 	 -111.551 	 55.7326 	 106.287
| 22> H 	 -112.168 	 55.1855 	 107.702
| 23> S 	 -114.7 	 54.5984 	 112.715
| 24> C 	 -115.446 	 54.0048 	 114.125
| 25> C 	 -114.577 	 53.2907 	 114.87
| 26> C 	 -113.317 	 53.1831 	 114.264
| 27> C 	 -113.204 	 53.8828 	 113.077
| 28> H 	 -114.798 	 52.8788 	 115.825
| 29> C 	 -112.24 	 52.2357 	 114.853
| 30> H 	 -111.578 	 51.6836 	 114.139
| 31> H 	 -112.681 	 51.4433 	 115.503
| 32> C 	 -111.364 	 52.9083 	 115.968
| 33> H 	 -111.807 	 52.7526 	 116.971
| 34> H 	 -111.132 	 53.9724 	 115.653
| 35> C 	 -110.055 	 52.1744 	 116.107
| 36> H 	 -109.636 	 52.7086 	 116.978
| 37> H 	 -109.513 	 52.3795 	 115.195
| 38> H 	 -110.165 	 51.1476 	 116.225
| 39> H 	 -109.556 	 53.4086 	 109.558
| 40> H 	 -116.467 	 54.13 	 114.488
| 41> *
| 42>
| 43>                          ****END OF INPUT****

CARTESIAN COORDINATES (ANGSTROEM)
---------------------------------
  S    -111.034000   52.676400  111.544000
  C    -110.231000   53.720300  110.302000
  C    -110.786000   54.991800  110.306000
  C    -111.835000   55.166500  111.265000
  C    -112.107000   53.986400  111.982000
  H    -112.404000   56.029700  111.675000
  C    -110.330000   56.169500  109.546000
  H    -109.356000   56.465400  109.890000
  H    -111.021000   57.007600  109.733000
  C    -110.267000   56.086700  108.029000
  H    -109.764000   56.995400  107.596000
  H    -109.662000   55.259900  107.833000
  C    -111.600000   55.962900  107.339000
  H    -112.252000   56.850900  107.477000
  H    -111.551000   55.732600  106.287000
  H    -112.168000   55.185500  107.702000
  S    -114.700000   54.598400  112.715000
  C    -115.446000   54.004800  114.125000
  C    -114.577000   53.290700  114.870000
  C    -113.317000   53.183100  114.264000
  C    -113.204000   53.882800  113.077000
  H    -114.798000   52.878800  115.825000
  C    -112.240000   52.235700  114.853000
  H    -111.578000   51.683600  114.139000
  H    -112.681000   51.443300  115.503000
  C    -111.364000   52.908300  115.968000
  H    -111.807000   52.752600  116.971000
  H    -111.132000   53.972400  115.653000
  C    -110.055000   52.174400  116.107000
  H    -109.636000   52.708600  116.978000
  H    -109.513000   52.379500  115.195000
  H    -110.165000   51.147600  116.225000
  H    -109.556000   53.408600  109.558000
  H    -116.467000   54.130000  114.488000

 Total Charge           Charge          ....    0
 Multiplicity           Mult            ....    1
 Number of Electrons    NEL             ....  134
 Basis Dimension        Dim             ....  322

ORBITAL ENERGIES
----------------

  NO   OCC          E(Eh)            E(eV)
   0   2.0000     -88.973603     -2421.0948
   1   2.0000     -88.967368     -2420.9252
   2   2.0000     -10.341679      -281.4114
   3   2.0000     -10.329646      -281.0840
   4   2.0000     -10.317232      -280.7462
   5   2.0000     -10.311819      -280.5989
   6   2.0000     -10.305031      -280.4141
   7   2.0000     -10.301141      -280.3083
   8   2.0000     -10.299055      -280.2515
   9   2.0000     -10.295478      -280.1542
  10   2.0000     -10.286008      -279.8965
  11   2.0000     -10.285695      -279.8880
  12   2.0000     -10.285270      -279.8764
  13   2.0000     -10.282277      -279.7950
  14   2.0000     -10.266346      -279.3615
  15   2.0000     -10.266131      -279.3556
  16   2.0000      -8.086542      -220.0460
  17   2.0000      -8.083624      -219.9666
  18   2.0000      -6.045181      -164.4977
  19   2.0000      -6.042092      -164.4137
  20   2.0000      -6.041268      -164.3913
  21   2.0000      -6.037721      -164.2947
  22   2.0000      -6.037317      -164.2838
  23   2.0000      -6.034532      -164.2080
  24   2.0000      -1.015549       -27.6345
  25   2.0000      -0.986103       -26.8332
  26   2.0000      -0.918074       -24.9821
  27   2.0000      -0.907565       -24.6961
  28   2.0000      -0.867731       -23.6122
  29   2.0000      -0.856854       -23.3162
  30   2.0000      -0.847120       -23.0513
  31   2.0000      -0.816582       -22.2203
  32   2.0000      -0.785031       -21.3618
  33   2.0000      -0.771463       -20.9926
  34   2.0000      -0.711647       -19.3649
  35   2.0000      -0.693270       -18.8648
  36   2.0000      -0.679523       -18.4908
  37   2.0000      -0.666321       -18.1315
  38   2.0000      -0.636953       -17.3324
  39   2.0000      -0.611528       -16.6405
  40   2.0000      -0.598976       -16.2990
  41   2.0000      -0.583089       -15.8667
  42   2.0000      -0.570694       -15.5294
  43   2.0000      -0.559775       -15.2322
  44   2.0000      -0.545396       -14.8410
  45   2.0000      -0.527381       -14.3508
  46   2.0000      -0.517633       -14.0855
  47   2.0000      -0.512921       -13.9573
  48   2.0000      -0.501490       -13.6462
  49   2.0000      -0.492475       -13.4009
  50   2.0000      -0.488461       -13.2917
  51   2.0000      -0.480599       -13.0778
  52   2.0000      -0.474207       -12.9038
  53   2.0000      -0.469328       -12.7711
  54   2.0000      -0.465720       -12.6729
  55   2.0000      -0.446323       -12.1451
  56   2.0000      -0.443462       -12.0672
  57   2.0000      -0.438252       -11.9254
  58   2.0000      -0.425199       -11.5702
  59   2.0000      -0.421416       -11.4673
  60   2.0000      -0.419017       -11.4020
  61   2.0000      -0.413810       -11.2604
  62   2.0000      -0.404781       -11.0147
  63   2.0000      -0.353611        -9.6223
  64   2.0000      -0.333948        -9.0872
  65   2.0000      -0.330077        -8.9819
  66   2.0000      -0.293674        -7.9913
  67   0.0000       0.028259         0.7690
  68   0.0000       0.076194         2.0733
  69   0.0000       0.103871         2.8265
  70   0.0000       0.121410         3.3037
  71   0.0000       0.125963         3.4276

MULLIKEN ATOMIC CHARGES
-----------------------
   0 S :    0.100796
   1 C :   -0.110245
   2 C :   -0.059147
   3 C :   -0.023690
   4 C :   -0.108969
   5 H :    0.037313
   6 C :    0.073735
   7 H :    0.037430
   8 H :    0.017260
   9 C :   -0.062939
  10 H :    0.034475
  11 H :    0.007156
  12 C :   -0.028001
  13 H :    0.026131
  14 H :    0.027829
  15 H :    0.011683
  16 S :    0.116075
  17 C :   -0.076435
  18 C :   -0.020825
  19 C :   -0.034890
  20 C :   -0.151547
  21 H :    0.003185
  22 C :    0.009033
  23 H :    0.038893
  24 H :    0.022208
  25 C :   -0.128920
  26 H :    0.035510
  27 H :    0.049768
  28 C :   -0.023302
  29 H :    0.038050
  30 H :    0.031659
  31 H :    0.018965
  32 H :    0.035368
  33 H :    0.056389
Sum of atomic charges:   -0.0000000

LOEWDIN ATOMIC CHARGES
----------------------
   0 S :    0.394216
   1 C :   -0.182050
   2 C :   -0.056603
   3 C :   -0.081314
   4 C :   -0.180681
   5 H :    0.039411
   6 C :   -0.031230
   7 H :    0.034962
   8 H :    0.030981
   9 C :   -0.036762
  10 H :    0.031643
  11 H :    0.011275
  12 C :   -0.064669
  13 H :    0.028835
  14 H :    0.027098
  15 H :    0.015203
  16 S :    0.455128
  17 C :   -0.202664
  18 C :   -0.067526
  19 C :   -0.064984
  20 C :   -0.215384
  21 H :    0.028289
  22 C :   -0.044683
  23 H :    0.022692
  24 H :    0.034362
  25 C :   -0.044741
  26 H :    0.023052
  27 H :    0.030044
  28 C :   -0.059329
  29 H :    0.032622
  30 H :    0.023295
  31 H :    0.011943
  32 H :    0.020243
  33 H :    0.037328

  Mayer bond orders larger than 0.100000
B(  0-S ,  1-C ) :   1.1105 B(  0-S ,  4-C ) :   1.1619 B(  1-C ,  2-C ) :   1.6169
B(  1-C , 32-H ) :   0.9742 B(  2-C ,  3-C ) :   1.2189 B(  2-C ,  6-C ) :   1.0212
B(  3-C ,  4-C ) :   1.5819 B(  3-C ,  5-H ) :   0.9833 B(  4-C , 20-C ) :   0.9874
B(  6-C ,  7-H ) :   0.9318 B(  6-C ,  8-H ) :   0.9447 B(  6-C ,  9-C ) :   1.0800
B(  9-C , 10-H ) :   0.9539 B(  9-C , 11-H ) :   0.9549 B(  9-C , 12-C ) :   1.0843
B( 12-C , 13-H ) :   0.9713 B( 12-C , 14-H ) :   0.9709 B( 12-C , 15-H ) :   0.9723
B( 16-S , 17-C ) :   1.1701 B( 16-S , 20-C ) :   1.1651 B( 17-C , 18-C ) :   1.5830
B( 17-C , 33-H ) :   0.9639 B( 18-C , 19-C ) :   1.2918 B( 18-C , 21-H ) :   0.9948
B( 19-C , 20-C ) :   1.5798 B( 19-C , 22-C ) :   1.0294 B( 22-C , 23-H ) :   0.9560
B( 22-C , 24-H ) :   0.9368 B( 22-C , 25-C ) :   1.0372 B( 25-C , 26-H ) :   0.9644
B( 25-C , 27-H ) :   0.9617 B( 25-C , 28-C ) :   1.0786 B( 28-C , 29-H ) :   0.9758
B( 28-C , 30-H ) :   0.9770 B( 28-C , 31-H ) :   0.9714

Dispersion correction           -0.013878403
FINAL SINGLE POINT ENERGY     -1339.856991612648

DIPOLE MOMENT
-------------
                                X             Y             Z
Electronic contribution:    -12.32187      -3.58621       1.58485
Nuclear contribution   :     12.39882       3.66928      -1.44641
                        -----------------------------------------
Total Dipole Moment    :      0.07695       0.08306       0.13844
                        -----------------------------------------
Magnitude (a.u.)       :      0.17884
Magnitude (Debye)      :      0.45459

Rotational constants in cm-1:     0.021173     0.008060     0.006333
Rotational constants in MHz :   634.738247   241.630987   189.859659

                             ****ORCA TERMINATED NORMALLY****
TOTAL RUN TIME: 0 days 0 hours 0 minutes 33 seconds 921 msec
