                         Program Version 4.2.1 -  RELEASE  -
|  1> ! wB97X-D3 SP def2-SVP
|  2> %pal
|  3> nprocs 16
|  4> end
|  5>
|  6> * xyz 0 1
|  7> S 	 70.042 	 20.6418 	 74.1045
|  8> C 	 68.4563 	 19.8305 	 73.9127
|  9> C 	 67.3914 	 20.6382 	 74.2875
| 10> C 	 67.7612 	 22.0184 	 74.4512
| 11> C 	 69.1266 	 22.1512 	 74.3958
| 12> H 	 67.1562 	 22.8613 	 74.7126
| 13> C 	 65.9384 	 20.1887 	 74.6162
| 14> H 	 65.3411 	 20.9473 	 75.1417
| 15> H 	 65.9134 	 19.2642 	 75.2714
| 16> C 	 65.1141 	 19.7425 	 73.3504
| 17> H 	 65.2881 	 20.4645 	 72.6017
| 18> H 	 65.574 	 18.8518 	 73.044
| 19> C 	 63.5197 	 19.6984 	 73.5239
| 20> H 	 63.1162 	 19.5162 	 72.5534
| 21> H 	 63.1452 	 18.948 	 74.2117
| 22> H 	 63.1289 	 20.6808 	 73.8517
| 23> S 	 69.631 	 24.443 	 75.7665
| 24> C 	 70.3312 	 25.7211 	 74.91
| 25> C 	 70.7942 	 25.4299 	 73.6776
| 26> C 	 70.5001 	 24.0947 	 73.3525
| 27> C 	 69.748 	 23.493 	 74.3323
| 28> H 	 71.2563 	 26.235 	 73.1059
| 29> C 	 71.0217 	 23.4675 	 72.078
| 30> H 	 71.4133 	 22.4953 	 72.3644
| 31> H 	 71.8455 	 24.0911 	 71.7165
| 32> C 	 69.835 	 23.2732 	 71.0675
| 33> H 	 69.0369 	 22.6218 	 71.5916
| 34> H 	 70.2388 	 22.6441 	 70.2854
| 35> C 	 69.1328 	 24.5284 	 70.4099
| 36> H 	 69.8127 	 25.1803 	 69.8077
| 37> H 	 68.7368 	 25.2 	 71.2292
| 38> H 	 68.2725 	 24.2775 	 69.786
| 39> H 	 68.2804 	 18.7722 	 73.7986
| 40> H 	 70.4831 	 26.6967 	 75.37
| 41> *
| 42>
| 43>                          ****END OF INPUT****

CARTESIAN COORDINATES (ANGSTROEM)
---------------------------------
  S     70.042000   20.641800   74.104500
  C     68.456300   19.830500   73.912700
  C     67.391400   20.638200   74.287500
  C     67.761200   22.018400   74.451200
  C     69.126600   22.151200   74.395800
  H     67.156200   22.861300   74.712600
  C     65.938400   20.188700   74.616200
  H     65.341100   20.947300   75.141700
  H     65.913400   19.264200   75.271400
  C     65.114100   19.742500   73.350400
  H     65.288100   20.464500   72.601700
  H     65.574000   18.851800   73.044000
  C     63.519700   19.698400   73.523900
  H     63.116200   19.516200   72.553400
  H     63.145200   18.948000   74.211700
  H     63.128900   20.680800   73.851700
  S     69.631000   24.443000   75.766500
  C     70.331200   25.721100   74.910000
  C     70.794200   25.429900   73.677600
  C     70.500100   24.094700   73.352500
  C     69.748000   23.493000   74.332300
  H     71.256300   26.235000   73.105900
  C     71.021700   23.467500   72.078000
  H     71.413300   22.495300   72.364400
  H     71.845500   24.091100   71.716500
  C     69.835000   23.273200   71.067500
  H     69.036900   22.621800   71.591600
  H     70.238800   22.644100   70.285400
  C     69.132800   24.528400   70.409900
  H     69.812700   25.180300   69.807700
  H     68.736800   25.200000   71.229200
  H     68.272500   24.277500   69.786000
  H     68.280400   18.772200   73.798600
  H     70.483100   26.696700   75.370000

 Total Charge           Charge          ....    0
 Multiplicity           Mult            ....    1
 Number of Electrons    NEL             ....  134
 Basis Dimension        Dim             ....  322

ORBITAL ENERGIES
----------------

  NO   OCC          E(Eh)            E(eV)
   0   2.0000     -88.973835     -2421.1011
   1   2.0000     -88.963733     -2420.8263
   2   2.0000     -10.330378      -281.1039
   3   2.0000     -10.317998      -280.7670
   4   2.0000     -10.315718      -280.7049
   5   2.0000     -10.308102      -280.4977
   6   2.0000     -10.303752      -280.3793
   7   2.0000     -10.300853      -280.3005
   8   2.0000     -10.294272      -280.1214
   9   2.0000     -10.294104      -280.1168
  10   2.0000     -10.291650      -280.0500
  11   2.0000     -10.290294      -280.0131
  12   2.0000     -10.284160      -279.8462
  13   2.0000     -10.284092      -279.8444
  14   2.0000     -10.283910      -279.8394
  15   2.0000     -10.283809      -279.8367
  16   2.0000      -8.086638      -220.0486
  17   2.0000      -8.080218      -219.8739
  18   2.0000      -6.045294      -164.5008
  19   2.0000      -6.041693      -164.4028
  20   2.0000      -6.038344      -164.3117
  21   2.0000      -6.037095      -164.2777
  22   2.0000      -6.034724      -164.2132
  23   2.0000      -6.031046      -164.1131
  24   2.0000      -1.013051       -27.5665
  25   2.0000      -0.983017       -26.7493
  26   2.0000      -0.900981       -24.5169
  27   2.0000      -0.898020       -24.4364
  28   2.0000      -0.866219       -23.5710
  29   2.0000      -0.846922       -23.0459
  30   2.0000      -0.841228       -22.8910
  31   2.0000      -0.811144       -22.0723
  32   2.0000      -0.781462       -21.2647
  33   2.0000      -0.770817       -20.9750
  34   2.0000      -0.706312       -19.2197
  35   2.0000      -0.700962       -19.0741
  36   2.0000      -0.683464       -18.5980
  37   2.0000      -0.661716       -18.0062
  38   2.0000      -0.638247       -17.3676
  39   2.0000      -0.614851       -16.7309
  40   2.0000      -0.590087       -16.0571
  41   2.0000      -0.566298       -15.4097
  42   2.0000      -0.558687       -15.2026
  43   2.0000      -0.540894       -14.7185
  44   2.0000      -0.533596       -14.5199
  45   2.0000      -0.515344       -14.0232
  46   2.0000      -0.509761       -13.8713
  47   2.0000      -0.508169       -13.8280
  48   2.0000      -0.499805       -13.6004
  49   2.0000      -0.492943       -13.4137
  50   2.0000      -0.481778       -13.1098
  51   2.0000      -0.479504       -13.0480
  52   2.0000      -0.467950       -12.7336
  53   2.0000      -0.465137       -12.6570
  54   2.0000      -0.459608       -12.5066
  55   2.0000      -0.456682       -12.4270
  56   2.0000      -0.444813       -12.1040
  57   2.0000      -0.442224       -12.0335
  58   2.0000      -0.431896       -11.7525
  59   2.0000      -0.427687       -11.6379
  60   2.0000      -0.420498       -11.4423
  61   2.0000      -0.416593       -11.3361
  62   2.0000      -0.407060       -11.0767
  63   2.0000      -0.341798        -9.3008
  64   2.0000      -0.334872        -9.1123
  65   2.0000      -0.324705        -8.8357
  66   2.0000      -0.295747        -8.0477
  67   0.0000       0.034354         0.9348
  68   0.0000       0.069631         1.8948
  69   0.0000       0.093170         2.5353
  70   0.0000       0.118437         3.2228
  71   0.0000       0.128278         3.4906

MULLIKEN ATOMIC CHARGES
-----------------------
   0 S :    0.115660
   1 C :   -0.121866
   2 C :   -0.052436
   3 C :    0.022852
   4 C :   -0.143265
   5 H :    0.019130
   6 C :    0.023690
   7 H :    0.024853
   8 H :    0.043147
   9 C :   -0.064741
  10 H :    0.022286
  11 H :    0.017410
  12 C :   -0.049705
  13 H :    0.033236
  14 H :    0.036484
  15 H :    0.033254
  16 S :    0.129170
  17 C :   -0.092334
  18 C :   -0.053226
  19 C :   -0.030706
  20 C :   -0.207691
  21 H :    0.020187
  22 C :    0.113783
  23 H :    0.021652
  24 H :    0.022382
  25 C :   -0.098587
  26 H :    0.056490
  27 H :    0.027390
  28 C :   -0.074831
  29 H :    0.033743
  30 H :    0.040473
  31 H :    0.042712
  32 H :    0.043264
  33 H :    0.046139
Sum of atomic charges:    0.0000000

LOEWDIN ATOMIC CHARGES
----------------------
   0 S :    0.379464
   1 C :   -0.190160
   2 C :   -0.054059
   3 C :   -0.055193
   4 C :   -0.178250
   5 H :    0.032532
   6 C :   -0.034812
   7 H :    0.026979
   8 H :    0.035980
   9 C :   -0.030071
  10 H :    0.017377
  11 H :    0.013139
  12 C :   -0.062290
  13 H :    0.024574
  14 H :    0.022770
  15 H :    0.027902
  16 S :    0.440713
  17 C :   -0.201301
  18 C :   -0.079197
  19 C :   -0.056558
  20 C :   -0.213914
  21 H :    0.037261
  22 C :   -0.026869
  23 H :    0.024627
  24 H :    0.029597
  25 C :   -0.042285
  26 H :    0.038277
  27 H :    0.018328
  28 C :   -0.077788
  29 H :    0.024890
  30 H :    0.030338
  31 H :    0.028026
  32 H :    0.025091
  33 H :    0.024881

  Mayer bond orders larger than 0.100000
B(  0-S ,  1-C ) :   1.1126 B(  0-S ,  4-C ) :   1.1291 B(  1-C ,  2-C ) :   1.6536
B(  1-C , 32-H ) :   0.9630 B(  2-C ,  3-C ) :   1.1989 B(  2-C ,  6-C ) :   1.0155
B(  3-C ,  4-C ) :   1.6192 B(  3-C ,  5-H ) :   0.9914 B(  4-C , 20-C ) :   0.9950
B(  6-C ,  7-H ) :   0.9532 B(  6-C ,  8-H ) :   0.9487 B(  6-C ,  9-C ) :   1.0447
B(  9-C , 10-H ) :   0.9617 B(  9-C , 11-H ) :   0.9634 B(  9-C , 12-C ) :   1.0728
B( 12-C , 13-H ) :   0.9773 B( 12-C , 14-H ) :   0.9796 B( 12-C , 15-H ) :   0.9754
B( 16-S , 17-C ) :   1.1704 B( 16-S , 20-C ) :   1.1637 B( 17-C , 18-C ) :   1.6199
B( 17-C , 33-H ) :   0.9611 B( 18-C , 19-C ) :   1.2307 B( 18-C , 21-H ) :   0.9968
B( 19-C , 20-C ) :   1.5976 B( 19-C , 22-C ) :   1.0309 B( 22-C , 23-H ) :   0.9255
B( 22-C , 24-H ) :   0.9390 B( 22-C , 25-C ) :   1.0651 B( 25-C , 26-H ) :   0.9570
B( 25-C , 27-H ) :   0.9588 B( 25-C , 28-C ) :   1.0619 B( 28-C , 29-H ) :   0.9764
B( 28-C , 30-H ) :   0.9749 B( 28-C , 31-H ) :   0.9760

Dispersion correction           -0.015025191
FINAL SINGLE POINT ENERGY     -1339.869903695500

DIPOLE MOMENT
-------------
                                X             Y             Z
Electronic contribution:     18.27033       4.20821      16.47905
Nuclear contribution   :    -18.59299      -4.17194     -16.68636
                        -----------------------------------------
Total Dipole Moment    :     -0.32266       0.03627      -0.20732
                        -----------------------------------------
Magnitude (a.u.)       :      0.38524
Magnitude (Debye)      :      0.97920

Rotational constants in cm-1:     0.019738     0.007847     0.007300
Rotational constants in MHz :   591.729093   235.240831   218.854961

                             ****ORCA TERMINATED NORMALLY****
TOTAL RUN TIME: 0 days 0 hours 0 minutes 30 seconds 956 msec
