                         Program Version 4.2.1 -  RELEASE  -
|  1> ! wB97X-D3 SP def2-SVP
|  2> %pal
|  3> nprocs 16
|  4> end
|  5>
|  6> * xyz 0 1
|  7> S 	 5.70692 	 -15.5711 	 49.4551
|  8> C 	 4.13948 	 -16.3419 	 49.3803
|  9> C 	 3.63387 	 -16.5734 	 50.6473
| 10> C 	 4.38601 	 -16.0084 	 51.7212
| 11> C 	 5.57988 	 -15.4885 	 51.233
| 12> H 	 4.16605 	 -16.1031 	 52.7407
| 13> C 	 2.28113 	 -17.2892 	 50.8439
| 14> H 	 2.43935 	 -18.0965 	 51.5285
| 15> H 	 2.06145 	 -17.7625 	 49.8612
| 16> C 	 1.15591 	 -16.5047 	 51.3006
| 17> H 	 0.224018 	 -17.0555 	 51.353
| 18> H 	 1.28251 	 -16.1139 	 52.3808
| 19> C 	 0.945388 	 -15.2623 	 50.4036
| 20> H 	 0.663951 	 -15.5822 	 49.4739
| 21> H 	 0.175252 	 -14.6397 	 50.7163
| 22> H 	 1.80565 	 -14.5656 	 50.3566
| 23> S 	 7.1521 	 -16.1753 	 53.2969
| 24> C 	 8.35673 	 -15.025 	 53.938
| 25> C 	 8.14073 	 -13.802 	 53.4265
| 26> C 	 7.24821 	 -13.8662 	 52.3313
| 27> C 	 6.58742 	 -15.0265 	 52.1573
| 28> H 	 8.68993 	 -12.9885 	 53.6731
| 29> C 	 7.01395 	 -12.6324 	 51.3894
| 30> H 	 6.26673 	 -12.8594 	 50.5735
| 31> H 	 7.93291 	 -12.4755 	 50.9288
| 32> C 	 6.59273 	 -11.307 	 52.0086
| 33> H 	 7.21811 	 -11.0478 	 52.804
| 34> H 	 5.59423 	 -11.4898 	 52.4454
| 35> C 	 6.52277 	 -10.1672 	 51.0447
| 36> H 	 7.45852 	 -9.7646 	 50.671
| 37> H 	 5.922 	 -9.34873 	 51.4321
| 38> H 	 5.92707 	 -10.3872 	 50.2764
| 39> H 	 3.68422 	 -16.7541 	 48.5206
| 40> H 	 9.12489 	 -15.2768 	 54.5727
| 41> *
| 42>
| 43>                          ****END OF INPUT****

CARTESIAN COORDINATES (ANGSTROEM)
---------------------------------
  S      5.706920  -15.571100   49.455100
  C      4.139480  -16.341900   49.380300
  C      3.633870  -16.573400   50.647300
  C      4.386010  -16.008400   51.721200
  C      5.579880  -15.488500   51.233000
  H      4.166050  -16.103100   52.740700
  C      2.281130  -17.289200   50.843900
  H      2.439350  -18.096500   51.528500
  H      2.061450  -17.762500   49.861200
  C      1.155910  -16.504700   51.300600
  H      0.224018  -17.055500   51.353000
  H      1.282510  -16.113900   52.380800
  C      0.945388  -15.262300   50.403600
  H      0.663951  -15.582200   49.473900
  H      0.175252  -14.639700   50.716300
  H      1.805650  -14.565600   50.356600
  S      7.152100  -16.175300   53.296900
  C      8.356730  -15.025000   53.938000
  C      8.140730  -13.802000   53.426500
  C      7.248210  -13.866200   52.331300
  C      6.587420  -15.026500   52.157300
  H      8.689930  -12.988500   53.673100
  C      7.013950  -12.632400   51.389400
  H      6.266730  -12.859400   50.573500
  H      7.932910  -12.475500   50.928800
  C      6.592730  -11.307000   52.008600
  H      7.218110  -11.047800   52.804000
  H      5.594230  -11.489800   52.445400
  C      6.522770  -10.167200   51.044700
  H      7.458520   -9.764600   50.671000
  H      5.922000   -9.348730   51.432100
  H      5.927070  -10.387200   50.276400
  H      3.684220  -16.754100   48.520600
  H      9.124890  -15.276800   54.572700

 Total Charge           Charge          ....    0
 Multiplicity           Mult            ....    1
 Number of Electrons    NEL             ....  134
 Basis Dimension        Dim             ....  322

ORBITAL ENERGIES
----------------

  NO   OCC          E(Eh)            E(eV)
   0   2.0000     -88.972034     -2421.0521
   1   2.0000     -88.959983     -2420.7242
   2   2.0000     -10.332867      -281.1716
   3   2.0000     -10.315799      -280.7072
   4   2.0000     -10.312092      -280.6063
   5   2.0000     -10.309778      -280.5433
   6   2.0000     -10.299732      -280.2700
   7   2.0000     -10.296435      -280.1803
   8   2.0000     -10.292005      -280.0597
   9   2.0000     -10.286237      -279.9027
  10   2.0000     -10.285937      -279.8946
  11   2.0000     -10.284660      -279.8598
  12   2.0000     -10.284360      -279.8517
  13   2.0000     -10.276166      -279.6287
  14   2.0000     -10.262488      -279.2565
  15   2.0000     -10.259874      -279.1854
  16   2.0000      -8.085548      -220.0190
  17   2.0000      -8.075318      -219.7406
  18   2.0000      -6.044149      -164.4697
  19   2.0000      -6.040275      -164.3642
  20   2.0000      -6.036230      -164.2542
  21   2.0000      -6.033888      -164.1904
  22   2.0000      -6.029774      -164.0785
  23   2.0000      -6.025916      -163.9735
  24   2.0000      -1.012223       -27.5440
  25   2.0000      -0.985764       -26.8240
  26   2.0000      -0.917985       -24.9796
  27   2.0000      -0.909511       -24.7491
  28   2.0000      -0.879657       -23.9367
  29   2.0000      -0.851127       -23.1603
  30   2.0000      -0.844877       -22.9903
  31   2.0000      -0.819844       -22.3091
  32   2.0000      -0.786676       -21.4065
  33   2.0000      -0.776718       -21.1356
  34   2.0000      -0.712296       -19.3826
  35   2.0000      -0.702345       -19.1118
  36   2.0000      -0.691681       -18.8216
  37   2.0000      -0.673839       -18.3361
  38   2.0000      -0.643128       -17.5004
  39   2.0000      -0.616960       -16.7883
  40   2.0000      -0.600733       -16.3468
  41   2.0000      -0.573864       -15.6156
  42   2.0000      -0.570754       -15.5310
  43   2.0000      -0.559269       -15.2185
  44   2.0000      -0.549686       -14.9577
  45   2.0000      -0.525784       -14.3073
  46   2.0000      -0.520165       -14.1544
  47   2.0000      -0.516389       -14.0517
  48   2.0000      -0.510020       -13.8783
  49   2.0000      -0.498553       -13.5663
  50   2.0000      -0.488186       -13.2842
  51   2.0000      -0.477088       -12.9822
  52   2.0000      -0.475065       -12.9272
  53   2.0000      -0.469748       -12.7825
  54   2.0000      -0.460823       -12.5396
  55   2.0000      -0.451300       -12.2805
  56   2.0000      -0.448089       -12.1931
  57   2.0000      -0.441636       -12.0175
  58   2.0000      -0.423870       -11.5341
  59   2.0000      -0.420658       -11.4467
  60   2.0000      -0.414134       -11.2692
  61   2.0000      -0.412251       -11.2179
  62   2.0000      -0.408601       -11.1186
  63   2.0000      -0.349532        -9.5113
  64   2.0000      -0.336980        -9.1697
  65   2.0000      -0.325526        -8.8580
  66   2.0000      -0.295358        -8.0371
  67   0.0000       0.037654         1.0246
  68   0.0000       0.064320         1.7502
  69   0.0000       0.112500         3.0613
  70   0.0000       0.114179         3.1070
  71   0.0000       0.135736         3.6936

MULLIKEN ATOMIC CHARGES
-----------------------
   0 S :    0.126642
   1 C :   -0.103817
   2 C :   -0.107574
   3 C :    0.027398
   4 C :   -0.130549
   5 H :    0.005329
   6 C :    0.102583
   7 H :    0.023613
   8 H :    0.013353
   9 C :   -0.088657
  10 H :    0.031160
  11 H :    0.030990
  12 C :   -0.008678
  13 H :   -0.000996
  14 H :    0.005667
  15 H :    0.046205
  16 S :    0.092693
  17 C :   -0.060621
  18 C :    0.034541
  19 C :   -0.044724
  20 C :   -0.158407
  21 H :   -0.021913
  22 C :    0.066459
  23 H :    0.026844
  24 H :    0.008471
  25 C :   -0.067708
  26 H :    0.009708
  27 H :    0.027626
  28 C :    0.018753
  29 H :    0.030265
  30 H :    0.017152
  31 H :   -0.012954
  32 H :    0.033452
  33 H :    0.027693
Sum of atomic charges:   -0.0000000

LOEWDIN ATOMIC CHARGES
----------------------
   0 S :    0.401457
   1 C :   -0.198933
   2 C :   -0.052978
   3 C :   -0.055036
   4 C :   -0.174020
   5 H :    0.024650
   6 C :   -0.034106
   7 H :    0.028680
   8 H :    0.030819
   9 C :   -0.045565
  10 H :    0.026310
  11 H :    0.028339
  12 C :   -0.056717
  13 H :    0.009795
  14 H :    0.015836
  15 H :    0.033146
  16 S :    0.403035
  17 C :   -0.146511
  18 C :   -0.053894
  19 C :   -0.055880
  20 C :   -0.210347
  21 H :    0.015809
  22 C :   -0.028178
  23 H :    0.028183
  24 H :    0.017606
  25 C :   -0.038019
  26 H :    0.011475
  27 H :    0.029539
  28 C :   -0.057179
  29 H :    0.026115
  30 H :    0.032829
  31 H :    0.008795
  32 H :    0.021145
  33 H :    0.013801

  Mayer bond orders larger than 0.100000
B(  0-S ,  1-C ) :   1.1210 B(  0-S ,  4-C ) :   1.1426 B(  1-C ,  2-C ) :   1.6259
B(  1-C , 32-H ) :   0.9670 B(  2-C ,  3-C ) :   1.2202 B(  2-C ,  6-C ) :   1.0214
B(  3-C ,  4-C ) :   1.5580 B(  3-C ,  5-H ) :   1.0044 B(  4-C , 20-C ) :   1.0382
B(  6-C ,  7-H ) :   0.9311 B(  6-C ,  8-H ) :   0.9367 B(  6-C ,  9-C ) :   1.0922
B(  9-C , 10-H ) :   0.9517 B(  9-C , 11-H ) :   0.9492 B(  9-C , 12-C ) :   1.0760
B( 12-C , 13-H ) :   0.9742 B( 12-C , 14-H ) :   0.9705 B( 12-C , 15-H ) :   0.9715
B( 16-S , 17-C ) :   1.1470 B( 16-S , 20-C ) :   1.1222 B( 17-C , 18-C ) :   1.6110
B( 17-C , 33-H ) :   0.9807 B( 18-C , 19-C ) :   1.2262 B( 18-C , 21-H ) :   1.0070
B( 19-C , 20-C ) :   1.6425 B( 19-C , 22-C ) :   1.0216 B( 22-C , 23-H ) :   0.9388
B( 22-C , 24-H ) :   0.9311 B( 22-C , 25-C ) :   1.0738 B( 25-C , 26-H ) :   0.9527
B( 25-C , 27-H ) :   0.9512 B( 25-C , 28-C ) :   1.1003 B( 28-C , 29-H ) :   0.9722
B( 28-C , 30-H ) :   0.9637 B( 28-C , 31-H ) :   0.9640

Dispersion correction           -0.014282588
FINAL SINGLE POINT ENERGY     -1339.851366856383

DIPOLE MOMENT
-------------
                                X             Y             Z
Electronic contribution:     16.27556     -15.18155       2.54202
Nuclear contribution   :    -16.47874      15.41196      -2.46767
                        -----------------------------------------
Total Dipole Moment    :     -0.20318       0.23040       0.07435
                        -----------------------------------------
Magnitude (a.u.)       :      0.31606
Magnitude (Debye)      :      0.80337

Rotational constants in cm-1:     0.018147     0.008580     0.007091
Rotational constants in MHz :   544.044575   257.225608   212.592611

                             ****ORCA TERMINATED NORMALLY****
TOTAL RUN TIME: 0 days 0 hours 0 minutes 28 seconds 558 msec
