                         Program Version 4.2.1 -  RELEASE  -
|  1> ! wB97X-D3 SP def2-SVP
|  2> %pal
|  3> nprocs 16
|  4> end
|  5>
|  6> * xyz 0 1
|  7> S 	 3.19255 	 13.6042 	 49.5209
|  8> C 	 2.79475 	 12.7629 	 48.0936
|  9> C 	 2.52347 	 13.5863 	 47.0539
| 10> C 	 2.48481 	 14.9176 	 47.4503
| 11> C 	 2.93021 	 15.1375 	 48.7723
| 12> H 	 2.14941 	 15.7412 	 46.9066
| 13> C 	 2.06362 	 13.0718 	 45.6827
| 14> H 	 0.949774 	 13.0607 	 45.6848
| 15> H 	 2.44258 	 12.0617 	 45.5218
| 16> C 	 2.60143 	 13.8076 	 44.4316
| 17> H 	 2.64394 	 14.8768 	 44.6522
| 18> H 	 3.65523 	 13.6498 	 44.3528
| 19> C 	 1.89991 	 13.4681 	 43.1993
| 20> H 	 2.47833 	 13.7391 	 42.2823
| 21> H 	 1.69402 	 12.3326 	 43.1262
| 22> H 	 1.01287 	 14.1357 	 43.2461
| 23> S 	 2.334 	 16.4992 	 51.2496
| 24> C 	 2.59946 	 18.2578 	 51.3926
| 25> C 	 3.0846 	 18.7032 	 50.1528
| 26> C 	 3.25149 	 17.7108 	 49.1646
| 27> C 	 2.92964 	 16.4342 	 49.5204
| 28> H 	 3.16542 	 19.7379 	 49.9587
| 29> C 	 3.69259 	 18.1482 	 47.7913
| 30> H 	 4.09746 	 17.2317 	 47.3871
| 31> H 	 4.63297 	 18.6905 	 47.8569
| 32> C 	 2.61447 	 18.8374 	 46.9056
| 33> H 	 2.44207 	 19.9044 	 47.2207
| 34> H 	 1.6179 	 18.3352 	 47.0142
| 35> C 	 3.02711 	 18.7394 	 45.3643
| 36> H 	 4.09651 	 18.9446 	 45.13
| 37> H 	 2.60035 	 19.521 	 44.781
| 38> H 	 2.75947 	 17.8186 	 44.7688
| 39> H 	 2.70116 	 11.7519 	 47.9859
| 40> H 	 2.31685 	 18.8598 	 52.2292
| 41> *
| 42>
| 43>                          ****END OF INPUT****

CARTESIAN COORDINATES (ANGSTROEM)
---------------------------------
  S      3.192550   13.604200   49.520900
  C      2.794750   12.762900   48.093600
  C      2.523470   13.586300   47.053900
  C      2.484810   14.917600   47.450300
  C      2.930210   15.137500   48.772300
  H      2.149410   15.741200   46.906600
  C      2.063620   13.071800   45.682700
  H      0.949774   13.060700   45.684800
  H      2.442580   12.061700   45.521800
  C      2.601430   13.807600   44.431600
  H      2.643940   14.876800   44.652200
  H      3.655230   13.649800   44.352800
  C      1.899910   13.468100   43.199300
  H      2.478330   13.739100   42.282300
  H      1.694020   12.332600   43.126200
  H      1.012870   14.135700   43.246100
  S      2.334000   16.499200   51.249600
  C      2.599460   18.257800   51.392600
  C      3.084600   18.703200   50.152800
  C      3.251490   17.710800   49.164600
  C      2.929640   16.434200   49.520400
  H      3.165420   19.737900   49.958700
  C      3.692590   18.148200   47.791300
  H      4.097460   17.231700   47.387100
  H      4.632970   18.690500   47.856900
  C      2.614470   18.837400   46.905600
  H      2.442070   19.904400   47.220700
  H      1.617900   18.335200   47.014200
  C      3.027110   18.739400   45.364300
  H      4.096510   18.944600   45.130000
  H      2.600350   19.521000   44.781000
  H      2.759470   17.818600   44.768800
  H      2.701160   11.751900   47.985900
  H      2.316850   18.859800   52.229200

 Total Charge           Charge          ....    0
 Multiplicity           Mult            ....    1
 Number of Electrons    NEL             ....  134
 Basis Dimension        Dim             ....  322

ORBITAL ENERGIES
----------------

  NO   OCC          E(Eh)            E(eV)
   0   2.0000     -88.970031     -2420.9976
   1   2.0000     -88.962868     -2420.8027
   2   2.0000     -10.335993      -281.2567
   3   2.0000     -10.334582      -281.2183
   4   2.0000     -10.324488      -280.9436
   5   2.0000     -10.307700      -280.4868
   6   2.0000     -10.302203      -280.3372
   7   2.0000     -10.297823      -280.2180
   8   2.0000     -10.297107      -280.1985
   9   2.0000     -10.295627      -280.1583
  10   2.0000     -10.291158      -280.0366
  11   2.0000     -10.290625      -280.0221
  12   2.0000     -10.288628      -279.9678
  13   2.0000     -10.287818      -279.9458
  14   2.0000     -10.287670      -279.9417
  15   2.0000     -10.279450      -279.7181
  16   2.0000      -8.085628      -220.0211
  17   2.0000      -8.076001      -219.7592
  18   2.0000      -6.043986      -164.4652
  19   2.0000      -6.039891      -164.3538
  20   2.0000      -6.036625      -164.2649
  21   2.0000      -6.034717      -164.2130
  22   2.0000      -6.030718      -164.1042
  23   2.0000      -6.026629      -163.9929
  24   2.0000      -1.011393       -27.5214
  25   2.0000      -0.983596       -26.7650
  26   2.0000      -0.917421       -24.9643
  27   2.0000      -0.900280       -24.4979
  28   2.0000      -0.872113       -23.7314
  29   2.0000      -0.855743       -23.2859
  30   2.0000      -0.841943       -22.9104
  31   2.0000      -0.816302       -22.2127
  32   2.0000      -0.780516       -21.2389
  33   2.0000      -0.773518       -21.0485
  34   2.0000      -0.712097       -19.3771
  35   2.0000      -0.705441       -19.1960
  36   2.0000      -0.692974       -18.8568
  37   2.0000      -0.665115       -18.0987
  38   2.0000      -0.650254       -17.6943
  39   2.0000      -0.623654       -16.9705
  40   2.0000      -0.594446       -16.1757
  41   2.0000      -0.574402       -15.6303
  42   2.0000      -0.570438       -15.5224
  43   2.0000      -0.554145       -15.0791
  44   2.0000      -0.526180       -14.3181
  45   2.0000      -0.525311       -14.2944
  46   2.0000      -0.515618       -14.0307
  47   2.0000      -0.511990       -13.9320
  48   2.0000      -0.508768       -13.8443
  49   2.0000      -0.501513       -13.6469
  50   2.0000      -0.496653       -13.5146
  51   2.0000      -0.481060       -13.0903
  52   2.0000      -0.474615       -12.9149
  53   2.0000      -0.468870       -12.7586
  54   2.0000      -0.463784       -12.6202
  55   2.0000      -0.450229       -12.2513
  56   2.0000      -0.441210       -12.0059
  57   2.0000      -0.436852       -11.8873
  58   2.0000      -0.432114       -11.7584
  59   2.0000      -0.422683       -11.5018
  60   2.0000      -0.419274       -11.4090
  61   2.0000      -0.410148       -11.1607
  62   2.0000      -0.406615       -11.0645
  63   2.0000      -0.352461        -9.5909
  64   2.0000      -0.336469        -9.1558
  65   2.0000      -0.329455        -8.9649
  66   2.0000      -0.290223        -7.8974
  67   0.0000       0.023392         0.6365
  68   0.0000       0.074605         2.0301
  69   0.0000       0.111076         3.0225
  70   0.0000       0.122021         3.3203
  71   0.0000       0.127323         3.4646

MULLIKEN ATOMIC CHARGES
-----------------------
   0 S :    0.133769
   1 C :   -0.081865
   2 C :   -0.056385
   3 C :    0.032161
   4 C :   -0.159048
   5 H :   -0.021305
   6 C :    0.050105
   7 H :    0.049212
   8 H :    0.021602
   9 C :   -0.078728
  10 H :    0.014080
  11 H :    0.013389
  12 C :   -0.061043
  13 H :    0.041096
  14 H :    0.047879
  15 H :    0.042270
  16 S :    0.071554
  17 C :   -0.090355
  18 C :   -0.006122
  19 C :   -0.070902
  20 C :   -0.117237
  21 H :    0.005634
  22 C :    0.067769
  23 H :    0.014460
  24 H :    0.026704
  25 C :   -0.065941
  26 H :    0.045766
  27 H :    0.050597
  28 C :   -0.083356
  29 H :    0.031706
  30 H :    0.018786
  31 H :    0.049042
  32 H :    0.003058
  33 H :    0.061648
Sum of atomic charges:    0.0000000

LOEWDIN ATOMIC CHARGES
----------------------
   0 S :    0.446867
   1 C :   -0.193233
   2 C :   -0.068267
   3 C :   -0.054071
   4 C :   -0.200015
   5 H :    0.019208
   6 C :   -0.025845
   7 H :    0.035830
   8 H :    0.029052
   9 C :   -0.056827
  10 H :    0.019525
  11 H :    0.019412
  12 C :   -0.072419
  13 H :    0.031667
  14 H :    0.036342
  15 H :    0.033669
  16 S :    0.353483
  17 C :   -0.164070
  18 C :   -0.066956
  19 C :   -0.066894
  20 C :   -0.169286
  21 H :    0.023686
  22 C :   -0.039809
  23 H :    0.029131
  24 H :    0.033290
  25 C :   -0.036629
  26 H :    0.031685
  27 H :    0.031994
  28 C :   -0.082789
  29 H :    0.029071
  30 H :    0.020369
  31 H :    0.031711
  32 H :    0.011517
  33 H :    0.029600

  Mayer bond orders larger than 0.100000
B(  0-S ,  1-C ) :   1.1630 B(  0-S ,  4-C ) :   1.1757 B(  1-C ,  2-C ) :   1.5849
B(  1-C , 32-H ) :   0.9764 B(  2-C ,  3-C ) :   1.2766 B(  2-C ,  6-C ) :   1.0167
B(  3-C ,  4-C ) :   1.5193 B(  3-C ,  5-H ) :   1.0038 B(  4-C , 20-C ) :   1.0418
B(  6-C ,  7-H ) :   0.9473 B(  6-C ,  8-H ) :   0.9392 B(  6-C ,  9-C ) :   1.0498
B(  9-C , 10-H ) :   0.9567 B(  9-C , 11-H ) :   0.9475 B(  9-C , 12-C ) :   1.0835
B( 12-C , 13-H ) :   0.9705 B( 12-C , 14-H ) :   0.9692 B( 12-C , 15-H ) :   0.9749
B( 16-S , 17-C ) :   1.1509 B( 16-S , 20-C ) :   1.1083 B( 17-C , 18-C ) :   1.5845
B( 17-C , 20-C ) :   0.1020 B( 17-C , 33-H ) :   0.9731 B( 18-C , 19-C ) :   1.2507
B( 18-C , 21-H ) :   0.9969 B( 19-C , 20-C ) :   1.6171 B( 19-C , 22-C ) :   1.0468
B( 22-C , 23-H ) :   0.9341 B( 22-C , 24-H ) :   0.9279 B( 22-C , 25-C ) :   1.0385
B( 25-C , 26-H ) :   0.9568 B( 25-C , 27-H ) :   0.9603 B( 25-C , 28-C ) :   1.0592
B( 28-C , 29-H ) :   0.9759 B( 28-C , 30-H ) :   0.9740 B( 28-C , 31-H ) :   0.9783

Dispersion correction           -0.014310359
FINAL SINGLE POINT ENERGY     -1339.862715493919

DIPOLE MOMENT
-------------
                                X             Y             Z
Electronic contribution:      1.71013      -6.23902      33.52031
Nuclear contribution   :     -1.83490       6.56117     -34.24934
                        -----------------------------------------
Total Dipole Moment    :     -0.12476       0.32215      -0.72903
                        -----------------------------------------
Magnitude (a.u.)       :      0.80674
Magnitude (Debye)      :      2.05057

Rotational constants in cm-1:     0.017717     0.009333     0.006366
Rotational constants in MHz :   531.128084   279.784400   190.852870

                             ****ORCA TERMINATED NORMALLY****
TOTAL RUN TIME: 0 days 0 hours 0 minutes 35 seconds 689 msec
