                         Program Version 4.2.1 -  RELEASE  -
|  1> ! wB97X-D3 SP def2-SVP
|  2> %pal
|  3> nprocs 16
|  4> end
|  5>
|  6> * xyz 0 1
|  7> S 	 9.60703 	 -8.95606 	 98.2415
|  8> C 	 10.9629 	 -8.82336 	 99.3365
|  9> C 	 11.9391 	 -7.967 	 98.8742
| 10> C 	 11.5514 	 -7.43447 	 97.5896
| 11> C 	 10.2988 	 -7.83145 	 97.1154
| 12> H 	 12.163 	 -6.72956 	 97.0821
| 13> C 	 13.2382 	 -7.64047 	 99.5801
| 14> H 	 14.0817 	 -7.84226 	 98.9146
| 15> H 	 13.4032 	 -8.33572 	 100.469
| 16> C 	 13.2496 	 -6.20148 	 100.137
| 17> H 	 14.2257 	 -6.00126 	 100.47
| 18> H 	 13.1628 	 -5.50979 	 99.2321
| 19> C 	 12.208 	 -5.87341 	 101.252
| 20> H 	 11.1747 	 -5.82761 	 101.022
| 21> H 	 12.4552 	 -6.47307 	 102.16
| 22> H 	 12.3304 	 -4.82144 	 101.644
| 23> S 	 8.81587 	 -8.61427 	 94.9688
| 24> C 	 8.02725 	 -7.43425 	 94.0898
| 25> C 	 8.37936 	 -6.17733 	 94.418
| 26> C 	 9.16816 	 -6.14332 	 95.5838
| 27> C 	 9.5457 	 -7.38933 	 95.9857
| 28> H 	 8.00085 	 -5.30691 	 93.8952
| 29> C 	 9.43373 	 -4.81279 	 96.3836
| 30> H 	 9.62089 	 -4.01076 	 95.784
| 31> H 	 10.2986 	 -4.99281 	 97.0033
| 32> C 	 8.27665 	 -4.3197 	 97.169
| 33> H 	 7.52676 	 -3.88558 	 96.5919
| 34> H 	 8.6017 	 -3.49505 	 97.8012
| 35> C 	 7.76629 	 -5.36994 	 98.1584
| 36> H 	 7.17175 	 -6.17757 	 97.6287
| 37> H 	 7.16674 	 -4.8776 	 98.8848
| 38> H 	 8.57426 	 -5.86675 	 98.6828
| 39> H 	 11.1448 	 -9.41583 	 100.262
| 40> H 	 7.5535 	 -7.67801 	 93.132
| 41> *
| 42>
| 43>                          ****END OF INPUT****

CARTESIAN COORDINATES (ANGSTROEM)
---------------------------------
  S      9.607030   -8.956060   98.241500
  C     10.962900   -8.823360   99.336500
  C     11.939100   -7.967000   98.874200
  C     11.551400   -7.434470   97.589600
  C     10.298800   -7.831450   97.115400
  H     12.163000   -6.729560   97.082100
  C     13.238200   -7.640470   99.580100
  H     14.081700   -7.842260   98.914600
  H     13.403200   -8.335720  100.469000
  C     13.249600   -6.201480  100.137000
  H     14.225700   -6.001260  100.470000
  H     13.162800   -5.509790   99.232100
  C     12.208000   -5.873410  101.252000
  H     11.174700   -5.827610  101.022000
  H     12.455200   -6.473070  102.160000
  H     12.330400   -4.821440  101.644000
  S      8.815870   -8.614270   94.968800
  C      8.027250   -7.434250   94.089800
  C      8.379360   -6.177330   94.418000
  C      9.168160   -6.143320   95.583800
  C      9.545700   -7.389330   95.985700
  H      8.000850   -5.306910   93.895200
  C      9.433730   -4.812790   96.383600
  H      9.620890   -4.010760   95.784000
  H     10.298600   -4.992810   97.003300
  C      8.276650   -4.319700   97.169000
  H      7.526760   -3.885580   96.591900
  H      8.601700   -3.495050   97.801200
  C      7.766290   -5.369940   98.158400
  H      7.171750   -6.177570   97.628700
  H      7.166740   -4.877600   98.884800
  H      8.574260   -5.866750   98.682800
  H     11.144800   -9.415830  100.262000
  H      7.553500   -7.678010   93.132000

 Total Charge           Charge          ....    0
 Multiplicity           Mult            ....    1
 Number of Electrons    NEL             ....  134
 Basis Dimension        Dim             ....  322

ORBITAL ENERGIES
----------------

  NO   OCC          E(Eh)            E(eV)
   0   2.0000     -88.964855     -2420.8568
   1   2.0000     -88.963619     -2420.8232
   2   2.0000     -10.326606      -281.0012
   3   2.0000     -10.319741      -280.8144
   4   2.0000     -10.313257      -280.6380
   5   2.0000     -10.308676      -280.5133
   6   2.0000     -10.300481      -280.2903
   7   2.0000     -10.300215      -280.2831
   8   2.0000     -10.299258      -280.2571
   9   2.0000     -10.294016      -280.1144
  10   2.0000     -10.292598      -280.0758
  11   2.0000     -10.286694      -279.9152
  12   2.0000     -10.284526      -279.8562
  13   2.0000     -10.280086      -279.7354
  14   2.0000     -10.272452      -279.5276
  15   2.0000     -10.265784      -279.3462
  16   2.0000      -8.080364      -219.8779
  17   2.0000      -8.079586      -219.8567
  18   2.0000      -6.038544      -164.3171
  19   2.0000      -6.038132      -164.3059
  20   2.0000      -6.034671      -164.2117
  21   2.0000      -6.033971      -164.1927
  22   2.0000      -6.031252      -164.1187
  23   2.0000      -6.030418      -164.0960
  24   2.0000      -1.017760       -27.6947
  25   2.0000      -0.988953       -26.9108
  26   2.0000      -0.915818       -24.9207
  27   2.0000      -0.910079       -24.7645
  28   2.0000      -0.871081       -23.7033
  29   2.0000      -0.851549       -23.1718
  30   2.0000      -0.840497       -22.8711
  31   2.0000      -0.810602       -22.0576
  32   2.0000      -0.788026       -21.4433
  33   2.0000      -0.778321       -21.1792
  34   2.0000      -0.711366       -19.3572
  35   2.0000      -0.695980       -18.9386
  36   2.0000      -0.692669       -18.8485
  37   2.0000      -0.660123       -17.9628
  38   2.0000      -0.634555       -17.2671
  39   2.0000      -0.622727       -16.9453
  40   2.0000      -0.600159       -16.3312
  41   2.0000      -0.567828       -15.4514
  42   2.0000      -0.557671       -15.1750
  43   2.0000      -0.552821       -15.0430
  44   2.0000      -0.548669       -14.9300
  45   2.0000      -0.539063       -14.6686
  46   2.0000      -0.510116       -13.8810
  47   2.0000      -0.508250       -13.8302
  48   2.0000      -0.500629       -13.6228
  49   2.0000      -0.496618       -13.5137
  50   2.0000      -0.494239       -13.4489
  51   2.0000      -0.478423       -13.0186
  52   2.0000      -0.463095       -12.6015
  53   2.0000      -0.461982       -12.5712
  54   2.0000      -0.459621       -12.5069
  55   2.0000      -0.452060       -12.3012
  56   2.0000      -0.448326       -12.1996
  57   2.0000      -0.438117       -11.9218
  58   2.0000      -0.432618       -11.7721
  59   2.0000      -0.423074       -11.5124
  60   2.0000      -0.420063       -11.4305
  61   2.0000      -0.414717       -11.2850
  62   2.0000      -0.405123       -11.0240
  63   2.0000      -0.347700        -9.4614
  64   2.0000      -0.335504        -9.1295
  65   2.0000      -0.328894        -8.9497
  66   2.0000      -0.293711        -7.9923
  67   0.0000       0.034572         0.9407
  68   0.0000       0.074632         2.0309
  69   0.0000       0.118530         3.2254
  70   0.0000       0.123703         3.3661
  71   0.0000       0.127460         3.4684

MULLIKEN ATOMIC CHARGES
-----------------------
   0 S :    0.115851
   1 C :   -0.131146
   2 C :   -0.096715
   3 C :    0.052266
   4 C :   -0.157342
   5 H :   -0.004957
   6 C :    0.042014
   7 H :    0.040496
   8 H :    0.025118
   9 C :   -0.058933
  10 H :    0.016867
  11 H :    0.028376
  12 C :   -0.060952
  13 H :    0.044729
  14 H :    0.035989
  15 H :    0.028322
  16 S :    0.119972
  17 C :   -0.081347
  18 C :   -0.043580
  19 C :   -0.048947
  20 C :   -0.180652
  21 H :    0.015703
  22 C :    0.168533
  23 H :   -0.010081
  24 H :    0.007734
  25 C :   -0.064970
  26 H :    0.011713
  27 H :    0.019299
  28 C :   -0.053569
  29 H :    0.048848
  30 H :    0.020360
  31 H :    0.031320
  32 H :    0.056347
  33 H :    0.063333
Sum of atomic charges:    0.0000000

LOEWDIN ATOMIC CHARGES
----------------------
   0 S :    0.415265
   1 C :   -0.207290
   2 C :   -0.067263
   3 C :   -0.060034
   4 C :   -0.199813
   5 H :    0.020958
   6 C :   -0.034799
   7 H :    0.034285
   8 H :    0.033109
   9 C :   -0.039526
  10 H :    0.017012
  11 H :    0.026841
  12 C :   -0.072961
  13 H :    0.022876
  14 H :    0.030585
  15 H :    0.034354
  16 S :    0.436309
  17 C :   -0.205513
  18 C :   -0.076382
  19 C :   -0.045223
  20 C :   -0.207412
  21 H :    0.032444
  22 C :   -0.015580
  23 H :    0.017582
  24 H :    0.026891
  25 C :   -0.036357
  26 H :    0.013640
  27 H :    0.027553
  28 C :   -0.063410
  29 H :    0.031933
  30 H :    0.017601
  31 H :    0.022938
  32 H :    0.036908
  33 H :    0.032480

  Mayer bond orders larger than 0.100000
B(  0-S ,  1-C ) :   1.1377 B(  0-S ,  4-C ) :   1.1535 B(  1-C ,  2-C ) :   1.6197
B(  1-C , 32-H ) :   0.9573 B(  2-C ,  3-C ) :   1.2443 B(  2-C ,  6-C ) :   1.0236
B(  3-C ,  4-C ) :   1.5651 B(  3-C ,  5-H ) :   0.9991 B(  4-C , 20-C ) :   1.0403
B(  6-C ,  7-H ) :   0.9408 B(  6-C ,  8-H ) :   0.9434 B(  6-C ,  9-C ) :   1.0728
B(  9-C , 10-H ) :   0.9552 B(  9-C , 11-H ) :   0.9561 B(  9-C , 12-C ) :   1.0649
B( 12-C , 13-H ) :   0.9780 B( 12-C , 14-H ) :   0.9740 B( 12-C , 15-H ) :   0.9711
B( 16-S , 17-C ) :   1.1770 B( 16-S , 20-C ) :   1.1475 B( 17-C , 18-C ) :   1.6028
B( 17-C , 33-H ) :   0.9571 B( 18-C , 19-C ) :   1.2496 B( 18-C , 21-H ) :   0.9935
B( 19-C , 20-C ) :   1.6048 B( 19-C , 22-C ) :   1.0327 B( 22-C , 23-H ) :   0.9216
B( 22-C , 24-H ) :   0.9271 B( 22-C , 25-C ) :   1.0972 B( 25-C , 26-H ) :   0.9521
B( 25-C , 27-H ) :   0.9493 B( 25-C , 28-C ) :   1.0785 B( 28-C , 29-H ) :   0.9715
B( 28-C , 30-H ) :   0.9754 B( 28-C , 31-H ) :   0.9752

Dispersion correction           -0.016199387
FINAL SINGLE POINT ENERGY     -1339.881814881642

DIPOLE MOMENT
-------------
                                X             Y             Z
Electronic contribution:     -7.40262     -19.79670     -16.86214
Nuclear contribution   :      7.71338      20.42035      16.99528
                        -----------------------------------------
Total Dipole Moment    :      0.31077       0.62365       0.13314
                        -----------------------------------------
Magnitude (a.u.)       :      0.70939
Magnitude (Debye)      :      1.80313

Rotational constants in cm-1:     0.021949     0.009437     0.007823
Rotational constants in MHz :   658.028664   282.927349   234.539555

                             ****ORCA TERMINATED NORMALLY****
TOTAL RUN TIME: 0 days 0 hours 0 minutes 36 seconds 495 msec
