                         Program Version 4.2.1 -  RELEASE  -
|  1> ! wB97X-D3 SP def2-SVP
|  2> %pal
|  3> nprocs 16
|  4> end
|  5>
|  6> * xyz 0 1
|  7> S 	 -72.7738 	 57.5341 	 123.362
|  8> C 	 -73.0533 	 59.2889 	 123.049
|  9> C 	 -72.4263 	 60.1037 	 123.978
| 10> C 	 -71.5742 	 59.3064 	 124.814
| 11> C 	 -71.5648 	 57.9624 	 124.519
| 12> H 	 -71.1217 	 59.7365 	 125.71
| 13> C 	 -72.6632 	 61.599 	 124.156
| 14> H 	 -71.9855 	 62.2443 	 123.554
| 15> H 	 -72.3292 	 61.7856 	 125.147
| 16> C 	 -74.1192 	 62.1548 	 124.059
| 17> H 	 -74.7225 	 61.8684 	 123.175
| 18> H 	 -74.5948 	 61.7707 	 124.942
| 19> C 	 -74.25 	 63.7374 	 124.107
| 20> H 	 -73.6721 	 64.137 	 124.998
| 21> H 	 -73.6652 	 63.9981 	 123.241
| 22> H 	 -75.228 	 64.207 	 124.072
| 23> S 	 -71.5315 	 55.4915 	 125.744
| 24> C 	 -70.1354 	 54.8979 	 126.575
| 25> C 	 -69.0881 	 55.8094 	 126.528
| 26> C 	 -69.4445 	 56.9887 	 125.784
| 27> C 	 -70.7518 	 56.9729 	 125.271
| 28> H 	 -68.1893 	 55.6431 	 127.046
| 29> C 	 -68.4898 	 58.1493 	 125.573
| 30> H 	 -68.8173 	 59.0452 	 126.129
| 31> H 	 -68.6572 	 58.5757 	 124.585
| 32> C 	 -66.9975 	 57.9834 	 125.791
| 33> H 	 -66.6252 	 57.1881 	 125.125
| 34> H 	 -66.7656 	 57.7777 	 126.877
| 35> C 	 -66.0459 	 59.1246 	 125.485
| 36> H 	 -65.9673 	 59.1583 	 124.433
| 37> H 	 -65.0907 	 58.8062 	 125.906
| 38> H 	 -66.2937 	 60.1521 	 125.884
| 39> H 	 -73.9111 	 59.6159 	 122.461
| 40> H 	 -70.0576 	 53.9796 	 127.044
| 41> *
| 42>
| 43>                          ****END OF INPUT****

CARTESIAN COORDINATES (ANGSTROEM)
---------------------------------
  S    -72.773800   57.534100  123.362000
  C    -73.053300   59.288900  123.049000
  C    -72.426300   60.103700  123.978000
  C    -71.574200   59.306400  124.814000
  C    -71.564800   57.962400  124.519000
  H    -71.121700   59.736500  125.710000
  C    -72.663200   61.599000  124.156000
  H    -71.985500   62.244300  123.554000
  H    -72.329200   61.785600  125.147000
  C    -74.119200   62.154800  124.059000
  H    -74.722500   61.868400  123.175000
  H    -74.594800   61.770700  124.942000
  C    -74.250000   63.737400  124.107000
  H    -73.672100   64.137000  124.998000
  H    -73.665200   63.998100  123.241000
  H    -75.228000   64.207000  124.072000
  S    -71.531500   55.491500  125.744000
  C    -70.135400   54.897900  126.575000
  C    -69.088100   55.809400  126.528000
  C    -69.444500   56.988700  125.784000
  C    -70.751800   56.972900  125.271000
  H    -68.189300   55.643100  127.046000
  C    -68.489800   58.149300  125.573000
  H    -68.817300   59.045200  126.129000
  H    -68.657200   58.575700  124.585000
  C    -66.997500   57.983400  125.791000
  H    -66.625200   57.188100  125.125000
  H    -66.765600   57.777700  126.877000
  C    -66.045900   59.124600  125.485000
  H    -65.967300   59.158300  124.433000
  H    -65.090700   58.806200  125.906000
  H    -66.293700   60.152100  125.884000
  H    -73.911100   59.615900  122.461000
  H    -70.057600   53.979600  127.044000

 Total Charge           Charge          ....    0
 Multiplicity           Mult            ....    1
 Number of Electrons    NEL             ....  134
 Basis Dimension        Dim             ....  322

ORBITAL ENERGIES
----------------

  NO   OCC          E(Eh)            E(eV)
   0   2.0000     -88.970003     -2420.9969
   1   2.0000     -88.965344     -2420.8701
   2   2.0000     -10.333356      -281.1849
   3   2.0000     -10.328264      -281.0463
   4   2.0000     -10.317774      -280.7609
   5   2.0000     -10.312880      -280.6277
   6   2.0000     -10.307839      -280.4905
   7   2.0000     -10.307777      -280.4889
   8   2.0000     -10.301554      -280.3195
   9   2.0000     -10.295829      -280.1637
  10   2.0000     -10.295581      -280.1570
  11   2.0000     -10.292813      -280.0817
  12   2.0000     -10.289035      -279.9789
  13   2.0000     -10.288899      -279.9752
  14   2.0000     -10.287043      -279.9247
  15   2.0000     -10.278710      -279.6979
  16   2.0000      -8.084354      -219.9865
  17   2.0000      -8.080566      -219.8834
  18   2.0000      -6.042850      -164.4343
  19   2.0000      -6.039221      -164.3356
  20   2.0000      -6.038976      -164.3289
  21   2.0000      -6.034883      -164.2175
  22   2.0000      -6.034828      -164.2160
  23   2.0000      -6.031552      -164.1269
  24   2.0000      -1.006522       -27.3889
  25   2.0000      -0.983863       -26.7723
  26   2.0000      -0.910227       -24.7685
  27   2.0000      -0.908401       -24.7189
  28   2.0000      -0.866433       -23.5768
  29   2.0000      -0.855866       -23.2893
  30   2.0000      -0.846274       -23.0283
  31   2.0000      -0.814418       -22.1614
  32   2.0000      -0.785260       -21.3680
  33   2.0000      -0.775079       -21.0910
  34   2.0000      -0.709275       -19.3004
  35   2.0000      -0.697385       -18.9768
  36   2.0000      -0.695008       -18.9121
  37   2.0000      -0.654692       -17.8151
  38   2.0000      -0.636485       -17.3196
  39   2.0000      -0.621576       -16.9139
  40   2.0000      -0.601229       -16.3603
  41   2.0000      -0.572141       -15.5687
  42   2.0000      -0.571552       -15.5527
  43   2.0000      -0.565385       -15.3849
  44   2.0000      -0.531862       -14.4727
  45   2.0000      -0.524253       -14.2656
  46   2.0000      -0.517321       -14.0770
  47   2.0000      -0.510151       -13.8819
  48   2.0000      -0.502644       -13.6776
  49   2.0000      -0.496384       -13.5073
  50   2.0000      -0.492830       -13.4106
  51   2.0000      -0.477828       -13.0023
  52   2.0000      -0.470251       -12.7962
  53   2.0000      -0.468953       -12.7609
  54   2.0000      -0.458012       -12.4631
  55   2.0000      -0.454728       -12.3738
  56   2.0000      -0.451174       -12.2771
  57   2.0000      -0.440973       -11.9995
  58   2.0000      -0.427013       -11.6196
  59   2.0000      -0.422366       -11.4932
  60   2.0000      -0.420042       -11.4299
  61   2.0000      -0.418935       -11.3998
  62   2.0000      -0.412290       -11.2190
  63   2.0000      -0.350000        -9.5240
  64   2.0000      -0.333761        -9.0821
  65   2.0000      -0.328660        -8.9433
  66   2.0000      -0.289120        -7.8673
  67   0.0000       0.023624         0.6429
  68   0.0000       0.072854         1.9824
  69   0.0000       0.098193         2.6720
  70   0.0000       0.125077         3.4035
  71   0.0000       0.136111         3.7038

MULLIKEN ATOMIC CHARGES
-----------------------
   0 S :    0.104977
   1 C :   -0.127902
   2 C :   -0.079076
   3 C :   -0.012743
   4 C :   -0.107924
   5 H :    0.022177
   6 C :    0.089162
   7 H :    0.042467
   8 H :    0.004555
   9 C :   -0.105205
  10 H :    0.043745
  11 H :    0.034335
  12 C :   -0.077060
  13 H :    0.034578
  14 H :    0.027782
  15 H :    0.052386
  16 S :    0.100722
  17 C :   -0.054236
  18 C :   -0.027824
  19 C :   -0.028954
  20 C :   -0.144653
  21 H :    0.005481
  22 C :    0.063001
  23 H :    0.021149
  24 H :    0.018446
  25 C :   -0.117137
  26 H :    0.035823
  27 H :    0.036326
  28 C :   -0.034158
  29 H :    0.023623
  30 H :    0.033253
  31 H :    0.038089
  32 H :    0.054304
  33 H :    0.030492
Sum of atomic charges:    0.0000000

LOEWDIN ATOMIC CHARGES
----------------------
   0 S :    0.393779
   1 C :   -0.181016
   2 C :   -0.056269
   3 C :   -0.067135
   4 C :   -0.196245
   5 H :    0.032844
   6 C :   -0.029945
   7 H :    0.035512
   8 H :    0.027129
   9 C :   -0.040028
  10 H :    0.024824
  11 H :    0.020904
  12 C :   -0.070167
  13 H :    0.028868
  14 H :    0.021726
  15 H :    0.028796
  16 S :    0.418525
  17 C :   -0.177815
  18 C :   -0.064291
  19 C :   -0.051935
  20 C :   -0.201597
  21 H :    0.025369
  22 C :   -0.047913
  23 H :    0.031588
  24 H :    0.032830
  25 C :   -0.050176
  26 H :    0.029601
  27 H :    0.025848
  28 C :   -0.060867
  29 H :    0.017250
  30 H :    0.030510
  31 H :    0.027605
  32 H :    0.025877
  33 H :    0.016014

  Mayer bond orders larger than 0.100000
B(  0-S ,  1-C ) :   1.1216 B(  0-S ,  4-C ) :   1.1539 B(  1-C ,  2-C ) :   1.6258
B(  1-C , 32-H ) :   0.9635 B(  2-C ,  3-C ) :   1.2510 B(  2-C ,  6-C ) :   1.0114
B(  3-C ,  4-C ) :   1.5609 B(  3-C ,  5-H ) :   0.9890 B(  4-C , 20-C ) :   1.0386
B(  6-C ,  7-H ) :   0.9371 B(  6-C ,  8-H ) :   0.9368 B(  6-C ,  9-C ) :   1.0465
B(  9-C , 10-H ) :   0.9623 B(  9-C , 11-H ) :   0.9630 B(  9-C , 12-C ) :   1.0647
B( 12-C , 13-H ) :   0.9774 B( 12-C , 14-H ) :   0.9784 B( 12-C , 15-H ) :   0.9776
B( 16-S , 17-C ) :   1.1752 B( 16-S , 20-C ) :   1.1456 B( 17-C , 18-C ) :   1.5726
B( 17-C , 33-H ) :   0.9745 B( 18-C , 19-C ) :   1.2664 B( 18-C , 21-H ) :   0.9993
B( 19-C , 20-C ) :   1.5761 B( 19-C , 22-C ) :   1.0404 B( 22-C , 23-H ) :   0.9201
B( 22-C , 24-H ) :   0.9272 B( 22-C , 25-C ) :   1.0783 B( 25-C , 26-H ) :   0.9544
B( 25-C , 27-H ) :   0.9505 B( 25-C , 28-C ) :   1.0847 B( 28-C , 29-H ) :   0.9764
B( 28-C , 30-H ) :   0.9734 B( 28-C , 31-H ) :   0.9734

Dispersion correction           -0.013126275
FINAL SINGLE POINT ENERGY     -1339.870151572826

DIPOLE MOMENT
-------------
                                X             Y             Z
Electronic contribution:    -11.02773     -27.22783      -2.18760
Nuclear contribution   :     11.26315      27.81010       2.48949
                        -----------------------------------------
Total Dipole Moment    :      0.23543       0.58227       0.30189
                        -----------------------------------------
Magnitude (a.u.)       :      0.69685
Magnitude (Debye)      :      1.77125

Rotational constants in cm-1:     0.018026     0.007440     0.005689
Rotational constants in MHz :   540.408187   223.039232   170.554641

                             ****ORCA TERMINATED NORMALLY****
TOTAL RUN TIME: 0 days 0 hours 0 minutes 31 seconds 657 msec
