                         Program Version 4.2.1 -  RELEASE  -
|  1> ! wB97X-D3 SP def2-SVP
|  2> %pal
|  3> nprocs 16
|  4> end
|  5>
|  6> * xyz 0 1
|  7> S 	 -42.9866 	 35.2005 	 82.3803
|  8> C 	 -42.8802 	 36.6414 	 81.4408
|  9> C 	 -41.6969 	 36.6104 	 80.6732
| 10> C 	 -41.0133 	 35.3862 	 80.7802
| 11> C 	 -41.5642 	 34.5625 	 81.7148
| 12> H 	 -40.122 	 35.0614 	 80.3202
| 13> C 	 -41.4021 	 37.4804 	 79.4486
| 14> H 	 -40.4708 	 37.9192 	 79.6411
| 15> H 	 -42.0892 	 38.2688 	 79.5368
| 16> C 	 -41.6104 	 37.0335 	 78.0097
| 17> H 	 -40.9599 	 36.2502 	 77.7439
| 18> H 	 -42.6111 	 36.6536 	 78.0279
| 19> C 	 -41.466 	 38.1656 	 77.0454
| 20> H 	 -40.4183 	 38.417 	 76.9722
| 21> H 	 -41.8249 	 37.9268 	 76.0813
| 22> H 	 -42.007 	 39.0349 	 77.429
| 23> S 	 -39.7755 	 33.0949 	 83.1346
| 24> C 	 -39.7322 	 31.3456 	 83.0178
| 25> C 	 -40.7052 	 30.8512 	 82.2036
| 26> C 	 -41.4641 	 31.9358 	 81.6266
| 27> C 	 -41.0879 	 33.2117 	 81.9577
| 28> H 	 -40.7908 	 29.8679 	 81.9575
| 29> C 	 -42.5452 	 31.5419 	 80.6007
| 30> H 	 -43.0306 	 32.2985 	 80.2136
| 31> H 	 -43.3665 	 31.0046 	 81.1146
| 32> C 	 -42.0691 	 30.7605 	 79.3576
| 33> H 	 -42.8879 	 30.5136 	 78.6696
| 34> H 	 -41.786 	 29.7905 	 79.6874
| 35> C 	 -41.0118 	 31.4507 	 78.5574
| 36> H 	 -40.0354 	 31.4738 	 79.063
| 37> H 	 -41.3285 	 32.4579 	 78.4311
| 38> H 	 -40.9028 	 30.9116 	 77.5996
| 39> H 	 -43.6079 	 37.3914 	 81.5008
| 40> H 	 -39.2317 	 30.6718 	 83.6961
| 41> *
| 42>
| 43>                          ****END OF INPUT****

CARTESIAN COORDINATES (ANGSTROEM)
---------------------------------
  S    -42.986600   35.200500   82.380300
  C    -42.880200   36.641400   81.440800
  C    -41.696900   36.610400   80.673200
  C    -41.013300   35.386200   80.780200
  C    -41.564200   34.562500   81.714800
  H    -40.122000   35.061400   80.320200
  C    -41.402100   37.480400   79.448600
  H    -40.470800   37.919200   79.641100
  H    -42.089200   38.268800   79.536800
  C    -41.610400   37.033500   78.009700
  H    -40.959900   36.250200   77.743900
  H    -42.611100   36.653600   78.027900
  C    -41.466000   38.165600   77.045400
  H    -40.418300   38.417000   76.972200
  H    -41.824900   37.926800   76.081300
  H    -42.007000   39.034900   77.429000
  S    -39.775500   33.094900   83.134600
  C    -39.732200   31.345600   83.017800
  C    -40.705200   30.851200   82.203600
  C    -41.464100   31.935800   81.626600
  C    -41.087900   33.211700   81.957700
  H    -40.790800   29.867900   81.957500
  C    -42.545200   31.541900   80.600700
  H    -43.030600   32.298500   80.213600
  H    -43.366500   31.004600   81.114600
  C    -42.069100   30.760500   79.357600
  H    -42.887900   30.513600   78.669600
  H    -41.786000   29.790500   79.687400
  C    -41.011800   31.450700   78.557400
  H    -40.035400   31.473800   79.063000
  H    -41.328500   32.457900   78.431100
  H    -40.902800   30.911600   77.599600
  H    -43.607900   37.391400   81.500800
  H    -39.231700   30.671800   83.696100

 Total Charge           Charge          ....    0
 Multiplicity           Mult            ....    1
 Number of Electrons    NEL             ....  134
 Basis Dimension        Dim             ....  322

ORBITAL ENERGIES
----------------

  NO   OCC          E(Eh)            E(eV)
   0   2.0000     -88.967979     -2420.9418
   1   2.0000     -88.960320     -2420.7334
   2   2.0000     -10.324884      -280.9544
   3   2.0000     -10.321020      -280.8492
   4   2.0000     -10.315296      -280.6935
   5   2.0000     -10.315129      -280.6889
   6   2.0000     -10.304309      -280.3945
   7   2.0000     -10.301099      -280.3072
   8   2.0000     -10.286074      -279.8983
   9   2.0000     -10.284962      -279.8680
  10   2.0000     -10.277958      -279.6775
  11   2.0000     -10.277878      -279.6753
  12   2.0000     -10.277149      -279.6554
  13   2.0000     -10.276876      -279.6480
  14   2.0000     -10.272586      -279.5313
  15   2.0000     -10.270274      -279.4684
  16   2.0000      -8.084065      -219.9786
  17   2.0000      -8.075153      -219.7361
  18   2.0000      -6.042291      -164.4191
  19   2.0000      -6.038209      -164.3080
  20   2.0000      -6.035210      -164.2264
  21   2.0000      -6.033741      -164.1864
  22   2.0000      -6.029568      -164.0729
  23   2.0000      -6.025897      -163.9730
  24   2.0000      -1.014447       -27.6045
  25   2.0000      -0.988029       -26.8856
  26   2.0000      -0.919727       -25.0270
  27   2.0000      -0.909714       -24.7546
  28   2.0000      -0.876250       -23.8440
  29   2.0000      -0.858700       -23.3664
  30   2.0000      -0.844359       -22.9762
  31   2.0000      -0.820690       -22.3321
  32   2.0000      -0.785760       -21.3816
  33   2.0000      -0.774595       -21.0778
  34   2.0000      -0.709534       -19.3074
  35   2.0000      -0.703050       -19.1310
  36   2.0000      -0.693556       -18.8726
  37   2.0000      -0.666564       -18.1381
  38   2.0000      -0.653936       -17.7945
  39   2.0000      -0.623042       -16.9538
  40   2.0000      -0.600607       -16.3434
  41   2.0000      -0.577799       -15.7227
  42   2.0000      -0.573369       -15.6022
  43   2.0000      -0.552535       -15.0352
  44   2.0000      -0.544967       -14.8293
  45   2.0000      -0.529232       -14.4011
  46   2.0000      -0.522398       -14.2152
  47   2.0000      -0.519242       -14.1293
  48   2.0000      -0.508354       -13.8330
  49   2.0000      -0.501518       -13.6470
  50   2.0000      -0.492426       -13.3996
  51   2.0000      -0.477845       -13.0028
  52   2.0000      -0.472467       -12.8565
  53   2.0000      -0.461942       -12.5701
  54   2.0000      -0.460820       -12.5395
  55   2.0000      -0.452904       -12.3241
  56   2.0000      -0.445339       -12.1183
  57   2.0000      -0.434584       -11.8256
  58   2.0000      -0.433029       -11.7833
  59   2.0000      -0.423440       -11.5224
  60   2.0000      -0.420283       -11.4365
  61   2.0000      -0.416733       -11.3399
  62   2.0000      -0.407552       -11.0901
  63   2.0000      -0.338632        -9.2146
  64   2.0000      -0.333880        -9.0853
  65   2.0000      -0.323112        -8.7923
  66   2.0000      -0.310438        -8.4475
  67   0.0000       0.045538         1.2391
  68   0.0000       0.058323         1.5870
  69   0.0000       0.115305         3.1376
  70   0.0000       0.122210         3.3255
  71   0.0000       0.134144         3.6502

MULLIKEN ATOMIC CHARGES
-----------------------
   0 S :    0.141081
   1 C :   -0.123015
   2 C :   -0.052973
   3 C :    0.042395
   4 C :   -0.153129
   5 H :   -0.000075
   6 C :    0.068825
   7 H :    0.010266
   8 H :   -0.015909
   9 C :   -0.012631
  10 H :    0.015514
  11 H :    0.017723
  12 C :   -0.022406
  13 H :    0.026506
  14 H :    0.027341
  15 H :    0.023503
  16 S :    0.092350
  17 C :   -0.069141
  18 C :   -0.004831
  19 C :   -0.038297
  20 C :   -0.190118
  21 H :   -0.012306
  22 C :    0.130787
  23 H :   -0.032085
  24 H :    0.028593
  25 C :   -0.088028
  26 H :    0.023452
  27 H :    0.005565
  28 C :   -0.027428
  29 H :    0.040456
  30 H :    0.019364
  31 H :    0.037453
  32 H :    0.034707
  33 H :    0.056491
Sum of atomic charges:    0.0000000

LOEWDIN ATOMIC CHARGES
----------------------
   0 S :    0.452383
   1 C :   -0.195284
   2 C :   -0.061021
   3 C :   -0.051313
   4 C :   -0.223538
   5 H :    0.028431
   6 C :   -0.029540
   7 H :    0.020739
   8 H :    0.019403
   9 C :   -0.030802
  10 H :    0.015175
  11 H :    0.023440
  12 C :   -0.052537
  13 H :    0.026194
  14 H :    0.022321
  15 H :    0.025590
  16 S :    0.393459
  17 C :   -0.174326
  18 C :   -0.059534
  19 C :   -0.047922
  20 C :   -0.196546
  21 H :    0.016861
  22 C :   -0.022786
  23 H :    0.001397
  24 H :    0.037771
  25 C :   -0.040471
  26 H :    0.027281
  27 H :    0.009910
  28 C :   -0.061414
  29 H :    0.028375
  30 H :    0.020402
  31 H :    0.030903
  32 H :    0.016568
  33 H :    0.030431

  Mayer bond orders larger than 0.100000
B(  0-S ,  1-C ) :   1.1716 B(  0-S ,  4-C ) :   1.1721 B(  1-C ,  2-C ) :   1.5444
B(  1-C , 32-H ) :   0.9818 B(  2-C ,  3-C ) :   1.2535 B(  2-C ,  6-C ) :   1.0405
B(  3-C ,  4-C ) :   1.5655 B(  3-C ,  5-H ) :   1.0034 B(  4-C , 20-C ) :   0.9974
B(  6-C ,  7-H ) :   0.9285 B(  6-C ,  8-H ) :   0.9383 B(  6-C ,  9-C ) :   1.0580
B(  9-C , 10-H ) :   0.9494 B(  9-C , 11-H ) :   0.9505 B(  9-C , 12-C ) :   1.0944
B( 12-C , 13-H ) :   0.9743 B( 12-C , 14-H ) :   0.9711 B( 12-C , 15-H ) :   0.9742
B( 16-S , 17-C ) :   1.1555 B( 16-S , 20-C ) :   1.1235 B( 17-C , 18-C ) :   1.6279
B( 17-C , 33-H ) :   0.9606 B( 18-C , 19-C ) :   1.2114 B( 18-C , 21-H ) :   1.0078
B( 19-C , 20-C ) :   1.6506 B( 19-C , 22-C ) :   1.0403 B( 22-C , 23-H ) :   0.9281
B( 22-C , 24-H ) :   0.9320 B( 22-C , 25-C ) :   1.0715 B( 25-C , 26-H ) :   0.9536
B( 25-C , 27-H ) :   0.9529 B( 25-C , 28-C ) :   1.0803 B( 28-C , 29-H ) :   0.9708
B( 28-C , 30-H ) :   0.9737 B( 28-C , 31-H ) :   0.9721

Dispersion correction           -0.014682829
FINAL SINGLE POINT ENERGY     -1339.854911526448

DIPOLE MOMENT
-------------
                                X             Y             Z
Electronic contribution:      1.34097      -2.09609      27.39708
Nuclear contribution   :     -1.53623       1.97247     -27.95433
                        -----------------------------------------
Total Dipole Moment    :     -0.19525      -0.12362      -0.55725
                        -----------------------------------------
Magnitude (a.u.)       :      0.60327
Magnitude (Debye)      :      1.53339

Rotational constants in cm-1:     0.019096     0.008560     0.007146
Rotational constants in MHz :   572.481448   256.607742   214.239329

                             ****ORCA TERMINATED NORMALLY****
TOTAL RUN TIME: 0 days 0 hours 0 minutes 30 seconds 320 msec
