                         Program Version 4.2.1 -  RELEASE  -
|  1> ! wB97X-D3 SP def2-SVP
|  2> %pal
|  3> nprocs 16
|  4> end
|  5>
|  6> * xyz 0 1
|  7> S 	 7.28308 	 -11.1386 	 63.439
|  8> C 	 7.70823 	 -11.9642 	 64.9252
|  9> C 	 6.6874 	 -11.8525 	 65.8841
| 10> C 	 5.59419 	 -10.9771 	 65.487
| 11> C 	 5.75549 	 -10.541 	 64.2045
| 12> H 	 4.74464 	 -10.7183 	 66.0951
| 13> C 	 6.87382 	 -12.4029 	 67.3244
| 14> H 	 6.24961 	 -11.7471 	 67.9745
| 15> H 	 7.84059 	 -12.2133 	 67.8349
| 16> C 	 6.70128 	 -13.909 	 67.4793
| 17> H 	 7.43809 	 -14.3288 	 66.8257
| 18> H 	 7.15432 	 -14.1777 	 68.4556
| 19> C 	 5.30786 	 -14.4237 	 67.012
| 20> H 	 5.11659 	 -14.2217 	 65.964
| 21> H 	 5.32585 	 -15.5549 	 67.137
| 22> H 	 4.46556 	 -13.9034 	 67.5499
| 23> S 	 4.99109 	 -8.15349 	 63.1652
| 24> C 	 3.66367 	 -7.92826 	 62.1197
| 25> C 	 2.99184 	 -9.11897 	 62.0507
| 26> C 	 3.60616 	 -10.2125 	 62.7898
| 27> C 	 4.73702 	 -9.80393 	 63.4293
| 28> H 	 2.09495 	 -9.26268 	 61.374
| 29> C 	 3.03109 	 -11.6022 	 62.7416
| 30> H 	 1.88428 	 -11.5822 	 62.7853
| 31> H 	 3.35104 	 -12.1182 	 63.6626
| 32> C 	 3.59803 	 -12.4287 	 61.6059
| 33> H 	 4.64405 	 -12.1999 	 61.7505
| 34> H 	 3.16115 	 -11.9365 	 60.6974
| 35> C 	 3.30062 	 -13.946 	 61.7885
| 36> H 	 3.53348 	 -14.5228 	 60.9327
| 37> H 	 2.25721 	 -14.274 	 61.9701
| 38> H 	 3.86099 	 -14.3853 	 62.6076
| 39> H 	 8.72147 	 -12.3611 	 65.1223
| 40> H 	 3.3522 	 -7.00318 	 61.5447
| 41> *
| 42>
| 43>                          ****END OF INPUT****

CARTESIAN COORDINATES (ANGSTROEM)
---------------------------------
  S      7.283080  -11.138600   63.439000
  C      7.708230  -11.964200   64.925200
  C      6.687400  -11.852500   65.884100
  C      5.594190  -10.977100   65.487000
  C      5.755490  -10.541000   64.204500
  H      4.744640  -10.718300   66.095100
  C      6.873820  -12.402900   67.324400
  H      6.249610  -11.747100   67.974500
  H      7.840590  -12.213300   67.834900
  C      6.701280  -13.909000   67.479300
  H      7.438090  -14.328800   66.825700
  H      7.154320  -14.177700   68.455600
  C      5.307860  -14.423700   67.012000
  H      5.116590  -14.221700   65.964000
  H      5.325850  -15.554900   67.137000
  H      4.465560  -13.903400   67.549900
  S      4.991090   -8.153490   63.165200
  C      3.663670   -7.928260   62.119700
  C      2.991840   -9.118970   62.050700
  C      3.606160  -10.212500   62.789800
  C      4.737020   -9.803930   63.429300
  H      2.094950   -9.262680   61.374000
  C      3.031090  -11.602200   62.741600
  H      1.884280  -11.582200   62.785300
  H      3.351040  -12.118200   63.662600
  C      3.598030  -12.428700   61.605900
  H      4.644050  -12.199900   61.750500
  H      3.161150  -11.936500   60.697400
  C      3.300620  -13.946000   61.788500
  H      3.533480  -14.522800   60.932700
  H      2.257210  -14.274000   61.970100
  H      3.860990  -14.385300   62.607600
  H      8.721470  -12.361100   65.122300
  H      3.352200   -7.003180   61.544700

 Total Charge           Charge          ....    0
 Multiplicity           Mult            ....    1
 Number of Electrons    NEL             ....  134
 Basis Dimension        Dim             ....  322

ORBITAL ENERGIES
----------------

  NO   OCC          E(Eh)            E(eV)
   0   2.0000     -88.971572     -2421.0396
   1   2.0000     -88.960123     -2420.7280
   2   2.0000     -10.336195      -281.2622
   3   2.0000     -10.323180      -280.9080
   4   2.0000     -10.319822      -280.8166
   5   2.0000     -10.317583      -280.7557
   6   2.0000     -10.310558      -280.5645
   7   2.0000     -10.302818      -280.3539
   8   2.0000     -10.299491      -280.2634
   9   2.0000     -10.296039      -280.1695
  10   2.0000     -10.295190      -280.1464
  11   2.0000     -10.289412      -279.9891
  12   2.0000     -10.288551      -279.9657
  13   2.0000     -10.287365      -279.9334
  14   2.0000     -10.286614      -279.9130
  15   2.0000     -10.275824      -279.6194
  16   2.0000      -8.084989      -220.0037
  17   2.0000      -8.076987      -219.7860
  18   2.0000      -6.043534      -164.4529
  19   2.0000      -6.039692      -164.3484
  20   2.0000      -6.035759      -164.2414
  21   2.0000      -6.035416      -164.2320
  22   2.0000      -6.030944      -164.1103
  23   2.0000      -6.027923      -164.0281
  24   2.0000      -1.013896       -27.5895
  25   2.0000      -0.983864       -26.7723
  26   2.0000      -0.911020       -24.7901
  27   2.0000      -0.906543       -24.6683
  28   2.0000      -0.869590       -23.6628
  29   2.0000      -0.845503       -23.0073
  30   2.0000      -0.843272       -22.9466
  31   2.0000      -0.814126       -22.1535
  32   2.0000      -0.779877       -21.2215
  33   2.0000      -0.771608       -20.9965
  34   2.0000      -0.702166       -19.1069
  35   2.0000      -0.701055       -19.0767
  36   2.0000      -0.688491       -18.7348
  37   2.0000      -0.657878       -17.9018
  38   2.0000      -0.645449       -17.5636
  39   2.0000      -0.615207       -16.7406
  40   2.0000      -0.593924       -16.1615
  41   2.0000      -0.568585       -15.4720
  42   2.0000      -0.563656       -15.3379
  43   2.0000      -0.542382       -14.7590
  44   2.0000      -0.535205       -14.5637
  45   2.0000      -0.517025       -14.0690
  46   2.0000      -0.513942       -13.9851
  47   2.0000      -0.511431       -13.9167
  48   2.0000      -0.506578       -13.7847
  49   2.0000      -0.499160       -13.5828
  50   2.0000      -0.490700       -13.3526
  51   2.0000      -0.480899       -13.0859
  52   2.0000      -0.470959       -12.8155
  53   2.0000      -0.463516       -12.6129
  54   2.0000      -0.460156       -12.5215
  55   2.0000      -0.444392       -12.0925
  56   2.0000      -0.441104       -12.0030
  57   2.0000      -0.435840       -11.8598
  58   2.0000      -0.430665       -11.7190
  59   2.0000      -0.423748       -11.5308
  60   2.0000      -0.417057       -11.3487
  61   2.0000      -0.414807       -11.2875
  62   2.0000      -0.400287       -10.8924
  63   2.0000      -0.342147        -9.3103
  64   2.0000      -0.329482        -8.9657
  65   2.0000      -0.324857        -8.8398
  66   2.0000      -0.312854        -8.5132
  67   0.0000       0.037883         1.0308
  68   0.0000       0.061886         1.6840
  69   0.0000       0.109535         2.9806
  70   0.0000       0.115764         3.1501
  71   0.0000       0.123569         3.3625

MULLIKEN ATOMIC CHARGES
-----------------------
   0 S :    0.116661
   1 C :   -0.127672
   2 C :   -0.088837
   3 C :    0.071201
   4 C :   -0.154285
   5 H :    0.023826
   6 C :    0.001560
   7 H :    0.021852
   8 H :    0.028855
   9 C :   -0.041838
  10 H :    0.012633
  11 H :    0.028779
  12 C :   -0.071930
  13 H :    0.044920
  14 H :    0.048854
  15 H :    0.040191
  16 S :    0.114738
  17 C :   -0.109147
  18 C :   -0.063120
  19 C :   -0.037072
  20 C :   -0.193313
  21 H :    0.036157
  22 C :    0.029396
  23 H :    0.037264
  24 H :    0.010860
  25 C :   -0.046106
  26 H :    0.026653
  27 H :    0.034191
  28 C :   -0.028981
  29 H :    0.023306
  30 H :    0.025284
  31 H :    0.030892
  32 H :    0.070650
  33 H :    0.083579
Sum of atomic charges:    0.0000000

LOEWDIN ATOMIC CHARGES
----------------------
   0 S :    0.385146
   1 C :   -0.195446
   2 C :   -0.063487
   3 C :   -0.047865
   4 C :   -0.177934
   5 H :    0.037809
   6 C :   -0.044740
   7 H :    0.026865
   8 H :    0.033744
   9 C :   -0.047190
  10 H :    0.021037
  11 H :    0.028346
  12 C :   -0.072171
  13 H :    0.026254
  14 H :    0.035178
  15 H :    0.029148
  16 S :    0.448681
  17 C :   -0.215766
  18 C :   -0.085206
  19 C :   -0.060427
  20 C :   -0.228861
  21 H :    0.037380
  22 C :   -0.041559
  23 H :    0.032776
  24 H :    0.026163
  25 C :   -0.036786
  26 H :    0.024639
  27 H :    0.028613
  28 C :   -0.069821
  29 H :    0.021408
  30 H :    0.028442
  31 H :    0.027810
  32 H :    0.036792
  33 H :    0.051030

  Mayer bond orders larger than 0.100000
B(  0-S ,  1-C ) :   1.1384 B(  0-S ,  4-C ) :   1.1316 B(  1-C ,  2-C ) :   1.6208
B(  1-C , 32-H ) :   0.9626 B(  2-C ,  3-C ) :   1.2137 B(  2-C ,  6-C ) :   1.0030
B(  3-C ,  4-C ) :   1.6157 B(  3-C ,  5-H ) :   0.9927 B(  4-C , 20-C ) :   0.9865
B(  6-C ,  7-H ) :   0.9502 B(  6-C ,  8-H ) :   0.9512 B(  6-C ,  9-C ) :   1.0701
B(  9-C , 10-H ) :   0.9500 B(  9-C , 11-H ) :   0.9576 B(  9-C , 12-C ) :   1.0599
B( 12-C , 13-H ) :   0.9710 B( 12-C , 14-H ) :   0.9752 B( 12-C , 15-H ) :   0.9786
B( 16-S , 17-C ) :   1.1683 B( 16-S , 20-C ) :   1.1697 B( 17-C , 18-C ) :   1.5937
B( 17-C , 33-H ) :   0.9612 B( 18-C , 19-C ) :   1.2547 B( 18-C , 21-H ) :   0.9782
B( 19-C , 20-C ) :   1.6006 B( 19-C , 22-C ) :   1.0526 B( 22-C , 23-H ) :   0.9330
B( 22-C , 24-H ) :   0.9302 B( 22-C , 25-C ) :   1.0520 B( 25-C , 26-H ) :   0.9520
B( 25-C , 27-H ) :   0.9578 B( 25-C , 28-C ) :   1.0757 B( 28-C , 29-H ) :   0.9745
B( 28-C , 30-H ) :   0.9747 B( 28-C , 31-H ) :   0.9727

Dispersion correction           -0.015156105
FINAL SINGLE POINT ENERGY     -1339.873259497372

DIPOLE MOMENT
-------------
                                X             Y             Z
Electronic contribution:      8.64612      24.62560      -7.74893
Nuclear contribution   :     -8.78940     -24.98987       7.96431
                        -----------------------------------------
Total Dipole Moment    :     -0.14328      -0.36427       0.21539
                        -----------------------------------------
Magnitude (a.u.)       :      0.44678
Magnitude (Debye)      :      1.13562

Rotational constants in cm-1:     0.018919     0.009116     0.007390
Rotational constants in MHz :   567.191959   273.297082   221.557253

                             ****ORCA TERMINATED NORMALLY****
TOTAL RUN TIME: 0 days 0 hours 0 minutes 28 seconds 887 msec
