                         Program Version 4.2.1 -  RELEASE  -
|  1> ! wB97X-D3 SP def2-SVP
|  2> %pal
|  3> nprocs 16
|  4> end
|  5>
|  6> * xyz 0 1
|  7> S 	 -34.6817 	 57.1282 	 106.903
|  8> C 	 -33.8476 	 58.2571 	 105.751
|  9> C 	 -32.7934 	 57.6442 	 105.104
| 10> C 	 -32.611 	 56.3005 	 105.522
| 11> C 	 -33.5701 	 55.8574 	 106.412
| 12> H 	 -31.8534 	 55.6456 	 105.173
| 13> C 	 -31.8691 	 58.4512 	 104.198
| 14> H 	 -31.0521 	 58.8502 	 104.881
| 15> H 	 -32.3953 	 59.2381 	 103.661
| 16> C 	 -31.1785 	 57.5799 	 103.139
| 17> H 	 -30.5898 	 56.7985 	 103.653
| 18> H 	 -31.8915 	 57.2013 	 102.419
| 19> C 	 -30.0881 	 58.2815 	 102.395
| 20> H 	 -30.4813 	 59.1075 	 101.739
| 21> H 	 -29.2809 	 58.5691 	 103.104
| 22> H 	 -29.6052 	 57.5573 	 101.732
| 23> S 	 -35.362 	 53.8088 	 106.213
| 24> C 	 -35.0829 	 52.3445 	 107.044
| 25> C 	 -33.7483 	 52.3008 	 107.422
| 26> C 	 -33.0285 	 53.4842 	 107.047
| 27> C 	 -33.8426 	 54.5033 	 106.749
| 28> H 	 -33.3403 	 51.3918 	 107.89
| 29> C 	 -31.5139 	 53.6684 	 107.089
| 30> H 	 -31.1352 	 53.6892 	 106.093
| 31> H 	 -31.1384 	 52.7375 	 107.389
| 32> C 	 -30.9165 	 54.6226 	 108.13
| 33> H 	 -30.9775 	 54.2345 	 109.128
| 34> H 	 -31.4497 	 55.572 	 108.162
| 35> C 	 -29.4207 	 54.9881 	 107.808
| 36> H 	 -28.7971 	 54.1748 	 107.781
| 37> H 	 -29.0343 	 55.7873 	 108.434
| 38> H 	 -29.4364 	 55.4573 	 106.819
| 39> H 	 -33.9938 	 59.3256 	 105.726
| 40> H 	 -35.697 	 51.4528 	 107.122
| 41> *
| 42>
| 43>                          ****END OF INPUT****

CARTESIAN COORDINATES (ANGSTROEM)
---------------------------------
  S    -34.681700   57.128200  106.903000
  C    -33.847600   58.257100  105.751000
  C    -32.793400   57.644200  105.104000
  C    -32.611000   56.300500  105.522000
  C    -33.570100   55.857400  106.412000
  H    -31.853400   55.645600  105.173000
  C    -31.869100   58.451200  104.198000
  H    -31.052100   58.850200  104.881000
  H    -32.395300   59.238100  103.661000
  C    -31.178500   57.579900  103.139000
  H    -30.589800   56.798500  103.653000
  H    -31.891500   57.201300  102.419000
  C    -30.088100   58.281500  102.395000
  H    -30.481300   59.107500  101.739000
  H    -29.280900   58.569100  103.104000
  H    -29.605200   57.557300  101.732000
  S    -35.362000   53.808800  106.213000
  C    -35.082900   52.344500  107.044000
  C    -33.748300   52.300800  107.422000
  C    -33.028500   53.484200  107.047000
  C    -33.842600   54.503300  106.749000
  H    -33.340300   51.391800  107.890000
  C    -31.513900   53.668400  107.089000
  H    -31.135200   53.689200  106.093000
  H    -31.138400   52.737500  107.389000
  C    -30.916500   54.622600  108.130000
  H    -30.977500   54.234500  109.128000
  H    -31.449700   55.572000  108.162000
  C    -29.420700   54.988100  107.808000
  H    -28.797100   54.174800  107.781000
  H    -29.034300   55.787300  108.434000
  H    -29.436400   55.457300  106.819000
  H    -33.993800   59.325600  105.726000
  H    -35.697000   51.452800  107.122000

 Total Charge           Charge          ....    0
 Multiplicity           Mult            ....    1
 Number of Electrons    NEL             ....  134
 Basis Dimension        Dim             ....  322

ORBITAL ENERGIES
----------------

  NO   OCC          E(Eh)            E(eV)
   0   2.0000     -88.967972     -2420.9416
   1   2.0000     -88.958483     -2420.6834
   2   2.0000     -10.327653      -281.0297
   3   2.0000     -10.315815      -280.7076
   4   2.0000     -10.314100      -280.6609
   5   2.0000     -10.311561      -280.5918
   6   2.0000     -10.302540      -280.3464
   7   2.0000     -10.299856      -280.2733
   8   2.0000     -10.296510      -280.1823
   9   2.0000     -10.293199      -280.0922
  10   2.0000     -10.293162      -280.0912
  11   2.0000     -10.286075      -279.8983
  12   2.0000     -10.284889      -279.8661
  13   2.0000     -10.284091      -279.8443
  14   2.0000     -10.282980      -279.8141
  15   2.0000     -10.272484      -279.5285
  16   2.0000      -8.081484      -219.9083
  17   2.0000      -8.074187      -219.7098
  18   2.0000      -6.040047      -164.3580
  19   2.0000      -6.036189      -164.2531
  20   2.0000      -6.032765      -164.1599
  21   2.0000      -6.032222      -164.1451
  22   2.0000      -6.028691      -164.0490
  23   2.0000      -6.024639      -163.9388
  24   2.0000      -1.013460       -27.5776
  25   2.0000      -0.983409       -26.7599
  26   2.0000      -0.917605       -24.9693
  27   2.0000      -0.908109       -24.7109
  28   2.0000      -0.874729       -23.8026
  29   2.0000      -0.851670       -23.1751
  30   2.0000      -0.842662       -22.9300
  31   2.0000      -0.814965       -22.1763
  32   2.0000      -0.785292       -21.3689
  33   2.0000      -0.774016       -21.0620
  34   2.0000      -0.714642       -19.4464
  35   2.0000      -0.701398       -19.0860
  36   2.0000      -0.683626       -18.6024
  37   2.0000      -0.660687       -17.9782
  38   2.0000      -0.639884       -17.4121
  39   2.0000      -0.623432       -16.9645
  40   2.0000      -0.593052       -16.1378
  41   2.0000      -0.584214       -15.8973
  42   2.0000      -0.566811       -15.4237
  43   2.0000      -0.563094       -15.3226
  44   2.0000      -0.529564       -14.4102
  45   2.0000      -0.526893       -14.3375
  46   2.0000      -0.512949       -13.9581
  47   2.0000      -0.509488       -13.8639
  48   2.0000      -0.505799       -13.7635
  49   2.0000      -0.501796       -13.6546
  50   2.0000      -0.494090       -13.4449
  51   2.0000      -0.486389       -13.2353
  52   2.0000      -0.477104       -12.9827
  53   2.0000      -0.468449       -12.7471
  54   2.0000      -0.458547       -12.4777
  55   2.0000      -0.451400       -12.2832
  56   2.0000      -0.438767       -11.9394
  57   2.0000      -0.436604       -11.8806
  58   2.0000      -0.433390       -11.7931
  59   2.0000      -0.422008       -11.4834
  60   2.0000      -0.420235       -11.4352
  61   2.0000      -0.415679       -11.3112
  62   2.0000      -0.411689       -11.2026
  63   2.0000      -0.344056        -9.3622
  64   2.0000      -0.334639        -9.1060
  65   2.0000      -0.321200        -8.7403
  66   2.0000      -0.290791        -7.9128
  67   0.0000       0.024817         0.6753
  68   0.0000       0.068828         1.8729
  69   0.0000       0.106022         2.8850
  70   0.0000       0.110445         3.0054
  71   0.0000       0.123368         3.3570

MULLIKEN ATOMIC CHARGES
-----------------------
   0 S :    0.109395
   1 C :   -0.120846
   2 C :   -0.065575
   3 C :    0.045402
   4 C :   -0.173672
   5 H :   -0.012786
   6 C :    0.062547
   7 H :    0.050114
   8 H :    0.030712
   9 C :   -0.116521
  10 H :    0.031494
  11 H :    0.040507
  12 C :   -0.054081
  13 H :    0.039532
  14 H :    0.032503
  15 H :    0.030437
  16 S :    0.107349
  17 C :   -0.076971
  18 C :   -0.057359
  19 C :   -0.056766
  20 C :   -0.124865
  21 H :    0.023293
  22 C :    0.100087
  23 H :    0.026877
  24 H :   -0.017532
  25 C :   -0.061594
  26 H :    0.027905
  27 H :    0.042311
  28 C :   -0.026959
  29 H :    0.017906
  30 H :    0.033042
  31 H :    0.012551
  32 H :    0.044584
  33 H :    0.056978
Sum of atomic charges:   -0.0000000

LOEWDIN ATOMIC CHARGES
----------------------
   0 S :    0.383556
   1 C :   -0.177093
   2 C :   -0.061341
   3 C :   -0.053969
   4 C :   -0.186502
   5 H :    0.022778
   6 C :   -0.030151
   7 H :    0.042757
   8 H :    0.030410
   9 C :   -0.048975
  10 H :    0.025958
  11 H :    0.025775
  12 C :   -0.069513
  13 H :    0.026975
  14 H :    0.027247
  15 H :    0.026618
  16 S :    0.417118
  17 C :   -0.203140
  18 C :   -0.078054
  19 C :   -0.057077
  20 C :   -0.197420
  21 H :    0.032873
  22 C :   -0.033002
  23 H :    0.027460
  24 H :    0.024745
  25 C :   -0.029687
  26 H :    0.022009
  27 H :    0.023888
  28 C :   -0.055433
  29 H :    0.009023
  30 H :    0.028162
  31 H :    0.023461
  32 H :    0.025895
  33 H :    0.034647

  Mayer bond orders larger than 0.100000
B(  0-S ,  1-C ) :   1.1174 B(  0-S ,  4-C ) :   1.1472 B(  1-C ,  2-C ) :   1.6284
B(  1-C ,  4-C ) :   0.1004 B(  1-C , 32-H ) :   0.9696 B(  2-C ,  3-C ) :   1.2385
B(  2-C ,  6-C ) :   1.0158 B(  3-C ,  4-C ) :   1.5550 B(  3-C ,  5-H ) :   0.9945
B(  4-C , 20-C ) :   1.0638 B(  6-C ,  7-H ) :   0.9344 B(  6-C ,  8-H ) :   0.9445
B(  6-C ,  9-C ) :   1.0773 B(  9-C , 10-H ) :   0.9455 B(  9-C , 11-H ) :   0.9583
B(  9-C , 12-C ) :   1.0998 B( 12-C , 13-H ) :   0.9703 B( 12-C , 14-H ) :   0.9721
B( 12-C , 15-H ) :   0.9718 B( 16-S , 17-C ) :   1.1569 B( 16-S , 20-C ) :   1.1338
B( 17-C , 18-C ) :   1.6013 B( 17-C , 33-H ) :   0.9677 B( 18-C , 19-C ) :   1.2357
B( 18-C , 21-H ) :   0.9876 B( 19-C , 20-C ) :   1.6066 B( 19-C , 22-C ) :   1.0433
B( 22-C , 23-H ) :   0.9323 B( 22-C , 24-H ) :   0.9105 B( 22-C , 25-C ) :   1.0479
B( 25-C , 26-H ) :   0.9567 B( 25-C , 27-H ) :   0.9626 B( 25-C , 28-C ) :   1.0763
B( 28-C , 29-H ) :   0.9792 B( 28-C , 30-H ) :   0.9739 B( 28-C , 31-H ) :   0.9766

Dispersion correction           -0.014695487
FINAL SINGLE POINT ENERGY     -1339.857144309614

DIPOLE MOMENT
-------------
                                X             Y             Z
Electronic contribution:    -28.92840      -5.93648       8.18480
Nuclear contribution   :     29.70145       5.88239      -8.45831
                        -----------------------------------------
Total Dipole Moment    :      0.77305      -0.05409      -0.27352
                        -----------------------------------------
Magnitude (a.u.)       :      0.82179
Magnitude (Debye)      :      2.08882

Rotational constants in cm-1:     0.017769     0.009253     0.007487
Rotational constants in MHz :   532.690868   277.383898   224.456118

                             ****ORCA TERMINATED NORMALLY****
TOTAL RUN TIME: 0 days 0 hours 0 minutes 31 seconds 388 msec
