                         Program Version 4.2.1 -  RELEASE  -
|  1> ! wB97X-D3 SP def2-SVP
|  2> %pal
|  3> nprocs 16
|  4> end
|  5>
|  6> * xyz 0 1
|  7> S 	 -65.3244 	 42.0957 	 132.129
|  8> C 	 -65.9017 	 42.0873 	 133.784
|  9> C 	 -64.8934 	 42.2903 	 134.717
| 10> C 	 -63.6242 	 42.5807 	 134.158
| 11> C 	 -63.6837 	 42.416 	 132.788
| 12> H 	 -62.6815 	 42.8927 	 134.497
| 13> C 	 -65.1087 	 42.3946 	 136.238
| 14> H 	 -64.4239 	 41.6999 	 136.684
| 15> H 	 -66.1471 	 42.082 	 136.345
| 16> C 	 -64.8456 	 43.7923 	 136.85
| 17> H 	 -63.8965 	 44.2266 	 136.596
| 18> H 	 -65.6084 	 44.4137 	 136.28
| 19> C 	 -65.0749 	 43.851 	 138.336
| 20> H 	 -64.2692 	 43.4145 	 138.873
| 21> H 	 -65.1042 	 44.9486 	 138.535
| 22> H 	 -66.0611 	 43.4572 	 138.645
| 23> S 	 -61.9959 	 40.6179 	 131.599
| 24> C 	 -60.4784 	 41.167 	 131.027
| 25> C 	 -60.3158 	 42.4906 	 131.238
| 26> C 	 -61.3828 	 43.1744 	 131.863
| 27> C 	 -62.4783 	 42.2758 	 132.007
| 28> H 	 -59.365 	 42.878 	 130.978
| 29> C 	 -61.1991 	 44.6341 	 132.25
| 30> H 	 -60.1676 	 44.9683 	 132.275
| 31> H 	 -61.5527 	 44.6296 	 133.227
| 32> C 	 -61.9138 	 45.6005 	 131.301
| 33> H 	 -61.5985 	 45.5475 	 130.272
| 34> H 	 -61.7726 	 46.5522 	 131.755
| 35> C 	 -63.4094 	 45.392 	 131.244
| 36> H 	 -63.851 	 45.3784 	 132.189
| 37> H 	 -63.6473 	 44.5073 	 130.621
| 38> H 	 -63.8495 	 46.2419 	 130.809
| 39> H 	 -66.8529 	 41.9797 	 134.141
| 40> H 	 -59.6327 	 40.5559 	 130.756
| 41> *
| 42>
| 43>                          ****END OF INPUT****

CARTESIAN COORDINATES (ANGSTROEM)
---------------------------------
  S    -65.324400   42.095700  132.129000
  C    -65.901700   42.087300  133.784000
  C    -64.893400   42.290300  134.717000
  C    -63.624200   42.580700  134.158000
  C    -63.683700   42.416000  132.788000
  H    -62.681500   42.892700  134.497000
  C    -65.108700   42.394600  136.238000
  H    -64.423900   41.699900  136.684000
  H    -66.147100   42.082000  136.345000
  C    -64.845600   43.792300  136.850000
  H    -63.896500   44.226600  136.596000
  H    -65.608400   44.413700  136.280000
  C    -65.074900   43.851000  138.336000
  H    -64.269200   43.414500  138.873000
  H    -65.104200   44.948600  138.535000
  H    -66.061100   43.457200  138.645000
  S    -61.995900   40.617900  131.599000
  C    -60.478400   41.167000  131.027000
  C    -60.315800   42.490600  131.238000
  C    -61.382800   43.174400  131.863000
  C    -62.478300   42.275800  132.007000
  H    -59.365000   42.878000  130.978000
  C    -61.199100   44.634100  132.250000
  H    -60.167600   44.968300  132.275000
  H    -61.552700   44.629600  133.227000
  C    -61.913800   45.600500  131.301000
  H    -61.598500   45.547500  130.272000
  H    -61.772600   46.552200  131.755000
  C    -63.409400   45.392000  131.244000
  H    -63.851000   45.378400  132.189000
  H    -63.647300   44.507300  130.621000
  H    -63.849500   46.241900  130.809000
  H    -66.852900   41.979700  134.141000
  H    -59.632700   40.555900  130.756000

 Total Charge           Charge          ....    0
 Multiplicity           Mult            ....    1
 Number of Electrons    NEL             ....  134
 Basis Dimension        Dim             ....  322

ORBITAL ENERGIES
----------------

  NO   OCC          E(Eh)            E(eV)
   0   2.0000     -88.970039     -2420.9978
   1   2.0000     -88.962932     -2420.8044
   2   2.0000     -10.326158      -280.9890
   3   2.0000     -10.325607      -280.9741
   4   2.0000     -10.306899      -280.4650
   5   2.0000     -10.305116      -280.4165
   6   2.0000     -10.303447      -280.3710
   7   2.0000     -10.299657      -280.2679
   8   2.0000     -10.289297      -279.9860
   9   2.0000     -10.289016      -279.9784
  10   2.0000     -10.288720      -279.9703
  11   2.0000     -10.287362      -279.9333
  12   2.0000     -10.279876      -279.7297
  13   2.0000     -10.279333      -279.7149
  14   2.0000     -10.276800      -279.6459
  15   2.0000     -10.257160      -279.1115
  16   2.0000      -8.083483      -219.9628
  17   2.0000      -8.077978      -219.8129
  18   2.0000      -6.041984      -164.4107
  19   2.0000      -6.038378      -164.3126
  20   2.0000      -6.036396      -164.2587
  21   2.0000      -6.034135      -164.1972
  22   2.0000      -6.032446      -164.1512
  23   2.0000      -6.028800      -164.0520
  24   2.0000      -1.004738       -27.3403
  25   2.0000      -0.981680       -26.7129
  26   2.0000      -0.914523       -24.8854
  27   2.0000      -0.909728       -24.7549
  28   2.0000      -0.871901       -23.7256
  29   2.0000      -0.854004       -23.2386
  30   2.0000      -0.848797       -23.0969
  31   2.0000      -0.814040       -22.1512
  32   2.0000      -0.787672       -21.4336
  33   2.0000      -0.770457       -20.9652
  34   2.0000      -0.709869       -19.3165
  35   2.0000      -0.695043       -18.9131
  36   2.0000      -0.693298       -18.8656
  37   2.0000      -0.655799       -17.8452
  38   2.0000      -0.646323       -17.5873
  39   2.0000      -0.614778       -16.7290
  40   2.0000      -0.598718       -16.2919
  41   2.0000      -0.572830       -15.5875
  42   2.0000      -0.562320       -15.3015
  43   2.0000      -0.551899       -15.0179
  44   2.0000      -0.546605       -14.8739
  45   2.0000      -0.529587       -14.4108
  46   2.0000      -0.520106       -14.1528
  47   2.0000      -0.515993       -14.0409
  48   2.0000      -0.502204       -13.6657
  49   2.0000      -0.496626       -13.5139
  50   2.0000      -0.495323       -13.4784
  51   2.0000      -0.477742       -13.0000
  52   2.0000      -0.475017       -12.9259
  53   2.0000      -0.464327       -12.6350
  54   2.0000      -0.462642       -12.5891
  55   2.0000      -0.443900       -12.0791
  56   2.0000      -0.440522       -11.9872
  57   2.0000      -0.435049       -11.8383
  58   2.0000      -0.433814       -11.8047
  59   2.0000      -0.421925       -11.4812
  60   2.0000      -0.420954       -11.4547
  61   2.0000      -0.413445       -11.2504
  62   2.0000      -0.411276       -11.1914
  63   2.0000      -0.344308        -9.3691
  64   2.0000      -0.328304        -8.9336
  65   2.0000      -0.323765        -8.8101
  66   2.0000      -0.291625        -7.9355
  67   0.0000       0.037036         1.0078
  68   0.0000       0.058065         1.5800
  69   0.0000       0.111204         3.0260
  70   0.0000       0.119570         3.2537
  71   0.0000       0.126947         3.4544

MULLIKEN ATOMIC CHARGES
-----------------------
   0 S :    0.120125
   1 C :   -0.062028
   2 C :   -0.100247
   3 C :    0.059672
   4 C :   -0.190319
   5 H :    0.000045
   6 C :    0.100010
   7 H :    0.024102
   8 H :    0.011935
   9 C :   -0.114545
  10 H :    0.026649
  11 H :    0.030924
  12 C :   -0.020925
  13 H :    0.034253
  14 H :    0.036038
  15 H :    0.034275
  16 S :    0.118572
  17 C :   -0.081098
  18 C :   -0.036720
  19 C :   -0.056537
  20 C :   -0.176867
  21 H :   -0.005898
  22 C :    0.141787
  23 H :    0.019550
  24 H :   -0.005998
  25 C :   -0.052039
  26 H :    0.030530
  27 H :    0.017285
  28 C :   -0.018915
  29 H :    0.013754
  30 H :    0.041844
  31 H :    0.011224
  32 H :   -0.001186
  33 H :    0.050748
Sum of atomic charges:   -0.0000000

LOEWDIN ATOMIC CHARGES
----------------------
   0 S :    0.389260
   1 C :   -0.191036
   2 C :   -0.055215
   3 C :   -0.048178
   4 C :   -0.176131
   5 H :    0.026349
   6 C :   -0.027820
   7 H :    0.025085
   8 H :    0.026704
   9 C :   -0.045815
  10 H :    0.019291
  11 H :    0.029840
  12 C :   -0.062514
  13 H :    0.021014
  14 H :    0.034983
  15 H :    0.028253
  16 S :    0.418042
  17 C :   -0.200625
  18 C :   -0.075390
  19 C :   -0.047859
  20 C :   -0.203150
  21 H :    0.022922
  22 C :   -0.021153
  23 H :    0.032998
  24 H :    0.019707
  25 C :   -0.029160
  26 H :    0.026615
  27 H :    0.020119
  28 C :   -0.059834
  29 H :    0.015529
  30 H :    0.027884
  31 H :    0.019710
  32 H :    0.008336
  33 H :    0.031238

  Mayer bond orders larger than 0.100000
B(  0-S ,  1-C ) :   1.1168 B(  0-S ,  4-C ) :   1.1341 B(  1-C ,  2-C ) :   1.6464
B(  1-C , 32-H ) :   0.9692 B(  2-C ,  3-C ) :   1.1936 B(  2-C ,  6-C ) :   1.0273
B(  3-C ,  4-C ) :   1.6084 B(  3-C ,  5-H ) :   0.9962 B(  4-C , 20-C ) :   1.0310
B(  6-C ,  7-H ) :   0.9329 B(  6-C ,  8-H ) :   0.9404 B(  6-C ,  9-C ) :   1.0571
B(  9-C , 10-H ) :   0.9549 B(  9-C , 11-H ) :   0.9561 B(  9-C , 12-C ) :   1.0873
B( 12-C , 13-H ) :   0.9740 B( 12-C , 14-H ) :   0.9727 B( 12-C , 15-H ) :   0.9733
B( 16-S , 17-C ) :   1.1564 B( 16-S , 20-C ) :   1.1567 B( 17-C , 18-C ) :   1.6222
B( 17-C , 33-H ) :   0.9621 B( 18-C , 19-C ) :   1.2552 B( 18-C , 21-H ) :   0.9941
B( 19-C , 20-C ) :   1.5610 B( 19-C , 22-C ) :   1.0195 B( 22-C , 23-H ) :   0.9354
B( 22-C , 24-H ) :   0.9221 B( 22-C , 25-C ) :   1.0836 B( 25-C , 26-H ) :   0.9547
B( 25-C , 27-H ) :   0.9521 B( 25-C , 28-C ) :   1.1020 B( 28-C , 29-H ) :   0.9698
B( 28-C , 30-H ) :   0.9688 B( 28-C , 31-H ) :   0.9676

Dispersion correction           -0.015358894
FINAL SINGLE POINT ENERGY     -1339.853925894723

DIPOLE MOMENT
-------------
                                X             Y             Z
Electronic contribution:      1.23698     -19.22261     -16.68503
Nuclear contribution   :     -0.89451      19.69572      17.23276
                        -----------------------------------------
Total Dipole Moment    :      0.34247       0.47311       0.54773
                        -----------------------------------------
Magnitude (a.u.)       :      0.80070
Magnitude (Debye)      :      2.03523

Rotational constants in cm-1:     0.019123     0.008528     0.007749
Rotational constants in MHz :   573.299481   255.672184   232.322133

                             ****ORCA TERMINATED NORMALLY****
TOTAL RUN TIME: 0 days 0 hours 0 minutes 34 seconds 668 msec
