                         Program Version 4.2.1 -  RELEASE  -
|  1> ! wB97X-D3 SP def2-SVP
|  2> %pal
|  3> nprocs 16
|  4> end
|  5>
|  6> * xyz 0 1
|  7> S 	 41.3617 	 12.7935 	 84.8188
|  8> C 	 41.4123 	 11.18 	 85.5573
|  9> C 	 42.656 	 10.6993 	 85.9245
| 10> C 	 43.6 	 11.739 	 85.7509
| 11> C 	 43.0875 	 12.968 	 85.3002
| 12> H 	 44.646 	 11.6976 	 85.9272
| 13> C 	 42.9948 	 9.37977 	 86.5498
| 14> H 	 43.723 	 8.86866 	 85.9586
| 15> H 	 42.1175 	 8.74741 	 86.6623
| 16> C 	 43.7203 	 9.4285 	 87.8854
| 17> H 	 43.694 	 8.42705 	 88.298
| 18> H 	 44.7886 	 9.78364 	 87.7351
| 19> C 	 43.1281 	 10.3414 	 88.8962
| 20> H 	 42.0206 	 10.088 	 89.0572
| 21> H 	 43.6881 	 10.3877 	 89.7964
| 22> H 	 43.0071 	 11.3777 	 88.538
| 23> S 	 43.7128 	 15.0757 	 83.5775
| 24> C 	 45.0386 	 16.1517 	 84.0442
| 25> C 	 45.6649 	 15.7312 	 85.2021
| 26> C 	 44.9683 	 14.6451 	 85.8266
| 27> C 	 43.8879 	 14.1725 	 85.1141
| 28> H 	 46.5046 	 16.2288 	 85.5641
| 29> C 	 45.4469 	 14.1234 	 87.1022
| 30> H 	 46.5281 	 13.9516 	 86.9263
| 31> H 	 45.137 	 13.1398 	 87.3801
| 32> C 	 45.0988 	 14.939 	 88.306
| 33> H 	 45.6572 	 15.94 	 88.1484
| 34> H 	 45.7323 	 14.6339 	 89.0726
| 35> C 	 43.6588 	 15.1707 	 88.4546
| 36> H 	 43.0714 	 14.1696 	 88.5682
| 37> H 	 43.2413 	 15.8417 	 87.6607
| 38> H 	 43.5063 	 15.5616 	 89.4749
| 39> H 	 40.5802 	 10.5239 	 85.7073
| 40> H 	 45.3201 	 16.979 	 83.4954
| 41> *
| 42>
| 43>                          ****END OF INPUT****

CARTESIAN COORDINATES (ANGSTROEM)
---------------------------------
  S     41.361700   12.793500   84.818800
  C     41.412300   11.180000   85.557300
  C     42.656000   10.699300   85.924500
  C     43.600000   11.739000   85.750900
  C     43.087500   12.968000   85.300200
  H     44.646000   11.697600   85.927200
  C     42.994800    9.379770   86.549800
  H     43.723000    8.868660   85.958600
  H     42.117500    8.747410   86.662300
  C     43.720300    9.428500   87.885400
  H     43.694000    8.427050   88.298000
  H     44.788600    9.783640   87.735100
  C     43.128100   10.341400   88.896200
  H     42.020600   10.088000   89.057200
  H     43.688100   10.387700   89.796400
  H     43.007100   11.377700   88.538000
  S     43.712800   15.075700   83.577500
  C     45.038600   16.151700   84.044200
  C     45.664900   15.731200   85.202100
  C     44.968300   14.645100   85.826600
  C     43.887900   14.172500   85.114100
  H     46.504600   16.228800   85.564100
  C     45.446900   14.123400   87.102200
  H     46.528100   13.951600   86.926300
  H     45.137000   13.139800   87.380100
  C     45.098800   14.939000   88.306000
  H     45.657200   15.940000   88.148400
  H     45.732300   14.633900   89.072600
  C     43.658800   15.170700   88.454600
  H     43.071400   14.169600   88.568200
  H     43.241300   15.841700   87.660700
  H     43.506300   15.561600   89.474900
  H     40.580200   10.523900   85.707300
  H     45.320100   16.979000   83.495400

 Total Charge           Charge          ....    0
 Multiplicity           Mult            ....    1
 Number of Electrons    NEL             ....  134
 Basis Dimension        Dim             ....  322

ORBITAL ENERGIES
----------------

  NO   OCC          E(Eh)            E(eV)
   0   2.0000     -88.972204     -2421.0568
   1   2.0000     -88.962966     -2420.8054
   2   2.0000     -10.333918      -281.2002
   3   2.0000     -10.327214      -281.0178
   4   2.0000     -10.315727      -280.7052
   5   2.0000     -10.314876      -280.6820
   6   2.0000     -10.301014      -280.3048
   7   2.0000     -10.298660      -280.2408
   8   2.0000     -10.292498      -280.0731
   9   2.0000     -10.292209      -280.0652
  10   2.0000     -10.291537      -280.0470
  11   2.0000     -10.289037      -279.9789
  12   2.0000     -10.282746      -279.8078
  13   2.0000     -10.279665      -279.7239
  14   2.0000     -10.279201      -279.7113
  15   2.0000     -10.274604      -279.5862
  16   2.0000      -8.085409      -220.0152
  17   2.0000      -8.077076      -219.7884
  18   2.0000      -6.043980      -164.4651
  19   2.0000      -6.040444      -164.3688
  20   2.0000      -6.035887      -164.2448
  21   2.0000      -6.035634      -164.2380
  22   2.0000      -6.031818      -164.1341
  23   2.0000      -6.027689      -164.0217
  24   2.0000      -1.001110       -27.2416
  25   2.0000      -0.980242       -26.6737
  26   2.0000      -0.922606       -25.1054
  27   2.0000      -0.919757       -25.0279
  28   2.0000      -0.869429       -23.6584
  29   2.0000      -0.853060       -23.2130
  30   2.0000      -0.845535       -23.0082
  31   2.0000      -0.813315       -22.1314
  32   2.0000      -0.788887       -21.4667
  33   2.0000      -0.777397       -21.1540
  34   2.0000      -0.709938       -19.3184
  35   2.0000      -0.696647       -18.9567
  36   2.0000      -0.692540       -18.8450
  37   2.0000      -0.664862       -18.0918
  38   2.0000      -0.637692       -17.3525
  39   2.0000      -0.624692       -16.9987
  40   2.0000      -0.603862       -16.4319
  41   2.0000      -0.569295       -15.4913
  42   2.0000      -0.565943       -15.4001
  43   2.0000      -0.564402       -15.3582
  44   2.0000      -0.550119       -14.9695
  45   2.0000      -0.538517       -14.6538
  46   2.0000      -0.517558       -14.0835
  47   2.0000      -0.505911       -13.7665
  48   2.0000      -0.501547       -13.6478
  49   2.0000      -0.492902       -13.4126
  50   2.0000      -0.488846       -13.3022
  51   2.0000      -0.483441       -13.1551
  52   2.0000      -0.472977       -12.8704
  53   2.0000      -0.466374       -12.6907
  54   2.0000      -0.453034       -12.3277
  55   2.0000      -0.450804       -12.2670
  56   2.0000      -0.446625       -12.1533
  57   2.0000      -0.438639       -11.9360
  58   2.0000      -0.430433       -11.7127
  59   2.0000      -0.428338       -11.6557
  60   2.0000      -0.415481       -11.3058
  61   2.0000      -0.413059       -11.2399
  62   2.0000      -0.394210       -10.7270
  63   2.0000      -0.350592        -9.5401
  64   2.0000      -0.333743        -9.0816
  65   2.0000      -0.329473        -8.9654
  66   2.0000      -0.283243        -7.7074
  67   0.0000       0.021865         0.5950
  68   0.0000       0.071777         1.9532
  69   0.0000       0.095572         2.6006
  70   0.0000       0.116863         3.1800
  71   0.0000       0.128835         3.5058

MULLIKEN ATOMIC CHARGES
-----------------------
   0 S :    0.115663
   1 C :   -0.103346
   2 C :   -0.083462
   3 C :    0.007595
   4 C :   -0.145330
   5 H :    0.006850
   6 C :    0.124169
   7 H :    0.031146
   8 H :    0.017449
   9 C :   -0.111258
  10 H :    0.035824
  11 H :    0.034298
  12 C :   -0.056729
  13 H :    0.023799
  14 H :    0.034060
  15 H :    0.039624
  16 S :    0.080861
  17 C :   -0.058745
  18 C :   -0.003556
  19 C :   -0.065731
  20 C :   -0.117081
  21 H :   -0.001970
  22 C :    0.045243
  23 H :    0.025508
  24 H :   -0.006159
  25 C :   -0.038097
  26 H :    0.007753
  27 H :    0.005076
  28 C :   -0.053161
  29 H :    0.044995
  30 H :    0.073962
  31 H :    0.032103
  32 H :    0.027649
  33 H :    0.030998
Sum of atomic charges:    0.0000000

LOEWDIN ATOMIC CHARGES
----------------------
   0 S :    0.376154
   1 C :   -0.181469
   2 C :   -0.062492
   3 C :   -0.050626
   4 C :   -0.175178
   5 H :    0.023586
   6 C :   -0.027786
   7 H :    0.036624
   8 H :    0.030136
   9 C :   -0.045846
  10 H :    0.028129
  11 H :    0.026997
  12 C :   -0.074961
  13 H :    0.030796
  14 H :    0.020915
  15 H :    0.025852
  16 S :    0.369732
  17 C :   -0.155755
  18 C :   -0.055348
  19 C :   -0.057701
  20 C :   -0.183850
  21 H :    0.022884
  22 C :   -0.042309
  23 H :    0.036707
  24 H :    0.019432
  25 C :   -0.048835
  26 H :    0.026087
  27 H :    0.016900
  28 C :   -0.072676
  29 H :    0.036736
  30 H :    0.041863
  31 H :    0.031143
  32 H :    0.020846
  33 H :    0.013314

  Mayer bond orders larger than 0.100000
B(  0-S ,  1-C ) :   1.1277 B(  0-S ,  4-C ) :   1.1202 B(  1-C ,  2-C ) :   1.6366
B(  1-C , 32-H ) :   0.9580 B(  2-C ,  3-C ) :   1.2144 B(  2-C ,  6-C ) :   1.0387
B(  3-C ,  4-C ) :   1.5876 B(  3-C ,  5-H ) :   0.9912 B(  4-C , 20-C ) :   1.0730
B(  6-C ,  7-H ) :   0.9283 B(  6-C ,  8-H ) :   0.9354 B(  6-C ,  9-C ) :   1.0763
B(  9-C , 10-H ) :   0.9528 B(  9-C , 11-H ) :   0.9465 B(  9-C , 12-C ) :   1.0971
B( 12-C , 13-H ) :   0.9671 B( 12-C , 14-H ) :   0.9721 B( 12-C , 15-H ) :   0.9626
B( 16-S , 17-C ) :   1.1445 B( 16-S , 20-C ) :   1.1092 B( 17-C , 18-C ) :   1.6143
B( 17-C , 33-H ) :   0.9774 B( 18-C , 19-C ) :   1.2171 B( 18-C , 21-H ) :   1.0025
B( 19-C , 20-C ) :   1.6083 B( 19-C , 22-C ) :   1.0535 B( 22-C , 23-H ) :   0.9225
B( 22-C , 24-H ) :   0.9287 B( 22-C , 25-C ) :   1.0841 B( 25-C , 26-H ) :   0.9410
B( 25-C , 27-H ) :   0.9504 B( 25-C , 28-C ) :   1.0688 B( 28-C , 29-H ) :   0.9687
B( 28-C , 30-H ) :   0.9639 B( 28-C , 31-H ) :   0.9649

Dispersion correction           -0.016402328
FINAL SINGLE POINT ENERGY     -1339.859270602162

DIPOLE MOMENT
-------------
                                X             Y             Z
Electronic contribution:     -8.01752       9.37088     -25.13512
Nuclear contribution   :      8.54772      -9.66840      25.70083
                        -----------------------------------------
Total Dipole Moment    :      0.53020      -0.29752       0.56571
                        -----------------------------------------
Magnitude (a.u.)       :      0.83046
Magnitude (Debye)      :      2.11086

Rotational constants in cm-1:     0.019466     0.010340     0.007891
Rotational constants in MHz :   583.579654   309.987547   236.553618

                             ****ORCA TERMINATED NORMALLY****
TOTAL RUN TIME: 0 days 0 hours 0 minutes 34 seconds 136 msec
