                         Program Version 4.2.1 -  RELEASE  -
|  1> ! wB97X-D3 SP def2-SVP
|  2> %pal
|  3> nprocs 16
|  4> end
|  5>
|  6> * xyz 0 1
|  7> S 	 -109.937 	 44.9908 	 131.817
|  8> C 	 -108.962 	 45.9303 	 132.909
|  9> C 	 -107.951 	 46.6021 	 132.284
| 10> C 	 -108.088 	 46.4735 	 130.891
| 11> C 	 -109.006 	 45.4944 	 130.452
| 12> H 	 -107.529 	 46.9605 	 130.072
| 13> C 	 -106.945 	 47.4966 	 132.92
| 14> H 	 -107.326 	 47.9558 	 133.793
| 15> H 	 -106.891 	 48.2782 	 132.151
| 16> C 	 -105.613 	 46.9125 	 133.219
| 17> H 	 -105.126 	 47.7817 	 133.681
| 18> H 	 -105.87 	 46.2448 	 134.039
| 19> C 	 -104.822 	 46.3459 	 132.013
| 20> H 	 -105.394 	 45.5533 	 131.451
| 21> H 	 -104.546 	 47.1745 	 131.295
| 22> H 	 -103.935 	 45.9163 	 132.341
| 23> S 	 -109.984 	 46.4025 	 128.058
| 24> C 	 -110.22 	 45.355 	 126.723
| 25> C 	 -110.051 	 44.0501 	 127.147
| 26> C 	 -109.512 	 43.943 	 128.422
| 27> C 	 -109.388 	 45.1486 	 129.087
| 28> H 	 -110.27 	 43.1911 	 126.54
| 29> C 	 -109.216 	 42.6538 	 129.084
| 30> H 	 -110.085 	 41.9733 	 128.896
| 31> H 	 -109.214 	 42.7438 	 130.12
| 32> C 	 -107.795 	 42.0527 	 128.778
| 33> H 	 -107.749 	 41.1236 	 129.29
| 34> H 	 -107.085 	 42.694 	 129.23
| 35> C 	 -107.469 	 41.7812 	 127.287
| 36> H 	 -107.752 	 40.7857 	 126.849
| 37> H 	 -106.37 	 41.9367 	 127.106
| 38> H 	 -107.989 	 42.5218 	 126.661
| 39> H 	 -109.103 	 45.7084 	 133.918
| 40> H 	 -110.36 	 45.6273 	 125.716
| 41> *
| 42>
| 43>                          ****END OF INPUT****

CARTESIAN COORDINATES (ANGSTROEM)
---------------------------------
  S    -109.937000   44.990800  131.817000
  C    -108.962000   45.930300  132.909000
  C    -107.951000   46.602100  132.284000
  C    -108.088000   46.473500  130.891000
  C    -109.006000   45.494400  130.452000
  H    -107.529000   46.960500  130.072000
  C    -106.945000   47.496600  132.920000
  H    -107.326000   47.955800  133.793000
  H    -106.891000   48.278200  132.151000
  C    -105.613000   46.912500  133.219000
  H    -105.126000   47.781700  133.681000
  H    -105.870000   46.244800  134.039000
  C    -104.822000   46.345900  132.013000
  H    -105.394000   45.553300  131.451000
  H    -104.546000   47.174500  131.295000
  H    -103.935000   45.916300  132.341000
  S    -109.984000   46.402500  128.058000
  C    -110.220000   45.355000  126.723000
  C    -110.051000   44.050100  127.147000
  C    -109.512000   43.943000  128.422000
  C    -109.388000   45.148600  129.087000
  H    -110.270000   43.191100  126.540000
  C    -109.216000   42.653800  129.084000
  H    -110.085000   41.973300  128.896000
  H    -109.214000   42.743800  130.120000
  C    -107.795000   42.052700  128.778000
  H    -107.749000   41.123600  129.290000
  H    -107.085000   42.694000  129.230000
  C    -107.469000   41.781200  127.287000
  H    -107.752000   40.785700  126.849000
  H    -106.370000   41.936700  127.106000
  H    -107.989000   42.521800  126.661000
  H    -109.103000   45.708400  133.918000
  H    -110.360000   45.627300  125.716000

 Total Charge           Charge          ....    0
 Multiplicity           Mult            ....    1
 Number of Electrons    NEL             ....  134
 Basis Dimension        Dim             ....  322

ORBITAL ENERGIES
----------------

  NO   OCC          E(Eh)            E(eV)
   0   2.0000     -88.963656     -2420.8241
   1   2.0000     -88.963476     -2420.8192
   2   2.0000     -10.327851      -281.0351
   3   2.0000     -10.320448      -280.8337
   4   2.0000     -10.311720      -280.5962
   5   2.0000     -10.308102      -280.4977
   6   2.0000     -10.297928      -280.2209
   7   2.0000     -10.296338      -280.1776
   8   2.0000     -10.292165      -280.0641
   9   2.0000     -10.287391      -279.9341
  10   2.0000     -10.286858      -279.9196
  11   2.0000     -10.283424      -279.8262
  12   2.0000     -10.283352      -279.8242
  13   2.0000     -10.282229      -279.7937
  14   2.0000     -10.280340      -279.7423
  15   2.0000     -10.279515      -279.7198
  16   2.0000      -8.079101      -219.8435
  17   2.0000      -8.079000      -219.8408
  18   2.0000      -6.037468      -164.2878
  19   2.0000      -6.037334      -164.2842
  20   2.0000      -6.033275      -164.1737
  21   2.0000      -6.033243      -164.1729
  22   2.0000      -6.030157      -164.0889
  23   2.0000      -6.030092      -164.0871
  24   2.0000      -1.014215       -27.5982
  25   2.0000      -0.994016       -27.0486
  26   2.0000      -0.922705       -25.1081
  27   2.0000      -0.906041       -24.6546
  28   2.0000      -0.871702       -23.7202
  29   2.0000      -0.848945       -23.1010
  30   2.0000      -0.844177       -22.9712
  31   2.0000      -0.814734       -22.1700
  32   2.0000      -0.789508       -21.4836
  33   2.0000      -0.775158       -21.0931
  34   2.0000      -0.707761       -19.2592
  35   2.0000      -0.706209       -19.2169
  36   2.0000      -0.693146       -18.8615
  37   2.0000      -0.668217       -18.1831
  38   2.0000      -0.647430       -17.6175
  39   2.0000      -0.612304       -16.6616
  40   2.0000      -0.595931       -16.2161
  41   2.0000      -0.578921       -15.7532
  42   2.0000      -0.557455       -15.1691
  43   2.0000      -0.551213       -14.9993
  44   2.0000      -0.543904       -14.8004
  45   2.0000      -0.536398       -14.5961
  46   2.0000      -0.516501       -14.0547
  47   2.0000      -0.511677       -13.9234
  48   2.0000      -0.504312       -13.7230
  49   2.0000      -0.497610       -13.5407
  50   2.0000      -0.489392       -13.3170
  51   2.0000      -0.484780       -13.1915
  52   2.0000      -0.475944       -12.9511
  53   2.0000      -0.466427       -12.6921
  54   2.0000      -0.462212       -12.5774
  55   2.0000      -0.444710       -12.1012
  56   2.0000      -0.438472       -11.9314
  57   2.0000      -0.435186       -11.8420
  58   2.0000      -0.430621       -11.7178
  59   2.0000      -0.427812       -11.6414
  60   2.0000      -0.424494       -11.5511
  61   2.0000      -0.412767       -11.2320
  62   2.0000      -0.410346       -11.1661
  63   2.0000      -0.336348        -9.1525
  64   2.0000      -0.330566        -8.9952
  65   2.0000      -0.330143        -8.9836
  66   2.0000      -0.298691        -8.1278
  67   0.0000       0.030150         0.8204
  68   0.0000       0.069559         1.8928
  69   0.0000       0.110320         3.0020
  70   0.0000       0.123607         3.3635
  71   0.0000       0.129133         3.5139

MULLIKEN ATOMIC CHARGES
-----------------------
   0 S :    0.110114
   1 C :   -0.118069
   2 C :   -0.066837
   3 C :   -0.002226
   4 C :   -0.173368
   5 H :    0.021900
   6 C :    0.076566
   7 H :    0.012588
   8 H :    0.016790
   9 C :   -0.047004
  10 H :    0.030654
  11 H :    0.021909
  12 C :   -0.045489
  13 H :    0.055564
  14 H :    0.038891
  15 H :    0.024636
  16 S :    0.124225
  17 C :   -0.079609
  18 C :   -0.033814
  19 C :   -0.038296
  20 C :   -0.157236
  21 H :    0.015966
  22 C :    0.068364
  23 H :    0.032209
  24 H :   -0.007002
  25 C :   -0.021331
  26 H :    0.023656
  27 H :    0.023781
  28 C :   -0.086801
  29 H :    0.038764
  30 H :    0.039219
  31 H :    0.024269
  32 H :    0.031854
  33 H :    0.045160
Sum of atomic charges:   -0.0000000

LOEWDIN ATOMIC CHARGES
----------------------
   0 S :    0.426347
   1 C :   -0.184237
   2 C :   -0.067199
   3 C :   -0.063346
   4 C :   -0.210479
   5 H :    0.033759
   6 C :   -0.031201
   7 H :    0.026818
   8 H :    0.030936
   9 C :   -0.039782
  10 H :    0.029488
  11 H :    0.024616
  12 C :   -0.064642
  13 H :    0.035541
  14 H :    0.034554
  15 H :    0.016880
  16 S :    0.440212
  17 C :   -0.190939
  18 C :   -0.070754
  19 C :   -0.065183
  20 C :   -0.213554
  21 H :    0.028874
  22 C :   -0.031567
  23 H :    0.035855
  24 H :    0.013483
  25 C :   -0.026982
  26 H :    0.021911
  27 H :    0.022292
  28 C :   -0.080374
  29 H :    0.028059
  30 H :    0.032149
  31 H :    0.022744
  32 H :    0.011950
  33 H :    0.023771

  Mayer bond orders larger than 0.100000
B(  0-S ,  1-C ) :   1.1645 B(  0-S ,  4-C ) :   1.1723 B(  1-C ,  2-C ) :   1.5769
B(  1-C ,  4-C ) :   0.1057 B(  1-C , 32-H ) :   0.9767 B(  2-C ,  3-C ) :   1.2525
B(  2-C ,  6-C ) :   1.0040 B(  3-C ,  4-C ) :   1.5510 B(  3-C ,  5-H ) :   0.9902
B(  4-C , 20-C ) :   1.0227 B(  6-C ,  7-H ) :   0.9399 B(  6-C ,  8-H ) :   0.9355
B(  6-C ,  9-C ) :   1.0759 B(  9-C , 10-H ) :   0.9519 B(  9-C , 11-H ) :   0.9527
B(  9-C , 12-C ) :   1.0729 B( 12-C , 13-H ) :   0.9710 B( 12-C , 14-H ) :   0.9723
B( 12-C , 15-H ) :   0.9734 B( 16-S , 17-C ) :   1.1859 B( 16-S , 20-C ) :   1.1617
B( 17-C , 18-C ) :   1.5347 B( 17-C , 20-C ) :   0.1082 B( 17-C , 33-H ) :   0.9761
B( 18-C , 19-C ) :   1.3017 B( 18-C , 21-H ) :   0.9879 B( 19-C , 20-C ) :   1.5472
B( 19-C , 22-C ) :   1.0549 B( 22-C , 23-H ) :   0.9378 B( 22-C , 24-H ) :   0.9202
B( 22-C , 25-C ) :   1.0740 B( 25-C , 26-H ) :   0.9558 B( 25-C , 27-H ) :   0.9568
B( 25-C , 28-C ) :   1.0669 B( 28-C , 29-H ) :   0.9774 B( 28-C , 30-H ) :   0.9757
B( 28-C , 31-H ) :   0.9745

Dispersion correction           -0.014829338
FINAL SINGLE POINT ENERGY     -1339.873768215269

DIPOLE MOMENT
-------------
                                X             Y             Z
Electronic contribution:    -20.54329       8.24058      -1.87835
Nuclear contribution   :     20.94207      -8.30974       2.03239
                        -----------------------------------------
Total Dipole Moment    :      0.39878      -0.06916       0.15403
                        -----------------------------------------
Magnitude (a.u.)       :      0.43305
Magnitude (Debye)      :      1.10073

Rotational constants in cm-1:     0.019856     0.008455     0.007582
Rotational constants in MHz :   595.266169   253.476132   227.311936

                             ****ORCA TERMINATED NORMALLY****
TOTAL RUN TIME: 0 days 0 hours 0 minutes 34 seconds 668 msec
