                         Program Version 4.2.1 -  RELEASE  -
|  1> ! wB97X-D3 SP def2-SVP
|  2> %pal
|  3> nprocs 16
|  4> end
|  5>
|  6> * xyz 0 1
|  7> S 	 43.918 	 21.8836 	 101.297
|  8> C 	 44.2022 	 22.6761 	 99.7396
|  9> C 	 44.7905 	 21.7542 	 98.7901
| 10> C 	 44.9314 	 20.4584 	 99.3563
| 11> C 	 44.5988 	 20.3831 	 100.703
| 12> H 	 45.1945 	 19.5364 	 98.8914
| 13> C 	 45.2124 	 22.0548 	 97.3399
| 14> H 	 46.3233 	 22.0845 	 97.2587
| 15> H 	 45.0254 	 23.0495 	 97.1209
| 16> C 	 44.534 	 21.1902 	 96.2867
| 17> H 	 44.993 	 20.1912 	 96.3028
| 18> H 	 43.4788 	 21.0721 	 96.5826
| 19> C 	 44.5505 	 21.823 	 94.8343
| 20> H 	 43.9746 	 21.2074 	 94.0987
| 21> H 	 44.2014 	 22.7971 	 94.8794
| 22> H 	 45.559 	 21.8448 	 94.4652
| 23> S 	 43.2779 	 18.9119 	 102.609
| 24> C 	 44.0157 	 17.35 	 103.085
| 25> C 	 45.3108 	 17.1957 	 102.616
| 26> C 	 45.6459 	 18.1945 	 101.611
| 27> C 	 44.7022 	 19.2127 	 101.559
| 28> H 	 45.8773 	 16.2989 	 102.935
| 29> C 	 46.8847 	 18.1159 	 100.783
| 30> H 	 47.6696 	 17.8556 	 101.504
| 31> H 	 47.1391 	 19.1616 	 100.524
| 32> C 	 46.9415 	 17.2671 	 99.5716
| 33> H 	 47.7661 	 17.7035 	 98.9862
| 34> H 	 45.9902 	 17.4072 	 98.9457
| 35> C 	 47.1616 	 15.7771 	 99.8408
| 36> H 	 48.0728 	 15.6518 	 100.334
| 37> H 	 47.3233 	 15.3863 	 98.9048
| 38> H 	 46.384 	 15.2198 	 100.364
| 39> H 	 43.9926 	 23.6903 	 99.4709
| 40> H 	 43.4743 	 16.6306 	 103.665
| 41> *
| 42>
| 43>                          ****END OF INPUT****

CARTESIAN COORDINATES (ANGSTROEM)
---------------------------------
  S     43.918000   21.883600  101.297000
  C     44.202200   22.676100   99.739600
  C     44.790500   21.754200   98.790100
  C     44.931400   20.458400   99.356300
  C     44.598800   20.383100  100.703000
  H     45.194500   19.536400   98.891400
  C     45.212400   22.054800   97.339900
  H     46.323300   22.084500   97.258700
  H     45.025400   23.049500   97.120900
  C     44.534000   21.190200   96.286700
  H     44.993000   20.191200   96.302800
  H     43.478800   21.072100   96.582600
  C     44.550500   21.823000   94.834300
  H     43.974600   21.207400   94.098700
  H     44.201400   22.797100   94.879400
  H     45.559000   21.844800   94.465200
  S     43.277900   18.911900  102.609000
  C     44.015700   17.350000  103.085000
  C     45.310800   17.195700  102.616000
  C     45.645900   18.194500  101.611000
  C     44.702200   19.212700  101.559000
  H     45.877300   16.298900  102.935000
  C     46.884700   18.115900  100.783000
  H     47.669600   17.855600  101.504000
  H     47.139100   19.161600  100.524000
  C     46.941500   17.267100   99.571600
  H     47.766100   17.703500   98.986200
  H     45.990200   17.407200   98.945700
  C     47.161600   15.777100   99.840800
  H     48.072800   15.651800  100.334000
  H     47.323300   15.386300   98.904800
  H     46.384000   15.219800  100.364000
  H     43.992600   23.690300   99.470900
  H     43.474300   16.630600  103.665000

 Total Charge           Charge          ....    0
 Multiplicity           Mult            ....    1
 Number of Electrons    NEL             ....  134
 Basis Dimension        Dim             ....  322

ORBITAL ENERGIES
----------------

  NO   OCC          E(Eh)            E(eV)
   0   2.0000     -88.970271     -2421.0042
   1   2.0000     -88.964573     -2420.8491
   2   2.0000     -10.328681      -281.0577
   3   2.0000     -10.328258      -281.0462
   4   2.0000     -10.320879      -280.8454
   5   2.0000     -10.319398      -280.8051
   6   2.0000     -10.309609      -280.5387
   7   2.0000     -10.306657      -280.4584
   8   2.0000     -10.301576      -280.3201
   9   2.0000     -10.293256      -280.0937
  10   2.0000     -10.290745      -280.0254
  11   2.0000     -10.290127      -280.0086
  12   2.0000     -10.289996      -280.0050
  13   2.0000     -10.286396      -279.9071
  14   2.0000     -10.278948      -279.7044
  15   2.0000     -10.268482      -279.4196
  16   2.0000      -8.084119      -219.9801
  17   2.0000      -8.078245      -219.8202
  18   2.0000      -6.042680      -164.4297
  19   2.0000      -6.038719      -164.3219
  20   2.0000      -6.036821      -164.2702
  21   2.0000      -6.034933      -164.2189
  22   2.0000      -6.033134      -164.1699
  23   2.0000      -6.028768      -164.0511
  24   2.0000      -0.999525       -27.1985
  25   2.0000      -0.973446       -26.4888
  26   2.0000      -0.916978       -24.9523
  27   2.0000      -0.907958       -24.7068
  28   2.0000      -0.863983       -23.5102
  29   2.0000      -0.853619       -23.2282
  30   2.0000      -0.843351       -22.9487
  31   2.0000      -0.812335       -22.1048
  32   2.0000      -0.788997       -21.4697
  33   2.0000      -0.773486       -21.0476
  34   2.0000      -0.711240       -19.3538
  35   2.0000      -0.701234       -19.0816
  36   2.0000      -0.689022       -18.7492
  37   2.0000      -0.661894       -18.0111
  38   2.0000      -0.643522       -17.5111
  39   2.0000      -0.616773       -16.7833
  40   2.0000      -0.594570       -16.1791
  41   2.0000      -0.565994       -15.4015
  42   2.0000      -0.560086       -15.2407
  43   2.0000      -0.553821       -15.0702
  44   2.0000      -0.547681       -14.9032
  45   2.0000      -0.525709       -14.3053
  46   2.0000      -0.512374       -13.9424
  47   2.0000      -0.508908       -13.8481
  48   2.0000      -0.502214       -13.6659
  49   2.0000      -0.497453       -13.5364
  50   2.0000      -0.494894       -13.4667
  51   2.0000      -0.488007       -13.2794
  52   2.0000      -0.472664       -12.8618
  53   2.0000      -0.467226       -12.7139
  54   2.0000      -0.457017       -12.4361
  55   2.0000      -0.449056       -12.2194
  56   2.0000      -0.441392       -12.0109
  57   2.0000      -0.439999       -11.9730
  58   2.0000      -0.432478       -11.7683
  59   2.0000      -0.428334       -11.6556
  60   2.0000      -0.420262       -11.4359
  61   2.0000      -0.417196       -11.3525
  62   2.0000      -0.413795       -11.2599
  63   2.0000      -0.349316        -9.5054
  64   2.0000      -0.332275        -9.0417
  65   2.0000      -0.328941        -8.9509
  66   2.0000      -0.281865        -7.6699
  67   0.0000       0.025068         0.6821
  68   0.0000       0.066071         1.7979
  69   0.0000       0.101133         2.7520
  70   0.0000       0.118661         3.2289
  71   0.0000       0.128911         3.5078

MULLIKEN ATOMIC CHARGES
-----------------------
   0 S :    0.114259
   1 C :   -0.106370
   2 C :   -0.105568
   3 C :    0.029612
   4 C :   -0.139649
   5 H :   -0.014243
   6 C :    0.114304
   7 H :    0.038310
   8 H :   -0.023942
   9 C :   -0.111279
  10 H :    0.038308
  11 H :    0.043287
  12 C :   -0.033840
  13 H :    0.044505
  14 H :    0.023152
  15 H :    0.025102
  16 S :    0.083575
  17 C :   -0.097093
  18 C :   -0.026043
  19 C :   -0.058439
  20 C :   -0.127119
  21 H :    0.036522
  22 C :    0.035679
  23 H :    0.021267
  24 H :    0.030723
  25 C :   -0.096577
  26 H :    0.034952
  27 H :    0.048584
  28 C :    0.025164
  29 H :    0.005225
  30 H :    0.009647
  31 H :    0.044642
  32 H :    0.039956
  33 H :    0.053387
Sum of atomic charges:   -0.0000000

LOEWDIN ATOMIC CHARGES
----------------------
   0 S :    0.403166
   1 C :   -0.200684
   2 C :   -0.049847
   3 C :   -0.066396
   4 C :   -0.188904
   5 H :    0.025069
   6 C :   -0.034734
   7 H :    0.037453
   8 H :    0.015116
   9 C :   -0.039213
  10 H :    0.023226
  11 H :    0.029075
  12 C :   -0.057712
  13 H :    0.033819
  14 H :    0.014427
  15 H :    0.022114
  16 S :    0.359715
  17 C :   -0.162034
  18 C :   -0.071298
  19 C :   -0.051546
  20 C :   -0.181443
  21 H :    0.039465
  22 C :   -0.047219
  23 H :    0.033850
  24 H :    0.035461
  25 C :   -0.041810
  26 H :    0.032110
  27 H :    0.029932
  28 C :   -0.054862
  29 H :    0.018055
  30 H :    0.019462
  31 H :    0.029634
  32 H :    0.023380
  33 H :    0.023172

  Mayer bond orders larger than 0.100000
B(  0-S ,  1-C ) :   1.1371 B(  0-S ,  4-C ) :   1.1499 B(  1-C ,  2-C ) :   1.5866
B(  1-C ,  4-C ) :   0.1061 B(  1-C , 32-H ) :   0.9695 B(  2-C ,  3-C ) :   1.2405
B(  2-C ,  6-C ) :   1.0337 B(  3-C ,  4-C ) :   1.5612 B(  3-C ,  5-H ) :   0.9961
B(  4-C , 20-C ) :   1.0553 B(  6-C ,  7-H ) :   0.9327 B(  6-C ,  8-H ) :   0.9300
B(  6-C ,  9-C ) :   1.0493 B(  9-C , 10-H ) :   0.9546 B(  9-C , 11-H ) :   0.9621
B(  9-C , 12-C ) :   1.0812 B( 12-C , 13-H ) :   0.9768 B( 12-C , 14-H ) :   0.9768
B( 12-C , 15-H ) :   0.9763 B( 16-S , 17-C ) :   1.1358 B( 16-S , 20-C ) :   1.1091
B( 17-C , 18-C ) :   1.6454 B( 17-C , 33-H ) :   0.9698 B( 18-C , 19-C ) :   1.1880
B( 18-C , 21-H ) :   0.9822 B( 19-C , 20-C ) :   1.6368 B( 19-C , 22-C ) :   1.0520
B( 22-C , 23-H ) :   0.9261 B( 22-C , 24-H ) :   0.9263 B( 22-C , 25-C ) :   1.0740
B( 25-C , 26-H ) :   0.9507 B( 25-C , 27-H ) :   0.9431 B( 25-C , 28-C ) :   1.0828
B( 28-C , 29-H ) :   0.9679 B( 28-C , 30-H ) :   0.9653 B( 28-C , 31-H ) :   0.9738

Dispersion correction           -0.014301200
FINAL SINGLE POINT ENERGY     -1339.870864772374

DIPOLE MOMENT
-------------
                                X             Y             Z
Electronic contribution:    -13.67162       7.57927      26.38005
Nuclear contribution   :     14.13962      -7.95178     -26.95175
                        -----------------------------------------
Total Dipole Moment    :      0.46799      -0.37251      -0.57170
                        -----------------------------------------
Magnitude (a.u.)       :      0.82742
Magnitude (Debye)      :      2.10313

Rotational constants in cm-1:     0.017550     0.008902     0.006448
Rotational constants in MHz :   526.130153   266.860782   193.300730

                             ****ORCA TERMINATED NORMALLY****
TOTAL RUN TIME: 0 days 0 hours 0 minutes 28 seconds 464 msec
