                         Program Version 4.2.1 -  RELEASE  -
|  1> ! wB97X-D3 SP def2-SVP
|  2> %pal
|  3> nprocs 16
|  4> end
|  5>
|  6> * xyz 0 1
|  7> S 	 -14.5958 	 69.6602 	 49.8942
|  8> C 	 -15.4097 	 68.3521 	 49.0066
|  9> C 	 -15.9701 	 68.7683 	 47.7899
| 10> C 	 -15.782 	 70.1994 	 47.6462
| 11> C 	 -15.1475 	 70.8259 	 48.6703
| 12> H 	 -16.036 	 70.8641 	 46.8239
| 13> C 	 -16.6109 	 67.8448 	 46.7135
| 14> H 	 -17.3513 	 68.3691 	 46.165
| 15> H 	 -17.1394 	 67.0521 	 47.1673
| 16> C 	 -15.613 	 67.3687 	 45.6696
| 17> H 	 -15.1145 	 68.1677 	 45.1472
| 18> H 	 -14.8461 	 66.8784 	 46.2921
| 19> C 	 -16.1025 	 66.3891 	 44.6204
| 20> H 	 -15.3225 	 65.7967 	 44.1891
| 21> H 	 -16.8598 	 65.694 	 45.0196
| 22> H 	 -16.6302 	 66.9371 	 43.8685
| 23> S 	 -15.8408 	 73.2386 	 49.8875
| 24> C 	 -15.179 	 74.732 	 49.2869
| 25> C 	 -14.2546 	 74.52 	 48.2691
| 26> C 	 -14.0924 	 73.163 	 47.9447
| 27> C 	 -14.8081 	 72.2895 	 48.7641
| 28> H 	 -13.731 	 75.3686 	 47.923
| 29> C 	 -13.2028 	 72.7119 	 46.7906
| 30> H 	 -13.7781 	 72.3609 	 45.9542
| 31> H 	 -12.5369 	 71.9379 	 47.2069
| 32> C 	 -12.2068 	 73.6753 	 46.0937
| 33> H 	 -11.635 	 74.2453 	 46.8555
| 34> H 	 -12.8276 	 74.2812 	 45.5029
| 35> C 	 -11.1348 	 72.9658 	 45.1582
| 36> H 	 -11.6672 	 72.2914 	 44.4552
| 37> H 	 -10.3888 	 72.3342 	 45.6287
| 38> H 	 -10.645 	 73.8195 	 44.7239
| 39> H 	 -15.2044 	 67.2977 	 49.1073
| 40> H 	 -15.3564 	 75.704 	 49.8245
| 41> *
| 42>
| 43>                          ****END OF INPUT****

CARTESIAN COORDINATES (ANGSTROEM)
---------------------------------
  S    -14.595800   69.660200   49.894200
  C    -15.409700   68.352100   49.006600
  C    -15.970100   68.768300   47.789900
  C    -15.782000   70.199400   47.646200
  C    -15.147500   70.825900   48.670300
  H    -16.036000   70.864100   46.823900
  C    -16.610900   67.844800   46.713500
  H    -17.351300   68.369100   46.165000
  H    -17.139400   67.052100   47.167300
  C    -15.613000   67.368700   45.669600
  H    -15.114500   68.167700   45.147200
  H    -14.846100   66.878400   46.292100
  C    -16.102500   66.389100   44.620400
  H    -15.322500   65.796700   44.189100
  H    -16.859800   65.694000   45.019600
  H    -16.630200   66.937100   43.868500
  S    -15.840800   73.238600   49.887500
  C    -15.179000   74.732000   49.286900
  C    -14.254600   74.520000   48.269100
  C    -14.092400   73.163000   47.944700
  C    -14.808100   72.289500   48.764100
  H    -13.731000   75.368600   47.923000
  C    -13.202800   72.711900   46.790600
  H    -13.778100   72.360900   45.954200
  H    -12.536900   71.937900   47.206900
  C    -12.206800   73.675300   46.093700
  H    -11.635000   74.245300   46.855500
  H    -12.827600   74.281200   45.502900
  C    -11.134800   72.965800   45.158200
  H    -11.667200   72.291400   44.455200
  H    -10.388800   72.334200   45.628700
  H    -10.645000   73.819500   44.723900
  H    -15.204400   67.297700   49.107300
  H    -15.356400   75.704000   49.824500

 Total Charge           Charge          ....    0
 Multiplicity           Mult            ....    1
 Number of Electrons    NEL             ....  134
 Basis Dimension        Dim             ....  322

ORBITAL ENERGIES
----------------

  NO   OCC          E(Eh)            E(eV)
   0   2.0000     -88.966644     -2420.9055
   1   2.0000     -88.963825     -2420.8288
   2   2.0000     -10.331300      -281.1290
   3   2.0000     -10.330753      -281.1141
   4   2.0000     -10.322122      -280.8792
   5   2.0000     -10.317204      -280.7454
   6   2.0000     -10.310367      -280.5593
   7   2.0000     -10.308312      -280.5034
   8   2.0000     -10.294731      -280.1339
   9   2.0000     -10.291077      -280.0344
  10   2.0000     -10.290752      -280.0256
  11   2.0000     -10.289935      -280.0034
  12   2.0000     -10.289369      -279.9880
  13   2.0000     -10.284937      -279.8674
  14   2.0000     -10.283703      -279.8338
  15   2.0000     -10.275927      -279.6222
  16   2.0000      -8.080392      -219.8786
  17   2.0000      -8.078173      -219.8183
  18   2.0000      -6.039020      -164.3301
  19   2.0000      -6.036575      -164.2636
  20   2.0000      -6.035141      -164.2245
  21   2.0000      -6.032634      -164.1563
  22   2.0000      -6.030978      -164.1113
  23   2.0000      -6.029153      -164.0616
  24   2.0000      -0.998593       -27.1731
  25   2.0000      -0.978693       -26.6316
  26   2.0000      -0.913321       -24.8527
  27   2.0000      -0.904544       -24.6139
  28   2.0000      -0.863998       -23.5106
  29   2.0000      -0.849346       -23.1119
  30   2.0000      -0.844525       -22.9807
  31   2.0000      -0.814452       -22.1624
  32   2.0000      -0.785965       -21.3872
  33   2.0000      -0.774145       -21.0656
  34   2.0000      -0.703021       -19.1302
  35   2.0000      -0.699745       -19.0410
  36   2.0000      -0.690931       -18.8012
  37   2.0000      -0.651238       -17.7211
  38   2.0000      -0.644427       -17.5357
  39   2.0000      -0.614843       -16.7307
  40   2.0000      -0.597571       -16.2607
  41   2.0000      -0.577177       -15.7058
  42   2.0000      -0.573392       -15.6028
  43   2.0000      -0.562136       -15.2965
  44   2.0000      -0.527486       -14.3536
  45   2.0000      -0.525798       -14.3077
  46   2.0000      -0.518356       -14.1052
  47   2.0000      -0.508743       -13.8436
  48   2.0000      -0.507061       -13.7978
  49   2.0000      -0.492624       -13.4050
  50   2.0000      -0.489654       -13.3242
  51   2.0000      -0.477877       -13.0037
  52   2.0000      -0.473734       -12.8910
  53   2.0000      -0.465414       -12.6646
  54   2.0000      -0.458545       -12.4776
  55   2.0000      -0.448004       -12.1908
  56   2.0000      -0.442593       -12.0436
  57   2.0000      -0.437698       -11.9104
  58   2.0000      -0.436847       -11.8872
  59   2.0000      -0.427601       -11.6356
  60   2.0000      -0.416685       -11.3386
  61   2.0000      -0.412515       -11.2251
  62   2.0000      -0.410752       -11.1771
  63   2.0000      -0.339355        -9.2343
  64   2.0000      -0.330074        -8.9818
  65   2.0000      -0.327548        -8.9130
  66   2.0000      -0.303750        -8.2655
  67   0.0000       0.036456         0.9920
  68   0.0000       0.054930         1.4947
  69   0.0000       0.113324         3.0837
  70   0.0000       0.122564         3.3351
  71   0.0000       0.130971         3.5639

MULLIKEN ATOMIC CHARGES
-----------------------
   0 S :    0.103684
   1 C :   -0.096305
   2 C :   -0.119383
   3 C :    0.050231
   4 C :   -0.173756
   5 H :    0.013086
   6 C :    0.116688
   7 H :    0.007104
   8 H :    0.014811
   9 C :   -0.091405
  10 H :    0.027052
  11 H :    0.018373
  12 C :   -0.016429
  13 H :    0.038163
  14 H :    0.021370
  15 H :    0.022684
  16 S :    0.100927
  17 C :   -0.112768
  18 C :   -0.037083
  19 C :   -0.001246
  20 C :   -0.166034
  21 H :    0.007986
  22 C :    0.049844
  23 H :    0.031631
  24 H :    0.041352
  25 C :   -0.109803
  26 H :    0.038268
  27 H :    0.024045
  28 C :   -0.046508
  29 H :    0.034144
  30 H :    0.038215
  31 H :    0.041070
  32 H :    0.050825
  33 H :    0.079165
Sum of atomic charges:    0.0000000

LOEWDIN ATOMIC CHARGES
----------------------
   0 S :    0.382032
   1 C :   -0.190538
   2 C :   -0.051766
   3 C :   -0.059493
   4 C :   -0.191668
   5 H :    0.034299
   6 C :   -0.021388
   7 H :    0.023983
   8 H :    0.025748
   9 C :   -0.042579
  10 H :    0.023201
  11 H :    0.021846
  12 C :   -0.062061
  13 H :    0.027531
  14 H :    0.025844
  15 H :    0.021597
  16 S :    0.398536
  17 C :   -0.188173
  18 C :   -0.077831
  19 C :   -0.052047
  20 C :   -0.193169
  21 H :    0.027355
  22 C :   -0.037180
  23 H :    0.028793
  24 H :    0.037438
  25 C :   -0.036348
  26 H :    0.024314
  27 H :    0.014319
  28 C :   -0.060507
  29 H :    0.027158
  30 H :    0.024315
  31 H :    0.028970
  32 H :    0.027516
  33 H :    0.039951

  Mayer bond orders larger than 0.100000
B(  0-S ,  1-C ) :   1.1335 B(  0-S ,  4-C ) :   1.1304 B(  1-C ,  2-C ) :   1.6469
B(  1-C , 32-H ) :   0.9592 B(  2-C ,  3-C ) :   1.2036 B(  2-C ,  6-C ) :   1.0255
B(  3-C ,  4-C ) :   1.6426 B(  3-C ,  5-H ) :   0.9904 B(  4-C , 20-C ) :   0.9869
B(  6-C ,  7-H ) :   0.9381 B(  6-C ,  8-H ) :   0.9384 B(  6-C ,  9-C ) :   1.0621
B(  9-C , 10-H ) :   0.9569 B(  9-C , 11-H ) :   0.9582 B(  9-C , 12-C ) :   1.0826
B( 12-C , 13-H ) :   0.9738 B( 12-C , 14-H ) :   0.9731 B( 12-C , 15-H ) :   0.9738
B( 16-S , 17-C ) :   1.1840 B( 16-S , 20-C ) :   1.1448 B( 17-C , 18-C ) :   1.5768
B( 17-C , 20-C ) :   0.1070 B( 17-C , 33-H ) :   0.9555 B( 18-C , 19-C ) :   1.2563
B( 18-C , 21-H ) :   0.9989 B( 19-C , 20-C ) :   1.6000 B( 19-C , 22-C ) :   1.0198
B( 22-C , 23-H ) :   0.9327 B( 22-C , 24-H ) :   0.9428 B( 22-C , 25-C ) :   1.0807
B( 25-C , 26-H ) :   0.9561 B( 25-C , 27-H ) :   0.9532 B( 25-C , 28-C ) :   1.0760
B( 28-C , 29-H ) :   0.9759 B( 28-C , 30-H ) :   0.9777 B( 28-C , 31-H ) :   0.9749

Dispersion correction           -0.013440554
FINAL SINGLE POINT ENERGY     -1339.867430493574

DIPOLE MOMENT
-------------
                                X             Y             Z
Electronic contribution:     -8.36325       9.28884      27.70618
Nuclear contribution   :      8.58695      -9.29162     -28.50787
                        -----------------------------------------
Total Dipole Moment    :      0.22370      -0.00278      -0.80170
                        -----------------------------------------
Magnitude (a.u.)       :      0.83232
Magnitude (Debye)      :      2.11560

Rotational constants in cm-1:     0.016149     0.008068     0.006121
Rotational constants in MHz :   484.134325   241.875449   183.494120

                             ****ORCA TERMINATED NORMALLY****
TOTAL RUN TIME: 0 days 0 hours 0 minutes 32 seconds 209 msec
