                         Program Version 4.2.1 -  RELEASE  -
|  1> ! wB97X-D3 SP def2-SVP
|  2> %pal
|  3> nprocs 16
|  4> end
|  5>
|  6> * xyz 0 1
|  7> S 	 31.4298 	 -1.05181 	 72.8044
|  8> C 	 30.8766 	 0.567591 	 73.1332
|  9> C 	 29.6298 	 0.764848 	 72.5199
| 10> C 	 29.0873 	 -0.460558 	 71.9875
| 11> C 	 29.9861 	 -1.48524 	 71.9868
| 12> H 	 28.138 	 -0.655461 	 71.5015
| 13> C 	 28.9081 	 2.15691 	 72.5127
| 14> H 	 28.1499 	 2.17345 	 71.7094
| 15> H 	 29.751 	 2.80023 	 72.3603
| 16> C 	 28.1507 	 2.41402 	 73.8033
| 17> H 	 27.2785 	 1.69194 	 73.752
| 18> H 	 28.7159 	 2.19546 	 74.7137
| 19> C 	 27.8066 	 3.83446 	 73.9326
| 20> H 	 28.6655 	 4.44812 	 74.1929
| 21> H 	 27.4084 	 4.24246 	 72.9771
| 22> H 	 27.0917 	 3.95475 	 74.7005
| 23> S 	 28.4071 	 -3.77311 	 71.9305
| 24> C 	 28.9215 	 -5.07114 	 70.9174
| 25> C 	 29.9456 	 -4.69284 	 70.0234
| 26> C 	 30.5025 	 -3.41516 	 70.3494
| 27> C 	 29.7315 	 -2.78762 	 71.3554
| 28> H 	 30.3991 	 -5.46056 	 69.3533
| 29> C 	 31.8202 	 -2.99744 	 69.7172
| 30> H 	 32.2785 	 -3.80719 	 69.2549
| 31> H 	 32.5666 	 -2.69337 	 70.4829
| 32> C 	 31.676 	 -1.8382 	 68.7087
| 33> H 	 30.9644 	 -1.10694 	 69.2
| 34> H 	 31.2894 	 -2.1666 	 67.7507
| 35> C 	 32.8934 	 -0.959028 	 68.7287
| 36> H 	 32.8361 	 -0.129282 	 68.0041
| 37> H 	 33.7534 	 -1.53512 	 68.5175
| 38> H 	 33.1494 	 -0.424781 	 69.6451
| 39> H 	 31.3885 	 1.38058 	 73.7353
| 40> H 	 28.5293 	 -6.1053 	 70.9328
| 41> *
| 42>
| 43>                          ****END OF INPUT****

CARTESIAN COORDINATES (ANGSTROEM)
---------------------------------
  S     31.429800   -1.051810   72.804400
  C     30.876600    0.567591   73.133200
  C     29.629800    0.764848   72.519900
  C     29.087300   -0.460558   71.987500
  C     29.986100   -1.485240   71.986800
  H     28.138000   -0.655461   71.501500
  C     28.908100    2.156910   72.512700
  H     28.149900    2.173450   71.709400
  H     29.751000    2.800230   72.360300
  C     28.150700    2.414020   73.803300
  H     27.278500    1.691940   73.752000
  H     28.715900    2.195460   74.713700
  C     27.806600    3.834460   73.932600
  H     28.665500    4.448120   74.192900
  H     27.408400    4.242460   72.977100
  H     27.091700    3.954750   74.700500
  S     28.407100   -3.773110   71.930500
  C     28.921500   -5.071140   70.917400
  C     29.945600   -4.692840   70.023400
  C     30.502500   -3.415160   70.349400
  C     29.731500   -2.787620   71.355400
  H     30.399100   -5.460560   69.353300
  C     31.820200   -2.997440   69.717200
  H     32.278500   -3.807190   69.254900
  H     32.566600   -2.693370   70.482900
  C     31.676000   -1.838200   68.708700
  H     30.964400   -1.106940   69.200000
  H     31.289400   -2.166600   67.750700
  C     32.893400   -0.959028   68.728700
  H     32.836100   -0.129282   68.004100
  H     33.753400   -1.535120   68.517500
  H     33.149400   -0.424781   69.645100
  H     31.388500    1.380580   73.735300
  H     28.529300   -6.105300   70.932800

 Total Charge           Charge          ....    0
 Multiplicity           Mult            ....    1
 Number of Electrons    NEL             ....  134
 Basis Dimension        Dim             ....  322

ORBITAL ENERGIES
----------------

  NO   OCC          E(Eh)            E(eV)
   0   2.0000     -88.972509     -2421.0651
   1   2.0000     -88.967567     -2420.9306
   2   2.0000     -10.326757      -281.0053
   3   2.0000     -10.322570      -280.8914
   4   2.0000     -10.319446      -280.8064
   5   2.0000     -10.317974      -280.7663
   6   2.0000     -10.305813      -280.4354
   7   2.0000     -10.304786      -280.4075
   8   2.0000     -10.297652      -280.2134
   9   2.0000     -10.293106      -280.0896
  10   2.0000     -10.289752      -279.9984
  11   2.0000     -10.286983      -279.9230
  12   2.0000     -10.283776      -279.8358
  13   2.0000     -10.282272      -279.7948
  14   2.0000     -10.271798      -279.5098
  15   2.0000     -10.267915      -279.4042
  16   2.0000      -8.087129      -220.0620
  17   2.0000      -8.082321      -219.9311
  18   2.0000      -6.045552      -164.5078
  19   2.0000      -6.041628      -164.4011
  20   2.0000      -6.040812      -164.3789
  21   2.0000      -6.038029      -164.3031
  22   2.0000      -6.036711      -164.2673
  23   2.0000      -6.033218      -164.1722
  24   2.0000      -1.007211       -27.4076
  25   2.0000      -0.983831       -26.7714
  26   2.0000      -0.917730       -24.9727
  27   2.0000      -0.910215       -24.7682
  28   2.0000      -0.866707       -23.5843
  29   2.0000      -0.854098       -23.2412
  30   2.0000      -0.847531       -23.0625
  31   2.0000      -0.809656       -22.0319
  32   2.0000      -0.783344       -21.3159
  33   2.0000      -0.767944       -20.8968
  34   2.0000      -0.700623       -19.0649
  35   2.0000      -0.692427       -18.8419
  36   2.0000      -0.685107       -18.6427
  37   2.0000      -0.660947       -17.9853
  38   2.0000      -0.637169       -17.3383
  39   2.0000      -0.612796       -16.6750
  40   2.0000      -0.594323       -16.1723
  41   2.0000      -0.580553       -15.7977
  42   2.0000      -0.565085       -15.3767
  43   2.0000      -0.555618       -15.1191
  44   2.0000      -0.530011       -14.4223
  45   2.0000      -0.521288       -14.1850
  46   2.0000      -0.512758       -13.9529
  47   2.0000      -0.510341       -13.8871
  48   2.0000      -0.505701       -13.7608
  49   2.0000      -0.495967       -13.4960
  50   2.0000      -0.493854       -13.4385
  51   2.0000      -0.485792       -13.2191
  52   2.0000      -0.469914       -12.7870
  53   2.0000      -0.468483       -12.7481
  54   2.0000      -0.466057       -12.6820
  55   2.0000      -0.444679       -12.1003
  56   2.0000      -0.443308       -12.0630
  57   2.0000      -0.434825       -11.8322
  58   2.0000      -0.429366       -11.6836
  59   2.0000      -0.422662       -11.5012
  60   2.0000      -0.421483       -11.4691
  61   2.0000      -0.411926       -11.2091
  62   2.0000      -0.401851       -10.9349
  63   2.0000      -0.340851        -9.2750
  64   2.0000      -0.333264        -9.0686
  65   2.0000      -0.327185        -8.9032
  66   2.0000      -0.290010        -7.8916
  67   0.0000       0.036724         0.9993
  68   0.0000       0.063592         1.7304
  69   0.0000       0.109807         2.9880
  70   0.0000       0.122086         3.3221
  71   0.0000       0.125855         3.4247

MULLIKEN ATOMIC CHARGES
-----------------------
   0 S :    0.124834
   1 C :   -0.154220
   2 C :   -0.103687
   3 C :    0.015225
   4 C :   -0.145899
   5 H :    0.011347
   6 C :    0.069963
   7 H :    0.032260
   8 H :    0.023092
   9 C :   -0.088788
  10 H :    0.035408
  11 H :    0.026326
  12 C :   -0.009072
  13 H :    0.028833
  14 H :    0.022496
  15 H :    0.024414
  16 S :    0.140666
  17 C :   -0.121920
  18 C :   -0.051730
  19 C :   -0.038220
  20 C :   -0.179522
  21 H :    0.037161
  22 C :    0.099271
  23 H :    0.000145
  24 H :    0.029672
  25 C :   -0.075670
  26 H :    0.047985
  27 H :    0.036258
  28 C :   -0.048804
  29 H :    0.027775
  30 H :    0.010470
  31 H :    0.032749
  32 H :    0.071910
  33 H :    0.069270
Sum of atomic charges:   -0.0000000

LOEWDIN ATOMIC CHARGES
----------------------
   0 S :    0.429136
   1 C :   -0.225155
   2 C :   -0.055746
   3 C :   -0.075454
   4 C :   -0.208522
   5 H :    0.030710
   6 C :   -0.025621
   7 H :    0.033997
   8 H :    0.025543
   9 C :   -0.048467
  10 H :    0.030872
  11 H :    0.024269
  12 C :   -0.062158
  13 H :    0.026181
  14 H :    0.024820
  15 H :    0.021341
  16 S :    0.431702
  17 C :   -0.204649
  18 C :   -0.076957
  19 C :   -0.049289
  20 C :   -0.206927
  21 H :    0.037714
  22 C :   -0.027894
  23 H :    0.019217
  24 H :    0.033793
  25 C :   -0.041553
  26 H :    0.037705
  27 H :    0.023949
  28 C :   -0.068800
  29 H :    0.027114
  30 H :    0.011597
  31 H :    0.027298
  32 H :    0.044349
  33 H :    0.035886

  Mayer bond orders larger than 0.100000
B(  0-S ,  1-C ) :   1.1373 B(  0-S ,  4-C ) :   1.1646 B(  1-C ,  2-C ) :   1.6045
B(  1-C , 32-H ) :   0.9612 B(  2-C ,  3-C ) :   1.2430 B(  2-C ,  6-C ) :   1.0086
B(  3-C ,  4-C ) :   1.5737 B(  3-C ,  5-H ) :   0.9947 B(  4-C , 20-C ) :   1.0185
B(  6-C ,  7-H ) :   0.9408 B(  6-C ,  8-H ) :   0.9442 B(  6-C ,  9-C ) :   1.0700
B(  9-C , 10-H ) :   0.9522 B(  9-C , 11-H ) :   0.9572 B(  9-C , 12-C ) :   1.0885
B( 12-C , 13-H ) :   0.9722 B( 12-C , 14-H ) :   0.9683 B( 12-C , 15-H ) :   0.9694
B( 16-S , 17-C ) :   1.1721 B( 16-S , 20-C ) :   1.1549 B( 17-C , 18-C ) :   1.5953
B( 17-C , 20-C ) :   0.1043 B( 17-C , 33-H ) :   0.9629 B( 18-C , 19-C ) :   1.2670
B( 18-C , 21-H ) :   0.9760 B( 19-C , 20-C ) :   1.5641 B( 19-C , 22-C ) :   1.0458
B( 22-C , 23-H ) :   0.9235 B( 22-C , 24-H ) :   0.9393 B( 22-C , 25-C ) :   1.0434
B( 25-C , 26-H ) :   0.9663 B( 25-C , 27-H ) :   0.9581 B( 25-C , 28-C ) :   1.0723
B( 28-C , 29-H ) :   0.9713 B( 28-C , 30-H ) :   0.9717 B( 28-C , 31-H ) :   0.9739

Dispersion correction           -0.014582413
FINAL SINGLE POINT ENERGY     -1339.869027220221

DIPOLE MOMENT
-------------
                                X             Y             Z
Electronic contribution:     -2.43418     -20.56262       6.25906
Nuclear contribution   :      2.45653      20.76897      -6.38940
                        -----------------------------------------
Total Dipole Moment    :      0.02235       0.20636      -0.13033
                        -----------------------------------------
Magnitude (a.u.)       :      0.24509
Magnitude (Debye)      :      0.62297

Rotational constants in cm-1:     0.020368     0.008097     0.006590
Rotational constants in MHz :   610.613827   242.733081   197.551865

                             ****ORCA TERMINATED NORMALLY****
TOTAL RUN TIME: 0 days 0 hours 0 minutes 29 seconds 930 msec
