                         Program Version 4.2.1 -  RELEASE  -
|  1> ! wB97X-D3 SP def2-SVP
|  2> %pal
|  3> nprocs 16
|  4> end
|  5>
|  6> * xyz 0 1
|  7> S 	 23.8084 	 -0.176286 	 83.0251
|  8> C 	 24.7224 	 0.463549 	 81.7307
|  9> C 	 23.9725 	 0.632678 	 80.5917
| 10> C 	 22.6181 	 0.169919 	 80.7754
| 11> C 	 22.4498 	 -0.460502 	 82.0054
| 12> H 	 21.8197 	 0.221074 	 80.0269
| 13> C 	 24.3768 	 1.23789 	 79.2503
| 14> H 	 23.5399 	 1.2505 	 78.601
| 15> H 	 25.1146 	 0.614316 	 78.7619
| 16> C 	 24.9149 	 2.70041 	 79.3078
| 17> H 	 24.0656 	 3.36794 	 79.4844
| 18> H 	 25.7098 	 2.62531 	 80.0955
| 19> C 	 25.5376 	 3.19498 	 78.0107
| 20> H 	 25.5 	 4.25605 	 77.8916
| 21> H 	 26.5216 	 2.90575 	 77.8075
| 22> H 	 24.9575 	 2.84616 	 77.2314
| 23> S 	 20.6599 	 0.27163 	 84.0365
| 24> C 	 19.2596 	 -0.801081 	 84.3228
| 25> C 	 19.1794 	 -1.7952 	 83.3846
| 26> C 	 20.1887 	 -1.698 	 82.416
| 27> C 	 21.2098 	 -0.758638 	 82.6596
| 28> H 	 18.2808 	 -2.34321 	 83.258
| 29> C 	 20.2725 	 -2.63021 	 81.2367
| 30> H 	 19.9315 	 -3.56889 	 81.5799
| 31> H 	 21.2835 	 -2.76954 	 80.8164
| 32> C 	 19.3835 	 -2.22948 	 80.0717
| 33> H 	 19.5896 	 -1.2379 	 79.7631
| 34> H 	 18.3171 	 -2.09706 	 80.3672
| 35> C 	 19.54 	 -3.1067 	 78.8995
| 36> H 	 18.7631 	 -2.79294 	 78.1944
| 37> H 	 19.4382 	 -4.15896 	 79.2138
| 38> H 	 20.5825 	 -3.01639 	 78.462
| 39> H 	 25.78 	 0.734353 	 81.7895
| 40> H 	 18.3841 	 -0.535719 	 84.9194
| 41> *
| 42>
| 43>                          ****END OF INPUT****

CARTESIAN COORDINATES (ANGSTROEM)
---------------------------------
  S     23.808400   -0.176286   83.025100
  C     24.722400    0.463549   81.730700
  C     23.972500    0.632678   80.591700
  C     22.618100    0.169919   80.775400
  C     22.449800   -0.460502   82.005400
  H     21.819700    0.221074   80.026900
  C     24.376800    1.237890   79.250300
  H     23.539900    1.250500   78.601000
  H     25.114600    0.614316   78.761900
  C     24.914900    2.700410   79.307800
  H     24.065600    3.367940   79.484400
  H     25.709800    2.625310   80.095500
  C     25.537600    3.194980   78.010700
  H     25.500000    4.256050   77.891600
  H     26.521600    2.905750   77.807500
  H     24.957500    2.846160   77.231400
  S     20.659900    0.271630   84.036500
  C     19.259600   -0.801081   84.322800
  C     19.179400   -1.795200   83.384600
  C     20.188700   -1.698000   82.416000
  C     21.209800   -0.758638   82.659600
  H     18.280800   -2.343210   83.258000
  C     20.272500   -2.630210   81.236700
  H     19.931500   -3.568890   81.579900
  H     21.283500   -2.769540   80.816400
  C     19.383500   -2.229480   80.071700
  H     19.589600   -1.237900   79.763100
  H     18.317100   -2.097060   80.367200
  C     19.540000   -3.106700   78.899500
  H     18.763100   -2.792940   78.194400
  H     19.438200   -4.158960   79.213800
  H     20.582500   -3.016390   78.462000
  H     25.780000    0.734353   81.789500
  H     18.384100   -0.535719   84.919400

 Total Charge           Charge          ....    0
 Multiplicity           Mult            ....    1
 Number of Electrons    NEL             ....  134
 Basis Dimension        Dim             ....  322

ORBITAL ENERGIES
----------------

  NO   OCC          E(Eh)            E(eV)
   0   2.0000     -88.967948     -2420.9409
   1   2.0000     -88.963518     -2420.8204
   2   2.0000     -10.327116      -281.0151
   3   2.0000     -10.325720      -280.9771
   4   2.0000     -10.318964      -280.7933
   5   2.0000     -10.313727      -280.6508
   6   2.0000     -10.302512      -280.3456
   7   2.0000     -10.300115      -280.2804
   8   2.0000     -10.299106      -280.2529
   9   2.0000     -10.291271      -280.0397
  10   2.0000     -10.290089      -280.0076
  11   2.0000     -10.288829      -279.9733
  12   2.0000     -10.281811      -279.7823
  13   2.0000     -10.279706      -279.7250
  14   2.0000     -10.276519      -279.6383
  15   2.0000     -10.264980      -279.3243
  16   2.0000      -8.083897      -219.9740
  17   2.0000      -8.076808      -219.7811
  18   2.0000      -6.042331      -164.4202
  19   2.0000      -6.038163      -164.3068
  20   2.0000      -6.035423      -164.2322
  21   2.0000      -6.034701      -164.2126
  22   2.0000      -6.031550      -164.1268
  23   2.0000      -6.027492      -164.0164
  24   2.0000      -1.011269       -27.5180
  25   2.0000      -0.982048       -26.7229
  26   2.0000      -0.916122       -24.9289
  27   2.0000      -0.912806       -24.8387
  28   2.0000      -0.874360       -23.7925
  29   2.0000      -0.855138       -23.2695
  30   2.0000      -0.849664       -23.1205
  31   2.0000      -0.815542       -22.1920
  32   2.0000      -0.786785       -21.4095
  33   2.0000      -0.767271       -20.8785
  34   2.0000      -0.706456       -19.2236
  35   2.0000      -0.700847       -19.0710
  36   2.0000      -0.692621       -18.8472
  37   2.0000      -0.663234       -18.0475
  38   2.0000      -0.643330       -17.5059
  39   2.0000      -0.616744       -16.7825
  40   2.0000      -0.597386       -16.2557
  41   2.0000      -0.580431       -15.7943
  42   2.0000      -0.570008       -15.5107
  43   2.0000      -0.560161       -15.2427
  44   2.0000      -0.531694       -14.4681
  45   2.0000      -0.523068       -14.2334
  46   2.0000      -0.518123       -14.0988
  47   2.0000      -0.510764       -13.8986
  48   2.0000      -0.507981       -13.8229
  49   2.0000      -0.501618       -13.6497
  50   2.0000      -0.499342       -13.5878
  51   2.0000      -0.480990       -13.0884
  52   2.0000      -0.474095       -12.9008
  53   2.0000      -0.470879       -12.8133
  54   2.0000      -0.455101       -12.3839
  55   2.0000      -0.453129       -12.3303
  56   2.0000      -0.445495       -12.1225
  57   2.0000      -0.436627       -11.8812
  58   2.0000      -0.431613       -11.7448
  59   2.0000      -0.429089       -11.6761
  60   2.0000      -0.418412       -11.3856
  61   2.0000      -0.415912       -11.3175
  62   2.0000      -0.405789       -11.0421
  63   2.0000      -0.348033        -9.4705
  64   2.0000      -0.331158        -9.0113
  65   2.0000      -0.327171        -8.9028
  66   2.0000      -0.291478        -7.9315
  67   0.0000       0.030197         0.8217
  68   0.0000       0.055722         1.5163
  69   0.0000       0.112815         3.0698
  70   0.0000       0.122319         3.3285
  71   0.0000       0.126730         3.4485

MULLIKEN ATOMIC CHARGES
-----------------------
   0 S :    0.125413
   1 C :   -0.125684
   2 C :   -0.082096
   3 C :    0.021739
   4 C :   -0.154209
   5 H :    0.024113
   6 C :    0.082483
   7 H :    0.002133
   8 H :    0.032058
   9 C :   -0.104010
  10 H :    0.040554
  11 H :    0.034910
  12 C :    0.015421
  13 H :    0.023105
  14 H :    0.017131
  15 H :   -0.000907
  16 S :    0.090712
  17 C :   -0.097054
  18 C :   -0.003594
  19 C :   -0.046276
  20 C :   -0.150591
  21 H :    0.013284
  22 C :    0.080722
  23 H :    0.003141
  24 H :    0.027232
  25 C :   -0.082627
  26 H :    0.001010
  27 H :    0.017794
  28 C :   -0.034910
  29 H :    0.041298
  30 H :    0.027889
  31 H :    0.039231
  32 H :    0.054315
  33 H :    0.066271
Sum of atomic charges:    0.0000000

LOEWDIN ATOMIC CHARGES
----------------------
   0 S :    0.448174
   1 C :   -0.208717
   2 C :   -0.064762
   3 C :   -0.049962
   4 C :   -0.213129
   5 H :    0.033165
   6 C :   -0.030096
   7 H :    0.019889
   8 H :    0.030818
   9 C :   -0.035045
  10 H :    0.029840
  11 H :    0.025843
  12 C :   -0.059262
  13 H :    0.026980
  14 H :    0.018263
  15 H :    0.015955
  16 S :    0.365923
  17 C :   -0.171924
  18 C :   -0.071876
  19 C :   -0.053251
  20 C :   -0.187518
  21 H :    0.029715
  22 C :   -0.027758
  23 H :    0.021564
  24 H :    0.032714
  25 C :   -0.049161
  26 H :    0.013317
  27 H :    0.023680
  28 C :   -0.065865
  29 H :    0.031036
  30 H :    0.024345
  31 H :    0.031431
  32 H :    0.031337
  33 H :    0.034338

  Mayer bond orders larger than 0.100000
B(  0-S ,  1-C ) :   1.1580 B(  0-S ,  4-C ) :   1.1657 B(  1-C ,  2-C ) :   1.5911
B(  1-C , 32-H ) :   0.9653 B(  2-C ,  3-C ) :   1.2726 B(  2-C ,  6-C ) :   1.0194
B(  3-C ,  4-C ) :   1.5389 B(  3-C ,  5-H ) :   0.9891 B(  4-C , 20-C ) :   1.0503
B(  6-C ,  7-H ) :   0.9364 B(  6-C ,  8-H ) :   0.9408 B(  6-C ,  9-C ) :   1.0621
B(  9-C , 10-H ) :   0.9588 B(  9-C , 11-H ) :   0.9630 B(  9-C , 12-C ) :   1.0843
B( 12-C , 13-H ) :   0.9731 B( 12-C , 14-H ) :   0.9723 B( 12-C , 15-H ) :   0.9669
B( 16-S , 17-C ) :   1.1510 B( 16-S , 20-C ) :   1.1163 B( 17-C , 18-C ) :   1.6069
B( 17-C , 20-C ) :   0.1037 B( 17-C , 33-H ) :   0.9589 B( 18-C , 19-C ) :   1.2722
B( 18-C , 21-H ) :   0.9837 B( 19-C , 20-C ) :   1.5861 B( 19-C , 22-C ) :   1.0553
B( 22-C , 23-H ) :   0.9276 B( 22-C , 24-H ) :   0.9365 B( 22-C , 25-C ) :   1.0615
B( 25-C , 26-H ) :   0.9443 B( 25-C , 27-H ) :   0.9484 B( 25-C , 28-C ) :   1.0969
B( 28-C , 29-H ) :   0.9700 B( 28-C , 30-H ) :   0.9708 B( 28-C , 31-H ) :   0.9694

Dispersion correction           -0.013676868
FINAL SINGLE POINT ENERGY     -1339.867718963461

DIPOLE MOMENT
-------------
                                X             Y             Z
Electronic contribution:     -0.81805      -0.56033      28.02179
Nuclear contribution   :      0.65417       0.67281     -28.76624
                        -----------------------------------------
Total Dipole Moment    :     -0.16388       0.11248      -0.74444
                        -----------------------------------------
Magnitude (a.u.)       :      0.77052
Magnitude (Debye)      :      1.95851

Rotational constants in cm-1:     0.018940     0.007956     0.006260
Rotational constants in MHz :   567.796361   238.506689   187.668590

                             ****ORCA TERMINATED NORMALLY****
TOTAL RUN TIME: 0 days 0 hours 0 minutes 33 seconds 119 msec
