                         Program Version 4.2.1 -  RELEASE  -
|  1> ! wB97X-D3 SP def2-SVP
|  2> %pal
|  3> nprocs 16
|  4> end
|  5>
|  6> * xyz 0 1
|  7> S 	 -13.4069 	 69.8004 	 48.2782
|  8> C 	 -14.5781 	 69.4964 	 47.0012
|  9> C 	 -15.4349 	 70.5312 	 46.7359
| 10> C 	 -15.2328 	 71.5689 	 47.6966
| 11> C 	 -14.0933 	 71.4028 	 48.5265
| 12> H 	 -15.8035 	 72.5333 	 47.8182
| 13> C 	 -16.617 	 70.6112 	 45.7037
| 14> H 	 -17.2513 	 71.4479 	 45.9482
| 15> H 	 -17.2608 	 69.7609 	 45.8696
| 16> C 	 -16.2619 	 70.5982 	 44.2231
| 17> H 	 -15.441 	 71.256 	 43.9939
| 18> H 	 -15.9693 	 69.5616 	 43.9641
| 19> C 	 -17.4096 	 70.9753 	 43.2817
| 20> H 	 -17.0286 	 71.2085 	 42.2335
| 21> H 	 -18.1958 	 70.1851 	 43.1814
| 22> H 	 -17.8822 	 71.864 	 43.6828
| 23> S 	 -13.5537 	 71.6825 	 51.0752
| 24> C 	 -12.9468 	 73.1627 	 51.8183
| 25> C 	 -12.8956 	 74.141 	 50.8506
| 26> C 	 -13.235 	 73.7259 	 49.5004
| 27> C 	 -13.6359 	 72.3962 	 49.5173
| 28> H 	 -12.6628 	 75.1519 	 51.1201
| 29> C 	 -13.0862 	 74.5426 	 48.2886
| 30> H 	 -12.5487 	 74.0185 	 47.5141
| 31> H 	 -12.3823 	 75.2815 	 48.6697
| 32> C 	 -14.3882 	 75.0642 	 47.7965
| 33> H 	 -14.8032 	 75.7214 	 48.6289
| 34> H 	 -15.1516 	 74.399 	 47.4943
| 35> C 	 -14.1092 	 75.8599 	 46.485
| 36> H 	 -13.7722 	 75.2144 	 45.6591
| 37> H 	 -13.2407 	 76.5708 	 46.6934
| 38> H 	 -14.8305 	 76.6022 	 46.077
| 39> H 	 -14.4062 	 68.5936 	 46.305
| 40> H 	 -12.6162 	 73.2721 	 52.9368
| 41> *
| 42>
| 43>                          ****END OF INPUT****

CARTESIAN COORDINATES (ANGSTROEM)
---------------------------------
  S    -13.406900   69.800400   48.278200
  C    -14.578100   69.496400   47.001200
  C    -15.434900   70.531200   46.735900
  C    -15.232800   71.568900   47.696600
  C    -14.093300   71.402800   48.526500
  H    -15.803500   72.533300   47.818200
  C    -16.617000   70.611200   45.703700
  H    -17.251300   71.447900   45.948200
  H    -17.260800   69.760900   45.869600
  C    -16.261900   70.598200   44.223100
  H    -15.441000   71.256000   43.993900
  H    -15.969300   69.561600   43.964100
  C    -17.409600   70.975300   43.281700
  H    -17.028600   71.208500   42.233500
  H    -18.195800   70.185100   43.181400
  H    -17.882200   71.864000   43.682800
  S    -13.553700   71.682500   51.075200
  C    -12.946800   73.162700   51.818300
  C    -12.895600   74.141000   50.850600
  C    -13.235000   73.725900   49.500400
  C    -13.635900   72.396200   49.517300
  H    -12.662800   75.151900   51.120100
  C    -13.086200   74.542600   48.288600
  H    -12.548700   74.018500   47.514100
  H    -12.382300   75.281500   48.669700
  C    -14.388200   75.064200   47.796500
  H    -14.803200   75.721400   48.628900
  H    -15.151600   74.399000   47.494300
  C    -14.109200   75.859900   46.485000
  H    -13.772200   75.214400   45.659100
  H    -13.240700   76.570800   46.693400
  H    -14.830500   76.602200   46.077000
  H    -14.406200   68.593600   46.305000
  H    -12.616200   73.272100   52.936800

 Total Charge           Charge          ....    0
 Multiplicity           Mult            ....    1
 Number of Electrons    NEL             ....  134
 Basis Dimension        Dim             ....  322

ORBITAL ENERGIES
----------------

  NO   OCC          E(Eh)            E(eV)
   0   2.0000     -88.971348     -2421.0335
   1   2.0000     -88.960131     -2420.7282
   2   2.0000     -10.333162      -281.1796
   3   2.0000     -10.324458      -280.9428
   4   2.0000     -10.323149      -280.9072
   5   2.0000     -10.321681      -280.8672
   6   2.0000     -10.307839      -280.4906
   7   2.0000     -10.301303      -280.3127
   8   2.0000     -10.300554      -280.2923
   9   2.0000     -10.296591      -280.1845
  10   2.0000     -10.295247      -280.1479
  11   2.0000     -10.290066      -280.0069
  12   2.0000     -10.287977      -279.9501
  13   2.0000     -10.287487      -279.9368
  14   2.0000     -10.286274      -279.9037
  15   2.0000     -10.284642      -279.8593
  16   2.0000      -8.085478      -220.0170
  17   2.0000      -8.075603      -219.7483
  18   2.0000      -6.043957      -164.4644
  19   2.0000      -6.040091      -164.3592
  20   2.0000      -6.036271      -164.2553
  21   2.0000      -6.034200      -164.1989
  22   2.0000      -6.029813      -164.0796
  23   2.0000      -6.026399      -163.9866
  24   2.0000      -1.006118       -27.3779
  25   2.0000      -0.982456       -26.7340
  26   2.0000      -0.920551       -25.0495
  27   2.0000      -0.910412       -24.7736
  28   2.0000      -0.868523       -23.6337
  29   2.0000      -0.848133       -23.0789
  30   2.0000      -0.846550       -23.0358
  31   2.0000      -0.808319       -21.9955
  32   2.0000      -0.781300       -21.2603
  33   2.0000      -0.767953       -20.8971
  34   2.0000      -0.707190       -19.2436
  35   2.0000      -0.699758       -19.0414
  36   2.0000      -0.688441       -18.7334
  37   2.0000      -0.664359       -18.0781
  38   2.0000      -0.636116       -17.3096
  39   2.0000      -0.613138       -16.6843
  40   2.0000      -0.595579       -16.2065
  41   2.0000      -0.570542       -15.5252
  42   2.0000      -0.567733       -15.4488
  43   2.0000      -0.559232       -15.2175
  44   2.0000      -0.531064       -14.4510
  45   2.0000      -0.519597       -14.1389
  46   2.0000      -0.517143       -14.0722
  47   2.0000      -0.510237       -13.8843
  48   2.0000      -0.505235       -13.7481
  49   2.0000      -0.496344       -13.5062
  50   2.0000      -0.487299       -13.2601
  51   2.0000      -0.475796       -12.9471
  52   2.0000      -0.470746       -12.8096
  53   2.0000      -0.465366       -12.6632
  54   2.0000      -0.456564       -12.4237
  55   2.0000      -0.445657       -12.1269
  56   2.0000      -0.441764       -12.0210
  57   2.0000      -0.432971       -11.7817
  58   2.0000      -0.431924       -11.7533
  59   2.0000      -0.428856       -11.6698
  60   2.0000      -0.424215       -11.5435
  61   2.0000      -0.420903       -11.4534
  62   2.0000      -0.410322       -11.1654
  63   2.0000      -0.342438        -9.3182
  64   2.0000      -0.335846        -9.1388
  65   2.0000      -0.325877        -8.8676
  66   2.0000      -0.294282        -8.0078
  67   0.0000       0.030999         0.8435
  68   0.0000       0.067012         1.8235
  69   0.0000       0.110554         3.0083
  70   0.0000       0.124241         3.3808
  71   0.0000       0.127812         3.4779

MULLIKEN ATOMIC CHARGES
-----------------------
   0 S :    0.128515
   1 C :   -0.167053
   2 C :   -0.049426
   3 C :   -0.004453
   4 C :   -0.157586
   5 H :    0.040424
   6 C :    0.082334
   7 H :    0.010728
   8 H :    0.031937
   9 C :   -0.070755
  10 H :    0.032489
  11 H :    0.029560
  12 C :   -0.081338
  13 H :    0.048665
  14 H :    0.039895
  15 H :    0.026365
  16 S :    0.092343
  17 C :   -0.128012
  18 C :   -0.035841
  19 C :   -0.051238
  20 C :   -0.175908
  21 H :    0.009939
  22 C :    0.098721
  23 H :    0.030063
  24 H :    0.017284
  25 C :   -0.057570
  26 H :    0.037438
  27 H :    0.029251
  28 C :   -0.086511
  29 H :    0.040577
  30 H :    0.020864
  31 H :    0.039912
  32 H :    0.080869
  33 H :    0.097518
Sum of atomic charges:   -0.0000000

LOEWDIN ATOMIC CHARGES
----------------------
   0 S :    0.404728
   1 C :   -0.205609
   2 C :   -0.065246
   3 C :   -0.066276
   4 C :   -0.205931
   5 H :    0.037415
   6 C :   -0.025284
   7 H :    0.024989
   8 H :    0.033711
   9 C :   -0.044133
  10 H :    0.022990
  11 H :    0.025740
  12 C :   -0.070634
  13 H :    0.035959
  14 H :    0.027147
  15 H :    0.020145
  16 S :    0.413140
  17 C :   -0.205688
  18 C :   -0.074025
  19 C :   -0.060532
  20 C :   -0.200894
  21 H :    0.025953
  22 C :   -0.033221
  23 H :    0.034152
  24 H :    0.037068
  25 C :   -0.036183
  26 H :    0.034698
  27 H :    0.017236
  28 C :   -0.080940
  29 H :    0.026626
  30 H :    0.026912
  31 H :    0.026642
  32 H :    0.043080
  33 H :    0.056265

  Mayer bond orders larger than 0.100000
B(  0-S ,  1-C ) :   1.1434 B(  0-S ,  4-C ) :   1.1524 B(  1-C ,  2-C ) :   1.6218
B(  1-C , 32-H ) :   0.9510 B(  2-C ,  3-C ) :   1.2477 B(  2-C ,  6-C ) :   1.0046
B(  3-C ,  4-C ) :   1.5752 B(  3-C ,  5-H ) :   0.9719 B(  4-C , 20-C ) :   1.0213
B(  6-C ,  7-H ) :   0.9470 B(  6-C ,  8-H ) :   0.9406 B(  6-C ,  9-C ) :   1.0599
B(  9-C , 10-H ) :   0.9614 B(  9-C , 11-H ) :   0.9539 B(  9-C , 12-C ) :   1.0827
B( 12-C , 13-H ) :   0.9755 B( 12-C , 14-H ) :   0.9760 B( 12-C , 15-H ) :   0.9751
B( 16-S , 17-C ) :   1.1422 B( 16-S , 20-C ) :   1.1667 B( 17-C , 18-C ) :   1.6111
B( 17-C , 33-H ) :   0.9550 B( 18-C , 19-C ) :   1.2401 B( 18-C , 21-H ) :   0.9876
B( 19-C , 20-C ) :   1.5901 B( 19-C , 22-C ) :   1.0374 B( 22-C , 23-H ) :   0.9327
B( 22-C , 24-H ) :   0.9213 B( 22-C , 25-C ) :   1.0653 B( 25-C , 26-H ) :   0.9502
B( 25-C , 27-H ) :   0.9559 B( 25-C , 28-C ) :   1.0665 B( 28-C , 29-H ) :   0.9743
B( 28-C , 30-H ) :   0.9723 B( 28-C , 31-H ) :   0.9760

Dispersion correction           -0.013918442
FINAL SINGLE POINT ENERGY     -1339.866953612332

DIPOLE MOMENT
-------------
                                X             Y             Z
Electronic contribution:     12.44017     -14.68274      25.98504
Nuclear contribution   :    -12.62610      15.07762     -26.44365
                        -----------------------------------------
Total Dipole Moment    :     -0.18592       0.39487      -0.45861
                        -----------------------------------------
Magnitude (a.u.)       :      0.63310
Magnitude (Debye)      :      1.60921

Rotational constants in cm-1:     0.018945     0.008619     0.006354
Rotational constants in MHz :   567.946864   258.393878   190.475808

                             ****ORCA TERMINATED NORMALLY****
TOTAL RUN TIME: 0 days 0 hours 0 minutes 33 seconds 766 msec
