                         Program Version 4.2.1 -  RELEASE  -
|  1> ! wB97X-D3 SP def2-SVP
|  2> %pal
|  3> nprocs 16
|  4> end
|  5>
|  6> * xyz 0 1
|  7> S 	 -41.6923 	 27.0231 	 89.0401
|  8> C 	 -41.403 	 28.0747 	 90.4602
|  9> C 	 -42.013 	 29.3018 	 90.3268
| 10> C 	 -42.6954 	 29.4118 	 89.0476
| 11> C 	 -42.5194 	 28.3202 	 88.1951
| 12> H 	 -43.1222 	 30.2681 	 88.5651
| 13> C 	 -42.0953 	 30.5094 	 91.2782
| 14> H 	 -42.5148 	 30.1658 	 92.2428
| 15> H 	 -42.6722 	 31.3011 	 90.985
| 16> C 	 -40.7484 	 31.0638 	 91.6674
| 17> H 	 -40.7868 	 31.7862 	 92.5361
| 18> H 	 -40.1012 	 30.2241 	 92.0111
| 19> C 	 -40.0378 	 31.6329 	 90.4501
| 20> H 	 -39.9146 	 30.905 	 89.6451
| 21> H 	 -40.4195 	 32.5714 	 90.0647
| 22> H 	 -39.0163 	 31.9031 	 90.7006
| 23> S 	 -44.4324 	 26.8281 	 86.7372
| 24> C 	 -44.4594 	 27.1191 	 85.0686
| 25> C 	 -43.6324 	 28.097 	 84.6288
| 26> C 	 -42.8933 	 28.7037 	 85.651
| 27> C 	 -43.1626 	 28.0931 	 86.8682
| 28> H 	 -43.6333 	 28.3254 	 83.5753
| 29> C 	 -41.8336 	 29.8149 	 85.3481
| 30> H 	 -41.2857 	 29.5457 	 84.4961
| 31> H 	 -41.1722 	 29.7573 	 86.1625
| 32> C 	 -42.3813 	 31.2676 	 85.3076
| 33> H 	 -41.5081 	 31.9309 	 85.2859
| 34> H 	 -42.8573 	 31.5801 	 86.2056
| 35> C 	 -43.3299 	 31.5647 	 84.1074
| 36> H 	 -42.7671 	 32.294 	 83.4932
| 37> H 	 -44.161 	 32.0627 	 84.6304
| 38> H 	 -43.663 	 30.659 	 83.5524
| 39> H 	 -40.9303 	 27.7684 	 91.3718
| 40> H 	 -45.1413 	 26.5599 	 84.4407
| 41> *
| 42>
| 43>                          ****END OF INPUT****

CARTESIAN COORDINATES (ANGSTROEM)
---------------------------------
  S    -41.692300   27.023100   89.040100
  C    -41.403000   28.074700   90.460200
  C    -42.013000   29.301800   90.326800
  C    -42.695400   29.411800   89.047600
  C    -42.519400   28.320200   88.195100
  H    -43.122200   30.268100   88.565100
  C    -42.095300   30.509400   91.278200
  H    -42.514800   30.165800   92.242800
  H    -42.672200   31.301100   90.985000
  C    -40.748400   31.063800   91.667400
  H    -40.786800   31.786200   92.536100
  H    -40.101200   30.224100   92.011100
  C    -40.037800   31.632900   90.450100
  H    -39.914600   30.905000   89.645100
  H    -40.419500   32.571400   90.064700
  H    -39.016300   31.903100   90.700600
  S    -44.432400   26.828100   86.737200
  C    -44.459400   27.119100   85.068600
  C    -43.632400   28.097000   84.628800
  C    -42.893300   28.703700   85.651000
  C    -43.162600   28.093100   86.868200
  H    -43.633300   28.325400   83.575300
  C    -41.833600   29.814900   85.348100
  H    -41.285700   29.545700   84.496100
  H    -41.172200   29.757300   86.162500
  C    -42.381300   31.267600   85.307600
  H    -41.508100   31.930900   85.285900
  H    -42.857300   31.580100   86.205600
  C    -43.329900   31.564700   84.107400
  H    -42.767100   32.294000   83.493200
  H    -44.161000   32.062700   84.630400
  H    -43.663000   30.659000   83.552400
  H    -40.930300   27.768400   91.371800
  H    -45.141300   26.559900   84.440700

 Total Charge           Charge          ....    0
 Multiplicity           Mult            ....    1
 Number of Electrons    NEL             ....  134
 Basis Dimension        Dim             ....  322

ORBITAL ENERGIES
----------------

  NO   OCC          E(Eh)            E(eV)
   0   2.0000     -88.966988     -2420.9148
   1   2.0000     -88.966367     -2420.8979
   2   2.0000     -10.330265      -281.1008
   3   2.0000     -10.329072      -281.0683
   4   2.0000     -10.317573      -280.7554
   5   2.0000     -10.309951      -280.5480
   6   2.0000     -10.307809      -280.4897
   7   2.0000     -10.304013      -280.3864
   8   2.0000     -10.293041      -280.0879
   9   2.0000     -10.290073      -280.0071
  10   2.0000     -10.288093      -279.9532
  11   2.0000     -10.287938      -279.9490
  12   2.0000     -10.285868      -279.8927
  13   2.0000     -10.285593      -279.8852
  14   2.0000     -10.282036      -279.7884
  15   2.0000     -10.270367      -279.4709
  16   2.0000      -8.082269      -219.9297
  17   2.0000      -8.080280      -219.8756
  18   2.0000      -6.040478      -164.3698
  19   2.0000      -6.038929      -164.3276
  20   2.0000      -6.036885      -164.2720
  21   2.0000      -6.034871      -164.2172
  22   2.0000      -6.033128      -164.1698
  23   2.0000      -6.030969      -164.1110
  24   2.0000      -1.004524       -27.3345
  25   2.0000      -0.981956       -26.7204
  26   2.0000      -0.915664       -24.9165
  27   2.0000      -0.905486       -24.6395
  28   2.0000      -0.863175       -23.4882
  29   2.0000      -0.852347       -23.1935
  30   2.0000      -0.839886       -22.8545
  31   2.0000      -0.810501       -22.0548
  32   2.0000      -0.789075       -21.4718
  33   2.0000      -0.778862       -21.1939
  34   2.0000      -0.705298       -19.1921
  35   2.0000      -0.697971       -18.9928
  36   2.0000      -0.687543       -18.7090
  37   2.0000      -0.658452       -17.9174
  38   2.0000      -0.642965       -17.4960
  39   2.0000      -0.607833       -16.5400
  40   2.0000      -0.597523       -16.2594
  41   2.0000      -0.579476       -15.7683
  42   2.0000      -0.552754       -15.0412
  43   2.0000      -0.551196       -14.9988
  44   2.0000      -0.543190       -14.7810
  45   2.0000      -0.540474       -14.7071
  46   2.0000      -0.517764       -14.0891
  47   2.0000      -0.511291       -13.9129
  48   2.0000      -0.497543       -13.5388
  49   2.0000      -0.493129       -13.4187
  50   2.0000      -0.485240       -13.2041
  51   2.0000      -0.481943       -13.1143
  52   2.0000      -0.472895       -12.8681
  53   2.0000      -0.470869       -12.8130
  54   2.0000      -0.458522       -12.4770
  55   2.0000      -0.446836       -12.1590
  56   2.0000      -0.442461       -12.0400
  57   2.0000      -0.434741       -11.8299
  58   2.0000      -0.427229       -11.6255
  59   2.0000      -0.423341       -11.5197
  60   2.0000      -0.418637       -11.3917
  61   2.0000      -0.417464       -11.3598
  62   2.0000      -0.412553       -11.2261
  63   2.0000      -0.339505        -9.2384
  64   2.0000      -0.334580        -9.1044
  65   2.0000      -0.327590        -8.9142
  66   2.0000      -0.300809        -8.1854
  67   0.0000       0.036089         0.9820
  68   0.0000       0.061033         1.6608
  69   0.0000       0.113539         3.0895
  70   0.0000       0.119115         3.2413
  71   0.0000       0.128025         3.4837

MULLIKEN ATOMIC CHARGES
-----------------------
   0 S :    0.105085
   1 C :   -0.123952
   2 C :   -0.084585
   3 C :    0.044554
   4 C :   -0.181622
   5 H :    0.004801
   6 C :    0.138998
   7 H :    0.032135
   8 H :    0.001332
   9 C :   -0.111358
  10 H :    0.039310
  11 H :    0.026296
  12 C :   -0.048701
  13 H :    0.044755
  14 H :    0.020790
  15 H :    0.017602
  16 S :    0.125229
  17 C :   -0.090229
  18 C :   -0.042188
  19 C :   -0.016962
  20 C :   -0.195066
  21 H :    0.016759
  22 C :    0.124983
  23 H :    0.020461
  24 H :    0.009593
  25 C :   -0.071317
  26 H :    0.027384
  27 H :    0.013335
  28 C :   -0.068065
  29 H :    0.042880
  30 H :    0.040216
  31 H :    0.045871
  32 H :    0.041449
  33 H :    0.050229
Sum of atomic charges:    0.0000000

LOEWDIN ATOMIC CHARGES
----------------------
   0 S :    0.389265
   1 C :   -0.186067
   2 C :   -0.054443
   3 C :   -0.062361
   4 C :   -0.193462
   5 H :    0.026825
   6 C :   -0.023326
   7 H :    0.037487
   8 H :    0.016917
   9 C :   -0.045291
  10 H :    0.029011
  11 H :    0.024975
  12 C :   -0.071456
  13 H :    0.029266
  14 H :    0.019907
  15 H :    0.023724
  16 S :    0.412564
  17 C :   -0.191846
  18 C :   -0.082882
  19 C :   -0.045039
  20 C :   -0.193766
  21 H :    0.030177
  22 C :   -0.013913
  23 H :    0.025004
  24 H :    0.025160
  25 C :   -0.036569
  26 H :    0.025279
  27 H :    0.015341
  28 C :   -0.073176
  29 H :    0.030974
  30 H :    0.033123
  31 H :    0.028250
  32 H :    0.024881
  33 H :    0.025464

  Mayer bond orders larger than 0.100000
B(  0-S ,  1-C ) :   1.1269 B(  0-S ,  4-C ) :   1.1462 B(  1-C ,  2-C ) :   1.6366
B(  1-C , 32-H ) :   0.9674 B(  2-C ,  3-C ) :   1.2065 B(  2-C ,  6-C ) :   1.0124
B(  3-C ,  4-C ) :   1.6107 B(  3-C ,  5-H ) :   0.9905 B(  4-C , 20-C ) :   1.0079
B(  6-C ,  7-H ) :   0.9328 B(  6-C ,  8-H ) :   0.9483 B(  6-C ,  9-C ) :   1.0736
B(  9-C , 10-H ) :   0.9559 B(  9-C , 11-H ) :   0.9554 B(  9-C , 12-C ) :   1.0785
B( 12-C , 13-H ) :   0.9720 B( 12-C , 14-H ) :   0.9743 B( 12-C , 15-H ) :   0.9707
B( 16-S , 17-C ) :   1.1699 B( 16-S , 20-C ) :   1.1458 B( 17-C , 18-C ) :   1.6170
B( 17-C , 33-H ) :   0.9625 B( 18-C , 19-C ) :   1.2363 B( 18-C , 21-H ) :   0.9904
B( 19-C , 20-C ) :   1.6205 B( 19-C , 22-C ) :   1.0222 B( 22-C , 23-H ) :   0.9461
B( 22-C , 24-H ) :   0.9219 B( 22-C , 25-C ) :   1.0786 B( 25-C , 26-H ) :   0.9595
B( 25-C , 27-H ) :   0.9651 B( 25-C , 28-C ) :   1.0423 B( 28-C , 29-H ) :   0.9803
B( 28-C , 30-H ) :   0.9832 B( 28-C , 31-H ) :   0.9802

Dispersion correction           -0.014791825
FINAL SINGLE POINT ENERGY     -1339.869886782598

DIPOLE MOMENT
-------------
                                X             Y             Z
Electronic contribution:     -9.03064     -26.86856       0.06882
Nuclear contribution   :      9.13059      27.46021      -0.12466
                        -----------------------------------------
Total Dipole Moment    :      0.09995       0.59165      -0.05584
                        -----------------------------------------
Magnitude (a.u.)       :      0.60263
Magnitude (Debye)      :      1.53176

Rotational constants in cm-1:     0.018933     0.009078     0.006732
Rotational constants in MHz :   567.601811   272.148362   201.809395

                             ****ORCA TERMINATED NORMALLY****
TOTAL RUN TIME: 0 days 0 hours 0 minutes 29 seconds 992 msec
