                         Program Version 4.2.1 -  RELEASE  -
|  1> ! wB97X-D3 SP def2-SVP
|  2> %pal
|  3> nprocs 16
|  4> end
|  5>
|  6> * xyz 0 1
|  7> S 	 -49.1593 	 8.79019 	 94.1853
|  8> C 	 -48.463 	 7.71906 	 95.3576
|  9> C 	 -48.2734 	 6.44006 	 94.8657
| 10> C 	 -48.6945 	 6.32539 	 93.5455
| 11> C 	 -49.1786 	 7.5089 	 93.0008
| 12> H 	 -48.6963 	 5.54548 	 92.8403
| 13> C 	 -47.4608 	 5.32204 	 95.5112
| 14> H 	 -46.4894 	 5.68156 	 95.4656
| 15> H 	 -47.4339 	 4.38232 	 94.8914
| 16> C 	 -47.9195 	 4.93549 	 96.948
| 17> H 	 -47.0977 	 4.38491 	 97.3577
| 18> H 	 -47.9019 	 5.83162 	 97.6245
| 19> C 	 -49.1358 	 4.01603 	 96.9808
| 20> H 	 -49.875 	 4.58367 	 96.346
| 21> H 	 -49.0336 	 3.05631 	 96.5573
| 22> H 	 -49.5622 	 3.96704 	 97.9597
| 23> S 	 -51.2958 	 7.41363 	 91.072
| 24> C 	 -50.9061 	 7.55195 	 89.4539
| 25> C 	 -49.5469 	 7.75903 	 89.2506
| 26> C 	 -48.7722 	 7.89781 	 90.4539
| 27> C 	 -49.5836 	 7.64741 	 91.559
| 28> H 	 -49.1225 	 7.88658 	 88.2284
| 29> C 	 -47.3226 	 8.17252 	 90.5985
| 30> H 	 -46.9461 	 8.05501 	 89.6211
| 31> H 	 -46.9337 	 7.54079 	 91.4006
| 32> C 	 -46.8935 	 9.60576 	 90.9428
| 33> H 	 -45.7805 	 9.53055 	 91.016
| 34> H 	 -47.4163 	 9.87439 	 91.8827
| 35> C 	 -47.2766 	 10.7262 	 89.9303
| 36> H 	 -48.2806 	 10.7396 	 89.5087
| 37> H 	 -46.5565 	 10.7848 	 89.0763
| 38> H 	 -47.1806 	 11.6726 	 90.418
| 39> H 	 -48.099 	 8.03042 	 96.355
| 40> H 	 -51.6224 	 7.58528 	 88.6583
| 41> *
| 42>
| 43>                          ****END OF INPUT****

CARTESIAN COORDINATES (ANGSTROEM)
---------------------------------
  S    -49.159300    8.790190   94.185300
  C    -48.463000    7.719060   95.357600
  C    -48.273400    6.440060   94.865700
  C    -48.694500    6.325390   93.545500
  C    -49.178600    7.508900   93.000800
  H    -48.696300    5.545480   92.840300
  C    -47.460800    5.322040   95.511200
  H    -46.489400    5.681560   95.465600
  H    -47.433900    4.382320   94.891400
  C    -47.919500    4.935490   96.948000
  H    -47.097700    4.384910   97.357700
  H    -47.901900    5.831620   97.624500
  C    -49.135800    4.016030   96.980800
  H    -49.875000    4.583670   96.346000
  H    -49.033600    3.056310   96.557300
  H    -49.562200    3.967040   97.959700
  S    -51.295800    7.413630   91.072000
  C    -50.906100    7.551950   89.453900
  C    -49.546900    7.759030   89.250600
  C    -48.772200    7.897810   90.453900
  C    -49.583600    7.647410   91.559000
  H    -49.122500    7.886580   88.228400
  C    -47.322600    8.172520   90.598500
  H    -46.946100    8.055010   89.621100
  H    -46.933700    7.540790   91.400600
  C    -46.893500    9.605760   90.942800
  H    -45.780500    9.530550   91.016000
  H    -47.416300    9.874390   91.882700
  C    -47.276600   10.726200   89.930300
  H    -48.280600   10.739600   89.508700
  H    -46.556500   10.784800   89.076300
  H    -47.180600   11.672600   90.418000
  H    -48.099000    8.030420   96.355000
  H    -51.622400    7.585280   88.658300

 Total Charge           Charge          ....    0
 Multiplicity           Mult            ....    1
 Number of Electrons    NEL             ....  134
 Basis Dimension        Dim             ....  322

ORBITAL ENERGIES
----------------

  NO   OCC          E(Eh)            E(eV)
   0   2.0000     -88.971014     -2421.0244
   1   2.0000     -88.964211     -2420.8393
   2   2.0000     -10.326767      -281.0056
   3   2.0000     -10.325259      -280.9646
   4   2.0000     -10.315483      -280.6986
   5   2.0000     -10.312246      -280.6105
   6   2.0000     -10.301192      -280.3097
   7   2.0000     -10.298748      -280.2432
   8   2.0000     -10.295336      -280.1503
   9   2.0000     -10.292204      -280.0651
  10   2.0000     -10.289565      -279.9933
  11   2.0000     -10.288510      -279.9646
  12   2.0000     -10.286294      -279.9043
  13   2.0000     -10.282862      -279.8109
  14   2.0000     -10.274800      -279.5915
  15   2.0000     -10.274724      -279.5895
  16   2.0000      -8.085304      -220.0123
  17   2.0000      -8.079767      -219.8616
  18   2.0000      -6.043661      -164.4564
  19   2.0000      -6.039723      -164.3492
  20   2.0000      -6.038055      -164.3038
  21   2.0000      -6.036417      -164.2593
  22   2.0000      -6.034088      -164.1959
  23   2.0000      -6.030785      -164.1060
  24   2.0000      -1.006103       -27.3775
  25   2.0000      -0.988564       -26.9002
  26   2.0000      -0.912585       -24.8327
  27   2.0000      -0.908677       -24.7264
  28   2.0000      -0.861799       -23.4507
  29   2.0000      -0.854042       -23.2397
  30   2.0000      -0.845422       -23.0051
  31   2.0000      -0.809048       -22.0153
  32   2.0000      -0.787340       -21.4246
  33   2.0000      -0.774664       -21.0797
  34   2.0000      -0.706531       -19.2257
  35   2.0000      -0.700836       -19.0707
  36   2.0000      -0.684388       -18.6232
  37   2.0000      -0.655568       -17.8389
  38   2.0000      -0.647231       -17.6121
  39   2.0000      -0.605953       -16.4888
  40   2.0000      -0.590671       -16.0730
  41   2.0000      -0.573578       -15.6078
  42   2.0000      -0.562581       -15.3086
  43   2.0000      -0.558080       -15.1861
  44   2.0000      -0.542187       -14.7537
  45   2.0000      -0.531809       -14.4713
  46   2.0000      -0.515165       -14.0184
  47   2.0000      -0.510284       -13.8855
  48   2.0000      -0.499442       -13.5905
  49   2.0000      -0.489742       -13.3266
  50   2.0000      -0.485493       -13.2109
  51   2.0000      -0.481722       -13.1083
  52   2.0000      -0.474160       -12.9026
  53   2.0000      -0.464296       -12.6341
  54   2.0000      -0.461623       -12.5614
  55   2.0000      -0.449263       -12.2251
  56   2.0000      -0.440215       -11.9789
  57   2.0000      -0.438312       -11.9271
  58   2.0000      -0.435360       -11.8468
  59   2.0000      -0.427316       -11.6279
  60   2.0000      -0.423711       -11.5298
  61   2.0000      -0.410425       -11.1682
  62   2.0000      -0.405785       -11.0420
  63   2.0000      -0.338229        -9.2037
  64   2.0000      -0.328733        -8.9453
  65   2.0000      -0.315239        -8.5781
  66   2.0000      -0.311124        -8.4661
  67   0.0000       0.045568         1.2400
  68   0.0000       0.051856         1.4111
  69   0.0000       0.118546         3.2258
  70   0.0000       0.126993         3.4556
  71   0.0000       0.127462         3.4684

MULLIKEN ATOMIC CHARGES
-----------------------
   0 S :    0.135751
   1 C :   -0.147034
   2 C :   -0.040620
   3 C :    0.063013
   4 C :   -0.208895
   5 H :   -0.008617
   6 C :    0.052134
   7 H :    0.026342
   8 H :    0.029523
   9 C :   -0.080815
  10 H :    0.012966
  11 H :    0.029388
  12 C :   -0.019172
  13 H :    0.032138
  14 H :    0.030926
  15 H :    0.033474
  16 S :    0.125306
  17 C :   -0.078263
  18 C :   -0.060547
  19 C :   -0.035337
  20 C :   -0.215771
  21 H :    0.025403
  22 C :    0.142900
  23 H :   -0.005268
  24 H :    0.039887
  25 C :   -0.087242
  26 H :    0.044384
  27 H :    0.028599
  28 C :   -0.065190
  29 H :    0.040691
  30 H :    0.026943
  31 H :    0.026419
  32 H :    0.054933
  33 H :    0.051649
Sum of atomic charges:    0.0000000

LOEWDIN ATOMIC CHARGES
----------------------
   0 S :    0.428308
   1 C :   -0.209242
   2 C :   -0.068581
   3 C :   -0.054420
   4 C :   -0.203901
   5 H :    0.026989
   6 C :   -0.024841
   7 H :    0.025568
   8 H :    0.035941
   9 C :   -0.044981
  10 H :    0.017523
  11 H :    0.027459
  12 C :   -0.061184
  13 H :    0.033871
  14 H :    0.020847
  15 H :    0.025609
  16 S :    0.424669
  17 C :   -0.207176
  18 C :   -0.084890
  19 C :   -0.049503
  20 C :   -0.200284
  21 H :    0.033804
  22 C :   -0.032982
  23 H :    0.023770
  24 H :    0.039887
  25 C :   -0.034952
  26 H :    0.032889
  27 H :    0.018649
  28 C :   -0.075222
  29 H :    0.026677
  30 H :    0.025147
  31 H :    0.024687
  32 H :    0.032014
  33 H :    0.027850

  Mayer bond orders larger than 0.100000
B(  0-S ,  1-C ) :   1.1625 B(  0-S ,  4-C ) :   1.1656 B(  1-C ,  2-C ) :   1.5795
B(  1-C ,  4-C ) :   0.1008 B(  1-C , 32-H ) :   0.9631 B(  2-C ,  3-C ) :   1.2459
B(  2-C ,  6-C ) :   0.9990 B(  3-C ,  4-C ) :   1.5720 B(  3-C ,  5-H ) :   1.0041
B(  4-C , 20-C ) :   1.0038 B(  6-C ,  7-H ) :   0.9380 B(  6-C ,  8-H ) :   0.9502
B(  6-C ,  9-C ) :   1.0772 B(  9-C , 10-H ) :   0.9515 B(  9-C , 11-H ) :   0.9572
B(  9-C , 12-C ) :   1.0688 B( 12-C , 13-H ) :   0.9780 B( 12-C , 14-H ) :   0.9735
B( 12-C , 15-H ) :   0.9727 B( 16-S , 17-C ) :   1.1873 B( 16-S , 20-C ) :   1.1476
B( 17-C , 18-C ) :   1.5798 B( 17-C , 33-H ) :   0.9671 B( 18-C , 19-C ) :   1.2592
B( 18-C , 21-H ) :   0.9818 B( 19-C , 20-C ) :   1.5763 B( 19-C , 22-C ) :   1.0556
B( 22-C , 23-H ) :   0.9146 B( 22-C , 24-H ) :   0.9178 B( 22-C , 25-C ) :   1.0791
B( 25-C , 26-H ) :   0.9567 B( 25-C , 27-H ) :   0.9541 B( 25-C , 28-C ) :   1.0729
B( 28-C , 29-H ) :   0.9754 B( 28-C , 30-H ) :   0.9748 B( 28-C , 31-H ) :   0.9750

Dispersion correction           -0.015038189
FINAL SINGLE POINT ENERGY     -1339.874798851129

DIPOLE MOMENT
-------------
                                X             Y             Z
Electronic contribution:    -15.16760       4.81737      -5.58934
Nuclear contribution   :     15.69844      -5.01333       5.57988
                        -----------------------------------------
Total Dipole Moment    :      0.53084      -0.19596      -0.00946
                        -----------------------------------------
Magnitude (a.u.)       :      0.56593
Magnitude (Debye)      :      1.43848

Rotational constants in cm-1:     0.022304     0.007825     0.006778
Rotational constants in MHz :   668.656742   234.583011   203.200280

                             ****ORCA TERMINATED NORMALLY****
TOTAL RUN TIME: 0 days 0 hours 0 minutes 30 seconds 181 msec
