                         Program Version 4.2.1 -  RELEASE  -
|  1> ! wB97X-D3 SP def2-SVP
|  2> %pal
|  3> nprocs 16
|  4> end
|  5>
|  6> * xyz 0 1
|  7> S 	 9.14233 	 23.8815 	 67.1013
|  8> C 	 8.08375 	 23.3019 	 65.9105
|  9> C 	 7.14414 	 24.2644 	 65.5658
| 10> C 	 7.36479 	 25.4758 	 66.246
| 11> C 	 8.36242 	 25.431 	 67.127
| 12> H 	 6.84832 	 26.4228 	 66.1026
| 13> C 	 6.1156 	 24.1884 	 64.4472
| 14> H 	 5.14504 	 24.1459 	 64.8679
| 15> H 	 6.21509 	 23.2436 	 63.8671
| 16> C 	 6.1004 	 25.3788 	 63.5118
| 17> H 	 5.34087 	 25.3099 	 62.6811
| 18> H 	 5.8592 	 26.2505 	 64.1299
| 19> C 	 7.49766 	 25.7816 	 62.8683
| 20> H 	 7.38296 	 26.2175 	 61.8462
| 21> H 	 8.06938 	 26.3754 	 63.4833
| 22> H 	 7.9969 	 24.8615 	 62.7644
| 23> S 	 8.64171 	 26.2354 	 69.7488
| 24> C 	 8.95381 	 27.9008 	 70.0342
| 25> C 	 9.38327 	 28.5383 	 68.8909
| 26> C 	 9.39285 	 27.7321 	 67.7458
| 27> C 	 8.83826 	 26.4938 	 67.9768
| 28> H 	 9.73002 	 29.5686 	 68.9272
| 29> C 	 9.63673 	 28.2675 	 66.3523
| 30> H 	 9.33808 	 27.454 	 65.65
| 31> H 	 10.6793 	 28.3763 	 66.1327
| 32> C 	 8.86578 	 29.6014 	 66.021
| 33> H 	 8.76747 	 29.7385 	 64.9493
| 34> H 	 9.21983 	 30.5332 	 66.557
| 35> C 	 7.3941 	 29.5012 	 66.3159
| 36> H 	 7.00373 	 28.7251 	 65.6797
| 37> H 	 6.7836 	 30.3264 	 65.9777
| 38> H 	 7.23875 	 29.2078 	 67.4001
| 39> H 	 8.1999 	 22.2684 	 65.5612
| 40> H 	 8.9747 	 28.2891 	 70.9722
| 41> *
| 42>
| 43>                          ****END OF INPUT****

CARTESIAN COORDINATES (ANGSTROEM)
---------------------------------
  S      9.142330   23.881500   67.101300
  C      8.083750   23.301900   65.910500
  C      7.144140   24.264400   65.565800
  C      7.364790   25.475800   66.246000
  C      8.362420   25.431000   67.127000
  H      6.848320   26.422800   66.102600
  C      6.115600   24.188400   64.447200
  H      5.145040   24.145900   64.867900
  H      6.215090   23.243600   63.867100
  C      6.100400   25.378800   63.511800
  H      5.340870   25.309900   62.681100
  H      5.859200   26.250500   64.129900
  C      7.497660   25.781600   62.868300
  H      7.382960   26.217500   61.846200
  H      8.069380   26.375400   63.483300
  H      7.996900   24.861500   62.764400
  S      8.641710   26.235400   69.748800
  C      8.953810   27.900800   70.034200
  C      9.383270   28.538300   68.890900
  C      9.392850   27.732100   67.745800
  C      8.838260   26.493800   67.976800
  H      9.730020   29.568600   68.927200
  C      9.636730   28.267500   66.352300
  H      9.338080   27.454000   65.650000
  H     10.679300   28.376300   66.132700
  C      8.865780   29.601400   66.021000
  H      8.767470   29.738500   64.949300
  H      9.219830   30.533200   66.557000
  C      7.394100   29.501200   66.315900
  H      7.003730   28.725100   65.679700
  H      6.783600   30.326400   65.977700
  H      7.238750   29.207800   67.400100
  H      8.199900   22.268400   65.561200
  H      8.974700   28.289100   70.972200

 Total Charge           Charge          ....    0
 Multiplicity           Mult            ....    1
 Number of Electrons    NEL             ....  134
 Basis Dimension        Dim             ....  322

ORBITAL ENERGIES
----------------

  NO   OCC          E(Eh)            E(eV)
   0   2.0000     -88.963106     -2420.8092
   1   2.0000     -88.962355     -2420.7887
   2   2.0000     -10.325720      -280.9771
   3   2.0000     -10.319997      -280.8214
   4   2.0000     -10.314025      -280.6589
   5   2.0000     -10.310649      -280.5670
   6   2.0000     -10.301899      -280.3289
   7   2.0000     -10.300743      -280.2975
   8   2.0000     -10.295833      -280.1639
   9   2.0000     -10.291830      -280.0549
  10   2.0000     -10.291628      -280.0494
  11   2.0000     -10.291197      -280.0377
  12   2.0000     -10.290493      -280.0186
  13   2.0000     -10.287311      -279.9320
  14   2.0000     -10.273299      -279.5507
  15   2.0000     -10.269482      -279.4468
  16   2.0000      -8.079598      -219.8570
  17   2.0000      -8.077445      -219.7985
  18   2.0000      -6.037919      -164.3001
  19   2.0000      -6.035780      -164.2419
  20   2.0000      -6.033816      -164.1885
  21   2.0000      -6.032013      -164.1394
  22   2.0000      -6.030488      -164.0979
  23   2.0000      -6.028248      -164.0370
  24   2.0000      -1.017157       -27.6783
  25   2.0000      -0.992746       -27.0140
  26   2.0000      -0.912545       -24.8316
  27   2.0000      -0.911167       -24.7941
  28   2.0000      -0.874973       -23.8092
  29   2.0000      -0.853394       -23.2220
  30   2.0000      -0.847240       -23.0546
  31   2.0000      -0.816587       -22.2205
  32   2.0000      -0.788100       -21.4453
  33   2.0000      -0.776322       -21.1248
  34   2.0000      -0.708561       -19.2809
  35   2.0000      -0.696020       -18.9397
  36   2.0000      -0.691181       -18.8080
  37   2.0000      -0.658879       -17.9290
  38   2.0000      -0.650165       -17.6919
  39   2.0000      -0.628737       -17.1088
  40   2.0000      -0.604824       -16.4581
  41   2.0000      -0.562986       -15.3196
  42   2.0000      -0.555918       -15.1273
  43   2.0000      -0.553921       -15.0730
  44   2.0000      -0.552592       -15.0368
  45   2.0000      -0.542066       -14.7504
  46   2.0000      -0.525015       -14.2864
  47   2.0000      -0.514862       -14.0101
  48   2.0000      -0.504473       -13.7274
  49   2.0000      -0.497469       -13.5368
  50   2.0000      -0.489518       -13.3205
  51   2.0000      -0.478152       -13.0112
  52   2.0000      -0.471793       -12.8381
  53   2.0000      -0.463988       -12.6258
  54   2.0000      -0.462910       -12.5964
  55   2.0000      -0.448285       -12.1985
  56   2.0000      -0.444880       -12.1058
  57   2.0000      -0.440164       -11.9775
  58   2.0000      -0.437759       -11.9120
  59   2.0000      -0.422903       -11.5078
  60   2.0000      -0.418091       -11.3768
  61   2.0000      -0.411098       -11.1866
  62   2.0000      -0.408457       -11.1147
  63   2.0000      -0.345276        -9.3954
  64   2.0000      -0.334234        -9.0950
  65   2.0000      -0.328894        -8.9497
  66   2.0000      -0.299865        -8.1597
  67   0.0000       0.039999         1.0884
  68   0.0000       0.059859         1.6289
  69   0.0000       0.114823         3.1245
  70   0.0000       0.121855         3.3158
  71   0.0000       0.133404         3.6301

MULLIKEN ATOMIC CHARGES
-----------------------
   0 S :    0.120647
   1 C :   -0.146533
   2 C :   -0.072381
   3 C :    0.021832
   4 C :   -0.153521
   5 H :    0.000024
   6 C :    0.124519
   7 H :    0.027046
   8 H :    0.021534
   9 C :   -0.147278
  10 H :    0.044258
  11 H :    0.028701
  12 C :   -0.012163
  13 H :    0.040923
  14 H :    0.016976
  15 H :    0.013275
  16 S :    0.101428
  17 C :   -0.037976
  18 C :   -0.051827
  19 C :   -0.006343
  20 C :   -0.198446
  21 H :    0.019801
  22 C :    0.091711
  23 H :    0.029232
  24 H :    0.033358
  25 C :   -0.092836
  26 H :    0.030444
  27 H :    0.046893
  28 C :   -0.067507
  29 H :    0.006846
  30 H :    0.031987
  31 H :    0.055575
  32 H :    0.059722
  33 H :    0.020077
Sum of atomic charges:    0.0000000

LOEWDIN ATOMIC CHARGES
----------------------
   0 S :    0.432749
   1 C :   -0.210218
   2 C :   -0.066733
   3 C :   -0.061550
   4 C :   -0.204823
   5 H :    0.033565
   6 C :   -0.031931
   7 H :    0.030807
   8 H :    0.030361
   9 C :   -0.044220
  10 H :    0.031760
  11 H :    0.018645
  12 C :   -0.059892
  13 H :    0.033070
  14 H :    0.009948
  15 H :    0.019366
  16 S :    0.397274
  17 C :   -0.168167
  18 C :   -0.074314
  19 C :   -0.057234
  20 C :   -0.181616
  21 H :    0.032750
  22 C :   -0.028879
  23 H :    0.036961
  24 H :    0.031525
  25 C :   -0.046206
  26 H :    0.029314
  27 H :    0.028547
  28 C :   -0.073858
  29 H :    0.015508
  30 H :    0.025495
  31 H :    0.031746
  32 H :    0.031993
  33 H :    0.008256

  Mayer bond orders larger than 0.100000
B(  0-S ,  1-C ) :   1.1654 B(  0-S ,  4-C ) :   1.1621 B(  1-C ,  2-C ) :   1.5825
B(  1-C , 32-H ) :   0.9703 B(  2-C ,  3-C ) :   1.2340 B(  2-C ,  6-C ) :   1.0174
B(  3-C ,  4-C ) :   1.6028 B(  3-C ,  5-H ) :   1.0000 B(  4-C , 20-C ) :   1.0087
B(  6-C ,  7-H ) :   0.9279 B(  6-C ,  8-H ) :   0.9430 B(  6-C ,  9-C ) :   1.0817
B(  9-C , 10-H ) :   0.9588 B(  9-C , 11-H ) :   0.9542 B(  9-C , 12-C ) :   1.0632
B( 12-C , 13-H ) :   0.9761 B( 12-C , 14-H ) :   0.9749 B( 12-C , 15-H ) :   0.9768
B( 16-S , 17-C ) :   1.1664 B( 16-S , 20-C ) :   1.1398 B( 17-C , 18-C ) :   1.5896
B( 17-C , 20-C ) :   0.1091 B( 17-C , 33-H ) :   0.9822 B( 18-C , 19-C ) :   1.2373
B( 18-C , 21-H ) :   0.9918 B( 19-C , 20-C ) :   1.5932 B( 19-C , 22-C ) :   1.0472
B( 22-C , 23-H ) :   0.9370 B( 22-C , 24-H ) :   0.9250 B( 22-C , 25-C ) :   1.0627
B( 25-C , 26-H ) :   0.9585 B( 25-C , 27-H ) :   0.9547 B( 25-C , 28-C ) :   1.0738
B( 28-C , 29-H ) :   0.9702 B( 28-C , 30-H ) :   0.9688 B( 28-C , 31-H ) :   0.9665

Dispersion correction           -0.016712475
FINAL SINGLE POINT ENERGY     -1339.872284403204

DIPOLE MOMENT
-------------
                                X             Y             Z
Electronic contribution:      9.18385     -14.23052      23.27666
Nuclear contribution   :     -9.34274      14.58167     -23.73362
                        -----------------------------------------
Total Dipole Moment    :     -0.15889       0.35115      -0.45696
                        -----------------------------------------
Magnitude (a.u.)       :      0.59780
Magnitude (Debye)      :      1.51948

Rotational constants in cm-1:     0.018862     0.010932     0.007856
Rotational constants in MHz :   565.462037   327.735278   235.529331

                             ****ORCA TERMINATED NORMALLY****
TOTAL RUN TIME: 0 days 0 hours 0 minutes 36 seconds 279 msec
