                         Program Version 4.2.1 -  RELEASE  -
|  1> ! wB97X-D3 SP def2-SVP
|  2> %pal
|  3> nprocs 16
|  4> end
|  5>
|  6> * xyz 0 1
|  7> S 	 10.978 	 -8.83569 	 72.3856
|  8> C 	 9.70994 	 -7.67885 	 72.3742
|  9> C 	 9.48911 	 -7.14443 	 71.083
| 10> C 	 10.4799 	 -7.62154 	 70.1437
| 11> C 	 11.443 	 -8.45589 	 70.699
| 12> H 	 10.6291 	 -7.39642 	 69.1059
| 13> C 	 8.44062 	 -6.06994 	 70.7688
| 14> H 	 7.65109 	 -6.15525 	 71.4318
| 15> H 	 8.09643 	 -6.29035 	 69.739
| 16> C 	 9.07322 	 -4.59023 	 70.875
| 17> H 	 9.04367 	 -4.15457 	 71.8439
| 18> H 	 10.0882 	 -4.46892 	 70.4293
| 19> C 	 8.23728 	 -3.72549 	 69.9189
| 20> H 	 8.48069 	 -2.6769 	 69.9391
| 21> H 	 8.24193 	 -4.02889 	 68.9315
| 22> H 	 7.25053 	 -3.81794 	 70.3465
| 23> S 	 12.7765 	 -10.8266 	 70.2779
| 24> C 	 13.9686 	 -10.9016 	 69.0996
| 25> C 	 14.2935 	 -9.6308 	 68.6099
| 26> C 	 13.4511 	 -8.60131 	 69.1309
| 27> C 	 12.5877 	 -9.08898 	 70.1093
| 28> H 	 15.0797 	 -9.48852 	 67.8425
| 29> C 	 13.5824 	 -7.16989 	 68.6663
| 30> H 	 12.6743 	 -6.8288 	 68.0984
| 31> H 	 14.3726 	 -7.26872 	 67.9357
| 32> C 	 14.0873 	 -6.19839 	 69.7748
| 33> H 	 15.0311 	 -6.56563 	 70.3077
| 34> H 	 13.3033 	 -6.20976 	 70.5321
| 35> C 	 14.34 	 -4.73228 	 69.4153
| 36> H 	 15.0894 	 -4.69847 	 68.5555
| 37> H 	 14.7032 	 -4.21915 	 70.3037
| 38> H 	 13.4855 	 -4.16726 	 69.0459
| 39> H 	 9.17524 	 -7.43461 	 73.3066
| 40> H 	 14.3856 	 -11.7881 	 68.6565
| 41> *
| 42>
| 43>                          ****END OF INPUT****

CARTESIAN COORDINATES (ANGSTROEM)
---------------------------------
  S     10.978000   -8.835690   72.385600
  C      9.709940   -7.678850   72.374200
  C      9.489110   -7.144430   71.083000
  C     10.479900   -7.621540   70.143700
  C     11.443000   -8.455890   70.699000
  H     10.629100   -7.396420   69.105900
  C      8.440620   -6.069940   70.768800
  H      7.651090   -6.155250   71.431800
  H      8.096430   -6.290350   69.739000
  C      9.073220   -4.590230   70.875000
  H      9.043670   -4.154570   71.843900
  H     10.088200   -4.468920   70.429300
  C      8.237280   -3.725490   69.918900
  H      8.480690   -2.676900   69.939100
  H      8.241930   -4.028890   68.931500
  H      7.250530   -3.817940   70.346500
  S     12.776500  -10.826600   70.277900
  C     13.968600  -10.901600   69.099600
  C     14.293500   -9.630800   68.609900
  C     13.451100   -8.601310   69.130900
  C     12.587700   -9.088980   70.109300
  H     15.079700   -9.488520   67.842500
  C     13.582400   -7.169890   68.666300
  H     12.674300   -6.828800   68.098400
  H     14.372600   -7.268720   67.935700
  C     14.087300   -6.198390   69.774800
  H     15.031100   -6.565630   70.307700
  H     13.303300   -6.209760   70.532100
  C     14.340000   -4.732280   69.415300
  H     15.089400   -4.698470   68.555500
  H     14.703200   -4.219150   70.303700
  H     13.485500   -4.167260   69.045900
  H      9.175240   -7.434610   73.306600
  H     14.385600  -11.788100   68.656500

 Total Charge           Charge          ....    0
 Multiplicity           Mult            ....    1
 Number of Electrons    NEL             ....  134
 Basis Dimension        Dim             ....  322

ORBITAL ENERGIES
----------------

  NO   OCC          E(Eh)            E(eV)
   0   2.0000     -88.968438     -2420.9543
   1   2.0000     -88.961166     -2420.7564
   2   2.0000     -10.329861      -281.0898
   3   2.0000     -10.323758      -280.9237
   4   2.0000     -10.315120      -280.6887
   5   2.0000     -10.314758      -280.6788
   6   2.0000     -10.307278      -280.4753
   7   2.0000     -10.303664      -280.3770
   8   2.0000     -10.297193      -280.2009
   9   2.0000     -10.297088      -280.1980
  10   2.0000     -10.296477      -280.1814
  11   2.0000     -10.295981      -280.1679
  12   2.0000     -10.290561      -280.0204
  13   2.0000     -10.289975      -280.0045
  14   2.0000     -10.281457      -279.7727
  15   2.0000     -10.266769      -279.3730
  16   2.0000      -8.084282      -219.9845
  17   2.0000      -8.076125      -219.7625
  18   2.0000      -6.042612      -164.4278
  19   2.0000      -6.038465      -164.3150
  20   2.0000      -6.035335      -164.2298
  21   2.0000      -6.034554      -164.2086
  22   2.0000      -6.030543      -164.0994
  23   2.0000      -6.027050      -164.0044
  24   2.0000      -1.009220       -27.4623
  25   2.0000      -0.982038       -26.7226
  26   2.0000      -0.907225       -24.6868
  27   2.0000      -0.905677       -24.6447
  28   2.0000      -0.870164       -23.6784
  29   2.0000      -0.854101       -23.2413
  30   2.0000      -0.846530       -23.0352
  31   2.0000      -0.812463       -22.1083
  32   2.0000      -0.783348       -21.3160
  33   2.0000      -0.764471       -20.8023
  34   2.0000      -0.705230       -19.1903
  35   2.0000      -0.701203       -19.0807
  36   2.0000      -0.686358       -18.6767
  37   2.0000      -0.665434       -18.1074
  38   2.0000      -0.643457       -17.5094
  39   2.0000      -0.617312       -16.7979
  40   2.0000      -0.592920       -16.1342
  41   2.0000      -0.567032       -15.4297
  42   2.0000      -0.560253       -15.2453
  43   2.0000      -0.556462       -15.1421
  44   2.0000      -0.528287       -14.3754
  45   2.0000      -0.526839       -14.3360
  46   2.0000      -0.515240       -14.0204
  47   2.0000      -0.510653       -13.8956
  48   2.0000      -0.508247       -13.8301
  49   2.0000      -0.501513       -13.6469
  50   2.0000      -0.490082       -13.3358
  51   2.0000      -0.487011       -13.2522
  52   2.0000      -0.472748       -12.8641
  53   2.0000      -0.468523       -12.7492
  54   2.0000      -0.458165       -12.4673
  55   2.0000      -0.449838       -12.2407
  56   2.0000      -0.442718       -12.0470
  57   2.0000      -0.436171       -11.8688
  58   2.0000      -0.433400       -11.7934
  59   2.0000      -0.426070       -11.5940
  60   2.0000      -0.421991       -11.4830
  61   2.0000      -0.411213       -11.1897
  62   2.0000      -0.405741       -11.0408
  63   2.0000      -0.353173        -9.6103
  64   2.0000      -0.334043        -9.0898
  65   2.0000      -0.325643        -8.8612
  66   2.0000      -0.281216        -7.6523
  67   0.0000       0.027497         0.7482
  68   0.0000       0.067172         1.8278
  69   0.0000       0.113835         3.0976
  70   0.0000       0.120269         3.2727
  71   0.0000       0.129119         3.5135

MULLIKEN ATOMIC CHARGES
-----------------------
   0 S :    0.093238
   1 C :   -0.129235
   2 C :   -0.092761
   3 C :    0.041428
   4 C :   -0.176772
   5 H :   -0.002569
   6 C :    0.085047
   7 H :    0.012419
   8 H :    0.035653
   9 C :   -0.066333
  10 H :    0.032785
  11 H :    0.039727
  12 C :   -0.043684
  13 H :    0.025226
  14 H :    0.022935
  15 H :    0.018076
  16 S :    0.129313
  17 C :   -0.082354
  18 C :   -0.058269
  19 C :   -0.071603
  20 C :   -0.124295
  21 H :    0.029199
  22 C :    0.086356
  23 H :    0.044761
  24 H :    0.001606
  25 C :   -0.102323
  26 H :    0.044399
  27 H :    0.039667
  28 C :   -0.051340
  29 H :    0.031219
  30 H :    0.042889
  31 H :    0.028160
  32 H :    0.061882
  33 H :    0.055552
Sum of atomic charges:   -0.0000000

LOEWDIN ATOMIC CHARGES
----------------------
   0 S :    0.393058
   1 C :   -0.212775
   2 C :   -0.061084
   3 C :   -0.064037
   4 C :   -0.178303
   5 H :    0.027744
   6 C :   -0.017262
   7 H :    0.019874
   8 H :    0.036439
   9 C :   -0.028517
  10 H :    0.020698
  11 H :    0.027491
  12 C :   -0.060931
  13 H :    0.021133
  14 H :    0.011994
  15 H :    0.021746
  16 S :    0.445263
  17 C :   -0.207492
  18 C :   -0.078960
  19 C :   -0.054328
  20 C :   -0.209244
  21 H :    0.034892
  22 C :   -0.034210
  23 H :    0.035917
  24 H :    0.025164
  25 C :   -0.045963
  26 H :    0.036790
  27 H :    0.023704
  28 C :   -0.071322
  29 H :    0.027915
  30 H :    0.030138
  31 H :    0.020831
  32 H :    0.032484
  33 H :    0.031156

  Mayer bond orders larger than 0.100000
B(  0-S ,  1-C ) :   1.1532 B(  0-S ,  4-C ) :   1.1391 B(  1-C ,  2-C ) :   1.5884
B(  1-C ,  4-C ) :   0.1023 B(  1-C , 32-H ) :   0.9686 B(  2-C ,  3-C ) :   1.2231
B(  2-C ,  6-C ) :   1.0367 B(  3-C ,  4-C ) :   1.5824 B(  3-C ,  5-H ) :   0.9944
B(  4-C , 20-C ) :   1.0624 B(  6-C ,  7-H ) :   0.9357 B(  6-C ,  8-H ) :   0.9504
B(  6-C ,  9-C ) :   1.0379 B(  9-C , 10-H ) :   0.9605 B(  9-C , 11-H ) :   0.9686
B(  9-C , 12-C ) :   1.0688 B( 12-C , 13-H ) :   0.9735 B( 12-C , 14-H ) :   0.9823
B( 12-C , 15-H ) :   0.9742 B( 16-S , 17-C ) :   1.1934 B( 16-S , 20-C ) :   1.1478
B( 17-C , 18-C ) :   1.5638 B( 17-C , 33-H ) :   0.9668 B( 18-C , 19-C ) :   1.2928
B( 18-C , 21-H ) :   0.9814 B( 19-C , 20-C ) :   1.5512 B( 19-C , 22-C ) :   1.0415
B( 22-C , 23-H ) :   0.9302 B( 22-C , 24-H ) :   0.9253 B( 22-C , 25-C ) :   1.0544
B( 25-C , 26-H ) :   0.9547 B( 25-C , 27-H ) :   0.9561 B( 25-C , 28-C ) :   1.0867
B( 28-C , 29-H ) :   0.9745 B( 28-C , 30-H ) :   0.9731 B( 28-C , 31-H ) :   0.9736

Dispersion correction           -0.014329195
FINAL SINGLE POINT ENERGY     -1339.874467200391

DIPOLE MOMENT
-------------
                                X             Y             Z
Electronic contribution:      3.53253     -30.73314       9.12297
Nuclear contribution   :     -3.60025      31.24274      -9.53130
                        -----------------------------------------
Total Dipole Moment    :     -0.06772       0.50960      -0.40833
                        -----------------------------------------
Magnitude (a.u.)       :      0.65652
Magnitude (Debye)      :      1.66873

Rotational constants in cm-1:     0.018192     0.009178     0.006863
Rotational constants in MHz :   545.379716   275.164045   205.743684

                             ****ORCA TERMINATED NORMALLY****
TOTAL RUN TIME: 0 days 0 hours 0 minutes 33 seconds 106 msec
