                         Program Version 4.2.1 -  RELEASE  -
|  1> ! wB97X-D3 SP def2-SVP
|  2> %pal
|  3> nprocs 16
|  4> end
|  5>
|  6> * xyz 0 1
|  7> S 	 -105.411 	 41.2077 	 128.535
|  8> C 	 -104.028 	 41.009 	 129.579
|  9> C 	 -104 	 39.6675 	 130.094
| 10> C 	 -105.252 	 38.9265 	 129.875
| 11> C 	 -106.14 	 39.722 	 129.178
| 12> H 	 -105.633 	 38.0006 	 130.305
| 13> C 	 -103.059 	 39.2293 	 131.242
| 14> H 	 -103.541 	 39.371 	 132.21
| 15> H 	 -102.268 	 40.024 	 131.378
| 16> C 	 -102.564 	 37.7651 	 131.203
| 17> H 	 -101.848 	 37.6247 	 132.009
| 18> H 	 -103.303 	 37.0237 	 131.451
| 19> C 	 -101.877 	 37.3477 	 129.924
| 20> H 	 -101.083 	 38.0325 	 129.591
| 21> H 	 -101.6 	 36.3004 	 130.072
| 22> H 	 -102.556 	 37.3095 	 129.073
| 23> S 	 -108.65 	 41.0182 	 128.957
| 24> C 	 -109.869 	 40.0572 	 128.161
| 25> C 	 -109.489 	 38.7727 	 127.911
| 26> C 	 -108.158 	 38.4428 	 128.305
| 27> C 	 -107.524 	 39.5794 	 128.822
| 28> H 	 -110.189 	 38.2003 	 127.377
| 29> C 	 -107.582 	 37.1022 	 128.148
| 30> H 	 -106.5 	 37.0955 	 127.832
| 31> H 	 -107.954 	 36.832 	 127.15
| 32> C 	 -107.919 	 36.1476 	 129.212
| 33> H 	 -108.985 	 35.9984 	 129.277
| 34> H 	 -107.511 	 36.5932 	 130.115
| 35> C 	 -107.433 	 34.6784 	 128.985
| 36> H 	 -106.414 	 34.4586 	 129.222
| 37> H 	 -107.567 	 34.4652 	 127.96
| 38> H 	 -108.039 	 34.0202 	 129.602
| 39> H 	 -103.236 	 41.7128 	 129.731
| 40> H 	 -110.832 	 40.4124 	 127.881
| 41> *
| 42>
| 43>                          ****END OF INPUT****

CARTESIAN COORDINATES (ANGSTROEM)
---------------------------------
  S    -105.411000   41.207700  128.535000
  C    -104.028000   41.009000  129.579000
  C    -104.000000   39.667500  130.094000
  C    -105.252000   38.926500  129.875000
  C    -106.140000   39.722000  129.178000
  H    -105.633000   38.000600  130.305000
  C    -103.059000   39.229300  131.242000
  H    -103.541000   39.371000  132.210000
  H    -102.268000   40.024000  131.378000
  C    -102.564000   37.765100  131.203000
  H    -101.848000   37.624700  132.009000
  H    -103.303000   37.023700  131.451000
  C    -101.877000   37.347700  129.924000
  H    -101.083000   38.032500  129.591000
  H    -101.600000   36.300400  130.072000
  H    -102.556000   37.309500  129.073000
  S    -108.650000   41.018200  128.957000
  C    -109.869000   40.057200  128.161000
  C    -109.489000   38.772700  127.911000
  C    -108.158000   38.442800  128.305000
  C    -107.524000   39.579400  128.822000
  H    -110.189000   38.200300  127.377000
  C    -107.582000   37.102200  128.148000
  H    -106.500000   37.095500  127.832000
  H    -107.954000   36.832000  127.150000
  C    -107.919000   36.147600  129.212000
  H    -108.985000   35.998400  129.277000
  H    -107.511000   36.593200  130.115000
  C    -107.433000   34.678400  128.985000
  H    -106.414000   34.458600  129.222000
  H    -107.567000   34.465200  127.960000
  H    -108.039000   34.020200  129.602000
  H    -103.236000   41.712800  129.731000
  H    -110.832000   40.412400  127.881000

 Total Charge           Charge          ....    0
 Multiplicity           Mult            ....    1
 Number of Electrons    NEL             ....  134
 Basis Dimension        Dim             ....  322

ORBITAL ENERGIES
----------------

  NO   OCC          E(Eh)            E(eV)
   0   2.0000     -88.968715     -2420.9618
   1   2.0000     -88.962368     -2420.7891
   2   2.0000     -10.329021      -281.0670
   3   2.0000     -10.328130      -281.0427
   4   2.0000     -10.315742      -280.7056
   5   2.0000     -10.313699      -280.6500
   6   2.0000     -10.311703      -280.5957
   7   2.0000     -10.304811      -280.4082
   8   2.0000     -10.300723      -280.2969
   9   2.0000     -10.295875      -280.1650
  10   2.0000     -10.290084      -280.0074
  11   2.0000     -10.288286      -279.9585
  12   2.0000     -10.287204      -279.9290
  13   2.0000     -10.283668      -279.8328
  14   2.0000     -10.276131      -279.6277
  15   2.0000     -10.272158      -279.5196
  16   2.0000      -8.082182      -219.9273
  17   2.0000      -8.076967      -219.7854
  18   2.0000      -6.040743      -164.3770
  19   2.0000      -6.036998      -164.2751
  20   2.0000      -6.035509      -164.2345
  21   2.0000      -6.032817      -164.1613
  22   2.0000      -6.031507      -164.1256
  23   2.0000      -6.027653      -164.0208
  24   2.0000      -1.001603       -27.2550
  25   2.0000      -0.975907       -26.5558
  26   2.0000      -0.921674       -25.0800
  27   2.0000      -0.904978       -24.6257
  28   2.0000      -0.867744       -23.6125
  29   2.0000      -0.855684       -23.2844
  30   2.0000      -0.842395       -22.9227
  31   2.0000      -0.814498       -22.1636
  32   2.0000      -0.788710       -21.4619
  33   2.0000      -0.768359       -20.9081
  34   2.0000      -0.713074       -19.4037
  35   2.0000      -0.701263       -19.0823
  36   2.0000      -0.691565       -18.8184
  37   2.0000      -0.658990       -17.9320
  38   2.0000      -0.641492       -17.4559
  39   2.0000      -0.616829       -16.7848
  40   2.0000      -0.600977       -16.3534
  41   2.0000      -0.574133       -15.6229
  42   2.0000      -0.556028       -15.1303
  43   2.0000      -0.551370       -15.0035
  44   2.0000      -0.537245       -14.6192
  45   2.0000      -0.534787       -14.5523
  46   2.0000      -0.521899       -14.2016
  47   2.0000      -0.515273       -14.0213
  48   2.0000      -0.502535       -13.6747
  49   2.0000      -0.497413       -13.5353
  50   2.0000      -0.488311       -13.2876
  51   2.0000      -0.478682       -13.0256
  52   2.0000      -0.467999       -12.7349
  53   2.0000      -0.463105       -12.6017
  54   2.0000      -0.455101       -12.3839
  55   2.0000      -0.448810       -12.2127
  56   2.0000      -0.443275       -12.0621
  57   2.0000      -0.441834       -12.0229
  58   2.0000      -0.433072       -11.7845
  59   2.0000      -0.427693       -11.6381
  60   2.0000      -0.424221       -11.5436
  61   2.0000      -0.410241       -11.1632
  62   2.0000      -0.402807       -10.9609
  63   2.0000      -0.348415        -9.4809
  64   2.0000      -0.335563        -9.1311
  65   2.0000      -0.322537        -8.7767
  66   2.0000      -0.284834        -7.7507
  67   0.0000       0.021239         0.5779
  68   0.0000       0.069952         1.9035
  69   0.0000       0.097624         2.6565
  70   0.0000       0.116617         3.1733
  71   0.0000       0.126434         3.4404

MULLIKEN ATOMIC CHARGES
-----------------------
   0 S :    0.103082
   1 C :   -0.110230
   2 C :   -0.069188
   3 C :    0.033283
   4 C :   -0.165923
   5 H :    0.018168
   6 C :    0.016317
   7 H :    0.038739
   8 H :    0.020682
   9 C :   -0.066400
  10 H :    0.022151
  11 H :    0.022227
  12 C :   -0.047539
  13 H :    0.037957
  14 H :    0.029572
  15 H :    0.027179
  16 S :    0.115409
  17 C :   -0.074598
  18 C :   -0.020876
  19 C :   -0.006634
  20 C :   -0.165146
  21 H :   -0.004580
  22 C :    0.043919
  23 H :    0.035424
  24 H :    0.007676
  25 C :   -0.045094
  26 H :    0.027561
  27 H :    0.023898
  28 C :   -0.009278
  29 H :    0.025703
  30 H :    0.017248
  31 H :    0.031355
  32 H :    0.046803
  33 H :    0.041130
Sum of atomic charges:   -0.0000000

LOEWDIN ATOMIC CHARGES
----------------------
   0 S :    0.393532
   1 C :   -0.202051
   2 C :   -0.057340
   3 C :   -0.065018
   4 C :   -0.170146
   5 H :    0.034764
   6 C :   -0.041817
   7 H :    0.033941
   8 H :    0.032258
   9 C :   -0.047573
  10 H :    0.026362
  11 H :    0.021886
  12 C :   -0.068052
  13 H :    0.028220
  14 H :    0.028093
  15 H :    0.022668
  16 S :    0.375792
  17 C :   -0.174235
  18 C :   -0.067285
  19 C :   -0.041987
  20 C :   -0.184769
  21 H :    0.024120
  22 C :   -0.050656
  23 H :    0.039875
  24 H :    0.031675
  25 C :   -0.033865
  26 H :    0.028161
  27 H :    0.022066
  28 C :   -0.053896
  29 H :    0.020169
  30 H :    0.019999
  31 H :    0.027701
  32 H :    0.023701
  33 H :    0.023707

  Mayer bond orders larger than 0.100000
B(  0-S ,  1-C ) :   1.1258 B(  0-S ,  4-C ) :   1.1388 B(  1-C ,  2-C ) :   1.6100
B(  1-C , 32-H ) :   0.9719 B(  2-C ,  3-C ) :   1.1744 B(  2-C ,  6-C ) :   1.0304
B(  3-C ,  4-C ) :   1.6132 B(  3-C ,  5-H ) :   0.9892 B(  4-C , 20-C ) :   1.0817
B(  6-C ,  7-H ) :   0.9460 B(  6-C ,  8-H ) :   0.9455 B(  6-C ,  9-C ) :   1.0642
B(  9-C , 10-H ) :   0.9525 B(  9-C , 11-H ) :   0.9516 B(  9-C , 12-C ) :   1.0885
B( 12-C , 13-H ) :   0.9758 B( 12-C , 14-H ) :   0.9718 B( 12-C , 15-H ) :   0.9701
B( 16-S , 17-C ) :   1.1355 B( 16-S , 20-C ) :   1.1172 B( 17-C , 18-C ) :   1.6474
B( 17-C , 33-H ) :   0.9653 B( 18-C , 19-C ) :   1.2123 B( 18-C , 21-H ) :   0.9966
B( 19-C , 20-C ) :   1.5787 B( 19-C , 22-C ) :   1.0554 B( 22-C , 23-H ) :   0.9221
B( 22-C , 24-H ) :   0.9116 B( 22-C , 25-C ) :   1.0714 B( 25-C , 26-H ) :   0.9534
B( 25-C , 27-H ) :   0.9503 B( 25-C , 28-C ) :   1.0727 B( 28-C , 29-H ) :   0.9761
B( 28-C , 30-H ) :   0.9738 B( 28-C , 31-H ) :   0.9788

Dispersion correction           -0.014418600
FINAL SINGLE POINT ENERGY     -1339.860455473904

DIPOLE MOMENT
-------------
                                X             Y             Z
Electronic contribution:    -13.09528      27.32052      -6.15420
Nuclear contribution   :     13.00445     -27.96009       6.27441
                        -----------------------------------------
Total Dipole Moment    :     -0.09083      -0.63957       0.12022
                        -----------------------------------------
Magnitude (a.u.)       :      0.65708
Magnitude (Debye)      :      1.67017

Rotational constants in cm-1:     0.017030     0.009971     0.006729
Rotational constants in MHz :   510.549714   298.922411   201.719448

                             ****ORCA TERMINATED NORMALLY****
TOTAL RUN TIME: 0 days 0 hours 0 minutes 32 seconds 167 msec
