                         Program Version 4.2.1 -  RELEASE  -
|  1> ! wB97X-D3 SP def2-SVP
|  2> %pal
|  3> nprocs 16
|  4> end
|  5>
|  6> * xyz 0 1
|  7> S 	 -38.2499 	 65.2045 	 145.723
|  8> C 	 -39.5437 	 65.2615 	 144.492
|  9> C 	 -39.8976 	 66.5197 	 144.308
| 10> C 	 -39.2336 	 67.4129 	 145.205
| 11> C 	 -38.5329 	 66.7987 	 146.212
| 12> H 	 -39.3817 	 68.5089 	 145.304
| 13> C 	 -40.8977 	 67.0294 	 143.28
| 14> H 	 -41.5253 	 67.8829 	 143.636
| 15> H 	 -41.5852 	 66.2207 	 143.055
| 16> C 	 -40.4057 	 67.5757 	 141.854
| 17> H 	 -39.5302 	 66.9563 	 141.501
| 18> H 	 -41.3572 	 67.3851 	 141.298
| 19> C 	 -39.8683 	 69.0074 	 141.801
| 20> H 	 -39.5178 	 69.3278 	 140.836
| 21> H 	 -40.6244 	 69.7359 	 141.961
| 22> H 	 -39.0876 	 69.2685 	 142.548
| 23> S 	 -38.8346 	 68.0907 	 148.552
| 24> C 	 -37.4439 	 68.5335 	 149.434
| 25> C 	 -36.2878 	 68.007 	 148.844
| 26> C 	 -36.4274 	 67.5676 	 147.497
| 27> C 	 -37.8026 	 67.4112 	 147.288
| 28> H 	 -35.3537 	 68.1712 	 149.362
| 29> C 	 -35.2267 	 67.1857 	 146.546
| 30> H 	 -35.036 	 67.9816 	 145.779
| 31> H 	 -35.554 	 66.2858 	 145.96
| 32> C 	 -33.8368 	 67.0231 	 147.196
| 33> H 	 -33.9191 	 66.426 	 148.114
| 34> H 	 -33.5126 	 68.0328 	 147.53
| 35> C 	 -32.8462 	 66.4151 	 146.184
| 36> H 	 -32.6895 	 67.0944 	 145.313
| 37> H 	 -33.1562 	 65.3617 	 145.811
| 38> H 	 -31.952 	 66.1425 	 146.715
| 39> H 	 -39.9498 	 64.4568 	 143.857
| 40> H 	 -37.3979 	 68.7957 	 150.469
| 41> *
| 42>
| 43>                          ****END OF INPUT****

CARTESIAN COORDINATES (ANGSTROEM)
---------------------------------
  S    -38.249900   65.204500  145.723000
  C    -39.543700   65.261500  144.492000
  C    -39.897600   66.519700  144.308000
  C    -39.233600   67.412900  145.205000
  C    -38.532900   66.798700  146.212000
  H    -39.381700   68.508900  145.304000
  C    -40.897700   67.029400  143.280000
  H    -41.525300   67.882900  143.636000
  H    -41.585200   66.220700  143.055000
  C    -40.405700   67.575700  141.854000
  H    -39.530200   66.956300  141.501000
  H    -41.357200   67.385100  141.298000
  C    -39.868300   69.007400  141.801000
  H    -39.517800   69.327800  140.836000
  H    -40.624400   69.735900  141.961000
  H    -39.087600   69.268500  142.548000
  S    -38.834600   68.090700  148.552000
  C    -37.443900   68.533500  149.434000
  C    -36.287800   68.007000  148.844000
  C    -36.427400   67.567600  147.497000
  C    -37.802600   67.411200  147.288000
  H    -35.353700   68.171200  149.362000
  C    -35.226700   67.185700  146.546000
  H    -35.036000   67.981600  145.779000
  H    -35.554000   66.285800  145.960000
  C    -33.836800   67.023100  147.196000
  H    -33.919100   66.426000  148.114000
  H    -33.512600   68.032800  147.530000
  C    -32.846200   66.415100  146.184000
  H    -32.689500   67.094400  145.313000
  H    -33.156200   65.361700  145.811000
  H    -31.952000   66.142500  146.715000
  H    -39.949800   64.456800  143.857000
  H    -37.397900   68.795700  150.469000

 Total Charge           Charge          ....    0
 Multiplicity           Mult            ....    1
 Number of Electrons    NEL             ....  134
 Basis Dimension        Dim             ....  322

ORBITAL ENERGIES
----------------

  NO   OCC          E(Eh)            E(eV)
   0   2.0000     -88.969754     -2420.9901
   1   2.0000     -88.959992     -2420.7245
   2   2.0000     -10.326340      -280.9940
   3   2.0000     -10.318941      -280.7927
   4   2.0000     -10.310933      -280.5748
   5   2.0000     -10.310743      -280.5696
   6   2.0000     -10.309785      -280.5435
   7   2.0000     -10.304578      -280.4018
   8   2.0000     -10.298933      -280.2482
   9   2.0000     -10.297017      -280.1961
  10   2.0000     -10.294515      -280.1280
  11   2.0000     -10.294358      -280.1237
  12   2.0000     -10.292409      -280.0707
  13   2.0000     -10.289958      -280.0040
  14   2.0000     -10.289202      -279.9834
  15   2.0000     -10.275624      -279.6140
  16   2.0000      -8.084653      -219.9946
  17   2.0000      -8.075377      -219.7422
  18   2.0000      -6.043002      -164.4385
  19   2.0000      -6.039137      -164.3333
  20   2.0000      -6.035571      -164.2362
  21   2.0000      -6.034001      -164.1935
  22   2.0000      -6.029876      -164.0813
  23   2.0000      -6.025863      -163.9721
  24   2.0000      -1.014224       -27.5984
  25   2.0000      -0.989186       -26.9171
  26   2.0000      -0.905714       -24.6457
  27   2.0000      -0.904645       -24.6166
  28   2.0000      -0.871534       -23.7156
  29   2.0000      -0.851962       -23.1831
  30   2.0000      -0.840062       -22.8593
  31   2.0000      -0.809461       -22.0265
  32   2.0000      -0.785809       -21.3829
  33   2.0000      -0.775547       -21.1037
  34   2.0000      -0.705663       -19.2021
  35   2.0000      -0.698489       -19.0069
  36   2.0000      -0.694145       -18.8887
  37   2.0000      -0.652298       -17.7499
  38   2.0000      -0.633120       -17.2281
  39   2.0000      -0.613459       -16.6931
  40   2.0000      -0.599094       -16.3022
  41   2.0000      -0.574510       -15.6332
  42   2.0000      -0.564162       -15.3516
  43   2.0000      -0.538654       -14.6575
  44   2.0000      -0.536192       -14.5905
  45   2.0000      -0.523599       -14.2479
  46   2.0000      -0.519445       -14.1348
  47   2.0000      -0.508705       -13.8426
  48   2.0000      -0.498026       -13.5520
  49   2.0000      -0.491585       -13.3767
  50   2.0000      -0.487992       -13.2789
  51   2.0000      -0.482308       -13.1243
  52   2.0000      -0.474884       -12.9223
  53   2.0000      -0.469752       -12.7826
  54   2.0000      -0.459280       -12.4977
  55   2.0000      -0.447752       -12.1839
  56   2.0000      -0.440430       -11.9847
  57   2.0000      -0.432652       -11.7731
  58   2.0000      -0.429499       -11.6873
  59   2.0000      -0.427239       -11.6258
  60   2.0000      -0.422073       -11.4852
  61   2.0000      -0.415282       -11.3004
  62   2.0000      -0.410719       -11.1762
  63   2.0000      -0.338109        -9.2004
  64   2.0000      -0.333751        -9.0818
  65   2.0000      -0.323434        -8.8011
  66   2.0000      -0.297636        -8.0991
  67   0.0000       0.036452         0.9919
  68   0.0000       0.059402         1.6164
  69   0.0000       0.109195         2.9713
  70   0.0000       0.120512         3.2793
  71   0.0000       0.126048         3.4299

MULLIKEN ATOMIC CHARGES
-----------------------
   0 S :    0.096008
   1 C :   -0.128222
   2 C :   -0.036947
   3 C :    0.020446
   4 C :   -0.153515
   5 H :    0.020900
   6 C :    0.027019
   7 H :    0.032665
   8 H :    0.019557
   9 C :   -0.089849
  10 H :    0.042366
  11 H :    0.046220
  12 C :   -0.040198
  13 H :    0.026883
  14 H :    0.008977
  15 H :    0.042660
  16 S :    0.135573
  17 C :   -0.072152
  18 C :   -0.072215
  19 C :    0.000354
  20 C :   -0.203931
  21 H :    0.018128
  22 C :    0.042446
  23 H :    0.044383
  24 H :    0.033797
  25 C :   -0.109990
  26 H :    0.037362
  27 H :    0.039693
  28 C :   -0.052154
  29 H :    0.048950
  30 H :    0.040990
  31 H :    0.032244
  32 H :    0.048110
  33 H :    0.053442
Sum of atomic charges:   -0.0000000

LOEWDIN ATOMIC CHARGES
----------------------
   0 S :    0.409770
   1 C :   -0.184555
   2 C :   -0.074519
   3 C :   -0.069631
   4 C :   -0.217643
   5 H :    0.032366
   6 C :   -0.034678
   7 H :    0.034097
   8 H :    0.027577
   9 C :   -0.041748
  10 H :    0.030088
  11 H :    0.033181
  12 C :   -0.075980
  13 H :    0.026145
  14 H :    0.017363
  15 H :    0.033077
  16 S :    0.434609
  17 C :   -0.212094
  18 C :   -0.069895
  19 C :   -0.051222
  20 C :   -0.194717
  21 H :    0.025695
  22 C :   -0.035764
  23 H :    0.039952
  24 H :    0.027469
  25 C :   -0.047817
  26 H :    0.023496
  27 H :    0.027463
  28 C :   -0.069471
  29 H :    0.031439
  30 H :    0.036164
  31 H :    0.024713
  32 H :    0.038288
  33 H :    0.026781

  Mayer bond orders larger than 0.100000
B(  0-S ,  1-C ) :   1.1126 B(  0-S ,  4-C ) :   1.1464 B(  1-C ,  2-C ) :   1.6535
B(  1-C , 32-H ) :   0.9647 B(  2-C ,  3-C ) :   1.2092 B(  2-C ,  6-C ) :   1.0278
B(  3-C ,  4-C ) :   1.5964 B(  3-C ,  5-H ) :   0.9883 B(  4-C , 20-C ) :   1.0226
B(  6-C ,  7-H ) :   0.9457 B(  6-C ,  8-H ) :   0.9445 B(  6-C ,  9-C ) :   1.0459
B(  9-C , 10-H ) :   0.9591 B(  9-C , 11-H ) :   0.9598 B(  9-C , 12-C ) :   1.0756
B( 12-C , 13-H ) :   0.9722 B( 12-C , 14-H ) :   0.9708 B( 12-C , 15-H ) :   0.9740
B( 16-S , 17-C ) :   1.1583 B( 16-S , 20-C ) :   1.1724 B( 17-C , 18-C ) :   1.6159
B( 17-C , 20-C ) :   0.1099 B( 17-C , 33-H ) :   0.9594 B( 18-C , 19-C ) :   1.2535
B( 18-C , 21-H ) :   0.9745 B( 19-C , 20-C ) :   1.5791 B( 19-C , 22-C ) :   1.0165
B( 22-C , 23-H ) :   0.9338 B( 22-C , 24-H ) :   0.9398 B( 22-C , 25-C ) :   1.0668
B( 25-C , 26-H ) :   0.9562 B( 25-C , 27-H ) :   0.9481 B( 25-C , 28-C ) :   1.0844
B( 28-C , 29-H ) :   0.9726 B( 28-C , 30-H ) :   0.9727 B( 28-C , 31-H ) :   0.9718

Dispersion correction           -0.013679332
FINAL SINGLE POINT ENERGY     -1339.852868645408

DIPOLE MOMENT
-------------
                                X             Y             Z
Electronic contribution:    -10.31527      -5.30749      18.03391
Nuclear contribution   :     10.54409       5.50677     -18.34816
                        -----------------------------------------
Total Dipole Moment    :      0.22883       0.19927      -0.31426
                        -----------------------------------------
Magnitude (a.u.)       :      0.43684
Magnitude (Debye)      :      1.11036

Rotational constants in cm-1:     0.017935     0.007876     0.006720
Rotational constants in MHz :   537.679622   236.128811   201.460466

                             ****ORCA TERMINATED NORMALLY****
TOTAL RUN TIME: 0 days 0 hours 0 minutes 33 seconds 242 msec
