                         Program Version 4.2.1 -  RELEASE  -
|  1> ! wB97X-D3 SP def2-SVP
|  2> %pal
|  3> nprocs 16
|  4> end
|  5>
|  6> * xyz 0 1
|  7> S 	 -29.7243 	 62.9001 	 108.309
|  8> C 	 -29.1466 	 64.529 	 107.942
|  9> C 	 -29.7985 	 65.0485 	 106.831
| 10> C 	 -30.9132 	 64.1925 	 106.435
| 11> C 	 -30.7987 	 62.9234 	 106.959
| 12> H 	 -31.5816 	 64.354 	 105.593
| 13> C 	 -29.5782 	 66.5319 	 106.408
| 14> H 	 -28.7746 	 66.9366 	 106.987
| 15> H 	 -30.4603 	 67.0922 	 106.602
| 16> C 	 -29.1889 	 66.7267 	 104.886
| 17> H 	 -28.2074 	 66.3844 	 104.675
| 18> H 	 -30.0417 	 66.3333 	 104.327
| 19> C 	 -29.038 	 68.212 	 104.62
| 20> H 	 -28.1195 	 68.6294 	 105.005
| 21> H 	 -28.9514 	 68.4065 	 103.583
| 22> H 	 -29.9204 	 68.6914 	 104.99
| 23> S 	 -32.9713 	 61.357 	 107.749
| 24> C 	 -33.4967 	 60.0564 	 106.659
| 25> C 	 -32.8731 	 60.1284 	 105.484
| 26> C 	 -31.8708 	 61.0895 	 105.435
| 27> C 	 -31.6728 	 61.7841 	 106.64
| 28> H 	 -33.1555 	 59.3657 	 104.696
| 29> C 	 -30.9259 	 61.2429 	 104.277
| 30> H 	 -29.981 	 60.7945 	 104.494
| 31> H 	 -30.6511 	 62.291 	 104.08
| 32> C 	 -31.2978 	 60.6885 	 102.898
| 33> H 	 -32.2495 	 61.1786 	 102.555
| 34> H 	 -31.644 	 59.6636 	 102.867
| 35> C 	 -30.2001 	 60.7412 	 101.858
| 36> H 	 -30.0844 	 61.7638 	 101.496
| 37> H 	 -30.3365 	 60.0649 	 101.026
| 38> H 	 -29.1203 	 60.5121 	 102.211
| 39> H 	 -28.3013 	 65.0842 	 108.49
| 40> H 	 -34.1794 	 59.2802 	 106.846
| 41> *
| 42>
| 43>                          ****END OF INPUT****

CARTESIAN COORDINATES (ANGSTROEM)
---------------------------------
  S    -29.724300   62.900100  108.309000
  C    -29.146600   64.529000  107.942000
  C    -29.798500   65.048500  106.831000
  C    -30.913200   64.192500  106.435000
  C    -30.798700   62.923400  106.959000
  H    -31.581600   64.354000  105.593000
  C    -29.578200   66.531900  106.408000
  H    -28.774600   66.936600  106.987000
  H    -30.460300   67.092200  106.602000
  C    -29.188900   66.726700  104.886000
  H    -28.207400   66.384400  104.675000
  H    -30.041700   66.333300  104.327000
  C    -29.038000   68.212000  104.620000
  H    -28.119500   68.629400  105.005000
  H    -28.951400   68.406500  103.583000
  H    -29.920400   68.691400  104.990000
  S    -32.971300   61.357000  107.749000
  C    -33.496700   60.056400  106.659000
  C    -32.873100   60.128400  105.484000
  C    -31.870800   61.089500  105.435000
  C    -31.672800   61.784100  106.640000
  H    -33.155500   59.365700  104.696000
  C    -30.925900   61.242900  104.277000
  H    -29.981000   60.794500  104.494000
  H    -30.651100   62.291000  104.080000
  C    -31.297800   60.688500  102.898000
  H    -32.249500   61.178600  102.555000
  H    -31.644000   59.663600  102.867000
  C    -30.200100   60.741200  101.858000
  H    -30.084400   61.763800  101.496000
  H    -30.336500   60.064900  101.026000
  H    -29.120300   60.512100  102.211000
  H    -28.301300   65.084200  108.490000
  H    -34.179400   59.280200  106.846000

 Total Charge           Charge          ....    0
 Multiplicity           Mult            ....    1
 Number of Electrons    NEL             ....  134
 Basis Dimension        Dim             ....  322

ORBITAL ENERGIES
----------------

  NO   OCC          E(Eh)            E(eV)
   0   2.0000     -88.965848     -2420.8838
   1   2.0000     -88.964015     -2420.8339
   2   2.0000     -10.328780      -281.0604
   3   2.0000     -10.326671      -281.0030
   4   2.0000     -10.321899      -280.8731
   5   2.0000     -10.310214      -280.5552
   6   2.0000     -10.306565      -280.4559
   7   2.0000     -10.302561      -280.3469
   8   2.0000     -10.297922      -280.2207
   9   2.0000     -10.292791      -280.0811
  10   2.0000     -10.289867      -280.0015
  11   2.0000     -10.286992      -279.9233
  12   2.0000     -10.286281      -279.9039
  13   2.0000     -10.284758      -279.8625
  14   2.0000     -10.283311      -279.8231
  15   2.0000     -10.269318      -279.4423
  16   2.0000      -8.080770      -219.8889
  17   2.0000      -8.078269      -219.8209
  18   2.0000      -6.039247      -164.3363
  19   2.0000      -6.036849      -164.2710
  20   2.0000      -6.035222      -164.2267
  21   2.0000      -6.032862      -164.1625
  22   2.0000      -6.031570      -164.1274
  23   2.0000      -6.028955      -164.0562
  24   2.0000      -1.007137       -27.4056
  25   2.0000      -0.985525       -26.8175
  26   2.0000      -0.910530       -24.7768
  27   2.0000      -0.908563       -24.7233
  28   2.0000      -0.872863       -23.7518
  29   2.0000      -0.850136       -23.1334
  30   2.0000      -0.846300       -23.0290
  31   2.0000      -0.818474       -22.2718
  32   2.0000      -0.781101       -21.2549
  33   2.0000      -0.769138       -20.9293
  34   2.0000      -0.706708       -19.2305
  35   2.0000      -0.702046       -19.1036
  36   2.0000      -0.691516       -18.8171
  37   2.0000      -0.647404       -17.6168
  38   2.0000      -0.639455       -17.4005
  39   2.0000      -0.616726       -16.7820
  40   2.0000      -0.604064       -16.4374
  41   2.0000      -0.584490       -15.9048
  42   2.0000      -0.564775       -15.3683
  43   2.0000      -0.562014       -15.2932
  44   2.0000      -0.527586       -14.3563
  45   2.0000      -0.521955       -14.2031
  46   2.0000      -0.512329       -13.9412
  47   2.0000      -0.507526       -13.8105
  48   2.0000      -0.504026       -13.7152
  49   2.0000      -0.497941       -13.5497
  50   2.0000      -0.486665       -13.2428
  51   2.0000      -0.481847       -13.1117
  52   2.0000      -0.475763       -12.9462
  53   2.0000      -0.468617       -12.7517
  54   2.0000      -0.457773       -12.4566
  55   2.0000      -0.453738       -12.3468
  56   2.0000      -0.446485       -12.1495
  57   2.0000      -0.439583       -11.9617
  58   2.0000      -0.429921       -11.6987
  59   2.0000      -0.425453       -11.5772
  60   2.0000      -0.422489       -11.4965
  61   2.0000      -0.412065       -11.2129
  62   2.0000      -0.404374       -11.0036
  63   2.0000      -0.342607        -9.3228
  64   2.0000      -0.329232        -8.9589
  65   2.0000      -0.325039        -8.8447
  66   2.0000      -0.301982        -8.2174
  67   0.0000       0.032296         0.8788
  68   0.0000       0.063569         1.7298
  69   0.0000       0.116061         3.1582
  70   0.0000       0.119619         3.2550
  71   0.0000       0.129718         3.5298

MULLIKEN ATOMIC CHARGES
-----------------------
   0 S :    0.115779
   1 C :   -0.148361
   2 C :   -0.082130
   3 C :    0.055365
   4 C :   -0.191589
   5 H :    0.025487
   6 C :    0.050421
   7 H :    0.007321
   8 H :    0.031128
   9 C :   -0.073689
  10 H :    0.027584
  11 H :    0.035960
  12 C :   -0.021578
  13 H :    0.025854
  14 H :    0.019643
  15 H :    0.018376
  16 S :    0.105580
  17 C :   -0.056027
  18 C :   -0.068814
  19 C :    0.001676
  20 C :   -0.147503
  21 H :    0.042371
  22 C :    0.076106
  23 H :    0.028917
  24 H :    0.021671
  25 C :   -0.091447
  26 H :    0.026567
  27 H :    0.017012
  28 C :   -0.062860
  29 H :    0.029714
  30 H :    0.035288
  31 H :    0.034444
  32 H :    0.081710
  33 H :    0.030027
Sum of atomic charges:    0.0000000

LOEWDIN ATOMIC CHARGES
----------------------
   0 S :    0.409864
   1 C :   -0.206409
   2 C :   -0.063115
   3 C :   -0.057996
   4 C :   -0.205022
   5 H :    0.031802
   6 C :   -0.020886
   7 H :    0.022970
   8 H :    0.026818
   9 C :   -0.031937
  10 H :    0.022115
  11 H :    0.024486
  12 C :   -0.059643
  13 H :    0.023544
  14 H :    0.020819
  15 H :    0.019017
  16 S :    0.392300
  17 C :   -0.164889
  18 C :   -0.082586
  19 C :   -0.055257
  20 C :   -0.199610
  21 H :    0.046926
  22 C :   -0.033972
  23 H :    0.032247
  24 H :    0.033602
  25 C :   -0.052562
  26 H :    0.027473
  27 H :    0.017287
  28 C :   -0.071123
  29 H :    0.023539
  30 H :    0.026022
  31 H :    0.034405
  32 H :    0.047058
  33 H :    0.022713

  Mayer bond orders larger than 0.100000
B(  0-S ,  1-C ) :   1.1339 B(  0-S ,  4-C ) :   1.1561 B(  1-C ,  2-C ) :   1.6283
B(  1-C , 32-H ) :   0.9551 B(  2-C ,  3-C ) :   1.2149 B(  2-C ,  6-C ) :   1.0250
B(  3-C ,  4-C ) :   1.6023 B(  3-C ,  5-H ) :   0.9802 B(  4-C , 20-C ) :   1.0144
B(  6-C ,  7-H ) :   0.9464 B(  6-C ,  8-H ) :   0.9462 B(  6-C ,  9-C ) :   1.0647
B(  9-C , 10-H ) :   0.9581 B(  9-C , 11-H ) :   0.9593 B(  9-C , 12-C ) :   1.0911
B( 12-C , 13-H ) :   0.9748 B( 12-C , 14-H ) :   0.9713 B( 12-C , 15-H ) :   0.9730
B( 16-S , 17-C ) :   1.1453 B( 16-S , 20-C ) :   1.1453 B( 17-C , 18-C ) :   1.6324
B( 17-C , 20-C ) :   0.1046 B( 17-C , 33-H ) :   0.9636 B( 18-C , 19-C ) :   1.2544
B( 18-C , 21-H ) :   0.9777 B( 19-C , 20-C ) :   1.5907 B( 19-C , 22-C ) :   1.0390
B( 22-C , 23-H ) :   0.9319 B( 22-C , 24-H ) :   0.9275 B( 22-C , 25-C ) :   1.0699
B( 25-C , 26-H ) :   0.9521 B( 25-C , 27-H ) :   0.9485 B( 25-C , 28-C ) :   1.0810
B( 28-C , 29-H ) :   0.9742 B( 28-C , 30-H ) :   0.9756 B( 28-C , 31-H ) :   0.9724

Dispersion correction           -0.013299738
FINAL SINGLE POINT ENERGY     -1339.860552696068

DIPOLE MOMENT
-------------
                                X             Y             Z
Electronic contribution:     -9.45727     -13.20026      26.75208
Nuclear contribution   :      9.58947      13.44058     -27.39531
                        -----------------------------------------
Total Dipole Moment    :      0.13221       0.24032      -0.64323
                        -----------------------------------------
Magnitude (a.u.)       :      0.69927
Magnitude (Debye)      :      1.77739

Rotational constants in cm-1:     0.016198     0.008430     0.006243
Rotational constants in MHz :   485.615702   252.718835   187.175269

                             ****ORCA TERMINATED NORMALLY****
TOTAL RUN TIME: 0 days 0 hours 0 minutes 28 seconds 921 msec
