                         Program Version 4.2.1 -  RELEASE  -
|  1> ! wB97X-D3 SP def2-SVP
|  2> %pal
|  3> nprocs 16
|  4> end
|  5>
|  6> * xyz 0 1
|  7> S 	 38.0783 	 23.3991 	 96.4284
|  8> C 	 39.02 	 24.6375 	 97.2386
|  9> C 	 39.5766 	 24.1415 	 98.4552
| 10> C 	 39.3175 	 22.7564 	 98.6081
| 11> C 	 38.5525 	 22.1678 	 97.5958
| 12> H 	 39.7407 	 22.0975 	 99.3245
| 13> C 	 40.51 	 24.8919 	 99.4828
| 14> H 	 40.2978 	 24.5118 	 100.463
| 15> H 	 40.0393 	 25.9431 	 99.5912
| 16> C 	 42.0064 	 24.8804 	 99.1907
| 17> H 	 42.1402 	 25.2945 	 98.1734
| 18> H 	 42.4335 	 25.566 	 99.9313
| 19> C 	 42.5738 	 23.4617 	 99.3031
| 20> H 	 42.6273 	 23.1158 	 100.344
| 21> H 	 42.0824 	 22.7826 	 98.5701
| 22> H 	 43.4897 	 23.3877 	 98.7205
| 23> S 	 36.8349 	 19.9809 	 98.2729
| 24> C 	 36.9975 	 18.539 	 97.4048
| 25> C 	 38.0719 	 18.622 	 96.5109
| 26> C 	 38.6949 	 19.8652 	 96.5361
| 27> C 	 38.171 	 20.7708 	 97.3788
| 28> H 	 38.4085 	 17.7109 	 96.0522
| 29> C 	 39.7925 	 20.0803 	 95.4208
| 30> H 	 39.9774 	 21.133 	 95.1604
| 31> H 	 39.5022 	 19.8617 	 94.3978
| 32> C 	 41.1206 	 19.4521 	 95.7517
| 33> H 	 41.6094 	 19.3912 	 94.7765
| 34> H 	 41.0695 	 18.425 	 96.1262
| 35> C 	 42.0203 	 20.2752 	 96.6894
| 36> H 	 43.0545 	 19.9437 	 96.6518
| 37> H 	 41.638 	 20.1433 	 97.7116
| 38> H 	 41.9564 	 21.2996 	 96.3702
| 39> H 	 38.9517 	 25.6863 	 97.0394
| 40> H 	 36.5265 	 17.5913 	 97.6816
| 41> *
| 42>
| 43>                          ****END OF INPUT****

CARTESIAN COORDINATES (ANGSTROEM)
---------------------------------
  S     38.078300   23.399100   96.428400
  C     39.020000   24.637500   97.238600
  C     39.576600   24.141500   98.455200
  C     39.317500   22.756400   98.608100
  C     38.552500   22.167800   97.595800
  H     39.740700   22.097500   99.324500
  C     40.510000   24.891900   99.482800
  H     40.297800   24.511800  100.463000
  H     40.039300   25.943100   99.591200
  C     42.006400   24.880400   99.190700
  H     42.140200   25.294500   98.173400
  H     42.433500   25.566000   99.931300
  C     42.573800   23.461700   99.303100
  H     42.627300   23.115800  100.344000
  H     42.082400   22.782600   98.570100
  H     43.489700   23.387700   98.720500
  S     36.834900   19.980900   98.272900
  C     36.997500   18.539000   97.404800
  C     38.071900   18.622000   96.510900
  C     38.694900   19.865200   96.536100
  C     38.171000   20.770800   97.378800
  H     38.408500   17.710900   96.052200
  C     39.792500   20.080300   95.420800
  H     39.977400   21.133000   95.160400
  H     39.502200   19.861700   94.397800
  C     41.120600   19.452100   95.751700
  H     41.609400   19.391200   94.776500
  H     41.069500   18.425000   96.126200
  C     42.020300   20.275200   96.689400
  H     43.054500   19.943700   96.651800
  H     41.638000   20.143300   97.711600
  H     41.956400   21.299600   96.370200
  H     38.951700   25.686300   97.039400
  H     36.526500   17.591300   97.681600

 Total Charge           Charge          ....    0
 Multiplicity           Mult            ....    1
 Number of Electrons    NEL             ....  134
 Basis Dimension        Dim             ....  322

ORBITAL ENERGIES
----------------

  NO   OCC          E(Eh)            E(eV)
   0   2.0000     -88.968640     -2420.9598
   1   2.0000     -88.965262     -2420.8678
   2   2.0000     -10.330437      -281.1055
   3   2.0000     -10.325747      -280.9779
   4   2.0000     -10.318294      -280.7751
   5   2.0000     -10.316543      -280.7274
   6   2.0000     -10.307430      -280.4794
   7   2.0000     -10.300104      -280.2801
   8   2.0000     -10.298620      -280.2397
   9   2.0000     -10.292536      -280.0741
  10   2.0000     -10.290528      -280.0195
  11   2.0000     -10.290379      -280.0155
  12   2.0000     -10.287594      -279.9397
  13   2.0000     -10.281031      -279.7611
  14   2.0000     -10.279322      -279.7146
  15   2.0000     -10.272405      -279.5264
  16   2.0000      -8.082551      -219.9374
  17   2.0000      -8.080493      -219.8814
  18   2.0000      -6.041003      -164.3840
  19   2.0000      -6.038872      -164.3261
  20   2.0000      -6.036962      -164.2741
  21   2.0000      -6.034808      -164.2155
  22   2.0000      -6.033633      -164.1835
  23   2.0000      -6.031457      -164.1243
  24   2.0000      -1.007542       -27.4166
  25   2.0000      -0.982793       -26.7432
  26   2.0000      -0.908515       -24.7219
  27   2.0000      -0.907072       -24.6827
  28   2.0000      -0.866278       -23.5726
  29   2.0000      -0.849166       -23.1070
  30   2.0000      -0.843575       -22.9548
  31   2.0000      -0.808919       -22.0118
  32   2.0000      -0.784812       -21.3558
  33   2.0000      -0.775940       -21.1144
  34   2.0000      -0.700423       -19.0595
  35   2.0000      -0.698311       -19.0020
  36   2.0000      -0.689789       -18.7701
  37   2.0000      -0.658914       -17.9300
  38   2.0000      -0.642820       -17.4920
  39   2.0000      -0.616228       -16.7684
  40   2.0000      -0.603061       -16.4101
  41   2.0000      -0.578430       -15.7399
  42   2.0000      -0.554712       -15.0945
  43   2.0000      -0.545360       -14.8400
  44   2.0000      -0.536703       -14.6044
  45   2.0000      -0.533951       -14.5296
  46   2.0000      -0.517175       -14.0730
  47   2.0000      -0.513118       -13.9626
  48   2.0000      -0.502713       -13.6795
  49   2.0000      -0.493120       -13.4185
  50   2.0000      -0.486356       -13.2344
  51   2.0000      -0.476722       -12.9723
  52   2.0000      -0.469939       -12.7877
  53   2.0000      -0.468734       -12.7549
  54   2.0000      -0.459468       -12.5028
  55   2.0000      -0.445546       -12.1239
  56   2.0000      -0.441579       -12.0160
  57   2.0000      -0.437143       -11.8953
  58   2.0000      -0.423821       -11.5328
  59   2.0000      -0.419800       -11.4233
  60   2.0000      -0.412696       -11.2300
  61   2.0000      -0.409707       -11.1487
  62   2.0000      -0.403927       -10.9914
  63   2.0000      -0.340014        -9.2523
  64   2.0000      -0.332142        -9.0380
  65   2.0000      -0.324794        -8.8381
  66   2.0000      -0.306823        -8.3491
  67   0.0000       0.037250         1.0136
  68   0.0000       0.054576         1.4851
  69   0.0000       0.113982         3.1016
  70   0.0000       0.120162         3.2698
  71   0.0000       0.129668         3.5285

MULLIKEN ATOMIC CHARGES
-----------------------
   0 S :    0.119042
   1 C :   -0.112736
   2 C :   -0.116887
   3 C :    0.071917
   4 C :   -0.198290
   5 H :    0.001608
   6 C :    0.026637
   7 H :    0.015155
   8 H :    0.032881
   9 C :   -0.031998
  10 H :    0.031128
  11 H :    0.038022
  12 C :   -0.058974
  13 H :    0.051657
  14 H :    0.031528
  15 H :    0.021640
  16 S :    0.119361
  17 C :   -0.099839
  18 C :   -0.042139
  19 C :    0.036006
  20 C :   -0.182756
  21 H :    0.018569
  22 C :    0.056289
  23 H :    0.005486
  24 H :    0.026016
  25 C :   -0.082808
  26 H :    0.018738
  27 H :    0.026060
  28 C :   -0.045503
  29 H :    0.034852
  30 H :    0.040136
  31 H :    0.031915
  32 H :    0.049020
  33 H :    0.068267
Sum of atomic charges:    0.0000000

LOEWDIN ATOMIC CHARGES
----------------------
   0 S :    0.414652
   1 C :   -0.200486
   2 C :   -0.062478
   3 C :   -0.055614
   4 C :   -0.192935
   5 H :    0.026324
   6 C :   -0.037534
   7 H :    0.022952
   8 H :    0.036018
   9 C :   -0.039421
  10 H :    0.028611
  11 H :    0.027833
  12 C :   -0.079690
  13 H :    0.030650
  14 H :    0.036747
  15 H :    0.030960
  16 S :    0.418829
  17 C :   -0.200435
  18 C :   -0.075638
  19 C :   -0.054103
  20 C :   -0.203163
  21 H :    0.029810
  22 C :   -0.033775
  23 H :    0.027418
  24 H :    0.032955
  25 C :   -0.044138
  26 H :    0.023629
  27 H :    0.020944
  28 C :   -0.061751
  29 H :    0.025718
  30 H :    0.026916
  31 H :    0.020580
  32 H :    0.024612
  33 H :    0.035006

  Mayer bond orders larger than 0.100000
B(  0-S ,  1-C ) :   1.1630 B(  0-S ,  4-C ) :   1.1588 B(  1-C ,  2-C ) :   1.5772
B(  1-C ,  4-C ) :   0.1141 B(  1-C , 32-H ) :   0.9689 B(  2-C ,  3-C ) :   1.2652
B(  2-C ,  6-C ) :   1.0107 B(  3-C ,  4-C ) :   1.5744 B(  3-C ,  5-H ) :   0.9940
B(  4-C , 20-C ) :   1.0135 B(  6-C ,  7-H ) :   0.9442 B(  6-C ,  8-H ) :   0.9430
B(  6-C ,  9-C ) :   1.0605 B(  9-C , 10-H ) :   0.9540 B(  9-C , 11-H ) :   0.9536
B(  9-C , 12-C ) :   1.0868 B( 12-C , 13-H ) :   0.9738 B( 12-C , 14-H ) :   0.9598
B( 12-C , 15-H ) :   0.9628 B( 16-S , 17-C ) :   1.1908 B( 16-S , 20-C ) :   1.1303
B( 17-C , 18-C ) :   1.5767 B( 17-C , 33-H ) :   0.9620 B( 18-C , 19-C ) :   1.2663
B( 18-C , 21-H ) :   0.9926 B( 19-C , 20-C ) :   1.6135 B( 19-C , 22-C ) :   1.0083
B( 22-C , 23-H ) :   0.9288 B( 22-C , 24-H ) :   0.9518 B( 22-C , 25-C ) :   1.0759
B( 25-C , 26-H ) :   0.9497 B( 25-C , 27-H ) :   0.9591 B( 25-C , 28-C ) :   1.0820
B( 28-C , 29-H ) :   0.9735 B( 28-C , 30-H ) :   0.9764 B( 28-C , 31-H ) :   0.9709

Dispersion correction           -0.016222906
FINAL SINGLE POINT ENERGY     -1339.867512229183

DIPOLE MOMENT
-------------
                                X             Y             Z
Electronic contribution:    -26.95834      -2.41184      -1.98110
Nuclear contribution   :     27.52342       2.30427       2.01017
                        -----------------------------------------
Total Dipole Moment    :      0.56508      -0.10757       0.02906
                        -----------------------------------------
Magnitude (a.u.)       :      0.57596
Magnitude (Debye)      :      1.46397

Rotational constants in cm-1:     0.019277     0.009426     0.007888
Rotational constants in MHz :   577.908812   282.569957   236.486784

                             ****ORCA TERMINATED NORMALLY****
TOTAL RUN TIME: 0 days 0 hours 0 minutes 30 seconds 677 msec
