                         Program Version 4.2.1 -  RELEASE  -
|  1> ! wB97X-D3 SP def2-SVP
|  2> %pal
|  3> nprocs 16
|  4> end
|  5>
|  6> * xyz 0 1
|  7> S 	 41.2388 	 14.6284 	 73.5079
|  8> C 	 39.6236 	 14.1536 	 73.3554
|  9> C 	 38.8807 	 15.048 	 72.6464
| 10> C 	 39.645 	 16.1604 	 72.2278
| 11> C 	 40.9337 	 16.0551 	 72.6054
| 12> H 	 39.3159 	 17.015 	 71.5636
| 13> C 	 37.3724 	 14.9241 	 72.3826
| 14> H 	 36.856 	 15.421 	 73.2739
| 15> H 	 37.1834 	 13.8692 	 72.4804
| 16> C 	 36.8736 	 15.4613 	 71.1327
| 17> H 	 36.9036 	 16.5244 	 71.2563
| 18> H 	 37.471 	 15.245 	 70.2929
| 19> C 	 35.4998 	 14.8961 	 70.8821
| 20> H 	 35.0456 	 15.4787 	 70.0485
| 21> H 	 35.5512 	 13.8015 	 70.7263
| 22> H 	 34.7633 	 15.076 	 71.6491
| 23> S 	 42.6986 	 17.1488 	 71.0344
| 24> C 	 43.68 	 18.5061 	 71.5339
| 25> C 	 43.223 	 18.9532 	 72.7263
| 26> C 	 42.1272 	 18.1992 	 73.33
| 27> C 	 41.8781 	 17.0957 	 72.5455
| 28> H 	 43.7964 	 19.7435 	 73.1631
| 29> C 	 41.3781 	 18.5317 	 74.5898
| 30> H 	 40.5159 	 17.8844 	 74.6066
| 31> H 	 40.9342 	 19.504 	 74.4887
| 32> C 	 42.1787 	 18.3816 	 75.9531
| 33> H 	 43.0212 	 19.1336 	 76.013
| 34> H 	 42.672 	 17.3631 	 76.04
| 35> C 	 41.4383 	 18.5422 	 77.3019
| 36> H 	 40.4326 	 18.0648 	 77.2716
| 37> H 	 41.3383 	 19.5738 	 77.7002
| 38> H 	 41.9438 	 17.9636 	 78.1187
| 39> H 	 39.2416 	 13.2596 	 73.8085
| 40> H 	 44.4563 	 18.9637 	 70.9271
| 41> *
| 42>
| 43>                          ****END OF INPUT****

CARTESIAN COORDINATES (ANGSTROEM)
---------------------------------
  S     41.238800   14.628400   73.507900
  C     39.623600   14.153600   73.355400
  C     38.880700   15.048000   72.646400
  C     39.645000   16.160400   72.227800
  C     40.933700   16.055100   72.605400
  H     39.315900   17.015000   71.563600
  C     37.372400   14.924100   72.382600
  H     36.856000   15.421000   73.273900
  H     37.183400   13.869200   72.480400
  C     36.873600   15.461300   71.132700
  H     36.903600   16.524400   71.256300
  H     37.471000   15.245000   70.292900
  C     35.499800   14.896100   70.882100
  H     35.045600   15.478700   70.048500
  H     35.551200   13.801500   70.726300
  H     34.763300   15.076000   71.649100
  S     42.698600   17.148800   71.034400
  C     43.680000   18.506100   71.533900
  C     43.223000   18.953200   72.726300
  C     42.127200   18.199200   73.330000
  C     41.878100   17.095700   72.545500
  H     43.796400   19.743500   73.163100
  C     41.378100   18.531700   74.589800
  H     40.515900   17.884400   74.606600
  H     40.934200   19.504000   74.488700
  C     42.178700   18.381600   75.953100
  H     43.021200   19.133600   76.013000
  H     42.672000   17.363100   76.040000
  C     41.438300   18.542200   77.301900
  H     40.432600   18.064800   77.271600
  H     41.338300   19.573800   77.700200
  H     41.943800   17.963600   78.118700
  H     39.241600   13.259600   73.808500
  H     44.456300   18.963700   70.927100

 Total Charge           Charge          ....    0
 Multiplicity           Mult            ....    1
 Number of Electrons    NEL             ....  134
 Basis Dimension        Dim             ....  322

ORBITAL ENERGIES
----------------

  NO   OCC          E(Eh)            E(eV)
   0   2.0000     -88.963662     -2420.8243
   1   2.0000     -88.955270     -2420.5960
   2   2.0000     -10.314501      -280.6718
   3   2.0000     -10.312896      -280.6282
   4   2.0000     -10.310478      -280.5624
   5   2.0000     -10.304119      -280.3893
   6   2.0000     -10.303720      -280.3785
   7   2.0000     -10.297764      -280.2164
   8   2.0000     -10.293449      -280.0990
   9   2.0000     -10.292230      -280.0658
  10   2.0000     -10.291165      -280.0368
  11   2.0000     -10.288737      -279.9708
  12   2.0000     -10.288060      -279.9524
  13   2.0000     -10.283819      -279.8370
  14   2.0000     -10.279711      -279.7252
  15   2.0000     -10.274281      -279.5774
  16   2.0000      -8.080293      -219.8759
  17   2.0000      -8.071275      -219.6306
  18   2.0000      -6.038542      -164.3171
  19   2.0000      -6.034516      -164.2075
  20   2.0000      -6.031233      -164.1182
  21   2.0000      -6.029755      -164.0780
  22   2.0000      -6.025602      -163.9650
  23   2.0000      -6.021977      -163.8663
  24   2.0000      -1.020783       -27.7769
  25   2.0000      -0.990836       -26.9620
  26   2.0000      -0.927110       -25.2279
  27   2.0000      -0.897289       -24.4165
  28   2.0000      -0.880818       -23.9683
  29   2.0000      -0.853877       -23.2352
  30   2.0000      -0.844370       -22.9765
  31   2.0000      -0.816887       -22.2286
  32   2.0000      -0.782020       -21.2798
  33   2.0000      -0.769948       -20.9513
  34   2.0000      -0.714896       -19.4533
  35   2.0000      -0.693755       -18.8780
  36   2.0000      -0.690048       -18.7772
  37   2.0000      -0.657185       -17.8829
  38   2.0000      -0.646928       -17.6038
  39   2.0000      -0.620663       -16.8891
  40   2.0000      -0.593774       -16.1574
  41   2.0000      -0.582959       -15.8631
  42   2.0000      -0.567004       -15.4290
  43   2.0000      -0.554323       -15.0839
  44   2.0000      -0.529582       -14.4107
  45   2.0000      -0.521863       -14.2006
  46   2.0000      -0.516810       -14.0631
  47   2.0000      -0.507005       -13.7963
  48   2.0000      -0.505017       -13.7422
  49   2.0000      -0.500906       -13.6304
  50   2.0000      -0.497570       -13.5396
  51   2.0000      -0.480020       -13.0620
  52   2.0000      -0.472502       -12.8574
  53   2.0000      -0.465412       -12.6645
  54   2.0000      -0.459728       -12.5098
  55   2.0000      -0.449890       -12.2421
  56   2.0000      -0.444219       -12.0878
  57   2.0000      -0.437271       -11.8987
  58   2.0000      -0.424317       -11.5463
  59   2.0000      -0.423415       -11.5217
  60   2.0000      -0.417644       -11.3647
  61   2.0000      -0.414188       -11.2706
  62   2.0000      -0.412812       -11.2332
  63   2.0000      -0.339379        -9.2350
  64   2.0000      -0.327909        -8.9229
  65   2.0000      -0.315915        -8.5965
  66   2.0000      -0.313249        -8.5239
  67   0.0000       0.057324         1.5599
  68   0.0000       0.058646         1.5958
  69   0.0000       0.116730         3.1764
  70   0.0000       0.130030         3.5383
  71   0.0000       0.132482         3.6050

MULLIKEN ATOMIC CHARGES
-----------------------
   0 S :    0.136911
   1 C :   -0.126161
   2 C :   -0.081954
   3 C :    0.010261
   4 C :   -0.179356
   5 H :    0.039939
   6 C :    0.066711
   7 H :    0.048689
   8 H :    0.001797
   9 C :   -0.046808
  10 H :    0.024856
  11 H :    0.023879
  12 C :   -0.043469
  13 H :    0.030675
  14 H :    0.043695
  15 H :    0.019442
  16 S :    0.092859
  17 C :   -0.088852
  18 C :   -0.034830
  19 C :   -0.003652
  20 C :   -0.205035
  21 H :    0.009956
  22 C :    0.127915
  23 H :    0.015361
  24 H :    0.026084
  25 C :   -0.111390
  26 H :    0.037042
  27 H :    0.044352
  28 C :   -0.083303
  29 H :    0.032372
  30 H :    0.041481
  31 H :    0.037709
  32 H :    0.034699
  33 H :    0.058122
Sum of atomic charges:    0.0000000

LOEWDIN ATOMIC CHARGES
----------------------
   0 S :    0.448656
   1 C :   -0.213006
   2 C :   -0.067850
   3 C :   -0.066619
   4 C :   -0.224442
   5 H :    0.045562
   6 C :   -0.031619
   7 H :    0.042593
   8 H :    0.021688
   9 C :   -0.046890
  10 H :    0.023993
  11 H :    0.023133
  12 C :   -0.061210
  13 H :    0.030683
  14 H :    0.030897
  15 H :    0.021218
  16 S :    0.410051
  17 C :   -0.187079
  18 C :   -0.070478
  19 C :   -0.052341
  20 C :   -0.205713
  21 H :    0.026595
  22 C :   -0.029469
  23 H :    0.030299
  24 H :    0.032380
  25 C :   -0.049663
  26 H :    0.027130
  27 H :    0.033868
  28 C :   -0.082040
  29 H :    0.026183
  30 H :    0.025032
  31 H :    0.032594
  32 H :    0.023665
  33 H :    0.032198

  Mayer bond orders larger than 0.100000
B(  0-S ,  1-C ) :   1.1540 B(  0-S ,  4-C ) :   1.1692 B(  1-C ,  2-C ) :   1.6159
B(  1-C , 32-H ) :   0.9719 B(  2-C ,  3-C ) :   1.2431 B(  2-C ,  6-C ) :   1.0029
B(  3-C ,  4-C ) :   1.5889 B(  3-C ,  5-H ) :   0.9874 B(  4-C , 20-C ) :   0.9860
B(  6-C ,  7-H ) :   0.9262 B(  6-C ,  8-H ) :   0.9438 B(  6-C ,  9-C ) :   1.0820
B(  9-C , 10-H ) :   0.9351 B(  9-C , 11-H ) :   0.9576 B(  9-C , 12-C ) :   1.0945
B( 12-C , 13-H ) :   0.9701 B( 12-C , 14-H ) :   0.9738 B( 12-C , 15-H ) :   0.9710
B( 16-S , 17-C ) :   1.1291 B( 16-S , 20-C ) :   1.1626 B( 17-C , 18-C ) :   1.6503
B( 17-C , 33-H ) :   0.9702 B( 18-C , 19-C ) :   1.1793 B( 18-C , 21-H ) :   0.9944
B( 19-C , 20-C ) :   1.6232 B( 19-C , 22-C ) :   1.0603 B( 22-C , 23-H ) :   0.9220
B( 22-C , 24-H ) :   0.9286 B( 22-C , 25-C ) :   1.0475 B( 25-C , 26-H ) :   0.9598
B( 25-C , 27-H ) :   0.9600 B( 25-C , 28-C ) :   1.0753 B( 28-C , 29-H ) :   0.9736
B( 28-C , 30-H ) :   0.9775 B( 28-C , 31-H ) :   0.9767

Dispersion correction           -0.013931348
FINAL SINGLE POINT ENERGY     -1339.874770588292

DIPOLE MOMENT
-------------
                                X             Y             Z
Electronic contribution:     19.38594      -5.25121     -10.19406
Nuclear contribution   :    -19.86617       5.50811      10.41078
                        -----------------------------------------
Total Dipole Moment    :     -0.48023       0.25690       0.21671
                        -----------------------------------------
Magnitude (a.u.)       :      0.58616
Magnitude (Debye)      :      1.48991

Rotational constants in cm-1:     0.017960     0.008180     0.006916
Rotational constants in MHz :   538.414083   245.244161   207.349243

                             ****ORCA TERMINATED NORMALLY****
TOTAL RUN TIME: 0 days 0 hours 0 minutes 30 seconds 223 msec
