                         Program Version 4.2.1 -  RELEASE  -
|  1> ! wB97X-D3 SP def2-SVP
|  2> %pal
|  3> nprocs 16
|  4> end
|  5>
|  6> * xyz 0 1
|  7> S 	 -53.2003 	 38.0458 	 108.466
|  8> C 	 -51.5456 	 38.3561 	 107.844
|  9> C 	 -50.6748 	 37.578 	 108.547
| 10> C 	 -51.3198 	 36.7722 	 109.588
| 11> C 	 -52.7072 	 36.9365 	 109.656
| 12> H 	 -50.9363 	 35.9638 	 110.305
| 13> C 	 -49.2924 	 37.3219 	 108.143
| 14> H 	 -49.2277 	 37.7438 	 107.098
| 15> H 	 -49.2343 	 36.2639 	 108.069
| 16> C 	 -48.2336 	 37.9095 	 109.069
| 17> H 	 -48.5712 	 38.8443 	 109.485
| 18> H 	 -48.2665 	 37.2345 	 109.903
| 19> C 	 -46.8411 	 37.8654 	 108.419
| 20> H 	 -46.0186 	 37.7978 	 109.101
| 21> H 	 -46.7226 	 37.1157 	 107.668
| 22> H 	 -46.8968 	 38.837 	 107.84
| 23> S 	 -53.7752 	 36.9796 	 112.206
| 24> C 	 -54.885 	 35.7716 	 112.724
| 25> C 	 -55.3271 	 35.0876 	 111.58
| 26> C 	 -54.6503 	 35.3515 	 110.353
| 27> C 	 -53.699 	 36.3028 	 110.564
| 28> H 	 -56.0127 	 34.2252 	 111.764
| 29> C 	 -54.7222 	 34.6132 	 109.091
| 30> H 	 -54.3788 	 35.2624 	 108.275
| 31> H 	 -55.7955 	 34.5696 	 108.799
| 32> C 	 -54.0636 	 33.2173 	 109.007
| 33> H 	 -54.6904 	 32.7007 	 108.266
| 34> H 	 -54.0446 	 32.6424 	 109.913
| 35> C 	 -52.6333 	 33.2148 	 108.494
| 36> H 	 -52.1307 	 32.3346 	 108.315
| 37> H 	 -52.016 	 33.9833 	 108.998
| 38> H 	 -52.6839 	 33.5721 	 107.468
| 39> H 	 -51.2481 	 38.8039 	 106.935
| 40> H 	 -55.3475 	 35.7634 	 113.742
| 41> *
| 42>
| 43>                          ****END OF INPUT****

CARTESIAN COORDINATES (ANGSTROEM)
---------------------------------
  S    -53.200300   38.045800  108.466000
  C    -51.545600   38.356100  107.844000
  C    -50.674800   37.578000  108.547000
  C    -51.319800   36.772200  109.588000
  C    -52.707200   36.936500  109.656000
  H    -50.936300   35.963800  110.305000
  C    -49.292400   37.321900  108.143000
  H    -49.227700   37.743800  107.098000
  H    -49.234300   36.263900  108.069000
  C    -48.233600   37.909500  109.069000
  H    -48.571200   38.844300  109.485000
  H    -48.266500   37.234500  109.903000
  C    -46.841100   37.865400  108.419000
  H    -46.018600   37.797800  109.101000
  H    -46.722600   37.115700  107.668000
  H    -46.896800   38.837000  107.840000
  S    -53.775200   36.979600  112.206000
  C    -54.885000   35.771600  112.724000
  C    -55.327100   35.087600  111.580000
  C    -54.650300   35.351500  110.353000
  C    -53.699000   36.302800  110.564000
  H    -56.012700   34.225200  111.764000
  C    -54.722200   34.613200  109.091000
  H    -54.378800   35.262400  108.275000
  H    -55.795500   34.569600  108.799000
  C    -54.063600   33.217300  109.007000
  H    -54.690400   32.700700  108.266000
  H    -54.044600   32.642400  109.913000
  C    -52.633300   33.214800  108.494000
  H    -52.130700   32.334600  108.315000
  H    -52.016000   33.983300  108.998000
  H    -52.683900   33.572100  107.468000
  H    -51.248100   38.803900  106.935000
  H    -55.347500   35.763400  113.742000

 Total Charge           Charge          ....    0
 Multiplicity           Mult            ....    1
 Number of Electrons    NEL             ....  134
 Basis Dimension        Dim             ....  322

ORBITAL ENERGIES
----------------

  NO   OCC          E(Eh)            E(eV)
   0   2.0000     -88.963745     -2420.8266
   1   2.0000     -88.963412     -2420.8175
   2   2.0000     -10.330208      -281.0992
   3   2.0000     -10.327568      -281.0274
   4   2.0000     -10.322937      -280.9014
   5   2.0000     -10.312285      -280.6115
   6   2.0000     -10.302563      -280.3470
   7   2.0000     -10.302399      -280.3425
   8   2.0000     -10.300817      -280.2995
   9   2.0000     -10.299130      -280.2536
  10   2.0000     -10.292138      -280.0633
  11   2.0000     -10.287493      -279.9369
  12   2.0000     -10.286410      -279.9075
  13   2.0000     -10.282267      -279.7947
  14   2.0000     -10.279960      -279.7319
  15   2.0000     -10.266716      -279.3716
  16   2.0000      -8.078473      -219.8264
  17   2.0000      -8.078394      -219.8243
  18   2.0000      -6.036968      -164.2742
  19   2.0000      -6.036908      -164.2726
  20   2.0000      -6.032836      -164.1618
  21   2.0000      -6.032759      -164.1597
  22   2.0000      -6.029368      -164.0675
  23   2.0000      -6.029206      -164.0630
  24   2.0000      -1.008570       -27.4446
  25   2.0000      -0.986956       -26.8564
  26   2.0000      -0.920740       -25.0546
  27   2.0000      -0.912866       -24.8403
  28   2.0000      -0.870112       -23.6770
  29   2.0000      -0.855609       -23.2823
  30   2.0000      -0.841157       -22.8890
  31   2.0000      -0.810583       -22.0571
  32   2.0000      -0.785495       -21.3744
  33   2.0000      -0.776146       -21.1200
  34   2.0000      -0.710048       -19.3214
  35   2.0000      -0.705984       -19.2108
  36   2.0000      -0.695688       -18.9306
  37   2.0000      -0.658413       -17.9163
  38   2.0000      -0.639486       -17.4013
  39   2.0000      -0.612192       -16.6586
  40   2.0000      -0.598090       -16.2749
  41   2.0000      -0.574210       -15.6250
  42   2.0000      -0.563700       -15.3390
  43   2.0000      -0.557217       -15.1626
  44   2.0000      -0.533947       -14.5294
  45   2.0000      -0.526248       -14.3199
  46   2.0000      -0.524480       -14.2718
  47   2.0000      -0.513612       -13.9761
  48   2.0000      -0.506874       -13.7927
  49   2.0000      -0.504579       -13.7303
  50   2.0000      -0.488822       -13.3015
  51   2.0000      -0.485059       -13.1991
  52   2.0000      -0.470651       -12.8071
  53   2.0000      -0.464062       -12.6278
  54   2.0000      -0.459621       -12.5069
  55   2.0000      -0.449091       -12.2204
  56   2.0000      -0.446674       -12.1546
  57   2.0000      -0.437632       -11.9086
  58   2.0000      -0.428526       -11.6608
  59   2.0000      -0.419991       -11.4285
  60   2.0000      -0.413304       -11.2466
  61   2.0000      -0.408264       -11.1094
  62   2.0000      -0.407712       -11.0944
  63   2.0000      -0.335083        -9.1181
  64   2.0000      -0.330258        -8.9868
  65   2.0000      -0.322264        -8.7693
  66   2.0000      -0.312533        -8.5045
  67   0.0000       0.037533         1.0213
  68   0.0000       0.062187         1.6922
  69   0.0000       0.106863         2.9079
  70   0.0000       0.114784         3.1234
  71   0.0000       0.134538         3.6610

MULLIKEN ATOMIC CHARGES
-----------------------
   0 S :    0.104262
   1 C :   -0.096587
   2 C :   -0.107088
   3 C :    0.024561
   4 C :   -0.184972
   5 H :    0.046318
   6 C :    0.043196
   7 H :    0.013336
   8 H :    0.030814
   9 C :   -0.052936
  10 H :    0.033159
  11 H :    0.013579
  12 C :   -0.030585
  13 H :    0.039783
  14 H :    0.026352
  15 H :    0.038868
  16 S :    0.115030
  17 C :   -0.117294
  18 C :   -0.066200
  19 C :    0.017305
  20 C :   -0.196309
  21 H :    0.032773
  22 C :    0.054939
  23 H :    0.016827
  24 H :    0.028546
  25 C :   -0.036085
  26 H :    0.028040
  27 H :    0.030953
  28 C :   -0.020983
  29 H :    0.017481
  30 H :    0.026417
  31 H :    0.006579
  32 H :    0.035104
  33 H :    0.084818
Sum of atomic charges:    0.0000000

LOEWDIN ATOMIC CHARGES
----------------------
   0 S :    0.410073
   1 C :   -0.185783
   2 C :   -0.060645
   3 C :   -0.080038
   4 C :   -0.213646
   5 H :    0.044454
   6 C :   -0.031623
   7 H :    0.028692
   8 H :    0.030459
   9 C :   -0.036776
  10 H :    0.024023
  11 H :    0.018873
  12 C :   -0.061933
  13 H :    0.023280
  14 H :    0.021593
  15 H :    0.037970
  16 S :    0.410452
  17 C :   -0.202914
  18 C :   -0.079295
  19 C :   -0.060593
  20 C :   -0.191892
  21 H :    0.034515
  22 C :   -0.037134
  23 H :    0.032061
  24 H :    0.039403
  25 C :   -0.032365
  26 H :    0.028666
  27 H :    0.022275
  28 C :   -0.067710
  29 H :    0.015013
  30 H :    0.027470
  31 H :    0.025317
  32 H :    0.024134
  33 H :    0.043625

  Mayer bond orders larger than 0.100000
B(  0-S ,  1-C ) :   1.1143 B(  0-S ,  4-C ) :   1.1683 B(  1-C ,  2-C ) :   1.6385
B(  1-C , 32-H ) :   0.9700 B(  2-C ,  3-C ) :   1.1986 B(  2-C ,  6-C ) :   1.0316
B(  3-C ,  4-C ) :   1.6059 B(  3-C ,  5-H ) :   0.9726 B(  4-C , 20-C ) :   0.9807
B(  6-C ,  7-H ) :   0.9456 B(  6-C ,  8-H ) :   0.9344 B(  6-C ,  9-C ) :   1.0480
B(  9-C , 10-H ) :   0.9671 B(  9-C , 11-H ) :   0.9512 B(  9-C , 12-C ) :   1.0616
B( 12-C , 13-H ) :   0.9768 B( 12-C , 14-H ) :   0.9752 B( 12-C , 15-H ) :   0.9790
B( 16-S , 17-C ) :   1.1646 B( 16-S , 20-C ) :   1.1594 B( 17-C , 18-C ) :   1.5955
B( 17-C , 20-C ) :   0.1033 B( 17-C , 33-H ) :   0.9630 B( 18-C , 19-C ) :   1.2295
B( 18-C , 21-H ) :   0.9809 B( 19-C , 20-C ) :   1.5956 B( 19-C , 22-C ) :   1.0773
B( 22-C , 23-H ) :   0.9157 B( 22-C , 24-H ) :   0.9239 B( 22-C , 25-C ) :   1.0463
B( 25-C , 26-H ) :   0.9553 B( 25-C , 27-H ) :   0.9631 B( 25-C , 28-C ) :   1.0844
B( 28-C , 29-H ) :   0.9718 B( 28-C , 30-H ) :   0.9711 B( 28-C , 31-H ) :   0.9674

Dispersion correction           -0.014992799
FINAL SINGLE POINT ENERGY     -1339.856670503195

DIPOLE MOMENT
-------------
                                X             Y             Z
Electronic contribution:    -18.59657      11.72042      11.36582
Nuclear contribution   :     18.84358     -12.24040     -11.59729
                        -----------------------------------------
Total Dipole Moment    :      0.24701      -0.51997      -0.23147
                        -----------------------------------------
Magnitude (a.u.)       :      0.62046
Magnitude (Debye)      :      1.57707

Rotational constants in cm-1:     0.020762     0.007905     0.007147
Rotational constants in MHz :   622.421192   236.999136   214.267813

                             ****ORCA TERMINATED NORMALLY****
TOTAL RUN TIME: 0 days 0 hours 0 minutes 29 seconds 64 msec
