                         Program Version 4.2.1 -  RELEASE  -
|  1> ! wB97X-D3 SP def2-SVP
|  2> %pal
|  3> nprocs 16
|  4> end
|  5>
|  6> * xyz 0 1
|  7> S 	 -102.353 	 46.4819 	 124.048
|  8> C 	 -104.025 	 46.3238 	 124.549
|  9> C 	 -104.882 	 45.9191 	 123.506
| 10> C 	 -104.128 	 45.6842 	 122.282
| 11> C 	 -102.813 	 46.0907 	 122.426
| 12> H 	 -104.494 	 45.3273 	 121.324
| 13> C 	 -106.382 	 45.8226 	 123.6
| 14> H 	 -106.83 	 46.7771 	 123.88
| 15> H 	 -106.377 	 45.2332 	 124.495
| 16> C 	 -107.156 	 45.29 	 122.383
| 17> H 	 -107.051 	 45.9788 	 121.531
| 18> H 	 -106.663 	 44.3061 	 122.04
| 19> C 	 -108.555 	 44.9991 	 122.775
| 20> H 	 -109.018 	 44.479 	 121.928
| 21> H 	 -108.622 	 44.227 	 123.486
| 22> H 	 -109.183 	 45.8526 	 123.081
| 23> S 	 -100.622 	 47.3811 	 121.185
| 24> C 	 -100.058 	 46.6849 	 119.668
| 25> C 	 -100.637 	 45.4934 	 119.45
| 26> C 	 -101.576 	 45.0742 	 120.363
| 27> C 	 -101.81 	 46.1125 	 121.295
| 28> H 	 -100.33 	 44.953 	 118.631
| 29> C 	 -102.368 	 43.7603 	 120.212
| 30> H 	 -103.147 	 43.6789 	 121.045
| 31> H 	 -101.731 	 42.8948 	 120.135
| 32> C 	 -103.106 	 43.5784 	 118.899
| 33> H 	 -103.497 	 42.5746 	 118.828
| 34> H 	 -102.397 	 43.6745 	 118.039
| 35> C 	 -104.298 	 44.6134 	 118.708
| 36> H 	 -105.233 	 44.3797 	 119.173
| 37> H 	 -104.59 	 44.7871 	 117.648
| 38> H 	 -104.018 	 45.6836 	 118.915
| 39> H 	 -104.376 	 46.5258 	 125.536
| 40> H 	 -99.2184 	 46.9999 	 119.13
| 41> *
| 42>
| 43>                          ****END OF INPUT****

CARTESIAN COORDINATES (ANGSTROEM)
---------------------------------
  S    -102.353000   46.481900  124.048000
  C    -104.025000   46.323800  124.549000
  C    -104.882000   45.919100  123.506000
  C    -104.128000   45.684200  122.282000
  C    -102.813000   46.090700  122.426000
  H    -104.494000   45.327300  121.324000
  C    -106.382000   45.822600  123.600000
  H    -106.830000   46.777100  123.880000
  H    -106.377000   45.233200  124.495000
  C    -107.156000   45.290000  122.383000
  H    -107.051000   45.978800  121.531000
  H    -106.663000   44.306100  122.040000
  C    -108.555000   44.999100  122.775000
  H    -109.018000   44.479000  121.928000
  H    -108.622000   44.227000  123.486000
  H    -109.183000   45.852600  123.081000
  S    -100.622000   47.381100  121.185000
  C    -100.058000   46.684900  119.668000
  C    -100.637000   45.493400  119.450000
  C    -101.576000   45.074200  120.363000
  C    -101.810000   46.112500  121.295000
  H    -100.330000   44.953000  118.631000
  C    -102.368000   43.760300  120.212000
  H    -103.147000   43.678900  121.045000
  H    -101.731000   42.894800  120.135000
  C    -103.106000   43.578400  118.899000
  H    -103.497000   42.574600  118.828000
  H    -102.397000   43.674500  118.039000
  C    -104.298000   44.613400  118.708000
  H    -105.233000   44.379700  119.173000
  H    -104.590000   44.787100  117.648000
  H    -104.018000   45.683600  118.915000
  H    -104.376000   46.525800  125.536000
  H    -99.218400   46.999900  119.130000

 Total Charge           Charge          ....    0
 Multiplicity           Mult            ....    1
 Number of Electrons    NEL             ....  134
 Basis Dimension        Dim             ....  322

ORBITAL ENERGIES
----------------

  NO   OCC          E(Eh)            E(eV)
   0   2.0000     -88.967286     -2420.9229
   1   2.0000     -88.967198     -2420.9205
   2   2.0000     -10.329929      -281.0917
   3   2.0000     -10.328278      -281.0467
   4   2.0000     -10.308803      -280.5168
   5   2.0000     -10.307070      -280.4696
   6   2.0000     -10.304356      -280.3958
   7   2.0000     -10.299697      -280.2690
   8   2.0000     -10.296450      -280.1806
   9   2.0000     -10.296201      -280.1739
  10   2.0000     -10.295036      -280.1422
  11   2.0000     -10.292507      -280.0734
  12   2.0000     -10.288501      -279.9643
  13   2.0000     -10.281852      -279.7834
  14   2.0000     -10.278604      -279.6950
  15   2.0000     -10.275881      -279.6209
  16   2.0000      -8.082011      -219.9227
  17   2.0000      -8.081780      -219.9164
  18   2.0000      -6.040503      -164.3704
  19   2.0000      -6.040137      -164.3605
  20   2.0000      -6.036616      -164.2647
  21   2.0000      -6.036436      -164.2598
  22   2.0000      -6.032724      -164.1588
  23   2.0000      -6.032609      -164.1556
  24   2.0000      -1.005766       -27.3683
  25   2.0000      -0.983881       -26.7728
  26   2.0000      -0.917378       -24.9631
  27   2.0000      -0.907579       -24.6965
  28   2.0000      -0.867985       -23.6191
  29   2.0000      -0.850401       -23.1406
  30   2.0000      -0.845595       -23.0098
  31   2.0000      -0.815441       -22.1893
  32   2.0000      -0.784520       -21.3479
  33   2.0000      -0.773171       -21.0391
  34   2.0000      -0.712608       -19.3910
  35   2.0000      -0.697215       -18.9722
  36   2.0000      -0.689448       -18.7608
  37   2.0000      -0.656193       -17.8559
  38   2.0000      -0.637828       -17.3562
  39   2.0000      -0.619805       -16.8658
  40   2.0000      -0.599046       -16.3009
  41   2.0000      -0.576878       -15.6977
  42   2.0000      -0.561855       -15.2889
  43   2.0000      -0.552701       -15.0398
  44   2.0000      -0.544280       -14.8106
  45   2.0000      -0.524035       -14.2597
  46   2.0000      -0.517291       -14.0762
  47   2.0000      -0.510728       -13.8976
  48   2.0000      -0.502507       -13.6739
  49   2.0000      -0.494699       -13.4614
  50   2.0000      -0.484347       -13.1797
  51   2.0000      -0.478098       -13.0097
  52   2.0000      -0.475677       -12.9438
  53   2.0000      -0.469489       -12.7754
  54   2.0000      -0.461717       -12.5640
  55   2.0000      -0.451516       -12.2864
  56   2.0000      -0.445318       -12.1177
  57   2.0000      -0.432694       -11.7742
  58   2.0000      -0.428392       -11.6571
  59   2.0000      -0.426896       -11.6164
  60   2.0000      -0.423011       -11.5107
  61   2.0000      -0.416145       -11.3239
  62   2.0000      -0.415912       -11.3175
  63   2.0000      -0.346208        -9.4208
  64   2.0000      -0.334106        -9.0915
  65   2.0000      -0.325236        -8.8501
  66   2.0000      -0.284743        -7.7482
  67   0.0000       0.029560         0.8044
  68   0.0000       0.075560         2.0561
  69   0.0000       0.108896         2.9632
  70   0.0000       0.122617         3.3366
  71   0.0000       0.129694         3.5292

MULLIKEN ATOMIC CHARGES
-----------------------
   0 S :    0.122299
   1 C :   -0.127136
   2 C :   -0.078309
   3 C :    0.001754
   4 C :   -0.118707
   5 H :   -0.014879
   6 C :    0.053438
   7 H :    0.038164
   8 H :    0.028816
   9 C :   -0.113200
  10 H :    0.046687
  11 H :    0.037826
  12 C :    0.000274
  13 H :    0.021936
  14 H :    0.014315
  15 H :    0.041989
  16 S :    0.106493
  17 C :   -0.061118
  18 C :   -0.012060
  19 C :   -0.005796
  20 C :   -0.174763
  21 H :   -0.019747
  22 C :    0.069080
  23 H :    0.045815
  24 H :    0.027670
  25 C :   -0.079906
  26 H :    0.032542
  27 H :    0.033138
  28 C :   -0.093084
  29 H :    0.038219
  30 H :    0.025956
  31 H :    0.050256
  32 H :    0.029264
  33 H :    0.032774
Sum of atomic charges:   -0.0000000

LOEWDIN ATOMIC CHARGES
----------------------
   0 S :    0.412360
   1 C :   -0.209539
   2 C :   -0.049007
   3 C :   -0.072550
   4 C :   -0.189946
   5 H :    0.027951
   6 C :   -0.040792
   7 H :    0.035270
   8 H :    0.035570
   9 C :   -0.045635
  10 H :    0.028150
  11 H :    0.031655
  12 C :   -0.064265
  13 H :    0.030554
  14 H :    0.020808
  15 H :    0.029576
  16 S :    0.404203
  17 C :   -0.173856
  18 C :   -0.062268
  19 C :   -0.058646
  20 C :   -0.193904
  21 H :    0.018507
  22 C :   -0.033871
  23 H :    0.040363
  24 H :    0.033283
  25 C :   -0.036588
  26 H :    0.024564
  27 H :    0.025215
  28 C :   -0.088988
  29 H :    0.018282
  30 H :    0.030503
  31 H :    0.034497
  32 H :    0.018626
  33 H :    0.019919

  Mayer bond orders larger than 0.100000
B(  0-S ,  1-C ) :   1.1247 B(  0-S ,  4-C ) :   1.1681 B(  1-C ,  2-C ) :   1.6169
B(  1-C , 32-H ) :   0.9755 B(  2-C ,  3-C ) :   1.2318 B(  2-C ,  6-C ) :   0.9884
B(  3-C ,  4-C ) :   1.5694 B(  3-C ,  5-H ) :   0.9821 B(  4-C , 20-C ) :   1.0193
B(  6-C ,  7-H ) :   0.9375 B(  6-C ,  8-H ) :   0.9382 B(  6-C ,  9-C ) :   1.0823
B(  9-C , 10-H ) :   0.9474 B(  9-C , 11-H ) :   0.9480 B(  9-C , 12-C ) :   1.0936
B( 12-C , 13-H ) :   0.9657 B( 12-C , 14-H ) :   0.9698 B( 12-C , 15-H ) :   0.9709
B( 16-S , 17-C ) :   1.1373 B( 16-S , 20-C ) :   1.1669 B( 17-C , 18-C ) :   1.6126
B( 17-C , 20-C ) :   0.1011 B( 17-C , 33-H ) :   0.9721 B( 18-C , 19-C ) :   1.2634
B( 18-C , 21-H ) :   1.0001 B( 19-C , 20-C ) :   1.5407 B( 19-C , 22-C ) :   1.0451
B( 22-C , 23-H ) :   0.9346 B( 22-C , 24-H ) :   0.9278 B( 22-C , 25-C ) :   1.0749
B( 25-C , 26-H ) :   0.9564 B( 25-C , 27-H ) :   0.9559 B( 25-C , 28-C ) :   1.0639
B( 28-C , 29-H ) :   0.9687 B( 28-C , 30-H ) :   0.9702 B( 28-C , 31-H ) :   0.9682

Dispersion correction           -0.015072031
FINAL SINGLE POINT ENERGY     -1339.863603452692

DIPOLE MOMENT
-------------
                                X             Y             Z
Electronic contribution:     26.74420      13.82468      10.91247
Nuclear contribution   :    -27.22833     -14.28248     -11.26066
                        -----------------------------------------
Total Dipole Moment    :     -0.48413      -0.45780      -0.34818
                        -----------------------------------------
Magnitude (a.u.)       :      0.75180
Magnitude (Debye)      :      1.91091

Rotational constants in cm-1:     0.018491     0.009582     0.006856
Rotational constants in MHz :   554.334051   287.260519   205.527045

                             ****ORCA TERMINATED NORMALLY****
TOTAL RUN TIME: 0 days 0 hours 0 minutes 35 seconds 996 msec
