                         Program Version 4.2.1 -  RELEASE  -
|  1> ! wB97X-D3 SP def2-SVP
|  2> %pal
|  3> nprocs 16
|  4> end
|  5>
|  6> * xyz 0 1
|  7> S 	 25.0712 	 -8.37609 	 76.9162
|  8> C 	 26.2306 	 -8.86754 	 75.6244
|  9> C 	 27.1944 	 -9.72873 	 76.2092
| 10> C 	 26.842 	 -10.0339 	 77.5617
| 11> C 	 25.6909 	 -9.4617 	 78.0533
| 12> H 	 27.4177 	 -10.6932 	 78.2551
| 13> C 	 28.4056 	 -10.4534 	 75.5575
| 14> H 	 28.7762 	 -11.2815 	 76.2398
| 15> H 	 29.1502 	 -9.72908 	 75.2193
| 16> C 	 28.0472 	 -10.9478 	 74.1127
| 17> H 	 27.444 	 -11.9104 	 74.2349
| 18> H 	 27.4154 	 -10.2114 	 73.6637
| 19> C 	 29.3529 	 -11.2192 	 73.3067
| 20> H 	 30.0499 	 -11.8901 	 73.8211
| 21> H 	 28.9948 	 -11.8583 	 72.4259
| 22> H 	 29.8325 	 -10.2327 	 73.0913
| 23> S 	 23.7939 	 -10.537 	 79.7347
| 24> C 	 23.8203 	 -10.1478 	 81.4155
| 25> C 	 24.7553 	 -9.16731 	 81.6989
| 26> C 	 25.5482 	 -8.80212 	 80.5883
| 27> C 	 25.2105 	 -9.52639 	 79.4489
| 28> H 	 24.8817 	 -8.75797 	 82.7277
| 29> C 	 26.6618 	 -7.80205 	 80.6717
| 30> H 	 26.2888 	 -6.83568 	 80.5459
| 31> H 	 27.3105 	 -8.01441 	 79.8211
| 32> C 	 27.4134 	 -7.67041 	 81.9925
| 33> H 	 28.0307 	 -8.56868 	 82.1417
| 34> H 	 26.7625 	 -7.5552 	 82.8158
| 35> C 	 28.3456 	 -6.42827 	 81.9429
| 36> H 	 29.1103 	 -6.56443 	 81.1385
| 37> H 	 29.0849 	 -6.34043 	 82.7545
| 38> H 	 27.778 	 -5.52494 	 81.9452
| 39> H 	 26.3835 	 -8.28748 	 74.7264
| 40> H 	 23.0879 	 -10.5425 	 82.1296
| 41> *
| 42>
| 43>                          ****END OF INPUT****

CARTESIAN COORDINATES (ANGSTROEM)
---------------------------------
  S     25.071200   -8.376090   76.916200
  C     26.230600   -8.867540   75.624400
  C     27.194400   -9.728730   76.209200
  C     26.842000  -10.033900   77.561700
  C     25.690900   -9.461700   78.053300
  H     27.417700  -10.693200   78.255100
  C     28.405600  -10.453400   75.557500
  H     28.776200  -11.281500   76.239800
  H     29.150200   -9.729080   75.219300
  C     28.047200  -10.947800   74.112700
  H     27.444000  -11.910400   74.234900
  H     27.415400  -10.211400   73.663700
  C     29.352900  -11.219200   73.306700
  H     30.049900  -11.890100   73.821100
  H     28.994800  -11.858300   72.425900
  H     29.832500  -10.232700   73.091300
  S     23.793900  -10.537000   79.734700
  C     23.820300  -10.147800   81.415500
  C     24.755300   -9.167310   81.698900
  C     25.548200   -8.802120   80.588300
  C     25.210500   -9.526390   79.448900
  H     24.881700   -8.757970   82.727700
  C     26.661800   -7.802050   80.671700
  H     26.288800   -6.835680   80.545900
  H     27.310500   -8.014410   79.821100
  C     27.413400   -7.670410   81.992500
  H     28.030700   -8.568680   82.141700
  H     26.762500   -7.555200   82.815800
  C     28.345600   -6.428270   81.942900
  H     29.110300   -6.564430   81.138500
  H     29.084900   -6.340430   82.754500
  H     27.778000   -5.524940   81.945200
  H     26.383500   -8.287480   74.726400
  H     23.087900  -10.542500   82.129600

 Total Charge           Charge          ....    0
 Multiplicity           Mult            ....    1
 Number of Electrons    NEL             ....  134
 Basis Dimension        Dim             ....  322

ORBITAL ENERGIES
----------------

  NO   OCC          E(Eh)            E(eV)
   0   2.0000     -88.965430     -2420.8724
   1   2.0000     -88.964806     -2420.8555
   2   2.0000     -10.325599      -280.9738
   3   2.0000     -10.324108      -280.9333
   4   2.0000     -10.321099      -280.8514
   5   2.0000     -10.317579      -280.7556
   6   2.0000     -10.309847      -280.5452
   7   2.0000     -10.302376      -280.3419
   8   2.0000     -10.301732      -280.3244
   9   2.0000     -10.293904      -280.1114
  10   2.0000     -10.292690      -280.0783
  11   2.0000     -10.292288      -280.0674
  12   2.0000     -10.291480      -280.0454
  13   2.0000     -10.285927      -279.8943
  14   2.0000     -10.282580      -279.8032
  15   2.0000     -10.281146      -279.7642
  16   2.0000      -8.080231      -219.8743
  17   2.0000      -8.079822      -219.8631
  18   2.0000      -6.038702      -164.3214
  19   2.0000      -6.038172      -164.3070
  20   2.0000      -6.034590      -164.2095
  21   2.0000      -6.034266      -164.2007
  22   2.0000      -6.031135      -164.1155
  23   2.0000      -6.030765      -164.1055
  24   2.0000      -1.006763       -27.3954
  25   2.0000      -0.984065       -26.7778
  26   2.0000      -0.913715       -24.8635
  27   2.0000      -0.907790       -24.7022
  28   2.0000      -0.863476       -23.4964
  29   2.0000      -0.851315       -23.1655
  30   2.0000      -0.841536       -22.8993
  31   2.0000      -0.808376       -21.9970
  32   2.0000      -0.780228       -21.2311
  33   2.0000      -0.769553       -20.9406
  34   2.0000      -0.707539       -19.2531
  35   2.0000      -0.700719       -19.0675
  36   2.0000      -0.687391       -18.7049
  37   2.0000      -0.652236       -17.7483
  38   2.0000      -0.640942       -17.4409
  39   2.0000      -0.613603       -16.6970
  40   2.0000      -0.600486       -16.3400
  41   2.0000      -0.578903       -15.7527
  42   2.0000      -0.571056       -15.5392
  43   2.0000      -0.561843       -15.2885
  44   2.0000      -0.523795       -14.2532
  45   2.0000      -0.518425       -14.1071
  46   2.0000      -0.511240       -13.9116
  47   2.0000      -0.508105       -13.8262
  48   2.0000      -0.502349       -13.6696
  49   2.0000      -0.501969       -13.6593
  50   2.0000      -0.492804       -13.4099
  51   2.0000      -0.477324       -12.9886
  52   2.0000      -0.467142       -12.7116
  53   2.0000      -0.463595       -12.6151
  54   2.0000      -0.458703       -12.4820
  55   2.0000      -0.450777       -12.2663
  56   2.0000      -0.446417       -12.1476
  57   2.0000      -0.433185       -11.7876
  58   2.0000      -0.426991       -11.6190
  59   2.0000      -0.424088       -11.5400
  60   2.0000      -0.420531       -11.4432
  61   2.0000      -0.417680       -11.3656
  62   2.0000      -0.414135       -11.2692
  63   2.0000      -0.333636        -9.0787
  64   2.0000      -0.326992        -8.8979
  65   2.0000      -0.321842        -8.7578
  66   2.0000      -0.309749        -8.4287
  67   0.0000       0.043482         1.1832
  68   0.0000       0.050077         1.3627
  69   0.0000       0.115269         3.1366
  70   0.0000       0.122269         3.3271
  71   0.0000       0.130687         3.5562

MULLIKEN ATOMIC CHARGES
-----------------------
   0 S :    0.117718
   1 C :   -0.143599
   2 C :   -0.072031
   3 C :    0.006880
   4 C :   -0.156266
   5 H :    0.021665
   6 C :    0.055738
   7 H :    0.053157
   8 H :    0.026719
   9 C :   -0.124917
  10 H :    0.043982
  11 H :    0.033078
  12 C :   -0.079941
  13 H :    0.038400
  14 H :    0.050216
  15 H :    0.052492
  16 S :    0.116024
  17 C :   -0.093892
  18 C :   -0.063114
  19 C :   -0.000746
  20 C :   -0.216750
  21 H :    0.031992
  22 C :    0.129737
  23 H :    0.011061
  24 H :    0.026729
  25 C :   -0.081752
  26 H :    0.032875
  27 H :    0.024637
  28 C :   -0.066227
  29 H :    0.033376
  30 H :    0.024972
  31 H :    0.039183
  32 H :    0.064211
  33 H :    0.064392
Sum of atomic charges:   -0.0000000

LOEWDIN ATOMIC CHARGES
----------------------
   0 S :    0.422878
   1 C :   -0.201207
   2 C :   -0.056554
   3 C :   -0.076162
   4 C :   -0.225331
   5 H :    0.035598
   6 C :   -0.036190
   7 H :    0.039616
   8 H :    0.032286
   9 C :   -0.041846
  10 H :    0.029457
  11 H :    0.018074
  12 C :   -0.076875
  13 H :    0.025056
  14 H :    0.039255
  15 H :    0.030197
  16 S :    0.418616
  17 C :   -0.191429
  18 C :   -0.082456
  19 C :   -0.049481
  20 C :   -0.205645
  21 H :    0.037385
  22 C :   -0.027691
  23 H :    0.027302
  24 H :    0.035368
  25 C :   -0.032983
  26 H :    0.026252
  27 H :    0.014934
  28 C :   -0.069737
  29 H :    0.032184
  30 H :    0.027269
  31 H :    0.021563
  32 H :    0.027312
  33 H :    0.032984

  Mayer bond orders larger than 0.100000
B(  0-S ,  1-C ) :   1.1429 B(  0-S ,  4-C ) :   1.1815 B(  1-C ,  2-C ) :   1.5717
B(  1-C ,  4-C ) :   0.1041 B(  1-C , 32-H ) :   0.9633 B(  2-C ,  3-C ) :   1.2727
B(  2-C ,  6-C ) :   1.0130 B(  3-C ,  4-C ) :   1.5690 B(  3-C ,  5-H ) :   0.9883
B(  4-C , 20-C ) :   0.9925 B(  6-C ,  7-H ) :   0.9520 B(  6-C ,  8-H ) :   0.9368
B(  6-C ,  9-C ) :   1.0421 B(  9-C , 10-H ) :   0.9583 B(  9-C , 11-H ) :   0.9598
B(  9-C , 12-C ) :   1.0713 B( 12-C , 13-H ) :   0.9754 B( 12-C , 14-H ) :   0.9735
B( 12-C , 15-H ) :   0.9722 B( 16-S , 17-C ) :   1.1777 B( 16-S , 20-C ) :   1.1543
B( 17-C , 18-C ) :   1.5853 B( 17-C , 20-C ) :   0.1041 B( 17-C , 33-H ) :   0.9643
B( 18-C , 19-C ) :   1.2613 B( 18-C , 21-H ) :   0.9818 B( 19-C , 20-C ) :   1.5919
B( 19-C , 22-C ) :   1.0368 B( 22-C , 23-H ) :   0.9183 B( 22-C , 24-H ) :   0.9296
B( 22-C , 25-C ) :   1.0651 B( 25-C , 26-H ) :   0.9570 B( 25-C , 27-H ) :   0.9503
B( 25-C , 28-C ) :   1.0902 B( 28-C , 29-H ) :   0.9730 B( 28-C , 30-H ) :   0.9728
B( 28-C , 31-H ) :   0.9761

Dispersion correction           -0.013295867
FINAL SINGLE POINT ENERGY     -1339.866786611266

DIPOLE MOMENT
-------------
                                X             Y             Z
Electronic contribution:    -24.50174      -2.86137       3.38051
Nuclear contribution   :     25.10020       2.99387      -3.19469
                        -----------------------------------------
Total Dipole Moment    :      0.59846       0.13249       0.18581
                        -----------------------------------------
Magnitude (a.u.)       :      0.64050
Magnitude (Debye)      :      1.62802

Rotational constants in cm-1:     0.019656     0.007101     0.005966
Rotational constants in MHz :   589.266382   212.868849   178.861880

                             ****ORCA TERMINATED NORMALLY****
TOTAL RUN TIME: 0 days 0 hours 0 minutes 28 seconds 138 msec
