                         Program Version 4.2.1 -  RELEASE  -
|  1> ! wB97X-D3 SP def2-SVP
|  2> %pal
|  3> nprocs 16
|  4> end
|  5>
|  6> * xyz 0 1
|  7> S 	 16.138 	 -8.3279 	 82.9102
|  8> C 	 15.8036 	 -9.4858 	 81.6034
|  9> C 	 15.9589 	 -10.771 	 82.0279
| 10> C 	 16.3967 	 -10.8276 	 83.4161
| 11> C 	 16.4687 	 -9.59124 	 84.0337
| 12> H 	 16.6268 	 -11.6879 	 84.0558
| 13> C 	 15.8124 	 -11.9529 	 81.0231
| 14> H 	 16.758 	 -12.0645 	 80.574
| 15> H 	 15.1281 	 -11.64 	 80.1985
| 16> C 	 15.2985 	 -13.2627 	 81.7077
| 17> H 	 16.0753 	 -13.6599 	 82.4183
| 18> H 	 14.5105 	 -12.9455 	 82.3567
| 19> C 	 14.8285 	 -14.4191 	 80.7206
| 20> H 	 14.7632 	 -15.2883 	 81.3766
| 21> H 	 13.8623 	 -14.0809 	 80.3612
| 22> H 	 15.568 	 -14.5794 	 79.8936
| 23> S 	 15.4525 	 -9.49093 	 86.676
| 24> C 	 16.5654 	 -9.12136 	 87.9185
| 25> C 	 17.8752 	 -9.29633 	 87.5013
| 26> C 	 18.0109 	 -9.26089 	 86.0758
| 27> C 	 16.773 	 -9.33932 	 85.4197
| 28> H 	 18.6798 	 -9.28795 	 88.2196
| 29> C 	 19.3289 	 -9.19163 	 85.3502
| 30> H 	 19.133 	 -8.87473 	 84.3891
| 31> H 	 19.6931 	 -10.1703 	 85.3308
| 32> C 	 20.4617 	 -8.49277 	 86.0519
| 33> H 	 20.7038 	 -8.94084 	 87.0168
| 34> H 	 20.0753 	 -7.4386 	 86.1997
| 35> C 	 21.7604 	 -8.41956 	 85.1597
| 36> H 	 22.4474 	 -7.72845 	 85.5481
| 37> H 	 21.4759 	 -8.23289 	 84.1163
| 38> H 	 22.2229 	 -9.35802 	 85.2264
| 39> H 	 15.5843 	 -9.24861 	 80.5228
| 40> H 	 16.3125 	 -9.04154 	 88.9835
| 41> *
| 42>
| 43>                          ****END OF INPUT****

CARTESIAN COORDINATES (ANGSTROEM)
---------------------------------
  S     16.138000   -8.327900   82.910200
  C     15.803600   -9.485800   81.603400
  C     15.958900  -10.771000   82.027900
  C     16.396700  -10.827600   83.416100
  C     16.468700   -9.591240   84.033700
  H     16.626800  -11.687900   84.055800
  C     15.812400  -11.952900   81.023100
  H     16.758000  -12.064500   80.574000
  H     15.128100  -11.640000   80.198500
  C     15.298500  -13.262700   81.707700
  H     16.075300  -13.659900   82.418300
  H     14.510500  -12.945500   82.356700
  C     14.828500  -14.419100   80.720600
  H     14.763200  -15.288300   81.376600
  H     13.862300  -14.080900   80.361200
  H     15.568000  -14.579400   79.893600
  S     15.452500   -9.490930   86.676000
  C     16.565400   -9.121360   87.918500
  C     17.875200   -9.296330   87.501300
  C     18.010900   -9.260890   86.075800
  C     16.773000   -9.339320   85.419700
  H     18.679800   -9.287950   88.219600
  C     19.328900   -9.191630   85.350200
  H     19.133000   -8.874730   84.389100
  H     19.693100  -10.170300   85.330800
  C     20.461700   -8.492770   86.051900
  H     20.703800   -8.940840   87.016800
  H     20.075300   -7.438600   86.199700
  C     21.760400   -8.419560   85.159700
  H     22.447400   -7.728450   85.548100
  H     21.475900   -8.232890   84.116300
  H     22.222900   -9.358020   85.226400
  H     15.584300   -9.248610   80.522800
  H     16.312500   -9.041540   88.983500

 Total Charge           Charge          ....    0
 Multiplicity           Mult            ....    1
 Number of Electrons    NEL             ....  134
 Basis Dimension        Dim             ....  322

ORBITAL ENERGIES
----------------

  NO   OCC          E(Eh)            E(eV)
   0   2.0000     -88.963139     -2420.8101
   1   2.0000     -88.962162     -2420.7835
   2   2.0000     -10.325257      -280.9645
   3   2.0000     -10.324300      -280.9385
   4   2.0000     -10.317654      -280.7576
   5   2.0000     -10.315918      -280.7104
   6   2.0000     -10.306423      -280.4520
   7   2.0000     -10.303867      -280.3825
   8   2.0000     -10.297536      -280.2102
   9   2.0000     -10.296259      -280.1755
  10   2.0000     -10.291977      -280.0589
  11   2.0000     -10.291462      -280.0449
  12   2.0000     -10.289638      -279.9953
  13   2.0000     -10.287558      -279.9387
  14   2.0000     -10.276816      -279.6464
  15   2.0000     -10.273480      -279.5556
  16   2.0000      -8.077884      -219.8104
  17   2.0000      -8.076711      -219.7785
  18   2.0000      -6.036436      -164.2598
  19   2.0000      -6.035217      -164.2266
  20   2.0000      -6.032312      -164.1476
  21   2.0000      -6.031375      -164.1221
  22   2.0000      -6.028649      -164.0479
  23   2.0000      -6.027336      -164.0122
  24   2.0000      -1.002468       -27.2785
  25   2.0000      -0.980884       -26.6912
  26   2.0000      -0.914869       -24.8949
  27   2.0000      -0.902777       -24.5658
  28   2.0000      -0.867689       -23.6110
  29   2.0000      -0.847596       -23.0643
  30   2.0000      -0.838796       -22.8248
  31   2.0000      -0.810386       -22.0517
  32   2.0000      -0.787096       -21.4180
  33   2.0000      -0.772359       -21.0169
  34   2.0000      -0.709183       -19.2978
  35   2.0000      -0.701679       -19.0937
  36   2.0000      -0.685608       -18.6563
  37   2.0000      -0.648518       -17.6471
  38   2.0000      -0.638491       -17.3742
  39   2.0000      -0.609476       -16.5847
  40   2.0000      -0.597420       -16.2566
  41   2.0000      -0.578107       -15.7311
  42   2.0000      -0.566141       -15.4055
  43   2.0000      -0.560532       -15.2529
  44   2.0000      -0.530689       -14.4408
  45   2.0000      -0.521874       -14.2009
  46   2.0000      -0.515672       -14.0321
  47   2.0000      -0.506349       -13.7785
  48   2.0000      -0.504736       -13.7346
  49   2.0000      -0.498272       -13.5587
  50   2.0000      -0.490735       -13.3536
  51   2.0000      -0.479505       -13.0480
  52   2.0000      -0.472746       -12.8641
  53   2.0000      -0.464630       -12.6432
  54   2.0000      -0.461293       -12.5524
  55   2.0000      -0.450413       -12.2564
  56   2.0000      -0.444629       -12.0990
  57   2.0000      -0.439131       -11.9494
  58   2.0000      -0.436105       -11.8670
  59   2.0000      -0.423725       -11.5301
  60   2.0000      -0.421742       -11.4762
  61   2.0000      -0.411474       -11.1968
  62   2.0000      -0.411143       -11.1878
  63   2.0000      -0.331102        -9.0097
  64   2.0000      -0.324836        -8.8393
  65   2.0000      -0.319303        -8.6887
  66   2.0000      -0.310228        -8.4417
  67   0.0000       0.043146         1.1741
  68   0.0000       0.050836         1.3833
  69   0.0000       0.111577         3.0362
  70   0.0000       0.127281         3.4635
  71   0.0000       0.130732         3.5574

MULLIKEN ATOMIC CHARGES
-----------------------
   0 S :    0.113650
   1 C :   -0.145221
   2 C :   -0.088833
   3 C :    0.037192
   4 C :   -0.210063
   5 H :    0.019765
   6 C :    0.083178
   7 H :    0.033733
   8 H :    0.025446
   9 C :   -0.141080
  10 H :    0.038552
  11 H :    0.033255
  12 C :   -0.036071
  13 H :    0.042919
  14 H :    0.040467
  15 H :    0.046489
  16 S :    0.106274
  17 C :   -0.086485
  18 C :   -0.043608
  19 C :   -0.033732
  20 C :   -0.174411
  21 H :    0.015499
  22 C :    0.173638
  23 H :    0.005588
  24 H :    0.009760
  25 C :   -0.154248
  26 H :    0.034986
  27 H :    0.037504
  28 C :    0.004030
  29 H :    0.028852
  30 H :    0.035992
  31 H :    0.015716
  32 H :    0.065318
  33 H :    0.065948
Sum of atomic charges:    0.0000000

LOEWDIN ATOMIC CHARGES
----------------------
   0 S :    0.404587
   1 C :   -0.200032
   2 C :   -0.065202
   3 C :   -0.063542
   4 C :   -0.212733
   5 H :    0.034887
   6 C :   -0.026511
   7 H :    0.024611
   8 H :    0.032248
   9 C :   -0.046257
  10 H :    0.024772
  11 H :    0.020906
  12 C :   -0.061951
  13 H :    0.029795
  14 H :    0.025471
  15 H :    0.030969
  16 S :    0.390928
  17 C :   -0.188807
  18 C :   -0.078560
  19 C :   -0.033221
  20 C :   -0.196471
  21 H :    0.026735
  22 C :   -0.025837
  23 H :    0.020254
  24 H :    0.030898
  25 C :   -0.038478
  26 H :    0.020751
  27 H :    0.026434
  28 C :   -0.051755
  29 H :    0.021459
  30 H :    0.029798
  31 H :    0.017775
  32 H :    0.041650
  33 H :    0.034431

  Mayer bond orders larger than 0.100000
B(  0-S ,  1-C ) :   1.1281 B(  0-S ,  4-C ) :   1.1457 B(  1-C ,  2-C ) :   1.6522
B(  1-C , 32-H ) :   0.9600 B(  2-C ,  3-C ) :   1.2014 B(  2-C ,  6-C ) :   1.0060
B(  3-C ,  4-C ) :   1.6055 B(  3-C ,  5-H ) :   0.9928 B(  4-C , 20-C ) :   1.0363
B(  6-C ,  7-H ) :   0.9379 B(  6-C ,  8-H ) :   0.9473 B(  6-C ,  9-C ) :   1.0559
B(  9-C , 10-H ) :   0.9545 B(  9-C , 11-H ) :   0.9661 B(  9-C , 12-C ) :   1.0684
B( 12-C , 13-H ) :   0.9766 B( 12-C , 14-H ) :   0.9780 B( 12-C , 15-H ) :   0.9775
B( 16-S , 17-C ) :   1.1761 B( 16-S , 20-C ) :   1.1148 B( 17-C , 18-C ) :   1.6052
B( 17-C , 20-C ) :   0.1004 B( 17-C , 33-H ) :   0.9618 B( 18-C , 19-C ) :   1.2412
B( 18-C , 21-H ) :   0.9848 B( 19-C , 20-C ) :   1.5918 B( 19-C , 22-C ) :   1.0483
B( 22-C , 23-H ) :   0.9237 B( 22-C , 24-H ) :   0.9105 B( 22-C , 25-C ) :   1.0660
B( 25-C , 26-H ) :   0.9483 B( 25-C , 27-H ) :   0.9637 B( 25-C , 28-C ) :   1.0803
B( 28-C , 29-H ) :   0.9744 B( 28-C , 30-H ) :   0.9761 B( 28-C , 31-H ) :   0.9739

Dispersion correction           -0.013570702
FINAL SINGLE POINT ENERGY     -1339.865991641274

DIPOLE MOMENT
-------------
                                X             Y             Z
Electronic contribution:    -13.90947      13.88856       9.53451
Nuclear contribution   :     14.41841     -14.41184      -9.62254
                        -----------------------------------------
Total Dipole Moment    :      0.50895      -0.52328      -0.08803
                        -----------------------------------------
Magnitude (a.u.)       :      0.73525
Magnitude (Debye)      :      1.86887

Rotational constants in cm-1:     0.018054     0.007227     0.006451
Rotational constants in MHz :   541.256542   216.669695   193.407387

                             ****ORCA TERMINATED NORMALLY****
TOTAL RUN TIME: 0 days 0 hours 0 minutes 28 seconds 570 msec
