                         Program Version 4.2.1 -  RELEASE  -
|  1> ! wB97X-D3 SP def2-SVP
|  2> %pal
|  3> nprocs 16
|  4> end
|  5>
|  6> * xyz 0 1
|  7> S 	 47.6782 	 5.85702 	 88.1158
|  8> C 	 46.3613 	 6.24518 	 86.9966
|  9> C 	 45.2658 	 5.44909 	 87.219
| 10> C 	 45.4761 	 4.54203 	 88.2857
| 11> C 	 46.7519 	 4.58643 	 88.8975
| 12> H 	 44.7054 	 3.77836 	 88.6567
| 13> C 	 43.9728 	 5.48797 	 86.4485
| 14> H 	 43.5183 	 4.54785 	 86.69
| 15> H 	 44.3481 	 5.36231 	 85.3732
| 16> C 	 43.1407 	 6.78603 	 86.5543
| 17> H 	 42.8341 	 6.97058 	 87.565
| 18> H 	 43.7754 	 7.63817 	 86.2561
| 19> C 	 41.8791 	 6.96796 	 85.6334
| 20> H 	 42.0141 	 6.37055 	 84.7165
| 21> H 	 41.0054 	 6.68805 	 86.1623
| 22> H 	 41.7713 	 8.01261 	 85.3193
| 23> S 	 46.0848 	 2.72005 	 90.8356
| 24> C 	 47.3138 	 2.04428 	 91.8964
| 25> C 	 48.5571 	 2.3508 	 91.3363
| 26> C 	 48.5441 	 3.27586 	 90.2812
| 27> C 	 47.2893 	 3.7225 	 89.9638
| 28> H 	 49.4311 	 1.86677 	 91.6908
| 29> C 	 49.853 	 3.75309 	 89.5965
| 30> H 	 50.0721 	 4.74912 	 90.0049
| 31> H 	 49.5633 	 4.10799 	 88.6003
| 32> C 	 51.071 	 2.82656 	 89.6928
| 33> H 	 50.6705 	 1.91858 	 89.2552
| 34> H 	 51.3287 	 2.69351 	 90.7534
| 35> C 	 52.2943 	 3.3574 	 88.9961
| 36> H 	 51.9619 	 3.70141 	 87.996
| 37> H 	 53.0705 	 2.60792 	 88.9364
| 38> H 	 52.6817 	 4.25136 	 89.4642
| 39> H 	 46.2221 	 7.11017 	 86.3079
| 40> H 	 47.1146 	 1.3105 	 92.6267
| 41> *
| 42>
| 43>                          ****END OF INPUT****

CARTESIAN COORDINATES (ANGSTROEM)
---------------------------------
  S     47.678200    5.857020   88.115800
  C     46.361300    6.245180   86.996600
  C     45.265800    5.449090   87.219000
  C     45.476100    4.542030   88.285700
  C     46.751900    4.586430   88.897500
  H     44.705400    3.778360   88.656700
  C     43.972800    5.487970   86.448500
  H     43.518300    4.547850   86.690000
  H     44.348100    5.362310   85.373200
  C     43.140700    6.786030   86.554300
  H     42.834100    6.970580   87.565000
  H     43.775400    7.638170   86.256100
  C     41.879100    6.967960   85.633400
  H     42.014100    6.370550   84.716500
  H     41.005400    6.688050   86.162300
  H     41.771300    8.012610   85.319300
  S     46.084800    2.720050   90.835600
  C     47.313800    2.044280   91.896400
  C     48.557100    2.350800   91.336300
  C     48.544100    3.275860   90.281200
  C     47.289300    3.722500   89.963800
  H     49.431100    1.866770   91.690800
  C     49.853000    3.753090   89.596500
  H     50.072100    4.749120   90.004900
  H     49.563300    4.107990   88.600300
  C     51.071000    2.826560   89.692800
  H     50.670500    1.918580   89.255200
  H     51.328700    2.693510   90.753400
  C     52.294300    3.357400   88.996100
  H     51.961900    3.701410   87.996000
  H     53.070500    2.607920   88.936400
  H     52.681700    4.251360   89.464200
  H     46.222100    7.110170   86.307900
  H     47.114600    1.310500   92.626700

 Total Charge           Charge          ....    0
 Multiplicity           Mult            ....    1
 Number of Electrons    NEL             ....  134
 Basis Dimension        Dim             ....  322

ORBITAL ENERGIES
----------------

  NO   OCC          E(Eh)            E(eV)
   0   2.0000     -88.973297     -2421.0865
   1   2.0000     -88.963795     -2420.8279
   2   2.0000     -10.338718      -281.3308
   3   2.0000     -10.332407      -281.1591
   4   2.0000     -10.319701      -280.8133
   5   2.0000     -10.314880      -280.6821
   6   2.0000     -10.304106      -280.3890
   7   2.0000     -10.299838      -280.2728
   8   2.0000     -10.298541      -280.2375
   9   2.0000     -10.297892      -280.2199
  10   2.0000     -10.293139      -280.0905
  11   2.0000     -10.292037      -280.0606
  12   2.0000     -10.291839      -280.0552
  13   2.0000     -10.288449      -279.9629
  14   2.0000     -10.279883      -279.7298
  15   2.0000     -10.278473      -279.6915
  16   2.0000      -8.086451      -220.0435
  17   2.0000      -8.077766      -219.8072
  18   2.0000      -6.045107      -164.4957
  19   2.0000      -6.041040      -164.3851
  20   2.0000      -6.037285      -164.2829
  21   2.0000      -6.036360      -164.2577
  22   2.0000      -6.032556      -164.1542
  23   2.0000      -6.028325      -164.0391
  24   2.0000      -1.004454       -27.3326
  25   2.0000      -0.983852       -26.7720
  26   2.0000      -0.911475       -24.8025
  27   2.0000      -0.908779       -24.7291
  28   2.0000      -0.867652       -23.6100
  29   2.0000      -0.853884       -23.2354
  30   2.0000      -0.846952       -23.0467
  31   2.0000      -0.808477       -21.9998
  32   2.0000      -0.783359       -21.3163
  33   2.0000      -0.776023       -21.1167
  34   2.0000      -0.710853       -19.3433
  35   2.0000      -0.703950       -19.1555
  36   2.0000      -0.702250       -19.1092
  37   2.0000      -0.661634       -18.0040
  38   2.0000      -0.624293       -16.9879
  39   2.0000      -0.611832       -16.6488
  40   2.0000      -0.599442       -16.3117
  41   2.0000      -0.571501       -15.5513
  42   2.0000      -0.568139       -15.4598
  43   2.0000      -0.561067       -15.2674
  44   2.0000      -0.536844       -14.6083
  45   2.0000      -0.523708       -14.2508
  46   2.0000      -0.516918       -14.0661
  47   2.0000      -0.515284       -14.0216
  48   2.0000      -0.509115       -13.8537
  49   2.0000      -0.500701       -13.6248
  50   2.0000      -0.487109       -13.2549
  51   2.0000      -0.480880       -13.0854
  52   2.0000      -0.471169       -12.8212
  53   2.0000      -0.465357       -12.6630
  54   2.0000      -0.459081       -12.4922
  55   2.0000      -0.450394       -12.2559
  56   2.0000      -0.445804       -12.1310
  57   2.0000      -0.439390       -11.9564
  58   2.0000      -0.427514       -11.6332
  59   2.0000      -0.424780       -11.5589
  60   2.0000      -0.423580       -11.5262
  61   2.0000      -0.414933       -11.2909
  62   2.0000      -0.410709       -11.1760
  63   2.0000      -0.359522        -9.7831
  64   2.0000      -0.332965        -9.0604
  65   2.0000      -0.329501        -8.9662
  66   2.0000      -0.280613        -7.6359
  67   0.0000       0.015153         0.4123
  68   0.0000       0.076613         2.0847
  69   0.0000       0.104477         2.8430
  70   0.0000       0.117393         3.1944
  71   0.0000       0.132201         3.5974

MULLIKEN ATOMIC CHARGES
-----------------------
   0 S :    0.103372
   1 C :   -0.126842
   2 C :   -0.105768
   3 C :   -0.030481
   4 C :   -0.142671
   5 H :    0.043397
   6 C :    0.077802
   7 H :    0.015882
   8 H :    0.040561
   9 C :   -0.079320
  10 H :    0.032384
  11 H :    0.025278
  12 C :   -0.040311
  13 H :    0.031227
  14 H :    0.033222
  15 H :    0.034966
  16 S :    0.066099
  17 C :   -0.057486
  18 C :   -0.039706
  19 C :   -0.049227
  20 C :   -0.108807
  21 H :    0.006977
  22 C :    0.037663
  23 H :    0.028191
  24 H :    0.015186
  25 C :   -0.079185
  26 H :    0.037320
  27 H :    0.040672
  28 C :   -0.009282
  29 H :    0.026165
  30 H :    0.039052
  31 H :    0.026650
  32 H :    0.057764
  33 H :    0.049258
Sum of atomic charges:    0.0000000

LOEWDIN ATOMIC CHARGES
----------------------
   0 S :    0.414740
   1 C :   -0.209812
   2 C :   -0.067488
   3 C :   -0.086348
   4 C :   -0.186129
   5 H :    0.036272
   6 C :   -0.034094
   7 H :    0.025983
   8 H :    0.043576
   9 C :   -0.039938
  10 H :    0.022962
  11 H :    0.026278
  12 C :   -0.062415
  13 H :    0.027293
  14 H :    0.019693
  15 H :    0.029115
  16 S :    0.386163
  17 C :   -0.168679
  18 C :   -0.067943
  19 C :   -0.059189
  20 C :   -0.176843
  21 H :    0.024081
  22 C :   -0.041677
  23 H :    0.030742
  24 H :    0.015893
  25 C :   -0.041944
  26 H :    0.027609
  27 H :    0.026647
  28 C :   -0.058415
  29 H :    0.029129
  30 H :    0.026977
  31 H :    0.025192
  32 H :    0.039659
  33 H :    0.022910

  Mayer bond orders larger than 0.100000
B(  0-S ,  1-C ) :   1.1284 B(  0-S ,  4-C ) :   1.1520 B(  1-C ,  2-C ) :   1.6114
B(  1-C , 32-H ) :   0.9564 B(  2-C ,  3-C ) :   1.2949 B(  2-C ,  6-C ) :   1.0076
B(  3-C ,  4-C ) :   1.5404 B(  3-C ,  5-H ) :   0.9626 B(  4-C , 20-C ) :   1.0770
B(  6-C ,  7-H ) :   0.9423 B(  6-C ,  8-H ) :   0.9346 B(  6-C ,  9-C ) :   1.0577
B(  9-C , 10-H ) :   0.9624 B(  9-C , 11-H ) :   0.9601 B(  9-C , 12-C ) :   1.0701
B( 12-C , 13-H ) :   0.9765 B( 12-C , 14-H ) :   0.9805 B( 12-C , 15-H ) :   0.9797
B( 16-S , 17-C ) :   1.1560 B( 16-S , 20-C ) :   1.1299 B( 17-C , 18-C ) :   1.5760
B( 17-C , 20-C ) :   0.1036 B( 17-C , 33-H ) :   0.9749 B( 18-C , 19-C ) :   1.2723
B( 18-C , 21-H ) :   0.9914 B( 19-C , 20-C ) :   1.5699 B( 19-C , 22-C ) :   1.0185
B( 22-C , 23-H ) :   0.9315 B( 22-C , 24-H ) :   0.9193 B( 22-C , 25-C ) :   1.0649
B( 25-C , 26-H ) :   0.9591 B( 25-C , 27-H ) :   0.9420 B( 25-C , 28-C ) :   1.0934
B( 28-C , 29-H ) :   0.9721 B( 28-C , 30-H ) :   0.9721 B( 28-C , 31-H ) :   0.9713

Dispersion correction           -0.013094362
FINAL SINGLE POINT ENERGY     -1339.872127866422

DIPOLE MOMENT
-------------
                                X             Y             Z
Electronic contribution:     -0.71652      -4.63642      12.08091
Nuclear contribution   :      0.78003       4.55671     -12.28627
                        -----------------------------------------
Total Dipole Moment    :      0.06351      -0.07972      -0.20537
                        -----------------------------------------
Magnitude (a.u.)       :      0.22927
Magnitude (Debye)      :      0.58275

Rotational constants in cm-1:     0.024073     0.006737     0.005430
Rotational constants in MHz :   721.678838   201.973827   162.784458

                             ****ORCA TERMINATED NORMALLY****
TOTAL RUN TIME: 0 days 0 hours 0 minutes 28 seconds 923 msec
