                         Program Version 4.2.1 -  RELEASE  -
|  1> ! wB97X-D3 SP def2-SVP
|  2> %pal
|  3> nprocs 16
|  4> end
|  5>
|  6> * xyz 0 1
|  7> S 	 -0.811267 	 -10.1869 	 64.838
|  8> C 	 -2.42564 	 -9.54626 	 65.1472
|  9> C 	 -2.9528 	 -10.147 	 66.2619
| 10> C 	 -2.04346 	 -11.0257 	 66.905
| 11> C 	 -0.824084 	 -11.1643 	 66.2701
| 12> H 	 -2.29822 	 -11.6533 	 67.7628
| 13> C 	 -4.36098 	 -9.86122 	 66.8224
| 14> H 	 -4.60996 	 -10.7116 	 67.4321
| 15> H 	 -5.14742 	 -9.88198 	 66.0333
| 16> C 	 -4.41028 	 -8.49972 	 67.5024
| 17> H 	 -3.84295 	 -7.72438 	 67.0089
| 18> H 	 -5.42723 	 -8.19237 	 67.3617
| 19> C 	 -4.02283 	 -8.66937 	 68.9824
| 20> H 	 -4.68093 	 -9.45146 	 69.3732
| 21> H 	 -2.98305 	 -8.99137 	 69.0029
| 22> H 	 -4.05056 	 -7.75119 	 69.5942
| 23> S 	 1.88591 	 -11.2278 	 66.2228
| 24> C 	 2.74129 	 -12.6527 	 66.6996
| 25> C 	 1.94863 	 -13.4592 	 67.4854
| 26> C 	 0.55974 	 -13.0302 	 67.4357
| 27> C 	 0.354445 	 -11.8937 	 66.6579
| 28> H 	 2.37766 	 -14.2898 	 67.9813
| 29> C 	 -0.594294 	 -13.9039 	 68.0815
| 30> H 	 -0.327596 	 -14.8594 	 67.7288
| 31> H 	 -1.65829 	 -13.7432 	 67.741
| 32> C 	 -0.388087 	 -14.1413 	 69.5908
| 33> H 	 0.53951 	 -14.7012 	 69.6964
| 34> H 	 -1.29682 	 -14.5991 	 69.9309
| 35> C 	 -0.231965 	 -12.7724 	 70.3235
| 36> H 	 0.766966 	 -12.3021 	 70.2069
| 37> H 	 -0.341285 	 -12.8346 	 71.4204
| 38> H 	 -0.93282 	 -11.9947 	 69.9609
| 39> H 	 -2.94505 	 -8.81799 	 64.5335
| 40> H 	 3.74471 	 -12.8068 	 66.4977
| 41> *
| 42>
| 43>                          ****END OF INPUT****

CARTESIAN COORDINATES (ANGSTROEM)
---------------------------------
  S     -0.811267  -10.186900   64.838000
  C     -2.425640   -9.546260   65.147200
  C     -2.952800  -10.147000   66.261900
  C     -2.043460  -11.025700   66.905000
  C     -0.824084  -11.164300   66.270100
  H     -2.298220  -11.653300   67.762800
  C     -4.360980   -9.861220   66.822400
  H     -4.609960  -10.711600   67.432100
  H     -5.147420   -9.881980   66.033300
  C     -4.410280   -8.499720   67.502400
  H     -3.842950   -7.724380   67.008900
  H     -5.427230   -8.192370   67.361700
  C     -4.022830   -8.669370   68.982400
  H     -4.680930   -9.451460   69.373200
  H     -2.983050   -8.991370   69.002900
  H     -4.050560   -7.751190   69.594200
  S      1.885910  -11.227800   66.222800
  C      2.741290  -12.652700   66.699600
  C      1.948630  -13.459200   67.485400
  C      0.559740  -13.030200   67.435700
  C      0.354445  -11.893700   66.657900
  H      2.377660  -14.289800   67.981300
  C     -0.594294  -13.903900   68.081500
  H     -0.327596  -14.859400   67.728800
  H     -1.658290  -13.743200   67.741000
  C     -0.388087  -14.141300   69.590800
  H      0.539510  -14.701200   69.696400
  H     -1.296820  -14.599100   69.930900
  C     -0.231965  -12.772400   70.323500
  H      0.766966  -12.302100   70.206900
  H     -0.341285  -12.834600   71.420400
  H     -0.932820  -11.994700   69.960900
  H     -2.945050   -8.817990   64.533500
  H      3.744710  -12.806800   66.497700

 Total Charge           Charge          ....    0
 Multiplicity           Mult            ....    1
 Number of Electrons    NEL             ....  134
 Basis Dimension        Dim             ....  322

ORBITAL ENERGIES
----------------

  NO   OCC          E(Eh)            E(eV)
   0   2.0000     -88.965171     -2420.8654
   1   2.0000     -88.961899     -2420.7764
   2   2.0000     -10.328594      -281.0553
   3   2.0000     -10.324595      -280.9465
   4   2.0000     -10.313060      -280.6326
   5   2.0000     -10.312561      -280.6190
   6   2.0000     -10.311313      -280.5851
   7   2.0000     -10.298674      -280.2412
   8   2.0000     -10.297531      -280.2101
   9   2.0000     -10.294785      -280.1353
  10   2.0000     -10.293012      -280.0871
  11   2.0000     -10.291957      -280.0584
  12   2.0000     -10.290756      -280.0257
  13   2.0000     -10.281425      -279.7718
  14   2.0000     -10.277566      -279.6668
  15   2.0000     -10.277449      -279.6636
  16   2.0000      -8.079876      -219.8646
  17   2.0000      -8.077816      -219.8086
  18   2.0000      -6.038400      -164.3132
  19   2.0000      -6.036319      -164.2566
  20   2.0000      -6.034261      -164.2006
  21   2.0000      -6.032214      -164.1449
  22   2.0000      -6.030729      -164.1045
  23   2.0000      -6.028445      -164.0423
  24   2.0000      -1.011850       -27.5338
  25   2.0000      -0.987151       -26.8617
  26   2.0000      -0.914931       -24.8965
  27   2.0000      -0.907133       -24.6843
  28   2.0000      -0.873267       -23.7628
  29   2.0000      -0.845769       -23.0146
  30   2.0000      -0.837033       -22.7768
  31   2.0000      -0.814560       -22.1653
  32   2.0000      -0.781441       -21.2641
  33   2.0000      -0.774346       -21.0710
  34   2.0000      -0.708293       -19.2736
  35   2.0000      -0.705190       -19.1892
  36   2.0000      -0.692850       -18.8534
  37   2.0000      -0.664161       -18.0727
  38   2.0000      -0.638674       -17.3792
  39   2.0000      -0.619431       -16.8556
  40   2.0000      -0.599896       -16.3240
  41   2.0000      -0.577064       -15.7027
  42   2.0000      -0.556925       -15.1547
  43   2.0000      -0.549131       -14.9426
  44   2.0000      -0.538670       -14.6580
  45   2.0000      -0.538143       -14.6436
  46   2.0000      -0.518739       -14.1156
  47   2.0000      -0.512893       -13.9565
  48   2.0000      -0.504712       -13.7339
  49   2.0000      -0.496238       -13.5033
  50   2.0000      -0.489479       -13.3194
  51   2.0000      -0.480715       -13.0809
  52   2.0000      -0.470019       -12.7899
  53   2.0000      -0.465501       -12.6669
  54   2.0000      -0.461002       -12.5445
  55   2.0000      -0.447272       -12.1709
  56   2.0000      -0.445761       -12.1298
  57   2.0000      -0.435747       -11.8573
  58   2.0000      -0.431608       -11.7447
  59   2.0000      -0.424323       -11.5464
  60   2.0000      -0.420341       -11.4381
  61   2.0000      -0.412648       -11.2287
  62   2.0000      -0.407471       -11.0879
  63   2.0000      -0.356316        -9.6958
  64   2.0000      -0.331455        -9.0194
  65   2.0000      -0.326831        -8.8935
  66   2.0000      -0.285225        -7.7614
  67   0.0000       0.021204         0.5770
  68   0.0000       0.083674         2.2769
  69   0.0000       0.104519         2.8441
  70   0.0000       0.115275         3.1368
  71   0.0000       0.135411         3.6847

MULLIKEN ATOMIC CHARGES
-----------------------
   0 S :    0.106121
   1 C :   -0.123439
   2 C :   -0.093312
   3 C :    0.010059
   4 C :   -0.131265
   5 H :    0.005639
   6 C :    0.047139
   7 H :    0.014188
   8 H :    0.030666
   9 C :   -0.034829
  10 H :    0.028036
  11 H :    0.014559
  12 C :   -0.048121
  13 H :    0.028677
  14 H :    0.034385
  15 H :    0.039974
  16 S :    0.100608
  17 C :   -0.066190
  18 C :   -0.025410
  19 C :   -0.050329
  20 C :   -0.125982
  21 H :    0.010781
  22 C :    0.047619
  23 H :    0.013449
  24 H :    0.050910
  25 C :   -0.055377
  26 H :    0.038196
  27 H :    0.036152
  28 C :   -0.088718
  29 H :    0.040736
  30 H :    0.033913
  31 H :    0.031111
  32 H :    0.046827
  33 H :    0.033225
Sum of atomic charges:   -0.0000000

LOEWDIN ATOMIC CHARGES
----------------------
   0 S :    0.409889
   1 C :   -0.194516
   2 C :   -0.062924
   3 C :   -0.075247
   4 C :   -0.192852
   5 H :    0.027271
   6 C :   -0.026171
   7 H :    0.025084
   8 H :    0.033048
   9 C :   -0.037064
  10 H :    0.023282
  11 H :    0.017810
  12 C :   -0.063380
  13 H :    0.025009
  14 H :    0.026890
  15 H :    0.026455
  16 S :    0.416215
  17 C :   -0.171424
  18 C :   -0.066330
  19 C :   -0.048196
  20 C :   -0.208520
  21 H :    0.026597
  22 C :   -0.035557
  23 H :    0.025860
  24 H :    0.036265
  25 C :   -0.032398
  26 H :    0.025448
  27 H :    0.026456
  28 C :   -0.080581
  29 H :    0.029781
  30 H :    0.023243
  31 H :    0.025512
  32 H :    0.029866
  33 H :    0.015180

  Mayer bond orders larger than 0.100000
B(  0-S ,  1-C ) :   1.1323 B(  0-S ,  4-C ) :   1.1622 B(  1-C ,  2-C ) :   1.5993
B(  1-C ,  4-C ) :   0.1013 B(  1-C , 32-H ) :   0.9715 B(  2-C ,  3-C ) :   1.2682
B(  2-C ,  6-C ) :   1.0173 B(  3-C ,  4-C ) :   1.5438 B(  3-C ,  5-H ) :   0.9849
B(  4-C , 20-C ) :   1.0758 B(  6-C ,  7-H ) :   0.9446 B(  6-C ,  8-H ) :   0.9457
B(  6-C ,  9-C ) :   1.0546 B(  9-C , 10-H ) :   0.9593 B(  9-C , 11-H ) :   0.9557
B(  9-C , 12-C ) :   1.0729 B( 12-C , 13-H ) :   0.9767 B( 12-C , 14-H ) :   0.9756
B( 12-C , 15-H ) :   0.9744 B( 16-S , 17-C ) :   1.1589 B( 16-S , 20-C ) :   1.1407
B( 17-C , 18-C ) :   1.6033 B( 17-C , 33-H ) :   0.9802 B( 18-C , 19-C ) :   1.2272
B( 18-C , 21-H ) :   0.9984 B( 19-C , 20-C ) :   1.5942 B( 19-C , 22-C ) :   1.0109
B( 22-C , 23-H ) :   0.9350 B( 22-C , 24-H ) :   0.9493 B( 22-C , 25-C ) :   1.0676
B( 25-C , 26-H ) :   0.9568 B( 25-C , 27-H ) :   0.9575 B( 25-C , 28-C ) :   1.0737
B( 28-C , 29-H ) :   0.9684 B( 28-C , 30-H ) :   0.9775 B( 28-C , 31-H ) :   0.9778

Dispersion correction           -0.015044199
FINAL SINGLE POINT ENERGY     -1339.873812777530

DIPOLE MOMENT
-------------
                                X             Y             Z
Electronic contribution:     17.38787       1.87054     -21.30420
Nuclear contribution   :    -17.72942      -2.17561      21.69313
                        -----------------------------------------
Total Dipole Moment    :     -0.34155      -0.30507       0.38893
                        -----------------------------------------
Magnitude (a.u.)       :      0.60083
Magnitude (Debye)      :      1.52718

Rotational constants in cm-1:     0.019318     0.009469     0.007095
Rotational constants in MHz :   579.133730   283.876650   212.700247

                             ****ORCA TERMINATED NORMALLY****
TOTAL RUN TIME: 0 days 0 hours 0 minutes 35 seconds 551 msec
