                         Program Version 4.2.1 -  RELEASE  -
|  1> ! wB97X-D3 SP def2-SVP
|  2> %pal
|  3> nprocs 16
|  4> end
|  5>
|  6> * xyz 0 1
|  7> S 	 -107.441 	 39.1139 	 126.944
|  8> C 	 -106.178 	 39.0388 	 128.097
|  9> C 	 -106.471 	 39.8361 	 129.181
| 10> C 	 -107.716 	 40.5355 	 129.078
| 11> C 	 -108.451 	 40.1861 	 127.944
| 12> H 	 -108.129 	 41.0914 	 129.864
| 13> C 	 -105.425 	 40.1144 	 130.308
| 14> H 	 -104.77 	 40.7844 	 129.748
| 15> H 	 -104.914 	 39.1456 	 130.455
| 16> C 	 -105.925 	 40.6083 	 131.663
| 17> H 	 -105.132 	 40.895 	 132.312
| 18> H 	 -106.486 	 41.5615 	 131.512
| 19> C 	 -106.837 	 39.5212 	 132.277
| 20> H 	 -106.257 	 38.6375 	 132.552
| 21> H 	 -107.176 	 39.7328 	 133.309
| 22> H 	 -107.735 	 39.2167 	 131.741
| 23> S 	 -109.582 	 41.7935 	 126.174
| 24> C 	 -111.301 	 42.0474 	 126.148
| 25> C 	 -111.943 	 41.366 	 127.252
| 26> C 	 -111.015 	 40.6567 	 128.054
| 27> C 	 -109.747 	 40.7108 	 127.5
| 28> H 	 -113.016 	 41.5152 	 127.435
| 29> C 	 -111.308 	 40.0109 	 129.346
| 30> H 	 -110.377 	 39.6878 	 129.714
| 31> H 	 -111.945 	 39.1297 	 129.301
| 32> C 	 -111.762 	 40.9771 	 130.493
| 33> H 	 -112.664 	 41.5505 	 130.137
| 34> H 	 -111.097 	 41.7981 	 130.664
| 35> C 	 -112.131 	 40.3418 	 131.813
| 36> H 	 -112.344 	 39.249 	 131.745
| 37> H 	 -112.862 	 40.9106 	 132.283
| 38> H 	 -111.233 	 40.5121 	 132.566
| 39> H 	 -105.26 	 38.485 	 127.804
| 40> H 	 -111.785 	 42.6931 	 125.452
| 41> *
| 42>
| 43>                          ****END OF INPUT****

CARTESIAN COORDINATES (ANGSTROEM)
---------------------------------
  S    -107.441000   39.113900  126.944000
  C    -106.178000   39.038800  128.097000
  C    -106.471000   39.836100  129.181000
  C    -107.716000   40.535500  129.078000
  C    -108.451000   40.186100  127.944000
  H    -108.129000   41.091400  129.864000
  C    -105.425000   40.114400  130.308000
  H    -104.770000   40.784400  129.748000
  H    -104.914000   39.145600  130.455000
  C    -105.925000   40.608300  131.663000
  H    -105.132000   40.895000  132.312000
  H    -106.486000   41.561500  131.512000
  C    -106.837000   39.521200  132.277000
  H    -106.257000   38.637500  132.552000
  H    -107.176000   39.732800  133.309000
  H    -107.735000   39.216700  131.741000
  S    -109.582000   41.793500  126.174000
  C    -111.301000   42.047400  126.148000
  C    -111.943000   41.366000  127.252000
  C    -111.015000   40.656700  128.054000
  C    -109.747000   40.710800  127.500000
  H    -113.016000   41.515200  127.435000
  C    -111.308000   40.010900  129.346000
  H    -110.377000   39.687800  129.714000
  H    -111.945000   39.129700  129.301000
  C    -111.762000   40.977100  130.493000
  H    -112.664000   41.550500  130.137000
  H    -111.097000   41.798100  130.664000
  C    -112.131000   40.341800  131.813000
  H    -112.344000   39.249000  131.745000
  H    -112.862000   40.910600  132.283000
  H    -111.233000   40.512100  132.566000
  H    -105.260000   38.485000  127.804000
  H    -111.785000   42.693100  125.452000

 Total Charge           Charge          ....    0
 Multiplicity           Mult            ....    1
 Number of Electrons    NEL             ....  134
 Basis Dimension        Dim             ....  322

ORBITAL ENERGIES
----------------

  NO   OCC          E(Eh)            E(eV)
   0   2.0000     -88.968144     -2420.9463
   1   2.0000     -88.961217     -2420.7578
   2   2.0000     -10.330819      -281.1159
   3   2.0000     -10.321853      -280.8719
   4   2.0000     -10.319014      -280.7946
   5   2.0000     -10.312081      -280.6060
   6   2.0000     -10.301697      -280.3234
   7   2.0000     -10.301574      -280.3201
   8   2.0000     -10.300301      -280.2854
   9   2.0000     -10.294196      -280.1193
  10   2.0000     -10.293299      -280.0949
  11   2.0000     -10.291841      -280.0552
  12   2.0000     -10.286751      -279.9167
  13   2.0000     -10.285915      -279.8940
  14   2.0000     -10.284001      -279.8419
  15   2.0000     -10.280201      -279.7385
  16   2.0000      -8.083380      -219.9600
  17   2.0000      -8.076347      -219.7686
  18   2.0000      -6.041611      -164.4006
  19   2.0000      -6.037732      -164.2950
  20   2.0000      -6.034773      -164.2145
  21   2.0000      -6.034482      -164.2066
  22   2.0000      -6.030569      -164.1001
  23   2.0000      -6.027411      -164.0142
  24   2.0000      -1.007326       -27.4107
  25   2.0000      -0.983946       -26.7745
  26   2.0000      -0.911548       -24.8045
  27   2.0000      -0.907583       -24.6966
  28   2.0000      -0.866240       -23.5716
  29   2.0000      -0.857618       -23.3370
  30   2.0000      -0.841877       -22.9086
  31   2.0000      -0.811527       -22.0828
  32   2.0000      -0.783568       -21.3220
  33   2.0000      -0.768725       -20.9181
  34   2.0000      -0.710039       -19.3211
  35   2.0000      -0.698581       -19.0094
  36   2.0000      -0.688827       -18.7439
  37   2.0000      -0.662485       -18.0271
  38   2.0000      -0.643840       -17.5198
  39   2.0000      -0.620673       -16.8894
  40   2.0000      -0.599944       -16.3253
  41   2.0000      -0.563162       -15.3244
  42   2.0000      -0.558694       -15.2028
  43   2.0000      -0.552514       -15.0347
  44   2.0000      -0.539171       -14.6716
  45   2.0000      -0.531361       -14.4591
  46   2.0000      -0.517262       -14.0754
  47   2.0000      -0.515294       -14.0219
  48   2.0000      -0.506286       -13.7767
  49   2.0000      -0.495137       -13.4734
  50   2.0000      -0.486431       -13.2365
  51   2.0000      -0.474781       -12.9194
  52   2.0000      -0.471876       -12.8404
  53   2.0000      -0.461580       -12.5602
  54   2.0000      -0.460109       -12.5202
  55   2.0000      -0.453041       -12.3279
  56   2.0000      -0.445072       -12.1110
  57   2.0000      -0.440419       -11.9844
  58   2.0000      -0.438408       -11.9297
  59   2.0000      -0.431398       -11.7389
  60   2.0000      -0.420124       -11.4322
  61   2.0000      -0.410233       -11.1630
  62   2.0000      -0.396773       -10.7967
  63   2.0000      -0.339468        -9.2374
  64   2.0000      -0.331514        -9.0209
  65   2.0000      -0.321622        -8.7518
  66   2.0000      -0.297041        -8.0829
  67   0.0000       0.036324         0.9884
  68   0.0000       0.061452         1.6722
  69   0.0000       0.113994         3.1019
  70   0.0000       0.121090         3.2950
  71   0.0000       0.132493         3.6053

MULLIKEN ATOMIC CHARGES
-----------------------
   0 S :    0.108386
   1 C :   -0.155559
   2 C :   -0.105948
   3 C :    0.077913
   4 C :   -0.185659
   5 H :   -0.005398
   6 C :    0.044163
   7 H :    0.049911
   8 H :    0.029776
   9 C :   -0.034619
  10 H :    0.028369
  11 H :    0.032615
  12 C :   -0.074928
  13 H :    0.023332
  14 H :    0.021834
  15 H :    0.051357
  16 S :    0.135340
  17 C :   -0.100246
  18 C :   -0.057261
  19 C :   -0.005904
  20 C :   -0.180524
  21 H :    0.031402
  22 C :    0.126030
  23 H :    0.000329
  24 H :    0.033990
  25 C :   -0.113297
  26 H :    0.020187
  27 H :    0.021683
  28 C :   -0.044997
  29 H :    0.048332
  30 H :    0.023682
  31 H :    0.034862
  32 H :    0.070279
  33 H :    0.050568
Sum of atomic charges:   -0.0000000

LOEWDIN ATOMIC CHARGES
----------------------
   0 S :    0.410011
   1 C :   -0.218066
   2 C :   -0.066327
   3 C :   -0.060318
   4 C :   -0.193532
   5 H :    0.021001
   6 C :   -0.033304
   7 H :    0.035345
   8 H :    0.031484
   9 C :   -0.041981
  10 H :    0.026210
  11 H :    0.026379
  12 C :   -0.074166
  13 H :    0.027437
  14 H :    0.027186
  15 H :    0.027868
  16 S :    0.443867
  17 C :   -0.191785
  18 C :   -0.066506
  19 C :   -0.055706
  20 C :   -0.211961
  21 H :    0.034712
  22 C :   -0.027213
  23 H :    0.024340
  24 H :    0.033073
  25 C :   -0.045064
  26 H :    0.021182
  27 H :    0.020991
  28 C :   -0.069667
  29 H :    0.031684
  30 H :    0.018474
  31 H :    0.036567
  32 H :    0.037534
  33 H :    0.020249

  Mayer bond orders larger than 0.100000
B(  0-S ,  1-C ) :   1.1574 B(  0-S ,  4-C ) :   1.1685 B(  1-C ,  2-C ) :   1.5907
B(  1-C ,  4-C ) :   0.1015 B(  1-C , 32-H ) :   0.9695 B(  2-C ,  3-C ) :   1.2688
B(  2-C ,  6-C ) :   0.9811 B(  3-C ,  4-C ) :   1.5441 B(  3-C ,  5-H ) :   0.9960
B(  4-C , 20-C ) :   1.0034 B(  6-C ,  7-H ) :   0.9449 B(  6-C ,  8-H ) :   0.9475
B(  6-C ,  9-C ) :   1.0773 B(  9-C , 10-H ) :   0.9522 B(  9-C , 11-H ) :   0.9497
B(  9-C , 12-C ) :   1.0693 B( 12-C , 13-H ) :   0.9713 B( 12-C , 14-H ) :   0.9723
B( 12-C , 15-H ) :   0.9774 B( 16-S , 17-C ) :   1.1792 B( 16-S , 20-C ) :   1.1863
B( 17-C , 18-C ) :   1.5578 B( 17-C , 20-C ) :   0.1133 B( 17-C , 33-H ) :   0.9754
B( 18-C , 19-C ) :   1.2527 B( 18-C , 21-H ) :   0.9895 B( 19-C , 20-C ) :   1.5694
B( 19-C , 22-C ) :   1.0669 B( 22-C , 23-H ) :   0.9193 B( 22-C , 24-H ) :   0.9259
B( 22-C , 25-C ) :   1.0520 B( 25-C , 26-H ) :   0.9625 B( 25-C , 27-H ) :   0.9552
B( 25-C , 28-C ) :   1.0752 B( 28-C , 29-H ) :   0.9749 B( 28-C , 30-H ) :   0.9725
B( 28-C , 31-H ) :   0.9769

Dispersion correction           -0.014648438
FINAL SINGLE POINT ENERGY     -1339.867764004595

DIPOLE MOMENT
-------------
                                X             Y             Z
Electronic contribution:      2.99686       1.25016     -30.61199
Nuclear contribution   :     -2.99265      -1.04366      31.26244
                        -----------------------------------------
Total Dipole Moment    :      0.00420       0.20650       0.65044
                        -----------------------------------------
Magnitude (a.u.)       :      0.68245
Magnitude (Debye)      :      1.73464

Rotational constants in cm-1:     0.016063     0.010443     0.007072
Rotational constants in MHz :   481.548676   313.081800   212.017910

                             ****ORCA TERMINATED NORMALLY****
TOTAL RUN TIME: 0 days 0 hours 0 minutes 32 seconds 951 msec
