                         Program Version 4.2.1 -  RELEASE  -
|  1> ! wB97X-D3 SP def2-SVP
|  2> %pal
|  3> nprocs 16
|  4> end
|  5>
|  6> * xyz 0 1
|  7> S 	 44.7343 	 12.9387 	 80.822
|  8> C 	 44.2666 	 13.9681 	 79.4959
|  9> C 	 43.8717 	 15.1893 	 79.9923
| 10> C 	 43.9722 	 15.2482 	 81.456
| 11> C 	 44.4471 	 14.1194 	 82.0281
| 12> H 	 43.6551 	 16.0544 	 82.0691
| 13> C 	 43.3124 	 16.3097 	 79.1426
| 14> H 	 42.583 	 15.8525 	 78.4444
| 15> H 	 44.0994 	 16.7821 	 78.5432
| 16> C 	 42.7842 	 17.5769 	 80.0118
| 17> H 	 42.0432 	 17.2673 	 80.746
| 18> H 	 43.645 	 17.9488 	 80.6183
| 19> C 	 42.0861 	 18.6988 	 79.2278
| 20> H 	 42.8794 	 19.2761 	 78.7366
| 21> H 	 41.3569 	 18.3908 	 78.4295
| 22> H 	 41.5375 	 19.3972 	 79.8308
| 23> S 	 42.9561 	 13.72 	 84.3407
| 24> C 	 43.6761 	 13.2243 	 85.8278
| 25> C 	 45.0139 	 13.159 	 85.6453
| 26> C 	 45.5264 	 13.5419 	 84.3927
| 27> C 	 44.5046 	 13.7799 	 83.4755
| 28> H 	 45.6856 	 12.809 	 86.4039
| 29> C 	 47.0545 	 13.5368 	 84.1357
| 30> H 	 47.3656 	 13.8739 	 83.0803
| 31> H 	 47.4791 	 12.5043 	 84.2971
| 32> C 	 47.8731 	 14.3459 	 85.1619
| 33> H 	 48.8667 	 14.0044 	 85.2942
| 34> H 	 47.4373 	 14.1558 	 86.1413
| 35> C 	 47.8461 	 15.8738 	 84.9473
| 36> H 	 46.7806 	 16.2837 	 84.7856
| 37> H 	 48.4904 	 16.133 	 84.0716
| 38> H 	 48.4469 	 16.3552 	 85.7652
| 39> H 	 44.3634 	 13.678 	 78.5087
| 40> H 	 43.2167 	 13.0225 	 86.775
| 41> *
| 42>
| 43>                          ****END OF INPUT****

CARTESIAN COORDINATES (ANGSTROEM)
---------------------------------
  S     44.734300   12.938700   80.822000
  C     44.266600   13.968100   79.495900
  C     43.871700   15.189300   79.992300
  C     43.972200   15.248200   81.456000
  C     44.447100   14.119400   82.028100
  H     43.655100   16.054400   82.069100
  C     43.312400   16.309700   79.142600
  H     42.583000   15.852500   78.444400
  H     44.099400   16.782100   78.543200
  C     42.784200   17.576900   80.011800
  H     42.043200   17.267300   80.746000
  H     43.645000   17.948800   80.618300
  C     42.086100   18.698800   79.227800
  H     42.879400   19.276100   78.736600
  H     41.356900   18.390800   78.429500
  H     41.537500   19.397200   79.830800
  S     42.956100   13.720000   84.340700
  C     43.676100   13.224300   85.827800
  C     45.013900   13.159000   85.645300
  C     45.526400   13.541900   84.392700
  C     44.504600   13.779900   83.475500
  H     45.685600   12.809000   86.403900
  C     47.054500   13.536800   84.135700
  H     47.365600   13.873900   83.080300
  H     47.479100   12.504300   84.297100
  C     47.873100   14.345900   85.161900
  H     48.866700   14.004400   85.294200
  H     47.437300   14.155800   86.141300
  C     47.846100   15.873800   84.947300
  H     46.780600   16.283700   84.785600
  H     48.490400   16.133000   84.071600
  H     48.446900   16.355200   85.765200
  H     44.363400   13.678000   78.508700
  H     43.216700   13.022500   86.775000

 Total Charge           Charge          ....    0
 Multiplicity           Mult            ....    1
 Number of Electrons    NEL             ....  134
 Basis Dimension        Dim             ....  322

ORBITAL ENERGIES
----------------

  NO   OCC          E(Eh)            E(eV)
   0   2.0000     -88.964133     -2420.8371
   1   2.0000     -88.959949     -2420.7233
   2   2.0000     -10.332589      -281.1641
   3   2.0000     -10.325810      -280.9796
   4   2.0000     -10.314322      -280.6670
   5   2.0000     -10.308600      -280.5113
   6   2.0000     -10.306254      -280.4474
   7   2.0000     -10.304406      -280.3972
   8   2.0000     -10.303560      -280.3741
   9   2.0000     -10.300860      -280.3007
  10   2.0000     -10.296399      -280.1793
  11   2.0000     -10.290369      -280.0152
  12   2.0000     -10.285896      -279.8935
  13   2.0000     -10.285332      -279.8781
  14   2.0000     -10.282277      -279.7950
  15   2.0000     -10.281893      -279.7845
  16   2.0000      -8.078929      -219.8388
  17   2.0000      -8.075773      -219.7530
  18   2.0000      -6.037468      -164.2879
  19   2.0000      -6.034340      -164.2027
  20   2.0000      -6.033317      -164.1749
  21   2.0000      -6.029932      -164.0828
  22   2.0000      -6.029729      -164.0773
  23   2.0000      -6.026584      -163.9917
  24   2.0000      -1.009514       -27.4703
  25   2.0000      -0.990161       -26.9437
  26   2.0000      -0.904092       -24.6016
  27   2.0000      -0.901625       -24.5345
  28   2.0000      -0.870994       -23.7010
  29   2.0000      -0.845480       -23.0067
  30   2.0000      -0.842489       -22.9253
  31   2.0000      -0.819546       -22.3010
  32   2.0000      -0.778202       -21.1760
  33   2.0000      -0.770281       -20.9604
  34   2.0000      -0.711373       -19.3574
  35   2.0000      -0.694414       -18.8960
  36   2.0000      -0.689669       -18.7669
  37   2.0000      -0.661368       -17.9967
  38   2.0000      -0.643049       -17.4983
  39   2.0000      -0.616367       -16.7722
  40   2.0000      -0.601752       -16.3745
  41   2.0000      -0.572068       -15.5668
  42   2.0000      -0.561892       -15.2899
  43   2.0000      -0.553075       -15.0499
  44   2.0000      -0.527911       -14.3652
  45   2.0000      -0.522239       -14.2108
  46   2.0000      -0.515062       -14.0155
  47   2.0000      -0.513078       -13.9616
  48   2.0000      -0.504858       -13.7379
  49   2.0000      -0.497220       -13.5300
  50   2.0000      -0.488816       -13.3014
  51   2.0000      -0.483472       -13.1559
  52   2.0000      -0.472406       -12.8548
  53   2.0000      -0.464667       -12.6442
  54   2.0000      -0.460709       -12.5365
  55   2.0000      -0.454880       -12.3779
  56   2.0000      -0.445986       -12.1359
  57   2.0000      -0.428088       -11.6489
  58   2.0000      -0.425081       -11.5670
  59   2.0000      -0.421161       -11.4604
  60   2.0000      -0.415547       -11.3076
  61   2.0000      -0.412629       -11.2282
  62   2.0000      -0.408538       -11.1169
  63   2.0000      -0.336494        -9.1565
  64   2.0000      -0.332525        -9.0485
  65   2.0000      -0.324224        -8.8226
  66   2.0000      -0.309053        -8.4098
  67   0.0000       0.042395         1.1536
  68   0.0000       0.064172         1.7462
  69   0.0000       0.115411         3.1405
  70   0.0000       0.125534         3.4159
  71   0.0000       0.137905         3.7526

MULLIKEN ATOMIC CHARGES
-----------------------
   0 S :    0.107461
   1 C :   -0.102577
   2 C :   -0.084167
   3 C :    0.020485
   4 C :   -0.126515
   5 H :   -0.001165
   6 C :    0.052809
   7 H :    0.046380
   8 H :    0.041773
   9 C :   -0.139337
  10 H :    0.037920
  11 H :    0.047672
  12 C :   -0.033684
  13 H :    0.027166
  14 H :    0.040092
  15 H :    0.030632
  16 S :    0.109333
  17 C :   -0.065040
  18 C :   -0.044332
  19 C :    0.009629
  20 C :   -0.185513
  21 H :    0.012295
  22 C :    0.029176
  23 H :    0.044674
  24 H :    0.045823
  25 C :   -0.068644
  26 H :    0.016703
  27 H :    0.015005
  28 C :   -0.088745
  29 H :    0.062936
  30 H :    0.029794
  31 H :    0.037961
  32 H :    0.022271
  33 H :    0.051733
Sum of atomic charges:    0.0000000

LOEWDIN ATOMIC CHARGES
----------------------
   0 S :    0.423912
   1 C :   -0.185239
   2 C :   -0.061251
   3 C :   -0.065409
   4 C :   -0.209917
   5 H :    0.025585
   6 C :   -0.033623
   7 H :    0.036418
   8 H :    0.034534
   9 C :   -0.046394
  10 H :    0.020390
  11 H :    0.030520
  12 C :   -0.071339
  13 H :    0.024572
  14 H :    0.032378
  15 H :    0.024395
  16 S :    0.411232
  17 C :   -0.187762
  18 C :   -0.076102
  19 C :   -0.058165
  20 C :   -0.190620
  21 H :    0.025991
  22 C :   -0.036053
  23 H :    0.037417
  24 H :    0.040811
  25 C :   -0.047466
  26 H :    0.019060
  27 H :    0.019902
  28 C :   -0.079464
  29 H :    0.038562
  30 H :    0.024521
  31 H :    0.030202
  32 H :    0.014811
  33 H :    0.033589

  Mayer bond orders larger than 0.100000
B(  0-S ,  1-C ) :   1.1445 B(  0-S ,  4-C ) :   1.1662 B(  1-C ,  2-C ) :   1.6054
B(  1-C , 32-H ) :   0.9912 B(  2-C ,  3-C ) :   1.2308 B(  2-C ,  6-C ) :   1.0118
B(  3-C ,  4-C ) :   1.5850 B(  3-C ,  5-H ) :   1.0054 B(  4-C , 20-C ) :   0.9848
B(  6-C ,  7-H ) :   0.9475 B(  6-C ,  8-H ) :   0.9383 B(  6-C ,  9-C ) :   1.0655
B(  9-C , 10-H ) :   0.9600 B(  9-C , 11-H ) :   0.9516 B(  9-C , 12-C ) :   1.0752
B( 12-C , 13-H ) :   0.9749 B( 12-C , 14-H ) :   0.9752 B( 12-C , 15-H ) :   0.9745
B( 16-S , 17-C ) :   1.1528 B( 16-S , 20-C ) :   1.1511 B( 17-C , 18-C ) :   1.6002
B( 17-C , 33-H ) :   0.9706 B( 18-C , 19-C ) :   1.2626 B( 18-C , 21-H ) :   0.9821
B( 19-C , 20-C ) :   1.5857 B( 19-C , 22-C ) :   1.0360 B( 22-C , 23-H ) :   0.9460
B( 22-C , 24-H ) :   0.9388 B( 22-C , 25-C ) :   1.0603 B( 25-C , 26-H ) :   0.9541
B( 25-C , 27-H ) :   0.9538 B( 25-C , 28-C ) :   1.0754 B( 28-C , 29-H ) :   0.9741
B( 28-C , 30-H ) :   0.9743 B( 28-C , 31-H ) :   0.9720

Dispersion correction           -0.013695509
FINAL SINGLE POINT ENERGY     -1339.878347237843

DIPOLE MOMENT
-------------
                                X             Y             Z
Electronic contribution:     -7.81524     -20.13597       2.50260
Nuclear contribution   :      8.02282      20.45093      -2.44797
                        -----------------------------------------
Total Dipole Moment    :      0.20758       0.31496       0.05463
                        -----------------------------------------
Magnitude (a.u.)       :      0.38114
Magnitude (Debye)      :      0.96879

Rotational constants in cm-1:     0.018899     0.007278     0.007126
Rotational constants in MHz :   566.563787   218.200492   213.638273

                             ****ORCA TERMINATED NORMALLY****
TOTAL RUN TIME: 0 days 0 hours 0 minutes 29 seconds 520 msec
