                         Program Version 4.2.1 -  RELEASE  -
|  1> ! wB97X-D3 SP def2-SVP
|  2> %pal
|  3> nprocs 16
|  4> end
|  5>
|  6> * xyz 0 1
|  7> S 	 5.73048 	 79.9068 	 48.2057
|  8> C 	 6.20575 	 78.2309 	 48.524
|  9> C 	 5.37577 	 77.2433 	 47.976
| 10> C 	 4.39077 	 77.9209 	 47.1847
| 11> C 	 4.4312 	 79.2968 	 47.204
| 12> H 	 3.60535 	 77.5123 	 46.6378
| 13> C 	 5.52248 	 75.7763 	 47.9373
| 14> H 	 6.4187 	 75.476 	 48.5071
| 15> H 	 5.44007 	 75.4122 	 46.9097
| 16> C 	 4.42589 	 75.0263 	 48.7931
| 17> H 	 4.35209 	 75.4751 	 49.7875
| 18> H 	 3.44658 	 75.207 	 48.3431
| 19> C 	 4.54629 	 73.5513 	 48.6997
| 20> H 	 3.6776 	 73.0372 	 48.9463
| 21> H 	 4.86162 	 73.1218 	 47.7812
| 22> H 	 5.26848 	 73.3561 	 49.4957
| 23> S 	 4.45398 	 81.2704 	 45.3493
| 24> C 	 2.97501 	 81.7219 	 44.5445
| 25> C 	 1.86957 	 81.1823 	 45.1623
| 26> C 	 2.22042 	 80.2882 	 46.2327
| 27> C 	 3.60005 	 80.1624 	 46.4265
| 28> H 	 0.831664 	 81.4144 	 44.8035
| 29> C 	 1.12117 	 79.5098 	 46.8312
| 30> H 	 1.43287 	 78.4761 	 47.1021
| 31> H 	 0.516545 	 79.3805 	 45.9151
| 32> C 	 0.445865 	 80.2508 	 48.0483
| 33> H 	 -0.471572 	 79.7303 	 48.3694
| 34> H 	 0.219996 	 81.2588 	 47.6956
| 35> C 	 1.22406 	 80.3092 	 49.2799
| 36> H 	 0.64438 	 80.9852 	 49.959
| 37> H 	 2.23787 	 80.6967 	 49.0057
| 38> H 	 1.34336 	 79.2674 	 49.5744
| 39> H 	 7.07004 	 77.9661 	 49.0817
| 40> H 	 2.85944 	 82.5526 	 43.8152
| 41> *
| 42>
| 43>                          ****END OF INPUT****

CARTESIAN COORDINATES (ANGSTROEM)
---------------------------------
  S      5.730480   79.906800   48.205700
  C      6.205750   78.230900   48.524000
  C      5.375770   77.243300   47.976000
  C      4.390770   77.920900   47.184700
  C      4.431200   79.296800   47.204000
  H      3.605350   77.512300   46.637800
  C      5.522480   75.776300   47.937300
  H      6.418700   75.476000   48.507100
  H      5.440070   75.412200   46.909700
  C      4.425890   75.026300   48.793100
  H      4.352090   75.475100   49.787500
  H      3.446580   75.207000   48.343100
  C      4.546290   73.551300   48.699700
  H      3.677600   73.037200   48.946300
  H      4.861620   73.121800   47.781200
  H      5.268480   73.356100   49.495700
  S      4.453980   81.270400   45.349300
  C      2.975010   81.721900   44.544500
  C      1.869570   81.182300   45.162300
  C      2.220420   80.288200   46.232700
  C      3.600050   80.162400   46.426500
  H      0.831664   81.414400   44.803500
  C      1.121170   79.509800   46.831200
  H      1.432870   78.476100   47.102100
  H      0.516545   79.380500   45.915100
  C      0.445865   80.250800   48.048300
  H     -0.471572   79.730300   48.369400
  H      0.219996   81.258800   47.695600
  C      1.224060   80.309200   49.279900
  H      0.644380   80.985200   49.959000
  H      2.237870   80.696700   49.005700
  H      1.343360   79.267400   49.574400
  H      7.070040   77.966100   49.081700
  H      2.859440   82.552600   43.815200

 Total Charge           Charge          ....    0
 Multiplicity           Mult            ....    1
 Number of Electrons    NEL             ....  134
 Basis Dimension        Dim             ....  322

ORBITAL ENERGIES
----------------

  NO   OCC          E(Eh)            E(eV)
   0   2.0000     -88.970038     -2420.9978
   1   2.0000     -88.963114     -2420.8094
   2   2.0000     -10.325658      -280.9754
   3   2.0000     -10.324779      -280.9515
   4   2.0000     -10.318467      -280.7798
   5   2.0000     -10.315822      -280.7078
   6   2.0000     -10.303608      -280.3754
   7   2.0000     -10.302651      -280.3494
   8   2.0000     -10.298243      -280.2294
   9   2.0000     -10.296624      -280.1854
  10   2.0000     -10.291957      -280.0584
  11   2.0000     -10.287503      -279.9372
  12   2.0000     -10.286237      -279.9028
  13   2.0000     -10.281934      -279.7856
  14   2.0000     -10.272636      -279.5326
  15   2.0000     -10.269368      -279.4437
  16   2.0000      -8.084252      -219.9837
  17   2.0000      -8.077937      -219.8118
  18   2.0000      -6.042709      -164.4305
  19   2.0000      -6.038996      -164.3294
  20   2.0000      -6.036537      -164.2625
  21   2.0000      -6.034942      -164.2191
  22   2.0000      -6.032344      -164.1484
  23   2.0000      -6.028681      -164.0487
  24   2.0000      -1.006837       -27.3974
  25   2.0000      -0.982181       -26.7265
  26   2.0000      -0.919119       -25.0105
  27   2.0000      -0.913787       -24.8654
  28   2.0000      -0.874674       -23.8011
  29   2.0000      -0.858603       -23.3638
  30   2.0000      -0.853917       -23.2363
  31   2.0000      -0.814498       -22.1636
  32   2.0000      -0.783926       -21.3317
  33   2.0000      -0.768435       -20.9102
  34   2.0000      -0.704684       -19.1754
  35   2.0000      -0.698641       -19.0110
  36   2.0000      -0.682448       -18.5704
  37   2.0000      -0.660514       -17.9735
  38   2.0000      -0.646131       -17.5821
  39   2.0000      -0.621873       -16.9220
  40   2.0000      -0.596085       -16.2203
  41   2.0000      -0.579240       -15.7619
  42   2.0000      -0.563906       -15.3447
  43   2.0000      -0.556963       -15.1557
  44   2.0000      -0.544089       -14.8054
  45   2.0000      -0.527209       -14.3461
  46   2.0000      -0.524153       -14.2629
  47   2.0000      -0.508930       -13.8487
  48   2.0000      -0.506078       -13.7711
  49   2.0000      -0.500719       -13.6252
  50   2.0000      -0.493349       -13.4247
  51   2.0000      -0.479575       -13.0499
  52   2.0000      -0.465790       -12.6748
  53   2.0000      -0.465351       -12.6628
  54   2.0000      -0.457507       -12.4494
  55   2.0000      -0.457414       -12.4469
  56   2.0000      -0.443725       -12.0744
  57   2.0000      -0.437032       -11.8922
  58   2.0000      -0.435047       -11.8382
  59   2.0000      -0.426432       -11.6038
  60   2.0000      -0.419605       -11.4180
  61   2.0000      -0.405550       -11.0356
  62   2.0000      -0.404782       -11.0147
  63   2.0000      -0.344040        -9.3618
  64   2.0000      -0.330822        -9.0021
  65   2.0000      -0.327222        -8.9042
  66   2.0000      -0.291493        -7.9319
  67   0.0000       0.030816         0.8385
  68   0.0000       0.067210         1.8289
  69   0.0000       0.108628         2.9559
  70   0.0000       0.115825         3.1518
  71   0.0000       0.121736         3.3126

MULLIKEN ATOMIC CHARGES
-----------------------
   0 S :    0.121592
   1 C :   -0.111462
   2 C :   -0.047058
   3 C :    0.044202
   4 C :   -0.159299
   5 H :   -0.018253
   6 C :    0.069156
   7 H :    0.020961
   8 H :    0.042823
   9 C :   -0.122566
  10 H :    0.037706
  11 H :    0.013177
  12 C :    0.017225
  13 H :    0.018058
  14 H :    0.023226
  15 H :    0.022967
  16 S :    0.099158
  17 C :   -0.092950
  18 C :   -0.069312
  19 C :   -0.044894
  20 C :   -0.155969
  21 H :    0.042432
  22 C :    0.038867
  23 H :    0.017442
  24 H :    0.032109
  25 C :   -0.062435
  26 H :    0.026876
  27 H :    0.017812
  28 C :   -0.031100
  29 H :    0.050203
  30 H :    0.034607
  31 H :    0.026765
  32 H :    0.028793
  33 H :    0.069138
Sum of atomic charges:   -0.0000000

LOEWDIN ATOMIC CHARGES
----------------------
   0 S :    0.397120
   1 C :   -0.182213
   2 C :   -0.058794
   3 C :   -0.048255
   4 C :   -0.198980
   5 H :    0.017678
   6 C :   -0.027649
   7 H :    0.033460
   8 H :    0.037775
   9 C :   -0.040851
  10 H :    0.026994
  11 H :    0.015691
  12 C :   -0.059579
  13 H :    0.019743
  14 H :    0.023493
  15 H :    0.029217
  16 S :    0.400331
  17 C :   -0.193402
  18 C :   -0.080842
  19 C :   -0.060319
  20 C :   -0.198748
  21 H :    0.041242
  22 C :   -0.039922
  23 H :    0.026649
  24 H :    0.037919
  25 C :   -0.040285
  26 H :    0.024016
  27 H :    0.019252
  28 C :   -0.065068
  29 H :    0.036612
  30 H :    0.027307
  31 H :    0.025332
  32 H :    0.016989
  33 H :    0.038087

  Mayer bond orders larger than 0.100000
B(  0-S ,  1-C ) :   1.1332 B(  0-S ,  4-C ) :   1.1275 B(  1-C ,  2-C ) :   1.6155
B(  1-C , 32-H ) :   0.9665 B(  2-C ,  3-C ) :   1.2038 B(  2-C ,  6-C ) :   1.0481
B(  3-C ,  4-C ) :   1.6133 B(  3-C ,  5-H ) :   0.9970 B(  4-C , 20-C ) :   1.0515
B(  6-C ,  7-H ) :   0.9379 B(  6-C ,  8-H ) :   0.9382 B(  6-C ,  9-C ) :   1.0528
B(  9-C , 10-H ) :   0.9596 B(  9-C , 11-H ) :   0.9586 B(  9-C , 12-C ) :   1.0786
B( 12-C , 13-H ) :   0.9716 B( 12-C , 14-H ) :   0.9689 B( 12-C , 15-H ) :   0.9734
B( 16-S , 17-C ) :   1.1549 B( 16-S , 20-C ) :   1.1259 B( 17-C , 18-C ) :   1.6267
B( 17-C , 33-H ) :   0.9578 B( 18-C , 19-C ) :   1.2414 B( 18-C , 21-H ) :   0.9759
B( 19-C , 20-C ) :   1.5819 B( 19-C , 22-C ) :   1.0292 B( 22-C , 23-H ) :   0.9405
B( 22-C , 24-H ) :   0.9383 B( 22-C , 25-C ) :   1.0555 B( 25-C , 26-H ) :   0.9552
B( 25-C , 27-H ) :   0.9546 B( 25-C , 28-C ) :   1.0828 B( 28-C , 29-H ) :   0.9682
B( 28-C , 30-H ) :   0.9709 B( 28-C , 31-H ) :   0.9723

Dispersion correction           -0.014505889
FINAL SINGLE POINT ENERGY     -1339.861147046440

DIPOLE MOMENT
-------------
                                X             Y             Z
Electronic contribution:     14.01499      20.80960     -10.74762
Nuclear contribution   :    -14.47925     -21.34001      10.75347
                        -----------------------------------------
Total Dipole Moment    :     -0.46426      -0.53041       0.00584
                        -----------------------------------------
Magnitude (a.u.)       :      0.70492
Magnitude (Debye)      :      1.79175

Rotational constants in cm-1:     0.019288     0.008417     0.007143
Rotational constants in MHz :   578.229218   252.330934   214.154551

                             ****ORCA TERMINATED NORMALLY****
TOTAL RUN TIME: 0 days 0 hours 0 minutes 34 seconds 353 msec
