                         Program Version 4.2.1 -  RELEASE  -
|  1> ! wB97X-D3 SP def2-SVP
|  2> %pal
|  3> nprocs 16
|  4> end
|  5>
|  6> * xyz 0 1
|  7> S 	 3.48675 	 -18.4682 	 86.6189
|  8> C 	 3.52078 	 -19.7836 	 87.7779
|  9> C 	 4.40757 	 -19.5163 	 88.8212
| 10> C 	 4.99577 	 -18.1981 	 88.693
| 11> C 	 4.66123 	 -17.5714 	 87.5214
| 12> H 	 5.71985 	 -17.6872 	 89.3768
| 13> C 	 4.72993 	 -20.4527 	 89.9673
| 14> H 	 5.36452 	 -19.8688 	 90.6285
| 15> H 	 5.42412 	 -21.2212 	 89.6267
| 16> C 	 3.45775 	 -20.9859 	 90.8206
| 17> H 	 3.68368 	 -21.0876 	 91.9117
| 18> H 	 2.73793 	 -20.1366 	 90.8315
| 19> C 	 2.70417 	 -22.1934 	 90.1877
| 20> H 	 1.64484 	 -22.1834 	 90.4864
| 21> H 	 2.61578 	 -22.087 	 89.1189
| 22> H 	 3.12573 	 -23.1899 	 90.4716
| 23> S 	 5.83541 	 -16.2954 	 85.2939
| 24> C 	 6.03537 	 -14.5906 	 85.3353
| 25> C 	 5.81876 	 -14.1418 	 86.5933
| 26> C 	 5.37709 	 -15.1291 	 87.5376
| 27> C 	 5.22075 	 -16.3457 	 86.986
| 28> H 	 6.02029 	 -13.118 	 86.842
| 29> C 	 4.95413 	 -14.6701 	 88.8889
| 30> H 	 4.37333 	 -15.4539 	 89.3274
| 31> H 	 4.21862 	 -13.9041 	 88.7732
| 32> C 	 6.04466 	 -14.213 	 89.988
| 33> H 	 5.57395 	 -13.9635 	 90.9329
| 34> H 	 6.40603 	 -13.1657 	 89.7598
| 35> C 	 7.19914 	 -15.3374 	 90.1798
| 36> H 	 7.46355 	 -15.8447 	 89.2204
| 37> H 	 6.94694 	 -16.0397 	 90.938
| 38> H 	 8.14184 	 -14.9446 	 90.5578
| 39> H 	 2.94301 	 -20.7053 	 87.7477
| 40> H 	 6.24878 	 -14.0054 	 84.5194
| 41> *
| 42>
| 43>                          ****END OF INPUT****

CARTESIAN COORDINATES (ANGSTROEM)
---------------------------------
  S      3.486750  -18.468200   86.618900
  C      3.520780  -19.783600   87.777900
  C      4.407570  -19.516300   88.821200
  C      4.995770  -18.198100   88.693000
  C      4.661230  -17.571400   87.521400
  H      5.719850  -17.687200   89.376800
  C      4.729930  -20.452700   89.967300
  H      5.364520  -19.868800   90.628500
  H      5.424120  -21.221200   89.626700
  C      3.457750  -20.985900   90.820600
  H      3.683680  -21.087600   91.911700
  H      2.737930  -20.136600   90.831500
  C      2.704170  -22.193400   90.187700
  H      1.644840  -22.183400   90.486400
  H      2.615780  -22.087000   89.118900
  H      3.125730  -23.189900   90.471600
  S      5.835410  -16.295400   85.293900
  C      6.035370  -14.590600   85.335300
  C      5.818760  -14.141800   86.593300
  C      5.377090  -15.129100   87.537600
  C      5.220750  -16.345700   86.986000
  H      6.020290  -13.118000   86.842000
  C      4.954130  -14.670100   88.888900
  H      4.373330  -15.453900   89.327400
  H      4.218620  -13.904100   88.773200
  C      6.044660  -14.213000   89.988000
  H      5.573950  -13.963500   90.932900
  H      6.406030  -13.165700   89.759800
  C      7.199140  -15.337400   90.179800
  H      7.463550  -15.844700   89.220400
  H      6.946940  -16.039700   90.938000
  H      8.141840  -14.944600   90.557800
  H      2.943010  -20.705300   87.747700
  H      6.248780  -14.005400   84.519400

 Total Charge           Charge          ....    0
 Multiplicity           Mult            ....    1
 Number of Electrons    NEL             ....  134
 Basis Dimension        Dim             ....  322

ORBITAL ENERGIES
----------------

  NO   OCC          E(Eh)            E(eV)
   0   2.0000     -88.967108     -2420.9181
   1   2.0000     -88.959288     -2420.7053
   2   2.0000     -10.325725      -280.9772
   3   2.0000     -10.325188      -280.9627
   4   2.0000     -10.314343      -280.6675
   5   2.0000     -10.307282      -280.4754
   6   2.0000     -10.304546      -280.4010
   7   2.0000     -10.304419      -280.3975
   8   2.0000     -10.301683      -280.3231
   9   2.0000     -10.297725      -280.2153
  10   2.0000     -10.297152      -280.1998
  11   2.0000     -10.296642      -280.1859
  12   2.0000     -10.288523      -279.9650
  13   2.0000     -10.286519      -279.9104
  14   2.0000     -10.285508      -279.8829
  15   2.0000     -10.285151      -279.8732
  16   2.0000      -8.081857      -219.9185
  17   2.0000      -8.074379      -219.7150
  18   2.0000      -6.040376      -164.3670
  19   2.0000      -6.036247      -164.2546
  20   2.0000      -6.033020      -164.1668
  21   2.0000      -6.032719      -164.1586
  22   2.0000      -6.028890      -164.0544
  23   2.0000      -6.024913      -163.9462
  24   2.0000      -1.009112       -27.4593
  25   2.0000      -0.985933       -26.8286
  26   2.0000      -0.902462       -24.5572
  27   2.0000      -0.898326       -24.4447
  28   2.0000      -0.866320       -23.5738
  29   2.0000      -0.847591       -23.0641
  30   2.0000      -0.840039       -22.8586
  31   2.0000      -0.813402       -22.1338
  32   2.0000      -0.783853       -21.3297
  33   2.0000      -0.777713       -21.1626
  34   2.0000      -0.713770       -19.4227
  35   2.0000      -0.703575       -19.1452
  36   2.0000      -0.701601       -19.0915
  37   2.0000      -0.662201       -18.0194
  38   2.0000      -0.640176       -17.4201
  39   2.0000      -0.610726       -16.6187
  40   2.0000      -0.596152       -16.2221
  41   2.0000      -0.571519       -15.5518
  42   2.0000      -0.550283       -14.9740
  43   2.0000      -0.540453       -14.7065
  44   2.0000      -0.532605       -14.4929
  45   2.0000      -0.531101       -14.4520
  46   2.0000      -0.516933       -14.0665
  47   2.0000      -0.513805       -13.9814
  48   2.0000      -0.501595       -13.6491
  49   2.0000      -0.496068       -13.4987
  50   2.0000      -0.489974       -13.3329
  51   2.0000      -0.479237       -13.0407
  52   2.0000      -0.473888       -12.8951
  53   2.0000      -0.465499       -12.6669
  54   2.0000      -0.461640       -12.5619
  55   2.0000      -0.451542       -12.2871
  56   2.0000      -0.444689       -12.1006
  57   2.0000      -0.435392       -11.8476
  58   2.0000      -0.430675       -11.7193
  59   2.0000      -0.423927       -11.5357
  60   2.0000      -0.419224       -11.4077
  61   2.0000      -0.415316       -11.3013
  62   2.0000      -0.412122       -11.2144
  63   2.0000      -0.349432        -9.5085
  64   2.0000      -0.331971        -9.0334
  65   2.0000      -0.324404        -8.8275
  66   2.0000      -0.295891        -8.0516
  67   0.0000       0.031358         0.8533
  68   0.0000       0.075584         2.0568
  69   0.0000       0.115706         3.1485
  70   0.0000       0.123389         3.3576
  71   0.0000       0.129045         3.5115

MULLIKEN ATOMIC CHARGES
-----------------------
   0 S :    0.125881
   1 C :   -0.129409
   2 C :   -0.104059
   3 C :    0.022882
   4 C :   -0.170118
   5 H :    0.015973
   6 C :    0.077675
   7 H :    0.008555
   8 H :    0.049013
   9 C :   -0.101337
  10 H :    0.043977
  11 H :    0.037399
  12 C :   -0.047095
  13 H :    0.034023
  14 H :    0.012243
  15 H :    0.048610
  16 S :    0.093341
  17 C :   -0.051527
  18 C :   -0.023607
  19 C :   -0.015581
  20 C :   -0.155790
  21 H :    0.008435
  22 C :    0.062079
  23 H :    0.011838
  24 H :    0.025841
  25 C :   -0.069411
  26 H :    0.027208
  27 H :    0.030012
  28 C :   -0.076413
  29 H :    0.062640
  30 H :    0.038555
  31 H :    0.029575
  32 H :    0.049873
  33 H :    0.028718
Sum of atomic charges:    0.0000000

LOEWDIN ATOMIC CHARGES
----------------------
   0 S :    0.419194
   1 C :   -0.203258
   2 C :   -0.061076
   3 C :   -0.066691
   4 C :   -0.200263
   5 H :    0.039591
   6 C :   -0.035080
   7 H :    0.028724
   8 H :    0.035347
   9 C :   -0.043547
  10 H :    0.029784
  11 H :    0.029389
  12 C :   -0.071532
  13 H :    0.030717
  14 H :    0.018550
  15 H :    0.031028
  16 S :    0.385164
  17 C :   -0.172815
  18 C :   -0.067002
  19 C :   -0.062417
  20 C :   -0.180070
  21 H :    0.026852
  22 C :   -0.031638
  23 H :    0.025939
  24 H :    0.031292
  25 C :   -0.036829
  26 H :    0.023899
  27 H :    0.025039
  28 C :   -0.074094
  29 H :    0.034312
  30 H :    0.020718
  31 H :    0.027749
  32 H :    0.026753
  33 H :    0.016271

  Mayer bond orders larger than 0.100000
B(  0-S ,  1-C ) :   1.1342 B(  0-S ,  4-C ) :   1.1588 B(  1-C ,  2-C ) :   1.6068
B(  1-C , 32-H ) :   0.9676 B(  2-C ,  3-C ) :   1.2426 B(  2-C ,  6-C ) :   1.0233
B(  3-C ,  4-C ) :   1.5786 B(  3-C ,  5-H ) :   0.9792 B(  4-C , 20-C ) :   1.0391
B(  6-C ,  7-H ) :   0.9380 B(  6-C ,  8-H ) :   0.9425 B(  6-C ,  9-C ) :   1.0423
B(  9-C , 10-H ) :   0.9637 B(  9-C , 11-H ) :   0.9637 B(  9-C , 12-C ) :   1.0623
B( 12-C , 13-H ) :   0.9732 B( 12-C , 14-H ) :   0.9763 B( 12-C , 15-H ) :   0.9752
B( 16-S , 17-C ) :   1.1405 B( 16-S , 20-C ) :   1.1190 B( 17-C , 18-C ) :   1.6262
B( 17-C , 33-H ) :   0.9798 B( 18-C , 19-C ) :   1.2063 B( 18-C , 21-H ) :   0.9970
B( 19-C , 20-C ) :   1.6235 B( 19-C , 22-C ) :   1.0560 B( 22-C , 23-H ) :   0.9298
B( 22-C , 24-H ) :   0.9371 B( 22-C , 25-C ) :   1.0568 B( 25-C , 26-H ) :   0.9597
B( 25-C , 27-H ) :   0.9635 B( 25-C , 28-C ) :   1.0482 B( 28-C , 29-H ) :   0.9751
B( 28-C , 30-H ) :   0.9730 B( 28-C , 31-H ) :   0.9742

Dispersion correction           -0.014874903
FINAL SINGLE POINT ENERGY     -1339.872111211494

DIPOLE MOMENT
-------------
                                X             Y             Z
Electronic contribution:     -0.97009       5.31294     -25.90195
Nuclear contribution   :      1.01203      -5.16568      26.59688
                        -----------------------------------------
Total Dipole Moment    :      0.04194       0.14727       0.69492
                        -----------------------------------------
Magnitude (a.u.)       :      0.71159
Magnitude (Debye)      :      1.80873

Rotational constants in cm-1:     0.021831     0.008145     0.006396
Rotational constants in MHz :   654.475323   244.180204   191.736785

                             ****ORCA TERMINATED NORMALLY****
TOTAL RUN TIME: 0 days 0 hours 0 minutes 33 seconds 46 msec
