                         Program Version 4.2.1 -  RELEASE  -
|  1> ! wB97X-D3 SP def2-SVP
|  2> %pal
|  3> nprocs 16
|  4> end
|  5>
|  6> * xyz 0 1
|  7> S 	 -57.2237 	 48.5206 	 134.519
|  8> C 	 -55.7011 	 47.6695 	 134.719
|  9> C 	 -55.8309 	 46.2772 	 134.462
| 10> C 	 -57.2169 	 45.9167 	 134.29
| 11> C 	 -58.0591 	 47.0035 	 134.131
| 12> H 	 -57.6905 	 44.9591 	 134.286
| 13> C 	 -54.8698 	 45.1906 	 134.773
| 14> H 	 -55.3633 	 44.4187 	 135.497
| 15> H 	 -53.9232 	 45.5716 	 135.226
| 16> C 	 -54.506 	 44.4604 	 133.473
| 17> H 	 -55.4042 	 44.0496 	 132.986
| 18> H 	 -54.3476 	 45.1763 	 132.659
| 19> C 	 -53.3568 	 43.537 	 133.575
| 20> H 	 -53.1382 	 42.976 	 132.639
| 21> H 	 -52.5168 	 44.1791 	 133.792
| 22> H 	 -53.4277 	 42.748 	 134.372
| 23> S 	 -60.2283 	 47.3128 	 135.83
| 24> C 	 -61.8461 	 47.244 	 135.213
| 25> C 	 -61.8269 	 46.9559 	 133.897
| 26> C 	 -60.5488 	 46.8215 	 133.329
| 27> C 	 -59.5011 	 47.0995 	 134.207
| 28> H 	 -62.7389 	 46.7237 	 133.454
| 29> C 	 -60.4146 	 46.4424 	 131.94
| 30> H 	 -60.9066 	 45.4228 	 131.797
| 31> H 	 -59.3308 	 46.4228 	 131.67
| 32> C 	 -61.0409 	 47.3819 	 130.793
| 33> H 	 -60.829 	 48.4148 	 130.926
| 34> H 	 -62.1433 	 47.3933 	 130.944
| 35> C 	 -60.7718 	 47.1248 	 129.291
| 36> H 	 -61.2048 	 46.2309 	 128.92
| 37> H 	 -59.7532 	 47.0936 	 129.122
| 38> H 	 -61.2365 	 47.8699 	 128.753
| 39> H 	 -54.7575 	 48.2036 	 134.976
| 40> H 	 -62.7481 	 47.2993 	 135.792
| 41> *
| 42>
| 43>                          ****END OF INPUT****

CARTESIAN COORDINATES (ANGSTROEM)
---------------------------------
  S    -57.223700   48.520600  134.519000
  C    -55.701100   47.669500  134.719000
  C    -55.830900   46.277200  134.462000
  C    -57.216900   45.916700  134.290000
  C    -58.059100   47.003500  134.131000
  H    -57.690500   44.959100  134.286000
  C    -54.869800   45.190600  134.773000
  H    -55.363300   44.418700  135.497000
  H    -53.923200   45.571600  135.226000
  C    -54.506000   44.460400  133.473000
  H    -55.404200   44.049600  132.986000
  H    -54.347600   45.176300  132.659000
  C    -53.356800   43.537000  133.575000
  H    -53.138200   42.976000  132.639000
  H    -52.516800   44.179100  133.792000
  H    -53.427700   42.748000  134.372000
  S    -60.228300   47.312800  135.830000
  C    -61.846100   47.244000  135.213000
  C    -61.826900   46.955900  133.897000
  C    -60.548800   46.821500  133.329000
  C    -59.501100   47.099500  134.207000
  H    -62.738900   46.723700  133.454000
  C    -60.414600   46.442400  131.940000
  H    -60.906600   45.422800  131.797000
  H    -59.330800   46.422800  131.670000
  C    -61.040900   47.381900  130.793000
  H    -60.829000   48.414800  130.926000
  H    -62.143300   47.393300  130.944000
  C    -60.771800   47.124800  129.291000
  H    -61.204800   46.230900  128.920000
  H    -59.753200   47.093600  129.122000
  H    -61.236500   47.869900  128.753000
  H    -54.757500   48.203600  134.976000
  H    -62.748100   47.299300  135.792000

 Total Charge           Charge          ....    0
 Multiplicity           Mult            ....    1
 Number of Electrons    NEL             ....  134
 Basis Dimension        Dim             ....  322

ORBITAL ENERGIES
----------------

  NO   OCC          E(Eh)            E(eV)
   0   2.0000     -88.965347     -2420.8702
   1   2.0000     -88.959687     -2420.7161
   2   2.0000     -10.328451      -281.0514
   3   2.0000     -10.326179      -280.9896
   4   2.0000     -10.325879      -280.9815
   5   2.0000     -10.311910      -280.6013
   6   2.0000     -10.307810      -280.4898
   7   2.0000     -10.301936      -280.3299
   8   2.0000     -10.299280      -280.2576
   9   2.0000     -10.298760      -280.2435
  10   2.0000     -10.296196      -280.1737
  11   2.0000     -10.286176      -279.9011
  12   2.0000     -10.281745      -279.7805
  13   2.0000     -10.279986      -279.7326
  14   2.0000     -10.279965      -279.7321
  15   2.0000     -10.264180      -279.3025
  16   2.0000      -8.079748      -219.8611
  17   2.0000      -8.074411      -219.7159
  18   2.0000      -6.038247      -164.3090
  19   2.0000      -6.034235      -164.1999
  20   2.0000      -6.032982      -164.1658
  21   2.0000      -6.030598      -164.1009
  22   2.0000      -6.028897      -164.0546
  23   2.0000      -6.025102      -163.9514
  24   2.0000      -1.005741       -27.3676
  25   2.0000      -0.982906       -26.7462
  26   2.0000      -0.917586       -24.9688
  27   2.0000      -0.901457       -24.5299
  28   2.0000      -0.871867       -23.7247
  29   2.0000      -0.855995       -23.2928
  30   2.0000      -0.850490       -23.1430
  31   2.0000      -0.816517       -22.2186
  32   2.0000      -0.781302       -21.2603
  33   2.0000      -0.767509       -20.8850
  34   2.0000      -0.708857       -19.2890
  35   2.0000      -0.699192       -19.0260
  36   2.0000      -0.693068       -18.8593
  37   2.0000      -0.658490       -17.9184
  38   2.0000      -0.649767       -17.6811
  39   2.0000      -0.620278       -16.8786
  40   2.0000      -0.597111       -16.2482
  41   2.0000      -0.570786       -15.5319
  42   2.0000      -0.559590       -15.2272
  43   2.0000      -0.555670       -15.1205
  44   2.0000      -0.530331       -14.4311
  45   2.0000      -0.525734       -14.3060
  46   2.0000      -0.521054       -14.1786
  47   2.0000      -0.514416       -13.9980
  48   2.0000      -0.508066       -13.8252
  49   2.0000      -0.500203       -13.6112
  50   2.0000      -0.492724       -13.4077
  51   2.0000      -0.476570       -12.9681
  52   2.0000      -0.472646       -12.8613
  53   2.0000      -0.462976       -12.5982
  54   2.0000      -0.456968       -12.4347
  55   2.0000      -0.456089       -12.4108
  56   2.0000      -0.448329       -12.1996
  57   2.0000      -0.437436       -11.9032
  58   2.0000      -0.426211       -11.5978
  59   2.0000      -0.424383       -11.5481
  60   2.0000      -0.419207       -11.4072
  61   2.0000      -0.409459       -11.1420
  62   2.0000      -0.403051       -10.9676
  63   2.0000      -0.341053        -9.2805
  64   2.0000      -0.323866        -8.8128
  65   2.0000      -0.321373        -8.7450
  66   2.0000      -0.304032        -8.2731
  67   0.0000       0.035158         0.9567
  68   0.0000       0.055341         1.5059
  69   0.0000       0.102726         2.7953
  70   0.0000       0.118804         3.2328
  71   0.0000       0.126634         3.4459

MULLIKEN ATOMIC CHARGES
-----------------------
   0 S :    0.103198
   1 C :   -0.134890
   2 C :   -0.059243
   3 C :    0.043105
   4 C :   -0.182256
   5 H :    0.019274
   6 C :    0.025356
   7 H :    0.058392
   8 H :    0.025620
   9 C :   -0.097485
  10 H :    0.013593
  11 H :    0.020040
  12 C :   -0.024208
  13 H :    0.038764
  14 H :    0.026960
  15 H :    0.033598
  16 S :    0.098468
  17 C :   -0.072707
  18 C :   -0.014205
  19 C :    0.009865
  20 C :   -0.155984
  21 H :   -0.008116
  22 C :    0.028865
  23 H :    0.046120
  24 H :    0.032531
  25 C :   -0.110866
  26 H :    0.021138
  27 H :    0.016789
  28 C :    0.027183
  29 H :    0.013449
  30 H :    0.018936
  31 H :    0.016084
  32 H :    0.071152
  33 H :    0.051481
Sum of atomic charges:   -0.0000000

LOEWDIN ATOMIC CHARGES
----------------------
   0 S :    0.401469
   1 C :   -0.194117
   2 C :   -0.067779
   3 C :   -0.041519
   4 C :   -0.196940
   5 H :    0.033474
   6 C :   -0.035519
   7 H :    0.045550
   8 H :    0.030022
   9 C :   -0.059759
  10 H :    0.021519
  11 H :    0.027582
  12 C :   -0.069514
  13 H :    0.032072
  14 H :    0.024578
  15 H :    0.027975
  16 S :    0.393513
  17 C :   -0.174929
  18 C :   -0.071981
  19 C :   -0.059317
  20 C :   -0.200963
  21 H :    0.021958
  22 C :   -0.040153
  23 H :    0.042763
  24 H :    0.033124
  25 C :   -0.040471
  26 H :    0.019293
  27 H :    0.019275
  28 C :   -0.046393
  29 H :    0.019971
  30 H :    0.016704
  31 H :    0.022209
  32 H :    0.036026
  33 H :    0.030279

  Mayer bond orders larger than 0.100000
B(  0-S ,  1-C ) :   1.1597 B(  0-S ,  4-C ) :   1.1422 B(  1-C ,  2-C ) :   1.5835
B(  1-C , 32-H ) :   0.9640 B(  2-C ,  3-C ) :   1.2129 B(  2-C ,  6-C ) :   1.0430
B(  3-C ,  4-C ) :   1.6081 B(  3-C ,  5-H ) :   0.9932 B(  4-C , 20-C ) :   1.0119
B(  6-C ,  7-H ) :   0.9408 B(  6-C ,  8-H ) :   0.9482 B(  6-C ,  9-C ) :   1.0371
B(  9-C , 10-H ) :   0.9498 B(  9-C , 11-H ) :   0.9494 B(  9-C , 12-C ) :   1.0854
B( 12-C , 13-H ) :   0.9706 B( 12-C , 14-H ) :   0.9720 B( 12-C , 15-H ) :   0.9713
B( 16-S , 17-C ) :   1.1591 B( 16-S , 20-C ) :   1.1268 B( 17-C , 18-C ) :   1.6128
B( 17-C , 33-H ) :   0.9661 B( 18-C , 19-C ) :   1.2293 B( 18-C , 21-H ) :   1.0045
B( 19-C , 20-C ) :   1.5795 B( 19-C , 22-C ) :   1.0891 B( 22-C , 23-H ) :   0.9255
B( 22-C , 24-H ) :   0.9323 B( 22-C , 25-C ) :   1.0442 B( 25-C , 26-H ) :   0.9597
B( 25-C , 27-H ) :   0.9539 B( 25-C , 28-C ) :   1.0912 B( 28-C , 29-H ) :   0.9737
B( 28-C , 30-H ) :   0.9756 B( 28-C , 31-H ) :   0.9692

Dispersion correction           -0.013268445
FINAL SINGLE POINT ENERGY     -1339.857071816208

DIPOLE MOMENT
-------------
                                X             Y             Z
Electronic contribution:     -8.20887      14.52689      19.54009
Nuclear contribution   :      8.19898     -14.98519     -19.80155
                        -----------------------------------------
Total Dipole Moment    :     -0.00989      -0.45831      -0.26146
                        -----------------------------------------
Magnitude (a.u.)       :      0.52774
Magnitude (Debye)      :      1.34140

Rotational constants in cm-1:     0.017704     0.007657     0.006323
Rotational constants in MHz :   530.761783   229.547892   189.551816

                             ****ORCA TERMINATED NORMALLY****
TOTAL RUN TIME: 0 days 0 hours 0 minutes 33 seconds 164 msec
