                         Program Version 4.2.1 -  RELEASE  -
|  1> ! wB97X-D3 SP def2-SVP
|  2> %pal
|  3> nprocs 16
|  4> end
|  5>
|  6> * xyz 0 1
|  7> S 	 -31.1324 	 27.5741 	 41.1933
|  8> C 	 -32.6726 	 26.767 	 41.5771
|  9> C 	 -33.4772 	 27.5275 	 42.3275
| 10> C 	 -32.8072 	 28.709 	 42.8431
| 11> C 	 -31.4813 	 28.806 	 42.474
| 12> H 	 -33.3361 	 29.468 	 43.4566
| 13> C 	 -34.9252 	 27.2532 	 42.5057
| 14> H 	 -35.1981 	 26.3539 	 42.1497
| 15> H 	 -35.5072 	 28.0236 	 41.9997
| 16> C 	 -35.4593 	 27.217 	 43.9437
| 17> H 	 -35.1434 	 28.1346 	 44.4889
| 18> H 	 -36.5527 	 27.3928 	 43.9399
| 19> C 	 -35.0359 	 25.9901 	 44.7673
| 20> H 	 -35.5908 	 25.0539 	 44.4955
| 21> H 	 -33.9787 	 25.8783 	 44.66
| 22> H 	 -35.2264 	 26.0003 	 45.8297
| 23> S 	 -29.5578 	 29.5758 	 44.1852
| 24> C 	 -28.5769 	 30.9821 	 43.7972
| 25> C 	 -29.1856 	 31.7229 	 42.7387
| 26> C 	 -30.2746 	 31.1061 	 42.1248
| 27> C 	 -30.5411 	 29.8707 	 42.8084
| 28> H 	 -28.8423 	 32.6681 	 42.4554
| 29> C 	 -30.9284 	 31.6443 	 40.8324
| 30> H 	 -31.1287 	 30.7309 	 40.2448
| 31> H 	 -30.1882 	 32.2475 	 40.4081
| 32> C 	 -32.1542 	 32.4383 	 41.0936
| 33> H 	 -33.0422 	 31.7803 	 41.3375
| 34> H 	 -32.5907 	 32.8416 	 40.1652
| 35> C 	 -32.1278 	 33.6212 	 42.0994
| 36> H 	 -31.9884 	 33.1784 	 43.1065
| 37> H 	 -33.0629 	 34.2201 	 42.1695
| 38> H 	 -31.2786 	 34.2822 	 41.9505
| 39> H 	 -32.8822 	 25.7981 	 41.095
| 40> H 	 -27.7477 	 31.3744 	 44.256
| 41> *
| 42>
| 43>                          ****END OF INPUT****

CARTESIAN COORDINATES (ANGSTROEM)
---------------------------------
  S    -31.132400   27.574100   41.193300
  C    -32.672600   26.767000   41.577100
  C    -33.477200   27.527500   42.327500
  C    -32.807200   28.709000   42.843100
  C    -31.481300   28.806000   42.474000
  H    -33.336100   29.468000   43.456600
  C    -34.925200   27.253200   42.505700
  H    -35.198100   26.353900   42.149700
  H    -35.507200   28.023600   41.999700
  C    -35.459300   27.217000   43.943700
  H    -35.143400   28.134600   44.488900
  H    -36.552700   27.392800   43.939900
  C    -35.035900   25.990100   44.767300
  H    -35.590800   25.053900   44.495500
  H    -33.978700   25.878300   44.660000
  H    -35.226400   26.000300   45.829700
  S    -29.557800   29.575800   44.185200
  C    -28.576900   30.982100   43.797200
  C    -29.185600   31.722900   42.738700
  C    -30.274600   31.106100   42.124800
  C    -30.541100   29.870700   42.808400
  H    -28.842300   32.668100   42.455400
  C    -30.928400   31.644300   40.832400
  H    -31.128700   30.730900   40.244800
  H    -30.188200   32.247500   40.408100
  C    -32.154200   32.438300   41.093600
  H    -33.042200   31.780300   41.337500
  H    -32.590700   32.841600   40.165200
  C    -32.127800   33.621200   42.099400
  H    -31.988400   33.178400   43.106500
  H    -33.062900   34.220100   42.169500
  H    -31.278600   34.282200   41.950500
  H    -32.882200   25.798100   41.095000
  H    -27.747700   31.374400   44.256000

 Total Charge           Charge          ....    0
 Multiplicity           Mult            ....    1
 Number of Electrons    NEL             ....  134
 Basis Dimension        Dim             ....  322

ORBITAL ENERGIES
----------------

  NO   OCC          E(Eh)            E(eV)
   0   2.0000     -88.973832     -2421.1010
   1   2.0000     -88.960628     -2420.7418
   2   2.0000     -10.332238      -281.1545
   3   2.0000     -10.324370      -280.9404
   4   2.0000     -10.314602      -280.6746
   5   2.0000     -10.313938      -280.6565
   6   2.0000     -10.303760      -280.3796
   7   2.0000     -10.300708      -280.2965
   8   2.0000     -10.297659      -280.2135
   9   2.0000     -10.292109      -280.0625
  10   2.0000     -10.289134      -279.9816
  11   2.0000     -10.289032      -279.9788
  12   2.0000     -10.287697      -279.9425
  13   2.0000     -10.282979      -279.8141
  14   2.0000     -10.281360      -279.7700
  15   2.0000     -10.275813      -279.6191
  16   2.0000      -8.088117      -220.0888
  17   2.0000      -8.074435      -219.7166
  18   2.0000      -6.046413      -164.5313
  19   2.0000      -6.042581      -164.4270
  20   2.0000      -6.039244      -164.3362
  21   2.0000      -6.033094      -164.1688
  22   2.0000      -6.029352      -164.0670
  23   2.0000      -6.024812      -163.9435
  24   2.0000      -1.001957       -27.2646
  25   2.0000      -0.980973       -26.6936
  26   2.0000      -0.913655       -24.8618
  27   2.0000      -0.911690       -24.8084
  28   2.0000      -0.867128       -23.5958
  29   2.0000      -0.847885       -23.0721
  30   2.0000      -0.839000       -22.8304
  31   2.0000      -0.812671       -22.1139
  32   2.0000      -0.788566       -21.4580
  33   2.0000      -0.775884       -21.1129
  34   2.0000      -0.711854       -19.3705
  35   2.0000      -0.696401       -18.9500
  36   2.0000      -0.687608       -18.7108
  37   2.0000      -0.667229       -18.1562
  38   2.0000      -0.639649       -17.4057
  39   2.0000      -0.623541       -16.9674
  40   2.0000      -0.586714       -15.9653
  41   2.0000      -0.568022       -15.4567
  42   2.0000      -0.560111       -15.2414
  43   2.0000      -0.557161       -15.1611
  44   2.0000      -0.545413       -14.8414
  45   2.0000      -0.535770       -14.5790
  46   2.0000      -0.517625       -14.0853
  47   2.0000      -0.510335       -13.8869
  48   2.0000      -0.499306       -13.5868
  49   2.0000      -0.491670       -13.3790
  50   2.0000      -0.484608       -13.1869
  51   2.0000      -0.476534       -12.9672
  52   2.0000      -0.471940       -12.8422
  53   2.0000      -0.466247       -12.6872
  54   2.0000      -0.462242       -12.5782
  55   2.0000      -0.451779       -12.2935
  56   2.0000      -0.445065       -12.1108
  57   2.0000      -0.440762       -11.9937
  58   2.0000      -0.438144       -11.9225
  59   2.0000      -0.424146       -11.5416
  60   2.0000      -0.420155       -11.4330
  61   2.0000      -0.410976       -11.1832
  62   2.0000      -0.400388       -10.8951
  63   2.0000      -0.338449        -9.2097
  64   2.0000      -0.328680        -8.9438
  65   2.0000      -0.319697        -8.6994
  66   2.0000      -0.303238        -8.2515
  67   0.0000       0.039030         1.0620
  68   0.0000       0.047819         1.3012
  69   0.0000       0.098302         2.6749
  70   0.0000       0.119033         3.2391
  71   0.0000       0.128422         3.4945

MULLIKEN ATOMIC CHARGES
-----------------------
   0 S :    0.081999
   1 C :   -0.150798
   2 C :   -0.066902
   3 C :    0.038381
   4 C :   -0.155809
   5 H :    0.032779
   6 C :    0.149492
   7 H :   -0.020572
   8 H :    0.037021
   9 C :   -0.109253
  10 H :    0.020587
  11 H :    0.025383
  12 C :   -0.049980
  13 H :    0.030874
  14 H :    0.036720
  15 H :    0.029309
  16 S :    0.152583
  17 C :   -0.055199
  18 C :   -0.042785
  19 C :   -0.041783
  20 C :   -0.229691
  21 H :   -0.009737
  22 C :    0.176434
  23 H :    0.039967
  24 H :    0.006020
  25 C :   -0.098451
  26 H :    0.025981
  27 H :    0.021296
  28 C :   -0.067017
  29 H :    0.041574
  30 H :    0.044345
  31 H :    0.026989
  32 H :    0.059910
  33 H :    0.020336
Sum of atomic charges:   -0.0000000

LOEWDIN ATOMIC CHARGES
----------------------
   0 S :    0.351165
   1 C :   -0.175188
   2 C :   -0.070527
   3 C :   -0.054708
   4 C :   -0.181022
   5 H :    0.037657
   6 C :   -0.019236
   7 H :    0.013406
   8 H :    0.040547
   9 C :   -0.046289
  10 H :    0.021229
  11 H :    0.024358
  12 C :   -0.071584
  13 H :    0.029034
  14 H :    0.024957
  15 H :    0.026034
  16 S :    0.449031
  17 C :   -0.183060
  18 C :   -0.061251
  19 C :   -0.047839
  20 C :   -0.223984
  21 H :    0.017343
  22 C :   -0.018534
  23 H :    0.042452
  24 H :    0.023574
  25 C :   -0.053638
  26 H :    0.029850
  27 H :    0.022993
  28 C :   -0.071909
  29 H :    0.028625
  30 H :    0.033026
  31 H :    0.019927
  32 H :    0.032450
  33 H :    0.011111

  Mayer bond orders larger than 0.100000
B(  0-S ,  1-C ) :   1.1146 B(  0-S ,  4-C ) :   1.1114 B(  1-C ,  2-C ) :   1.6509
B(  1-C , 32-H ) :   0.9659 B(  2-C ,  3-C ) :   1.1835 B(  2-C ,  6-C ) :   1.0448
B(  3-C ,  4-C ) :   1.6328 B(  3-C ,  5-H ) :   0.9865 B(  4-C , 20-C ) :   1.0218
B(  6-C ,  7-H ) :   0.9324 B(  6-C ,  8-H ) :   0.9287 B(  6-C ,  9-C ) :   1.0656
B(  9-C , 10-H ) :   0.9564 B(  9-C , 11-H ) :   0.9558 B(  9-C , 12-C ) :   1.0676
B( 12-C , 13-H ) :   0.9733 B( 12-C , 14-H ) :   0.9770 B( 12-C , 15-H ) :   0.9746
B( 16-S , 17-C ) :   1.1666 B( 16-S , 20-C ) :   1.1991 B( 17-C , 18-C ) :   1.5554
B( 17-C , 20-C ) :   0.1232 B( 17-C , 33-H ) :   0.9793 B( 18-C , 19-C ) :   1.3073
B( 18-C , 21-H ) :   0.9870 B( 19-C , 20-C ) :   1.5106 B( 19-C , 22-C ) :   1.0175
B( 22-C , 23-H ) :   0.9244 B( 22-C , 24-H ) :   0.9276 B( 22-C , 25-C ) :   1.0861
B( 25-C , 26-H ) :   0.9493 B( 25-C , 27-H ) :   0.9533 B( 25-C , 28-C ) :   1.0702
B( 28-C , 29-H ) :   0.9717 B( 28-C , 30-H ) :   0.9743 B( 28-C , 31-H ) :   0.9759

Dispersion correction           -0.015076902
FINAL SINGLE POINT ENERGY     -1339.861463335495

DIPOLE MOMENT
-------------
                                X             Y             Z
Electronic contribution:     20.44307      -7.05751      -1.27794
Nuclear contribution   :    -20.94308       7.36413       1.21329
                        -----------------------------------------
Total Dipole Moment    :     -0.50000       0.30662      -0.06465
                        -----------------------------------------
Magnitude (a.u.)       :      0.59009
Magnitude (Debye)      :      1.49988

Rotational constants in cm-1:     0.019642     0.008175     0.007462
Rotational constants in MHz :   588.840024   245.081335   223.705580

                             ****ORCA TERMINATED NORMALLY****
TOTAL RUN TIME: 0 days 0 hours 0 minutes 34 seconds 164 msec
