                         Program Version 4.2.1 -  RELEASE  -
|  1> ! wB97X-D3 SP def2-SVP
|  2> %pal
|  3> nprocs 16
|  4> end
|  5>
|  6> * xyz 0 1
|  7> S 	 -111.206 	 54.1948 	 114.981
|  8> C 	 -112.01 	 54.9161 	 113.673
|  9> C 	 -111.735 	 54.2754 	 112.451
| 10> C 	 -110.992 	 53.0238 	 112.601
| 11> C 	 -110.781 	 52.7717 	 113.956
| 12> H 	 -110.67 	 52.2772 	 111.804
| 13> C 	 -112.321 	 54.8215 	 111.161
| 14> H 	 -113.326 	 55.2907 	 111.331
| 15> H 	 -112.298 	 54.0707 	 110.401
| 16> C 	 -111.415 	 55.9296 	 110.544
| 17> H 	 -111.452 	 56.7632 	 111.236
| 18> H 	 -110.372 	 55.7294 	 110.496
| 19> C 	 -111.938 	 56.3686 	 109.185
| 20> H 	 -112.918 	 56.9333 	 109.324
| 21> H 	 -111.284 	 57.0392 	 108.786
| 22> H 	 -112.062 	 55.4509 	 108.639
| 23> S 	 -108.543 	 52.1141 	 115.298
| 24> C 	 -108.218 	 50.4378 	 115.753
| 25> C 	 -109.218 	 49.6533 	 115.316
| 26> C 	 -110.24 	 50.3123 	 114.569
| 27> C 	 -109.984 	 51.6972 	 114.491
| 28> H 	 -109.14 	 48.555 	 115.586
| 29> C 	 -111.392 	 49.5768 	 113.915
| 30> H 	 -111.029 	 48.5725 	 113.641
| 31> H 	 -111.673 	 50.0489 	 113.02
| 32> C 	 -112.595 	 49.3872 	 114.879
| 33> H 	 -112.26 	 48.8916 	 115.807
| 34> H 	 -113.262 	 48.6507 	 114.44
| 35> C 	 -113.427 	 50.5632 	 115.126
| 36> H 	 -113.777 	 50.9988 	 114.182
| 37> H 	 -112.864 	 51.266 	 115.787
| 38> H 	 -114.394 	 50.2822 	 115.618
| 39> H 	 -112.581 	 55.8067 	 113.795
| 40> H 	 -107.34 	 50.0798 	 116.248
| 41> *
| 42>
| 43>                          ****END OF INPUT****

CARTESIAN COORDINATES (ANGSTROEM)
---------------------------------
  S    -111.206000   54.194800  114.981000
  C    -112.010000   54.916100  113.673000
  C    -111.735000   54.275400  112.451000
  C    -110.992000   53.023800  112.601000
  C    -110.781000   52.771700  113.956000
  H    -110.670000   52.277200  111.804000
  C    -112.321000   54.821500  111.161000
  H    -113.326000   55.290700  111.331000
  H    -112.298000   54.070700  110.401000
  C    -111.415000   55.929600  110.544000
  H    -111.452000   56.763200  111.236000
  H    -110.372000   55.729400  110.496000
  C    -111.938000   56.368600  109.185000
  H    -112.918000   56.933300  109.324000
  H    -111.284000   57.039200  108.786000
  H    -112.062000   55.450900  108.639000
  S    -108.543000   52.114100  115.298000
  C    -108.218000   50.437800  115.753000
  C    -109.218000   49.653300  115.316000
  C    -110.240000   50.312300  114.569000
  C    -109.984000   51.697200  114.491000
  H    -109.140000   48.555000  115.586000
  C    -111.392000   49.576800  113.915000
  H    -111.029000   48.572500  113.641000
  H    -111.673000   50.048900  113.020000
  C    -112.595000   49.387200  114.879000
  H    -112.260000   48.891600  115.807000
  H    -113.262000   48.650700  114.440000
  C    -113.427000   50.563200  115.126000
  H    -113.777000   50.998800  114.182000
  H    -112.864000   51.266000  115.787000
  H    -114.394000   50.282200  115.618000
  H    -112.581000   55.806700  113.795000
  H    -107.340000   50.079800  116.248000

 Total Charge           Charge          ....    0
 Multiplicity           Mult            ....    1
 Number of Electrons    NEL             ....  134
 Basis Dimension        Dim             ....  322

ORBITAL ENERGIES
----------------

  NO   OCC          E(Eh)            E(eV)
   0   2.0000     -88.967220     -2420.9211
   1   2.0000     -88.961870     -2420.7756
   2   2.0000     -10.332197      -281.1534
   3   2.0000     -10.321425      -280.8603
   4   2.0000     -10.311045      -280.5778
   5   2.0000     -10.310059      -280.5510
   6   2.0000     -10.309087      -280.5245
   7   2.0000     -10.307230      -280.4740
   8   2.0000     -10.302077      -280.3338
   9   2.0000     -10.293606      -280.1033
  10   2.0000     -10.292870      -280.0832
  11   2.0000     -10.287164      -279.9280
  12   2.0000     -10.277113      -279.6545
  13   2.0000     -10.277094      -279.6539
  14   2.0000     -10.272548      -279.5302
  15   2.0000     -10.270318      -279.4696
  16   2.0000      -8.082025      -219.9231
  17   2.0000      -8.077306      -219.7947
  18   2.0000      -6.040473      -164.3696
  19   2.0000      -6.036591      -164.2640
  20   2.0000      -6.035787      -164.2421
  21   2.0000      -6.032768      -164.1600
  22   2.0000      -6.031621      -164.1288
  23   2.0000      -6.028141      -164.0341
  24   2.0000      -1.007838       -27.4247
  25   2.0000      -0.982965       -26.7478
  26   2.0000      -0.911566       -24.8050
  27   2.0000      -0.909247       -24.7419
  28   2.0000      -0.874698       -23.8017
  29   2.0000      -0.852255       -23.1910
  30   2.0000      -0.845949       -23.0194
  31   2.0000      -0.817777       -22.2528
  32   2.0000      -0.778840       -21.1933
  33   2.0000      -0.764359       -20.7993
  34   2.0000      -0.702318       -19.1110
  35   2.0000      -0.696879       -18.9631
  36   2.0000      -0.687251       -18.7011
  37   2.0000      -0.654519       -17.8104
  38   2.0000      -0.643774       -17.5180
  39   2.0000      -0.615131       -16.7386
  40   2.0000      -0.597381       -16.2556
  41   2.0000      -0.575340       -15.6558
  42   2.0000      -0.559545       -15.2260
  43   2.0000      -0.551655       -15.0113
  44   2.0000      -0.538361       -14.6495
  45   2.0000      -0.527420       -14.3518
  46   2.0000      -0.518605       -14.1120
  47   2.0000      -0.508717       -13.8429
  48   2.0000      -0.504876       -13.7384
  49   2.0000      -0.501315       -13.6415
  50   2.0000      -0.489257       -13.3134
  51   2.0000      -0.480082       -13.0637
  52   2.0000      -0.475888       -12.9496
  53   2.0000      -0.463723       -12.6185
  54   2.0000      -0.457142       -12.4395
  55   2.0000      -0.447131       -12.1671
  56   2.0000      -0.437166       -11.8959
  57   2.0000      -0.435267       -11.8442
  58   2.0000      -0.431390       -11.7387
  59   2.0000      -0.420586       -11.4447
  60   2.0000      -0.418938       -11.3999
  61   2.0000      -0.417619       -11.3640
  62   2.0000      -0.405034       -11.0215
  63   2.0000      -0.351110        -9.5542
  64   2.0000      -0.329937        -8.9781
  65   2.0000      -0.321633        -8.7521
  66   2.0000      -0.289632        -7.8813
  67   0.0000       0.035148         0.9564
  68   0.0000       0.059663         1.6235
  69   0.0000       0.114181         3.1070
  70   0.0000       0.121220         3.2986
  71   0.0000       0.131232         3.5710

MULLIKEN ATOMIC CHARGES
-----------------------
   0 S :    0.117780
   1 C :   -0.103885
   2 C :   -0.085852
   3 C :    0.023287
   4 C :   -0.161144
   5 H :    0.056115
   6 C :    0.062506
   7 H :    0.042664
   8 H :    0.006290
   9 C :   -0.101861
  10 H :    0.008520
  11 H :    0.022942
  12 C :    0.002739
  13 H :    0.033166
  14 H :    0.017696
  15 H :    0.027795
  16 S :    0.104768
  17 C :   -0.092854
  18 C :   -0.054328
  19 C :   -0.043450
  20 C :   -0.178550
  21 H :    0.039271
  22 C :    0.124813
  23 H :    0.018622
  24 H :   -0.000975
  25 C :   -0.075596
  26 H :    0.022634
  27 H :    0.015158
  28 C :   -0.042368
  29 H :    0.027292
  30 H :    0.044987
  31 H :    0.031651
  32 H :    0.043489
  33 H :    0.046680
Sum of atomic charges:    0.0000000

LOEWDIN ATOMIC CHARGES
----------------------
   0 S :    0.409010
   1 C :   -0.208310
   2 C :   -0.059837
   3 C :   -0.060517
   4 C :   -0.180524
   5 H :    0.050273
   6 C :   -0.029257
   7 H :    0.039493
   8 H :    0.020161
   9 C :   -0.040187
  10 H :    0.015806
  11 H :    0.018455
  12 C :   -0.054958
  13 H :    0.033355
  14 H :    0.012768
  15 H :    0.022557
  16 S :    0.415288
  17 C :   -0.184132
  18 C :   -0.079202
  19 C :   -0.059984
  20 C :   -0.219085
  21 H :    0.043356
  22 C :   -0.022360
  23 H :    0.034424
  24 H :    0.019461
  25 C :   -0.045778
  26 H :    0.024362
  27 H :    0.020198
  28 C :   -0.070009
  29 H :    0.026269
  30 H :    0.028298
  31 H :    0.030402
  32 H :    0.022366
  33 H :    0.027840

  Mayer bond orders larger than 0.100000
B(  0-S ,  1-C ) :   1.1491 B(  0-S ,  4-C ) :   1.1405 B(  1-C ,  2-C ) :   1.5911
B(  1-C , 32-H ) :   0.9737 B(  2-C ,  3-C ) :   1.2297 B(  2-C ,  6-C ) :   1.0359
B(  3-C ,  4-C ) :   1.5857 B(  3-C ,  5-H ) :   0.9770 B(  4-C , 20-C ) :   1.0432
B(  6-C ,  7-H ) :   0.9465 B(  6-C ,  8-H ) :   0.9425 B(  6-C ,  9-C ) :   1.0507
B(  9-C , 10-H ) :   0.9539 B(  9-C , 11-H ) :   0.9587 B(  9-C , 12-C ) :   1.0848
B( 12-C , 13-H ) :   0.9727 B( 12-C , 14-H ) :   0.9723 B( 12-C , 15-H ) :   0.9753
B( 16-S , 17-C ) :   1.1339 B( 16-S , 20-C ) :   1.1682 B( 17-C , 18-C ) :   1.6346
B( 17-C , 33-H ) :   0.9705 B( 18-C , 19-C ) :   1.2465 B( 18-C , 21-H ) :   0.9758
B( 19-C , 20-C ) :   1.5636 B( 19-C , 22-C ) :   1.0425 B( 22-C , 23-H ) :   0.9288
B( 22-C , 24-H ) :   0.9324 B( 22-C , 25-C ) :   1.0764 B( 25-C , 26-H ) :   0.9518
B( 25-C , 27-H ) :   0.9510 B( 25-C , 28-C ) :   1.0977 B( 28-C , 29-H ) :   0.9678
B( 28-C , 30-H ) :   0.9704 B( 28-C , 31-H ) :   0.9687

Dispersion correction           -0.014765523
FINAL SINGLE POINT ENERGY     -1339.874268564098

DIPOLE MOMENT
-------------
                                X             Y             Z
Electronic contribution:     15.69198       0.16612      16.81336
Nuclear contribution   :    -15.88315      -0.35086     -17.23879
                        -----------------------------------------
Total Dipole Moment    :     -0.19117      -0.18474      -0.42543
                        -----------------------------------------
Magnitude (a.u.)       :      0.50166
Magnitude (Debye)      :      1.27512

Rotational constants in cm-1:     0.022144     0.007730     0.006930
Rotational constants in MHz :   663.860242   231.745558   207.757804

                             ****ORCA TERMINATED NORMALLY****
TOTAL RUN TIME: 0 days 0 hours 0 minutes 31 seconds 351 msec
