                         Program Version 4.2.1 -  RELEASE  -
|  1> ! wB97X-D3 SP def2-SVP
|  2> %pal
|  3> nprocs 16
|  4> end
|  5>
|  6> * xyz 0 1
|  7> S 	 -16.7456 	 -11.3884 	 92.1475
|  8> C 	 -18.0123 	 -10.5719 	 91.2607
|  9> C 	 -17.5051 	 -9.52701 	 90.5331
| 10> C 	 -16.0576 	 -9.57814 	 90.3998
| 11> C 	 -15.4584 	 -10.5308 	 91.2179
| 12> H 	 -15.4565 	 -9.05675 	 89.7371
| 13> C 	 -18.3224 	 -8.55907 	 89.7679
| 14> H 	 -17.7245 	 -7.87444 	 89.2211
| 15> H 	 -18.8079 	 -7.96883 	 90.5592
| 16> C 	 -19.3201 	 -9.13058 	 88.7674
| 17> H 	 -18.8387 	 -9.96086 	 88.1792
| 18> H 	 -20.1008 	 -9.5542 	 89.3614
| 19> C 	 -19.9394 	 -8.15208 	 87.7287
| 20> H 	 -19.2689 	 -7.58131 	 87.079
| 21> H 	 -20.5945 	 -8.62406 	 86.9749
| 22> H 	 -20.5505 	 -7.35229 	 88.2282
| 23> S 	 -13.222 	 -8.96932 	 91.677
| 24> C 	 -11.7203 	 -9.68895 	 91.4523
| 25> C 	 -11.7937 	 -11.0748 	 91.4183
| 26> C 	 -13.1435 	 -11.5336 	 91.4032
| 27> C 	 -14.0465 	 -10.4802 	 91.4864
| 28> H 	 -10.8577 	 -11.6501 	 91.3308
| 29> C 	 -13.4498 	 -13.0286 	 91.0326
| 30> H 	 -13.8173 	 -13.021 	 90
| 31> H 	 -14.2953 	 -13.3961 	 91.5865
| 32> C 	 -12.3364 	 -14.0575 	 91.227
| 33> H 	 -12.0044 	 -14.0314 	 92.2699
| 34> H 	 -11.4433 	 -13.7607 	 90.6454
| 35> C 	 -12.6891 	 -15.4503 	 90.787
| 36> H 	 -11.9034 	 -16.1888 	 91.1721
| 37> H 	 -12.715 	 -15.603 	 89.7539
| 38> H 	 -13.6676 	 -15.7173 	 91.1865
| 39> H 	 -19.0598 	 -10.5661 	 91.568
| 40> H 	 -10.8094 	 -9.13446 	 91.6112
| 41> *
| 42>
| 43>                          ****END OF INPUT****

CARTESIAN COORDINATES (ANGSTROEM)
---------------------------------
  S    -16.745600  -11.388400   92.147500
  C    -18.012300  -10.571900   91.260700
  C    -17.505100   -9.527010   90.533100
  C    -16.057600   -9.578140   90.399800
  C    -15.458400  -10.530800   91.217900
  H    -15.456500   -9.056750   89.737100
  C    -18.322400   -8.559070   89.767900
  H    -17.724500   -7.874440   89.221100
  H    -18.807900   -7.968830   90.559200
  C    -19.320100   -9.130580   88.767400
  H    -18.838700   -9.960860   88.179200
  H    -20.100800   -9.554200   89.361400
  C    -19.939400   -8.152080   87.728700
  H    -19.268900   -7.581310   87.079000
  H    -20.594500   -8.624060   86.974900
  H    -20.550500   -7.352290   88.228200
  S    -13.222000   -8.969320   91.677000
  C    -11.720300   -9.688950   91.452300
  C    -11.793700  -11.074800   91.418300
  C    -13.143500  -11.533600   91.403200
  C    -14.046500  -10.480200   91.486400
  H    -10.857700  -11.650100   91.330800
  C    -13.449800  -13.028600   91.032600
  H    -13.817300  -13.021000   90.000000
  H    -14.295300  -13.396100   91.586500
  C    -12.336400  -14.057500   91.227000
  H    -12.004400  -14.031400   92.269900
  H    -11.443300  -13.760700   90.645400
  C    -12.689100  -15.450300   90.787000
  H    -11.903400  -16.188800   91.172100
  H    -12.715000  -15.603000   89.753900
  H    -13.667600  -15.717300   91.186500
  H    -19.059800  -10.566100   91.568000
  H    -10.809400   -9.134460   91.611200

 Total Charge           Charge          ....    0
 Multiplicity           Mult            ....    1
 Number of Electrons    NEL             ....  134
 Basis Dimension        Dim             ....  322

ORBITAL ENERGIES
----------------

  NO   OCC          E(Eh)            E(eV)
   0   2.0000     -88.968975     -2420.9689
   1   2.0000     -88.965015     -2420.8611
   2   2.0000     -10.329529      -281.0808
   3   2.0000     -10.321603      -280.8651
   4   2.0000     -10.311849      -280.5997
   5   2.0000     -10.311249      -280.5833
   6   2.0000     -10.305977      -280.4399
   7   2.0000     -10.299294      -280.2581
   8   2.0000     -10.294149      -280.1180
   9   2.0000     -10.291778      -280.0535
  10   2.0000     -10.290369      -280.0152
  11   2.0000     -10.289475      -279.9909
  12   2.0000     -10.285651      -279.8868
  13   2.0000     -10.285178      -279.8739
  14   2.0000     -10.285110      -279.8721
  15   2.0000     -10.277105      -279.6543
  16   2.0000      -8.085001      -220.0041
  17   2.0000      -8.078686      -219.8322
  18   2.0000      -6.043264      -164.4456
  19   2.0000      -6.039243      -164.3362
  20   2.0000      -6.037433      -164.2869
  21   2.0000      -6.036017      -164.2484
  22   2.0000      -6.033367      -164.1763
  23   2.0000      -6.029236      -164.0639
  24   2.0000      -1.011110       -27.5137
  25   2.0000      -0.983872       -26.7725
  26   2.0000      -0.911791       -24.8111
  27   2.0000      -0.909737       -24.7552
  28   2.0000      -0.872517       -23.7424
  29   2.0000      -0.854924       -23.2637
  30   2.0000      -0.843850       -22.9623
  31   2.0000      -0.811403       -22.0794
  32   2.0000      -0.783690       -21.3253
  33   2.0000      -0.770936       -20.9782
  34   2.0000      -0.708174       -19.2704
  35   2.0000      -0.700838       -19.0708
  36   2.0000      -0.699020       -19.0213
  37   2.0000      -0.655728       -17.8433
  38   2.0000      -0.638271       -17.3682
  39   2.0000      -0.611895       -16.6505
  40   2.0000      -0.599440       -16.3116
  41   2.0000      -0.574042       -15.6205
  42   2.0000      -0.567122       -15.4322
  43   2.0000      -0.559747       -15.2315
  44   2.0000      -0.526353       -14.3228
  45   2.0000      -0.519886       -14.1468
  46   2.0000      -0.517745       -14.0886
  47   2.0000      -0.510469       -13.8906
  48   2.0000      -0.507859       -13.8195
  49   2.0000      -0.496810       -13.5189
  50   2.0000      -0.493291       -13.4231
  51   2.0000      -0.477866       -13.0034
  52   2.0000      -0.473412       -12.8822
  53   2.0000      -0.469287       -12.7699
  54   2.0000      -0.455440       -12.3932
  55   2.0000      -0.451741       -12.2925
  56   2.0000      -0.448772       -12.2117
  57   2.0000      -0.434540       -11.8244
  58   2.0000      -0.429329       -11.6826
  59   2.0000      -0.425093       -11.5674
  60   2.0000      -0.418719       -11.3939
  61   2.0000      -0.415808       -11.3147
  62   2.0000      -0.411919       -11.2089
  63   2.0000      -0.347448        -9.4545
  64   2.0000      -0.334425        -9.1002
  65   2.0000      -0.325605        -8.8602
  66   2.0000      -0.291206        -7.9241
  67   0.0000       0.025264         0.6875
  68   0.0000       0.068731         1.8703
  69   0.0000       0.107040         2.9127
  70   0.0000       0.121153         3.2967
  71   0.0000       0.131516         3.5787

MULLIKEN ATOMIC CHARGES
-----------------------
   0 S :    0.094451
   1 C :   -0.112942
   2 C :   -0.106496
   3 C :    0.005130
   4 C :   -0.119776
   5 H :   -0.004610
   6 C :    0.097898
   7 H :    0.000112
   8 H :    0.035588
   9 C :   -0.068197
  10 H :    0.044441
  11 H :    0.023433
  12 C :   -0.078043
  13 H :    0.027807
  14 H :    0.038187
  15 H :    0.031680
  16 S :    0.139312
  17 C :   -0.099364
  18 C :   -0.065165
  19 C :   -0.026401
  20 C :   -0.169268
  21 H :    0.031651
  22 C :    0.082873
  23 H :    0.040182
  24 H :    0.011115
  25 C :   -0.098212
  26 H :    0.034576
  27 H :    0.028206
  28 C :   -0.026806
  29 H :    0.041327
  30 H :    0.023366
  31 H :    0.026257
  32 H :    0.059948
  33 H :    0.057736
Sum of atomic charges:    0.0000000

LOEWDIN ATOMIC CHARGES
----------------------
   0 S :    0.381280
   1 C :   -0.204442
   2 C :   -0.058289
   3 C :   -0.056463
   4 C :   -0.173905
   5 H :    0.016355
   6 C :   -0.035800
   7 H :    0.022266
   8 H :    0.037920
   9 C :   -0.038423
  10 H :    0.033316
  11 H :    0.019566
  12 C :   -0.078101
  13 H :    0.023182
  14 H :    0.030673
  15 H :    0.027727
  16 S :    0.458993
  17 C :   -0.208009
  18 C :   -0.079722
  19 C :   -0.046408
  20 C :   -0.216977
  21 H :    0.035655
  22 C :   -0.030393
  23 H :    0.037357
  24 H :    0.022854
  25 C :   -0.048733
  26 H :    0.026775
  27 H :    0.022785
  28 C :   -0.060696
  29 H :    0.038417
  30 H :    0.016755
  31 H :    0.023965
  32 H :    0.033382
  33 H :    0.027133

  Mayer bond orders larger than 0.100000
B(  0-S ,  1-C ) :   1.1233 B(  0-S ,  4-C ) :   1.1256 B(  1-C ,  2-C ) :   1.6322
B(  1-C , 32-H ) :   0.9614 B(  2-C ,  3-C ) :   1.2124 B(  2-C ,  6-C ) :   1.0389
B(  3-C ,  4-C ) :   1.5662 B(  3-C ,  5-H ) :   1.0076 B(  4-C , 20-C ) :   1.0877
B(  6-C ,  7-H ) :   0.9438 B(  6-C ,  8-H ) :   0.9222 B(  6-C ,  9-C ) :   1.0605
B(  9-C , 10-H ) :   0.9607 B(  9-C , 11-H ) :   0.9507 B(  9-C , 12-C ) :   1.0798
B( 12-C , 13-H ) :   0.9752 B( 12-C , 14-H ) :   0.9759 B( 12-C , 15-H ) :   0.9754
B( 16-S , 17-C ) :   1.1966 B( 16-S , 20-C ) :   1.1549 B( 17-C , 18-C ) :   1.5640
B( 17-C , 33-H ) :   0.9628 B( 18-C , 19-C ) :   1.2873 B( 18-C , 21-H ) :   0.9881
B( 19-C , 20-C ) :   1.5434 B( 19-C , 22-C ) :   1.0230 B( 22-C , 23-H ) :   0.9314
B( 22-C , 24-H ) :   0.9275 B( 22-C , 25-C ) :   1.0783 B( 25-C , 26-H ) :   0.9563
B( 25-C , 27-H ) :   0.9426 B( 25-C , 28-C ) :   1.0894 B( 28-C , 29-H ) :   0.9707
B( 28-C , 30-H ) :   0.9749 B( 28-C , 31-H ) :   0.9730

Dispersion correction           -0.013377792
FINAL SINGLE POINT ENERGY     -1339.876026469695

DIPOLE MOMENT
-------------
                                X             Y             Z
Electronic contribution:      7.46196       8.43318      14.45057
Nuclear contribution   :     -7.37942      -8.36172     -14.79357
                        -----------------------------------------
Total Dipole Moment    :      0.08255       0.07145      -0.34301
                        -----------------------------------------
Magnitude (a.u.)       :      0.35996
Magnitude (Debye)      :      0.91496

Rotational constants in cm-1:     0.020832     0.006889     0.005889
Rotational constants in MHz :   624.517357   206.521191   176.562431

                             ****ORCA TERMINATED NORMALLY****
TOTAL RUN TIME: 0 days 0 hours 0 minutes 30 seconds 46 msec
