                         Program Version 4.2.1 -  RELEASE  -
|  1> ! wB97X-D3 SP def2-SVP
|  2> %pal
|  3> nprocs 16
|  4> end
|  5>
|  6> * xyz 0 1
|  7> S 	 -91.7092 	 49.8581 	 129.056
|  8> C 	 -92.2658 	 48.7784 	 127.827
|  9> C 	 -91.2937 	 47.8522 	 127.47
| 10> C 	 -90.2188 	 47.8559 	 128.475
| 11> C 	 -90.2817 	 48.9057 	 129.352
| 12> H 	 -89.406 	 47.1586 	 128.534
| 13> C 	 -91.3249 	 46.9315 	 126.238
| 14> H 	 -90.5171 	 47.3027 	 125.566
| 15> H 	 -92.243 	 47.1063 	 125.733
| 16> C 	 -91.0686 	 45.4921 	 126.526
| 17> H 	 -90.9568 	 44.9122 	 125.564
| 18> H 	 -90.1092 	 45.3542 	 127.091
| 19> C 	 -92.2176 	 44.875 	 127.404
| 20> H 	 -93.0699 	 44.843 	 126.748
| 21> H 	 -91.9667 	 43.7774 	 127.511
| 22> H 	 -92.3907 	 45.3084 	 128.334
| 23> S 	 -89.517 	 49.0283 	 132.023
| 24> C 	 -88.0189 	 49.8133 	 132.381
| 25> C 	 -87.1812 	 49.8235 	 131.275
| 26> C 	 -87.8648 	 49.4328 	 130.075
| 27> C 	 -89.1968 	 49.2286 	 130.287
| 28> H 	 -86.1347 	 50.1236 	 131.371
| 29> C 	 -87.1396 	 49.2693 	 128.748
| 30> H 	 -87.3836 	 48.3427 	 128.323
| 31> H 	 -86.0931 	 49.2685 	 129.085
| 32> C 	 -87.4531 	 50.4701 	 127.752
| 33> H 	 -87.0331 	 51.3365 	 128.131
| 34> H 	 -88.5472 	 50.6006 	 127.766
| 35> C 	 -86.8544 	 50.2694 	 126.323
| 36> H 	 -86.7585 	 51.1726 	 125.703
| 37> H 	 -87.2742 	 49.42 	 125.817
| 38> H 	 -85.7701 	 49.9792 	 126.412
| 39> H 	 -92.9998 	 49.0098 	 127.135
| 40> H 	 -87.6878 	 50.0442 	 133.401
| 41> *
| 42>
| 43>                          ****END OF INPUT****

CARTESIAN COORDINATES (ANGSTROEM)
---------------------------------
  S    -91.709200   49.858100  129.056000
  C    -92.265800   48.778400  127.827000
  C    -91.293700   47.852200  127.470000
  C    -90.218800   47.855900  128.475000
  C    -90.281700   48.905700  129.352000
  H    -89.406000   47.158600  128.534000
  C    -91.324900   46.931500  126.238000
  H    -90.517100   47.302700  125.566000
  H    -92.243000   47.106300  125.733000
  C    -91.068600   45.492100  126.526000
  H    -90.956800   44.912200  125.564000
  H    -90.109200   45.354200  127.091000
  C    -92.217600   44.875000  127.404000
  H    -93.069900   44.843000  126.748000
  H    -91.966700   43.777400  127.511000
  H    -92.390700   45.308400  128.334000
  S    -89.517000   49.028300  132.023000
  C    -88.018900   49.813300  132.381000
  C    -87.181200   49.823500  131.275000
  C    -87.864800   49.432800  130.075000
  C    -89.196800   49.228600  130.287000
  H    -86.134700   50.123600  131.371000
  C    -87.139600   49.269300  128.748000
  H    -87.383600   48.342700  128.323000
  H    -86.093100   49.268500  129.085000
  C    -87.453100   50.470100  127.752000
  H    -87.033100   51.336500  128.131000
  H    -88.547200   50.600600  127.766000
  C    -86.854400   50.269400  126.323000
  H    -86.758500   51.172600  125.703000
  H    -87.274200   49.420000  125.817000
  H    -85.770100   49.979200  126.412000
  H    -92.999800   49.009800  127.135000
  H    -87.687800   50.044200  133.401000

 Total Charge           Charge          ....    0
 Multiplicity           Mult            ....    1
 Number of Electrons    NEL             ....  134
 Basis Dimension        Dim             ....  322

ORBITAL ENERGIES
----------------

  NO   OCC          E(Eh)            E(eV)
   0   2.0000     -88.966726     -2420.9077
   1   2.0000     -88.961434     -2420.7637
   2   2.0000     -10.327309      -281.0204
   3   2.0000     -10.322720      -280.8955
   4   2.0000     -10.317205      -280.7454
   5   2.0000     -10.308011      -280.4952
   6   2.0000     -10.307023      -280.4684
   7   2.0000     -10.301967      -280.3308
   8   2.0000     -10.295324      -280.1500
   9   2.0000     -10.295009      -280.1414
  10   2.0000     -10.294744      -280.1342
  11   2.0000     -10.294171      -280.1186
  12   2.0000     -10.292121      -280.0628
  13   2.0000     -10.285619      -279.8859
  14   2.0000     -10.280863      -279.7565
  15   2.0000     -10.274820      -279.5921
  16   2.0000      -8.081746      -219.9155
  17   2.0000      -8.076550      -219.7741
  18   2.0000      -6.040305      -164.3651
  19   2.0000      -6.036209      -164.2536
  20   2.0000      -6.034979      -164.2201
  21   2.0000      -6.032419      -164.1505
  22   2.0000      -6.031296      -164.1199
  23   2.0000      -6.027083      -164.0053
  24   2.0000      -1.007380       -27.4122
  25   2.0000      -0.986011       -26.8307
  26   2.0000      -0.914343       -24.8805
  27   2.0000      -0.901980       -24.5441
  28   2.0000      -0.869031       -23.6475
  29   2.0000      -0.847126       -23.0515
  30   2.0000      -0.840499       -22.8712
  31   2.0000      -0.812795       -22.1173
  32   2.0000      -0.784263       -21.3409
  33   2.0000      -0.774022       -21.0622
  34   2.0000      -0.710768       -19.3410
  35   2.0000      -0.699193       -19.0260
  36   2.0000      -0.690329       -18.7848
  37   2.0000      -0.660973       -17.9860
  38   2.0000      -0.642583       -17.4856
  39   2.0000      -0.621195       -16.9036
  40   2.0000      -0.593019       -16.1369
  41   2.0000      -0.568200       -15.4615
  42   2.0000      -0.559692       -15.2300
  43   2.0000      -0.550602       -14.9826
  44   2.0000      -0.547014       -14.8850
  45   2.0000      -0.522781       -14.2256
  46   2.0000      -0.513534       -13.9740
  47   2.0000      -0.509102       -13.8534
  48   2.0000      -0.503101       -13.6901
  49   2.0000      -0.497387       -13.5346
  50   2.0000      -0.492642       -13.4055
  51   2.0000      -0.481631       -13.1059
  52   2.0000      -0.472729       -12.8636
  53   2.0000      -0.461649       -12.5621
  54   2.0000      -0.460617       -12.5340
  55   2.0000      -0.450271       -12.2525
  56   2.0000      -0.443815       -12.0768
  57   2.0000      -0.438127       -11.9220
  58   2.0000      -0.432786       -11.7767
  59   2.0000      -0.424824       -11.5600
  60   2.0000      -0.420434       -11.4406
  61   2.0000      -0.418081       -11.3766
  62   2.0000      -0.415839       -11.3156
  63   2.0000      -0.336972        -9.1695
  64   2.0000      -0.328351        -8.9349
  65   2.0000      -0.323442        -8.8013
  66   2.0000      -0.303387        -8.2556
  67   0.0000       0.031626         0.8606
  68   0.0000       0.064827         1.7640
  69   0.0000       0.101736         2.7684
  70   0.0000       0.112499         3.0613
  71   0.0000       0.138869         3.7788

MULLIKEN ATOMIC CHARGES
-----------------------
   0 S :    0.122363
   1 C :   -0.071236
   2 C :   -0.152133
   3 C :    0.031347
   4 C :   -0.157310
   5 H :    0.010218
   6 C :    0.114888
   7 H :    0.044186
   8 H :    0.005381
   9 C :   -0.118736
  10 H :    0.040002
  11 H :    0.037533
  12 C :   -0.041109
  13 H :    0.020752
  14 H :    0.033135
  15 H :    0.047874
  16 S :    0.105050
  17 C :   -0.087351
  18 C :   -0.056030
  19 C :   -0.036052
  20 C :   -0.189532
  21 H :    0.025817
  22 C :    0.104818
  23 H :    0.008480
  24 H :    0.018508
  25 C :   -0.043580
  26 H :    0.009868
  27 H :    0.046964
  28 C :   -0.055776
  29 H :    0.044164
  30 H :    0.029889
  31 H :    0.019169
  32 H :    0.027620
  33 H :    0.060817
Sum of atomic charges:   -0.0000000

LOEWDIN ATOMIC CHARGES
----------------------
   0 S :    0.419174
   1 C :   -0.201498
   2 C :   -0.051297
   3 C :   -0.059549
   4 C :   -0.204521
   5 H :    0.024461
   6 C :   -0.033430
   7 H :    0.040065
   8 H :    0.023124
   9 C :   -0.047163
  10 H :    0.031479
  11 H :    0.024634
  12 C :   -0.059267
  13 H :    0.021672
  14 H :    0.032744
  15 H :    0.018432
  16 S :    0.398211
  17 C :   -0.186808
  18 C :   -0.078206
  19 C :   -0.050608
  20 C :   -0.193362
  21 H :    0.034080
  22 C :   -0.018720
  23 H :    0.017325
  24 H :    0.031647
  25 C :   -0.025409
  26 H :    0.014475
  27 H :    0.028116
  28 C :   -0.074223
  29 H :    0.029769
  30 H :    0.020327
  31 H :    0.028611
  32 H :    0.014668
  33 H :    0.031049

  Mayer bond orders larger than 0.100000
B(  0-S ,  1-C ) :   1.1359 B(  0-S ,  4-C ) :   1.1481 B(  1-C ,  2-C ) :   1.6385
B(  1-C , 32-H ) :   0.9632 B(  2-C ,  3-C ) :   1.2025 B(  2-C ,  6-C ) :   1.0212
B(  3-C ,  4-C ) :   1.6004 B(  3-C ,  5-H ) :   0.9943 B(  4-C , 20-C ) :   1.0286
B(  6-C ,  7-H ) :   0.9307 B(  6-C ,  8-H ) :   0.9379 B(  6-C ,  9-C ) :   1.0784
B(  9-C , 10-H ) :   0.9537 B(  9-C , 11-H ) :   0.9536 B(  9-C , 12-C ) :   1.0676
B( 12-C , 13-H ) :   0.9762 B( 12-C , 14-H ) :   0.9745 B( 12-C , 15-H ) :   0.9787
B( 16-S , 17-C ) :   1.1603 B( 16-S , 20-C ) :   1.1388 B( 17-C , 18-C ) :   1.6081
B( 17-C , 33-H ) :   0.9658 B( 18-C , 19-C ) :   1.2334 B( 18-C , 21-H ) :   0.9879
B( 19-C , 20-C ) :   1.6114 B( 19-C , 22-C ) :   1.0334 B( 22-C , 23-H ) :   0.9362
B( 22-C , 24-H ) :   0.9289 B( 22-C , 25-C ) :   1.0550 B( 25-C , 26-H ) :   0.9538
B( 25-C , 27-H ) :   0.9632 B( 25-C , 28-C ) :   1.0750 B( 28-C , 29-H ) :   0.9765
B( 28-C , 30-H ) :   0.9776 B( 28-C , 31-H ) :   0.9706

Dispersion correction           -0.015092021
FINAL SINGLE POINT ENERGY     -1339.869033302614

DIPOLE MOMENT
-------------
                                X             Y             Z
Electronic contribution:     -7.92022      10.76992      22.11949
Nuclear contribution   :      8.41536     -11.02805     -22.68185
                        -----------------------------------------
Total Dipole Moment    :      0.49514      -0.25813      -0.56236
                        -----------------------------------------
Magnitude (a.u.)       :      0.79249
Magnitude (Debye)      :      2.01435

Rotational constants in cm-1:     0.017551     0.009278     0.007671
Rotational constants in MHz :   526.155669   278.145039   229.982475

                             ****ORCA TERMINATED NORMALLY****
TOTAL RUN TIME: 0 days 0 hours 0 minutes 35 seconds 946 msec
