                         Program Version 4.2.1 -  RELEASE  -
|  1> ! wB97X-D3 SP def2-SVP
|  2> %pal
|  3> nprocs 16
|  4> end
|  5>
|  6> * xyz 0 1
|  7> S 	 -34.9504 	 46.6987 	 98.7652
|  8> C 	 -35.6445 	 45.5389 	 97.6426
|  9> C 	 -34.7442 	 45.152 	 96.6443
| 10> C 	 -33.6639 	 46.0193 	 96.6306
| 11> C 	 -33.6461 	 46.9984 	 97.5875
| 12> H 	 -32.9238 	 46.0141 	 95.8153
| 13> C 	 -35.1266 	 44.3075 	 95.4887
| 14> H 	 -34.5891 	 44.7456 	 94.6872
| 15> H 	 -36.2244 	 44.5149 	 95.3303
| 16> C 	 -34.7783 	 42.7945 	 95.5269
| 17> H 	 -33.7174 	 42.6232 	 95.2044
| 18> H 	 -34.8816 	 42.2907 	 96.4861
| 19> C 	 -35.6959 	 41.8737 	 94.6639
| 20> H 	 -35.2367 	 40.9568 	 94.7478
| 21> H 	 -36.693 	 41.9997 	 95.1505
| 22> H 	 -35.702 	 42.2606 	 93.5891
| 23> S 	 -33.2731 	 49.5834 	 96.7655
| 24> C 	 -31.7091 	 50.3266 	 97.099
| 25> C 	 -30.9652 	 49.6056 	 98.0657
| 26> C 	 -31.5958 	 48.3613 	 98.3764
| 27> C 	 -32.7953 	 48.1366 	 97.6691
| 28> H 	 -30.0451 	 49.9838 	 98.3792
| 29> C 	 -30.9848 	 47.5425 	 99.4599
| 30> H 	 -29.8951 	 47.4399 	 99.2065
| 31> H 	 -31.3714 	 46.5664 	 99.2497
| 32> C 	 -31.2901 	 47.9639 	 100.925
| 33> H 	 -31.225 	 47.1631 	 101.657
| 34> H 	 -32.3647 	 48.1921 	 100.984
| 35> C 	 -30.4127 	 49.1549 	 101.465
| 36> H 	 -30.8502 	 49.4363 	 102.432
| 37> H 	 -30.4552 	 49.9779 	 100.794
| 38> H 	 -29.3984 	 48.8114 	 101.636
| 39> H 	 -36.6861 	 45.1058 	 97.7524
| 40> H 	 -31.3421 	 51.2737 	 96.6599
| 41> *
| 42>
| 43>                          ****END OF INPUT****

CARTESIAN COORDINATES (ANGSTROEM)
---------------------------------
  S    -34.950400   46.698700   98.765200
  C    -35.644500   45.538900   97.642600
  C    -34.744200   45.152000   96.644300
  C    -33.663900   46.019300   96.630600
  C    -33.646100   46.998400   97.587500
  H    -32.923800   46.014100   95.815300
  C    -35.126600   44.307500   95.488700
  H    -34.589100   44.745600   94.687200
  H    -36.224400   44.514900   95.330300
  C    -34.778300   42.794500   95.526900
  H    -33.717400   42.623200   95.204400
  H    -34.881600   42.290700   96.486100
  C    -35.695900   41.873700   94.663900
  H    -35.236700   40.956800   94.747800
  H    -36.693000   41.999700   95.150500
  H    -35.702000   42.260600   93.589100
  S    -33.273100   49.583400   96.765500
  C    -31.709100   50.326600   97.099000
  C    -30.965200   49.605600   98.065700
  C    -31.595800   48.361300   98.376400
  C    -32.795300   48.136600   97.669100
  H    -30.045100   49.983800   98.379200
  C    -30.984800   47.542500   99.459900
  H    -29.895100   47.439900   99.206500
  H    -31.371400   46.566400   99.249700
  C    -31.290100   47.963900  100.925000
  H    -31.225000   47.163100  101.657000
  H    -32.364700   48.192100  100.984000
  C    -30.412700   49.154900  101.465000
  H    -30.850200   49.436300  102.432000
  H    -30.455200   49.977900  100.794000
  H    -29.398400   48.811400  101.636000
  H    -36.686100   45.105800   97.752400
  H    -31.342100   51.273700   96.659900

 Total Charge           Charge          ....    0
 Multiplicity           Mult            ....    1
 Number of Electrons    NEL             ....  134
 Basis Dimension        Dim             ....  322

ORBITAL ENERGIES
----------------

  NO   OCC          E(Eh)            E(eV)
   0   2.0000     -88.967125     -2420.9186
   1   2.0000     -88.965171     -2420.8654
   2   2.0000     -10.324049      -280.9316
   3   2.0000     -10.323349      -280.9126
   4   2.0000     -10.323123      -280.9064
   5   2.0000     -10.319892      -280.8185
   6   2.0000     -10.303132      -280.3625
   7   2.0000     -10.294566      -280.1294
   8   2.0000     -10.293010      -280.0870
   9   2.0000     -10.292233      -280.0659
  10   2.0000     -10.290967      -280.0315
  11   2.0000     -10.289832      -280.0006
  12   2.0000     -10.289313      -279.9864
  13   2.0000     -10.287905      -279.9481
  14   2.0000     -10.282122      -279.7908
  15   2.0000     -10.276108      -279.6271
  16   2.0000      -8.081124      -219.8986
  17   2.0000      -8.079420      -219.8522
  18   2.0000      -6.039627      -164.3466
  19   2.0000      -6.037775      -164.2962
  20   2.0000      -6.035759      -164.2413
  21   2.0000      -6.034162      -164.1979
  22   2.0000      -6.031918      -164.1368
  23   2.0000      -6.030211      -164.0904
  24   2.0000      -1.004094       -27.3228
  25   2.0000      -0.979753       -26.6604
  26   2.0000      -0.910149       -24.7664
  27   2.0000      -0.902156       -24.5489
  28   2.0000      -0.868012       -23.6198
  29   2.0000      -0.853037       -23.2123
  30   2.0000      -0.845276       -23.0011
  31   2.0000      -0.812704       -22.1148
  32   2.0000      -0.783708       -21.3258
  33   2.0000      -0.764667       -20.8077
  34   2.0000      -0.708216       -19.2715
  35   2.0000      -0.692100       -18.8330
  36   2.0000      -0.690970       -18.8022
  37   2.0000      -0.662937       -18.0394
  38   2.0000      -0.637109       -17.3366
  39   2.0000      -0.620497       -16.8846
  40   2.0000      -0.585659       -15.9366
  41   2.0000      -0.571164       -15.5422
  42   2.0000      -0.559454       -15.2235
  43   2.0000      -0.547950       -14.9105
  44   2.0000      -0.540703       -14.7133
  45   2.0000      -0.530780       -14.4433
  46   2.0000      -0.520331       -14.1589
  47   2.0000      -0.511297       -13.9131
  48   2.0000      -0.504562       -13.7298
  49   2.0000      -0.492297       -13.3961
  50   2.0000      -0.489411       -13.3175
  51   2.0000      -0.475981       -12.9521
  52   2.0000      -0.466274       -12.6880
  53   2.0000      -0.462601       -12.5880
  54   2.0000      -0.457544       -12.4504
  55   2.0000      -0.448235       -12.1971
  56   2.0000      -0.445082       -12.1113
  57   2.0000      -0.437045       -11.8926
  58   2.0000      -0.432964       -11.7815
  59   2.0000      -0.421076       -11.4581
  60   2.0000      -0.420659       -11.4467
  61   2.0000      -0.413777       -11.2594
  62   2.0000      -0.408840       -11.1251
  63   2.0000      -0.337688        -9.1890
  64   2.0000      -0.328445        -8.9375
  65   2.0000      -0.311719        -8.4823
  66   2.0000      -0.304355        -8.2819
  67   0.0000       0.037900         1.0313
  68   0.0000       0.040990         1.1154
  69   0.0000       0.106014         2.8848
  70   0.0000       0.113223         3.0809
  71   0.0000       0.121289         3.3004

MULLIKEN ATOMIC CHARGES
-----------------------
   0 S :    0.115208
   1 C :   -0.160084
   2 C :   -0.043570
   3 C :    0.041657
   4 C :   -0.196020
   5 H :    0.018818
   6 C :    0.054760
   7 H :    0.013855
   8 H :    0.038089
   9 C :   -0.101211
  10 H :    0.031807
  11 H :    0.030516
  12 C :   -0.054717
  13 H :    0.030798
  14 H :    0.044464
  15 H :    0.042147
  16 S :    0.123588
  17 C :   -0.111173
  18 C :   -0.021573
  19 C :   -0.025177
  20 C :   -0.180515
  21 H :    0.002775
  22 C :    0.073432
  23 H :    0.031002
  24 H :    0.012504
  25 C :   -0.059325
  26 H :    0.028333
  27 H :    0.024647
  28 C :   -0.038363
  29 H :    0.033829
  30 H :    0.030478
  31 H :    0.032691
  32 H :    0.069836
  33 H :    0.066490
Sum of atomic charges:    0.0000000

LOEWDIN ATOMIC CHARGES
----------------------
   0 S :    0.386062
   1 C :   -0.191608
   2 C :   -0.075234
   3 C :   -0.050218
   4 C :   -0.199870
   5 H :    0.036278
   6 C :   -0.032995
   7 H :    0.028401
   8 H :    0.040443
   9 C :   -0.045047
  10 H :    0.024880
  11 H :    0.022508
  12 C :   -0.059475
  13 H :    0.015431
  14 H :    0.029885
  15 H :    0.029488
  16 S :    0.403205
  17 C :   -0.182040
  18 C :   -0.066927
  19 C :   -0.046118
  20 C :   -0.208844
  21 H :    0.020886
  22 C :   -0.040045
  23 H :    0.035622
  24 H :    0.027373
  25 C :   -0.035367
  26 H :    0.024443
  27 H :    0.026090
  28 C :   -0.058569
  29 H :    0.029702
  30 H :    0.017368
  31 H :    0.023806
  32 H :    0.037128
  33 H :    0.033356

  Mayer bond orders larger than 0.100000
B(  0-S ,  1-C ) :   1.1590 B(  0-S ,  4-C ) :   1.1224 B(  1-C ,  2-C ) :   1.5773
B(  1-C ,  4-C ) :   0.1064 B(  1-C , 32-H ) :   0.9589 B(  2-C ,  3-C ) :   1.2618
B(  2-C ,  6-C ) :   1.0207 B(  3-C ,  4-C ) :   1.5951 B(  3-C ,  5-H ) :   0.9871
B(  4-C , 20-C ) :   1.0563 B(  6-C ,  7-H ) :   0.9384 B(  6-C ,  8-H ) :   0.9537
B(  6-C ,  9-C ) :   1.0399 B(  9-C , 10-H ) :   0.9560 B(  9-C , 11-H ) :   0.9689
B(  9-C , 12-C ) :   1.0685 B( 12-C , 13-H ) :   0.9771 B( 12-C , 14-H ) :   0.9804
B( 12-C , 15-H ) :   0.9772 B( 16-S , 17-C ) :   1.1676 B( 16-S , 20-C ) :   1.1341
B( 17-C , 18-C ) :   1.5905 B( 17-C , 20-C ) :   0.1078 B( 17-C , 33-H ) :   0.9621
B( 18-C , 19-C ) :   1.2376 B( 18-C , 21-H ) :   0.9957 B( 19-C , 20-C ) :   1.5751
B( 19-C , 22-C ) :   1.0593 B( 22-C , 23-H ) :   0.9372 B( 22-C , 24-H ) :   0.9171
B( 22-C , 25-C ) :   1.0543 B( 25-C , 26-H ) :   0.9591 B( 25-C , 27-H ) :   0.9540
B( 25-C , 28-C ) :   1.0740 B( 28-C , 29-H ) :   0.9730 B( 28-C , 30-H ) :   0.9758
B( 28-C , 31-H ) :   0.9777

Dispersion correction           -0.014055130
FINAL SINGLE POINT ENERGY     -1339.854754400763

DIPOLE MOMENT
-------------
                                X             Y             Z
Electronic contribution:     -5.81773      15.79876      -1.29485
Nuclear contribution   :      6.05170     -16.06071       1.17385
                        -----------------------------------------
Total Dipole Moment    :      0.23397      -0.26194      -0.12100
                        -----------------------------------------
Magnitude (a.u.)       :      0.37148
Magnitude (Debye)      :      0.94423

Rotational constants in cm-1:     0.024671     0.006654     0.006068
Rotational constants in MHz :   739.631985   199.467868   181.926204

                             ****ORCA TERMINATED NORMALLY****
TOTAL RUN TIME: 0 days 0 hours 0 minutes 28 seconds 335 msec
