                         Program Version 4.2.1 -  RELEASE  -
|  1> ! wB97X-D3 SP def2-SVP
|  2> %pal
|  3> nprocs 16
|  4> end
|  5>
|  6> * xyz 0 1
|  7> S 	 -106.372 	 44.9274 	 121.115
|  8> C 	 -106.641 	 46.5161 	 121.894
|  9> C 	 -105.628 	 46.8038 	 122.765
| 10> C 	 -104.566 	 45.8591 	 122.682
| 11> C 	 -104.713 	 44.9155 	 121.642
| 12> H 	 -103.677 	 45.8124 	 123.302
| 13> C 	 -105.765 	 48.0822 	 123.602
| 14> H 	 -105.947 	 47.644 	 124.617
| 15> H 	 -106.58 	 48.699 	 123.348
| 16> C 	 -104.505 	 48.9124 	 123.71
| 17> H 	 -104.829 	 49.817 	 124.256
| 18> H 	 -103.847 	 48.2773 	 124.305
| 19> C 	 -103.895 	 49.3556 	 122.429
| 20> H 	 -104.5 	 50.0031 	 121.811
| 21> H 	 -103.046 	 49.9988 	 122.73
| 22> H 	 -103.535 	 48.5287 	 121.84
| 23> S 	 -104.293 	 42.2012 	 120.957
| 24> C 	 -102.726 	 41.5986 	 120.649
| 25> C 	 -101.846 	 42.6347 	 120.732
| 26> C 	 -102.399 	 43.9366 	 121.145
| 27> C 	 -103.758 	 43.8879 	 121.261
| 28> H 	 -100.852 	 42.4476 	 120.568
| 29> C 	 -101.621 	 45.2019 	 121.135
| 30> H 	 -102.216 	 46.1107 	 120.796
| 31> H 	 -100.8 	 45.1177 	 120.518
| 32> C 	 -100.965 	 45.4884 	 122.434
| 33> H 	 -100.161 	 44.7357 	 122.682
| 34> H 	 -101.691 	 45.3847 	 123.272
| 35> C 	 -100.375 	 46.9239 	 122.391
| 36> H 	 -99.5338 	 46.8306 	 123.092
| 37> H 	 -101.171 	 47.6094 	 122.583
| 38> H 	 -99.8807 	 47.2449 	 121.456
| 39> H 	 -107.548 	 47.0692 	 122.117
| 40> H 	 -102.402 	 40.5819 	 120.395
| 41> *
| 42>
| 43>                          ****END OF INPUT****

CARTESIAN COORDINATES (ANGSTROEM)
---------------------------------
  S    -106.372000   44.927400  121.115000
  C    -106.641000   46.516100  121.894000
  C    -105.628000   46.803800  122.765000
  C    -104.566000   45.859100  122.682000
  C    -104.713000   44.915500  121.642000
  H    -103.677000   45.812400  123.302000
  C    -105.765000   48.082200  123.602000
  H    -105.947000   47.644000  124.617000
  H    -106.580000   48.699000  123.348000
  C    -104.505000   48.912400  123.710000
  H    -104.829000   49.817000  124.256000
  H    -103.847000   48.277300  124.305000
  C    -103.895000   49.355600  122.429000
  H    -104.500000   50.003100  121.811000
  H    -103.046000   49.998800  122.730000
  H    -103.535000   48.528700  121.840000
  S    -104.293000   42.201200  120.957000
  C    -102.726000   41.598600  120.649000
  C    -101.846000   42.634700  120.732000
  C    -102.399000   43.936600  121.145000
  C    -103.758000   43.887900  121.261000
  H    -100.852000   42.447600  120.568000
  C    -101.621000   45.201900  121.135000
  H    -102.216000   46.110700  120.796000
  H    -100.800000   45.117700  120.518000
  C    -100.965000   45.488400  122.434000
  H    -100.161000   44.735700  122.682000
  H    -101.691000   45.384700  123.272000
  C    -100.375000   46.923900  122.391000
  H    -99.533800   46.830600  123.092000
  H    -101.171000   47.609400  122.583000
  H    -99.880700   47.244900  121.456000
  H    -107.548000   47.069200  122.117000
  H    -102.402000   40.581900  120.395000

 Total Charge           Charge          ....    0
 Multiplicity           Mult            ....    1
 Number of Electrons    NEL             ....  134
 Basis Dimension        Dim             ....  322

ORBITAL ENERGIES
----------------

  NO   OCC          E(Eh)            E(eV)
   0   2.0000     -88.967219     -2420.9211
   1   2.0000     -88.961531     -2420.7663
   2   2.0000     -10.336329      -281.2658
   3   2.0000     -10.329588      -281.0824
   4   2.0000     -10.318171      -280.7717
   5   2.0000     -10.309921      -280.5472
   6   2.0000     -10.303371      -280.3690
   7   2.0000     -10.301009      -280.3047
   8   2.0000     -10.300472      -280.2901
   9   2.0000     -10.292042      -280.0607
  10   2.0000     -10.289888      -280.0021
  11   2.0000     -10.288956      -279.9767
  12   2.0000     -10.285735      -279.8891
  13   2.0000     -10.283604      -279.8311
  14   2.0000     -10.280203      -279.7386
  15   2.0000     -10.274182      -279.5747
  16   2.0000      -8.081292      -219.9031
  17   2.0000      -8.076645      -219.7767
  18   2.0000      -6.039908      -164.3543
  19   2.0000      -6.036118      -164.2511
  20   2.0000      -6.035356      -164.2304
  21   2.0000      -6.031729      -164.1317
  22   2.0000      -6.031029      -164.1126
  23   2.0000      -6.027218      -164.0090
  24   2.0000      -1.007723       -27.4215
  25   2.0000      -0.986157       -26.8347
  26   2.0000      -0.922391       -25.0995
  27   2.0000      -0.921060       -25.0633
  28   2.0000      -0.876107       -23.8401
  29   2.0000      -0.852203       -23.1896
  30   2.0000      -0.839541       -22.8451
  31   2.0000      -0.819240       -22.2927
  32   2.0000      -0.788875       -21.4664
  33   2.0000      -0.778572       -21.1860
  34   2.0000      -0.713788       -19.4232
  35   2.0000      -0.694293       -18.8927
  36   2.0000      -0.687260       -18.7013
  37   2.0000      -0.663990       -18.0681
  38   2.0000      -0.637528       -17.3480
  39   2.0000      -0.622036       -16.9265
  40   2.0000      -0.602428       -16.3929
  41   2.0000      -0.578079       -15.7303
  42   2.0000      -0.574243       -15.6259
  43   2.0000      -0.554457       -15.0875
  44   2.0000      -0.550385       -14.9767
  45   2.0000      -0.528919       -14.3926
  46   2.0000      -0.519390       -14.1333
  47   2.0000      -0.514958       -14.0127
  48   2.0000      -0.508338       -13.8326
  49   2.0000      -0.502909       -13.6848
  50   2.0000      -0.492603       -13.4044
  51   2.0000      -0.483032       -13.1440
  52   2.0000      -0.476436       -12.9645
  53   2.0000      -0.469313       -12.7707
  54   2.0000      -0.465820       -12.6756
  55   2.0000      -0.450349       -12.2546
  56   2.0000      -0.445029       -12.1099
  57   2.0000      -0.439164       -11.9503
  58   2.0000      -0.432427       -11.7669
  59   2.0000      -0.423636       -11.5277
  60   2.0000      -0.414386       -11.2760
  61   2.0000      -0.409077       -11.1316
  62   2.0000      -0.404011       -10.9937
  63   2.0000      -0.355959        -9.6861
  64   2.0000      -0.329125        -8.9560
  65   2.0000      -0.325151        -8.8478
  66   2.0000      -0.291113        -7.9216
  67   0.0000       0.019605         0.5335
  68   0.0000       0.077706         2.1145
  69   0.0000       0.106438         2.8963
  70   0.0000       0.119256         3.2451
  71   0.0000       0.128371         3.4932

MULLIKEN ATOMIC CHARGES
-----------------------
   0 S :    0.104360
   1 C :   -0.099969
   2 C :   -0.117597
   3 C :    0.018664
   4 C :   -0.140313
   5 H :   -0.005053
   6 C :    0.087963
   7 H :    0.041465
   8 H :    0.009402
   9 C :   -0.092763
  10 H :    0.032734
  11 H :    0.028396
  12 C :   -0.029983
  13 H :    0.025625
  14 H :    0.034507
  15 H :    0.040597
  16 S :    0.088122
  17 C :   -0.074275
  18 C :   -0.004757
  19 C :   -0.035403
  20 C :   -0.129373
  21 H :   -0.020088
  22 C :    0.075119
  23 H :    0.054893
  24 H :   -0.004218
  25 C :   -0.142285
  26 H :    0.032711
  27 H :    0.031111
  28 C :   -0.025811
  29 H :    0.035439
  30 H :    0.035926
  31 H :    0.030147
  32 H :    0.048079
  33 H :    0.066626
Sum of atomic charges:    0.0000000

LOEWDIN ATOMIC CHARGES
----------------------
   0 S :    0.394227
   1 C :   -0.196984
   2 C :   -0.060883
   3 C :   -0.067531
   4 C :   -0.184240
   5 H :    0.025440
   6 C :   -0.027430
   7 H :    0.041532
   8 H :    0.020270
   9 C :   -0.045811
  10 H :    0.030792
  11 H :    0.023409
  12 C :   -0.065832
  13 H :    0.025196
  14 H :    0.032631
  15 H :    0.021523
  16 S :    0.390978
  17 C :   -0.192850
  18 C :   -0.065669
  19 C :   -0.050346
  20 C :   -0.181886
  21 H :    0.012693
  22 C :   -0.037937
  23 H :    0.041825
  24 H :    0.021998
  25 C :   -0.040803
  26 H :    0.025356
  27 H :    0.017490
  28 C :   -0.064755
  29 H :    0.031137
  30 H :    0.023607
  31 H :    0.026971
  32 H :    0.032973
  33 H :    0.042907

  Mayer bond orders larger than 0.100000
B(  0-S ,  1-C ) :   1.1096 B(  0-S ,  4-C ) :   1.1562 B(  1-C ,  2-C ) :   1.6359
B(  1-C ,  4-C ) :   0.1003 B(  1-C , 32-H ) :   0.9597 B(  2-C ,  3-C ) :   1.2430
B(  2-C ,  6-C ) :   1.0085 B(  3-C ,  4-C ) :   1.5307 B(  3-C ,  5-H ) :   0.9941
B(  4-C , 20-C ) :   1.0845 B(  6-C ,  7-H ) :   0.9333 B(  6-C ,  8-H ) :   0.9458
B(  6-C ,  9-C ) :   1.0807 B(  9-C , 10-H ) :   0.9523 B(  9-C , 11-H ) :   0.9508
B(  9-C , 12-C ) :   1.0973 B( 12-C , 13-H ) :   0.9686 B( 12-C , 14-H ) :   0.9685
B( 12-C , 15-H ) :   0.9646 B( 16-S , 17-C ) :   1.1483 B( 16-S , 20-C ) :   1.1055
B( 17-C , 18-C ) :   1.6296 B( 17-C , 33-H ) :   0.9645 B( 18-C , 19-C ) :   1.2151
B( 18-C , 21-H ) :   1.0000 B( 19-C , 20-C ) :   1.6165 B( 19-C , 22-C ) :   1.0543
B( 22-C , 23-H ) :   0.9440 B( 22-C , 24-H ) :   0.9180 B( 22-C , 25-C ) :   1.0452
B( 25-C , 26-H ) :   0.9563 B( 25-C , 27-H ) :   0.9533 B( 25-C , 28-C ) :   1.0637
B( 28-C , 29-H ) :   0.9751 B( 28-C , 30-H ) :   0.9748 B( 28-C , 31-H ) :   0.9724

Dispersion correction           -0.015769719
FINAL SINGLE POINT ENERGY     -1339.855922524786

DIPOLE MOMENT
-------------
                                X             Y             Z
Electronic contribution:    -17.14517     -25.43757     -10.16921
Nuclear contribution   :     17.71427      25.88154      10.52156
                        -----------------------------------------
Total Dipole Moment    :      0.56910       0.44396       0.35235
                        -----------------------------------------
Magnitude (a.u.)       :      0.80320
Magnitude (Debye)      :      2.04157

Rotational constants in cm-1:     0.018457     0.010657     0.007120
Rotational constants in MHz :   553.335250   319.487863   213.462046

                             ****ORCA TERMINATED NORMALLY****
TOTAL RUN TIME: 0 days 0 hours 0 minutes 36 seconds 495 msec
