                         Program Version 4.2.1 -  RELEASE  -
|  1> ! wB97X-D3 SP def2-SVP
|  2> %pal
|  3> nprocs 16
|  4> end
|  5>
|  6> * xyz 0 1
|  7> S 	 54.9043 	 5.2966 	 65.2041
|  8> C 	 55.6685 	 6.77786 	 65.7251
|  9> C 	 54.7782 	 7.86976 	 65.4978
| 10> C 	 53.6853 	 7.43212 	 64.6939
| 11> C 	 53.761 	 6.12962 	 64.2629
| 12> H 	 52.9709 	 8.11241 	 64.2663
| 13> C 	 55.0399 	 9.35422 	 65.8699
| 14> H 	 55.1097 	 9.41996 	 66.9372
| 15> H 	 54.2389 	 9.99969 	 65.5295
| 16> C 	 56.3956 	 9.95111 	 65.2863
| 17> H 	 57.0782 	 9.29988 	 65.8091
| 18> H 	 56.4728 	 9.75435 	 64.2653
| 19> C 	 56.5292 	 11.4126 	 65.54
| 20> H 	 55.7084 	 11.9557 	 65.1537
| 21> H 	 56.6412 	 11.5719 	 66.5574
| 22> H 	 57.4978 	 11.6663 	 65.0838
| 23> S 	 51.8832 	 4.15593 	 64.3008
| 24> C 	 50.8218 	 3.9075 	 62.9396
| 25> C 	 50.9415 	 4.93599 	 62.0644
| 26> C 	 52.1162 	 5.75989 	 62.2737
| 27> C 	 52.7244 	 5.48031 	 63.4768
| 28> H 	 50.2047 	 4.93682 	 61.2557
| 29> C 	 52.4324 	 6.92539 	 61.3846
| 30> H 	 53.2641 	 7.49746 	 61.9377
| 31> H 	 51.7617 	 7.78974 	 61.3883
| 32> C 	 52.8113 	 6.4907 	 59.8995
| 33> H 	 51.873 	 6.0249 	 59.4311
| 34> H 	 53.4504 	 5.58752 	 59.9158
| 35> C 	 53.4119 	 7.54289 	 58.9498
| 36> H 	 53.5977 	 7.06416 	 57.9842
| 37> H 	 54.3642 	 7.92898 	 59.3326
| 38> H 	 52.8099 	 8.46563 	 58.7424
| 39> H 	 56.6488 	 6.88015 	 66.26
| 40> H 	 50.1004 	 3.07274 	 62.8332
| 41> *
| 42>
| 43>                          ****END OF INPUT****

CARTESIAN COORDINATES (ANGSTROEM)
---------------------------------
  S     54.904300    5.296600   65.204100
  C     55.668500    6.777860   65.725100
  C     54.778200    7.869760   65.497800
  C     53.685300    7.432120   64.693900
  C     53.761000    6.129620   64.262900
  H     52.970900    8.112410   64.266300
  C     55.039900    9.354220   65.869900
  H     55.109700    9.419960   66.937200
  H     54.238900    9.999690   65.529500
  C     56.395600    9.951110   65.286300
  H     57.078200    9.299880   65.809100
  H     56.472800    9.754350   64.265300
  C     56.529200   11.412600   65.540000
  H     55.708400   11.955700   65.153700
  H     56.641200   11.571900   66.557400
  H     57.497800   11.666300   65.083800
  S     51.883200    4.155930   64.300800
  C     50.821800    3.907500   62.939600
  C     50.941500    4.935990   62.064400
  C     52.116200    5.759890   62.273700
  C     52.724400    5.480310   63.476800
  H     50.204700    4.936820   61.255700
  C     52.432400    6.925390   61.384600
  H     53.264100    7.497460   61.937700
  H     51.761700    7.789740   61.388300
  C     52.811300    6.490700   59.899500
  H     51.873000    6.024900   59.431100
  H     53.450400    5.587520   59.915800
  C     53.411900    7.542890   58.949800
  H     53.597700    7.064160   57.984200
  H     54.364200    7.928980   59.332600
  H     52.809900    8.465630   58.742400
  H     56.648800    6.880150   66.260000
  H     50.100400    3.072740   62.833200

 Total Charge           Charge          ....    0
 Multiplicity           Mult            ....    1
 Number of Electrons    NEL             ....  134
 Basis Dimension        Dim             ....  322

ORBITAL ENERGIES
----------------

  NO   OCC          E(Eh)            E(eV)
   0   2.0000     -88.969003     -2420.9697
   1   2.0000     -88.959859     -2420.7208
   2   2.0000     -10.328085      -281.0415
   3   2.0000     -10.324602      -280.9467
   4   2.0000     -10.322535      -280.8905
   5   2.0000     -10.314463      -280.6708
   6   2.0000     -10.308439      -280.5069
   7   2.0000     -10.305160      -280.4177
   8   2.0000     -10.298494      -280.2363
   9   2.0000     -10.296998      -280.1956
  10   2.0000     -10.294306      -280.1223
  11   2.0000     -10.292151      -280.0637
  12   2.0000     -10.291739      -280.0525
  13   2.0000     -10.283046      -279.8159
  14   2.0000     -10.280885      -279.7571
  15   2.0000     -10.271667      -279.5063
  16   2.0000      -8.084419      -219.9882
  17   2.0000      -8.074835      -219.7274
  18   2.0000      -6.042859      -164.4346
  19   2.0000      -6.038820      -164.3246
  20   2.0000      -6.035208      -164.2264
  21   2.0000      -6.033431      -164.1780
  22   2.0000      -6.029385      -164.0679
  23   2.0000      -6.025398      -163.9594
  24   2.0000      -1.012385       -27.5484
  25   2.0000      -0.985771       -26.8242
  26   2.0000      -0.913557       -24.8591
  27   2.0000      -0.896401       -24.3923
  28   2.0000      -0.872444       -23.7404
  29   2.0000      -0.854572       -23.2541
  30   2.0000      -0.843404       -22.9502
  31   2.0000      -0.814671       -22.1683
  32   2.0000      -0.782505       -21.2930
  33   2.0000      -0.769841       -20.9484
  34   2.0000      -0.706812       -19.2333
  35   2.0000      -0.700137       -19.0517
  36   2.0000      -0.693828       -18.8800
  37   2.0000      -0.655190       -17.8286
  38   2.0000      -0.638674       -17.3792
  39   2.0000      -0.620433       -16.8829
  40   2.0000      -0.595530       -16.2052
  41   2.0000      -0.578704       -15.7473
  42   2.0000      -0.564566       -15.3626
  43   2.0000      -0.541866       -14.7449
  44   2.0000      -0.530129       -14.4255
  45   2.0000      -0.525460       -14.2985
  46   2.0000      -0.515681       -14.0324
  47   2.0000      -0.514749       -14.0070
  48   2.0000      -0.506621       -13.7859
  49   2.0000      -0.501731       -13.6528
  50   2.0000      -0.494092       -13.4449
  51   2.0000      -0.483768       -13.1640
  52   2.0000      -0.473886       -12.8951
  53   2.0000      -0.465436       -12.6652
  54   2.0000      -0.458302       -12.4710
  55   2.0000      -0.451656       -12.2902
  56   2.0000      -0.440007       -11.9732
  57   2.0000      -0.437893       -11.9157
  58   2.0000      -0.435889       -11.8611
  59   2.0000      -0.427646       -11.6368
  60   2.0000      -0.420722       -11.4484
  61   2.0000      -0.410681       -11.1752
  62   2.0000      -0.400277       -10.8921
  63   2.0000      -0.344875        -9.3845
  64   2.0000      -0.328604        -8.9418
  65   2.0000      -0.326296        -8.8790
  66   2.0000      -0.294305        -8.0085
  67   0.0000       0.027492         0.7481
  68   0.0000       0.067667         1.8413
  69   0.0000       0.105044         2.8584
  70   0.0000       0.121290         3.3005
  71   0.0000       0.134244         3.6530

MULLIKEN ATOMIC CHARGES
-----------------------
   0 S :    0.128995
   1 C :   -0.150319
   2 C :   -0.080113
   3 C :    0.034901
   4 C :   -0.152010
   5 H :    0.010731
   6 C :    0.050157
   7 H :    0.030812
   8 H :    0.014587
   9 C :   -0.086435
  10 H :    0.016204
  11 H :    0.022716
  12 C :    0.020817
  13 H :    0.031002
  14 H :    0.010474
  15 H :    0.035110
  16 S :    0.085233
  17 C :   -0.107918
  18 C :   -0.034238
  19 C :   -0.020514
  20 C :   -0.134026
  21 H :    0.026370
  22 C :    0.024647
  23 H :    0.020589
  24 H :    0.034818
  25 C :   -0.107915
  26 H :    0.032571
  27 H :    0.039391
  28 C :   -0.044930
  29 H :    0.037597
  30 H :    0.032699
  31 H :    0.036152
  32 H :    0.072785
  33 H :    0.069059
Sum of atomic charges:    0.0000000

LOEWDIN ATOMIC CHARGES
----------------------
   0 S :    0.438259
   1 C :   -0.211870
   2 C :   -0.057761
   3 C :   -0.058981
   4 C :   -0.218766
   5 H :    0.027208
   6 C :   -0.027005
   7 H :    0.027317
   8 H :    0.022060
   9 C :   -0.029248
  10 H :    0.019252
  11 H :    0.015161
  12 C :   -0.051434
  13 H :    0.023197
  14 H :    0.017020
  15 H :    0.035573
  16 S :    0.384406
  17 C :   -0.189100
  18 C :   -0.073224
  19 C :   -0.062854
  20 C :   -0.178211
  21 H :    0.033884
  22 C :   -0.048046
  23 H :    0.035344
  24 H :    0.031052
  25 C :   -0.048331
  26 H :    0.027932
  27 H :    0.029603
  28 C :   -0.072867
  29 H :    0.030171
  30 H :    0.025395
  31 H :    0.028342
  32 H :    0.038486
  33 H :    0.038035

  Mayer bond orders larger than 0.100000
B(  0-S ,  1-C ) :   1.1604 B(  0-S ,  4-C ) :   1.1695 B(  1-C ,  2-C ) :   1.5495
B(  1-C ,  4-C ) :   0.1078 B(  1-C , 32-H ) :   0.9666 B(  2-C ,  3-C ) :   1.2903
B(  2-C ,  6-C ) :   1.0220 B(  3-C ,  4-C ) :   1.5221 B(  3-C ,  5-H ) :   0.9933
B(  4-C , 20-C ) :   1.0376 B(  6-C ,  7-H ) :   0.9398 B(  6-C ,  8-H ) :   0.9511
B(  6-C ,  9-C ) :   1.0507 B(  9-C , 10-H ) :   0.9552 B(  9-C , 11-H ) :   0.9628
B(  9-C , 12-C ) :   1.0914 B( 12-C , 13-H ) :   0.9733 B( 12-C , 14-H ) :   0.9710
B( 12-C , 15-H ) :   0.9694 B( 16-S , 17-C ) :   1.1332 B( 16-S , 20-C ) :   1.1347
B( 17-C , 18-C ) :   1.6577 B( 17-C , 33-H ) :   0.9627 B( 18-C , 19-C ) :   1.1869
B( 18-C , 21-H ) :   0.9868 B( 19-C , 20-C ) :   1.6361 B( 19-C , 22-C ) :   1.0575
B( 22-C , 23-H ) :   0.9323 B( 22-C , 24-H ) :   0.9415 B( 22-C , 25-C ) :   1.0284
B( 25-C , 26-H ) :   0.9564 B( 25-C , 27-H ) :   0.9584 B( 25-C , 28-C ) :   1.0840
B( 28-C , 29-H ) :   0.9728 B( 28-C , 30-H ) :   0.9742 B( 28-C , 31-H ) :   0.9745

Dispersion correction           -0.013319832
FINAL SINGLE POINT ENERGY     -1339.857770906959

DIPOLE MOMENT
-------------
                                X             Y             Z
Electronic contribution:     -8.10993     -25.95725      13.32556
Nuclear contribution   :      8.14943      26.64315     -13.53281
                        -----------------------------------------
Total Dipole Moment    :      0.03950       0.68590      -0.20725
                        -----------------------------------------
Magnitude (a.u.)       :      0.71761
Magnitude (Debye)      :      1.82403

Rotational constants in cm-1:     0.017286     0.008168     0.006096
Rotational constants in MHz :   518.218815   244.864562   182.765407

                             ****ORCA TERMINATED NORMALLY****
TOTAL RUN TIME: 0 days 0 hours 0 minutes 27 seconds 134 msec
