                         Program Version 4.2.1 -  RELEASE  -
|  1> ! wB97X-D3 SP def2-SVP
|  2> %pal
|  3> nprocs 16
|  4> end
|  5>
|  6> * xyz 0 1
|  7> S 	 -72.1082 	 47.2473 	 122.562
|  8> C 	 -72.4313 	 45.499 	 122.261
|  9> C 	 -72.9878 	 44.8983 	 123.379
| 10> C 	 -73.0392 	 45.8289 	 124.441
| 11> C 	 -72.6844 	 47.1418 	 124.217
| 12> H 	 -73.3071 	 45.5986 	 125.503
| 13> C 	 -73.519 	 43.4543 	 123.469
| 14> H 	 -73.58 	 43.0822 	 122.412
| 15> H 	 -74.509 	 43.5237 	 123.923
| 16> C 	 -72.6529 	 42.4242 	 124.217
| 17> H 	 -72.3345 	 42.772 	 125.233
| 18> H 	 -73.2703 	 41.5825 	 124.315
| 19> C 	 -71.395 	 42.0303 	 123.384
| 20> H 	 -71.6699 	 41.5261 	 122.459
| 21> H 	 -70.7256 	 42.8811 	 123.085
| 22> H 	 -70.7572 	 41.3091 	 123.962
| 23> S 	 -71.2839 	 49.1637 	 125.386
| 24> C 	 -72.1972 	 50.1191 	 126.6
| 25> C 	 -73.4224 	 49.589 	 126.963
| 26> C 	 -73.7259 	 48.4815 	 126.129
| 27> C 	 -72.7567 	 48.2173 	 125.159
| 28> H 	 -73.9692 	 49.9813 	 127.826
| 29> C 	 -74.9369 	 47.5404 	 126.463
| 30> H 	 -74.5342 	 46.649 	 126.986
| 31> H 	 -75.1872 	 47.2205 	 125.476
| 32> C 	 -76.0615 	 48.078 	 127.365
| 33> H 	 -75.6878 	 48.5958 	 128.223
| 34> H 	 -76.6042 	 47.2294 	 127.702
| 35> C 	 -76.9164 	 49.0075 	 126.408
| 36> H 	 -76.3072 	 49.8203 	 125.962
| 37> H 	 -77.7965 	 49.4389 	 126.993
| 38> H 	 -77.2894 	 48.4005 	 125.566
| 39> H 	 -72.4104 	 45.0069 	 121.308
| 40> H 	 -71.7714 	 50.8585 	 127.226
| 41> *
| 42>
| 43>                          ****END OF INPUT****

CARTESIAN COORDINATES (ANGSTROEM)
---------------------------------
  S    -72.108200   47.247300  122.562000
  C    -72.431300   45.499000  122.261000
  C    -72.987800   44.898300  123.379000
  C    -73.039200   45.828900  124.441000
  C    -72.684400   47.141800  124.217000
  H    -73.307100   45.598600  125.503000
  C    -73.519000   43.454300  123.469000
  H    -73.580000   43.082200  122.412000
  H    -74.509000   43.523700  123.923000
  C    -72.652900   42.424200  124.217000
  H    -72.334500   42.772000  125.233000
  H    -73.270300   41.582500  124.315000
  C    -71.395000   42.030300  123.384000
  H    -71.669900   41.526100  122.459000
  H    -70.725600   42.881100  123.085000
  H    -70.757200   41.309100  123.962000
  S    -71.283900   49.163700  125.386000
  C    -72.197200   50.119100  126.600000
  C    -73.422400   49.589000  126.963000
  C    -73.725900   48.481500  126.129000
  C    -72.756700   48.217300  125.159000
  H    -73.969200   49.981300  127.826000
  C    -74.936900   47.540400  126.463000
  H    -74.534200   46.649000  126.986000
  H    -75.187200   47.220500  125.476000
  C    -76.061500   48.078000  127.365000
  H    -75.687800   48.595800  128.223000
  H    -76.604200   47.229400  127.702000
  C    -76.916400   49.007500  126.408000
  H    -76.307200   49.820300  125.962000
  H    -77.796500   49.438900  126.993000
  H    -77.289400   48.400500  125.566000
  H    -72.410400   45.006900  121.308000
  H    -71.771400   50.858500  127.226000

 Total Charge           Charge          ....    0
 Multiplicity           Mult            ....    1
 Number of Electrons    NEL             ....  134
 Basis Dimension        Dim             ....  322

ORBITAL ENERGIES
----------------

  NO   OCC          E(Eh)            E(eV)
   0   2.0000     -88.970643     -2421.0143
   1   2.0000     -88.965258     -2420.8677
   2   2.0000     -10.326753      -281.0052
   3   2.0000     -10.326407      -280.9958
   4   2.0000     -10.318261      -280.7742
   5   2.0000     -10.317251      -280.7467
   6   2.0000     -10.308149      -280.4990
   7   2.0000     -10.302446      -280.3438
   8   2.0000     -10.300917      -280.3022
   9   2.0000     -10.297384      -280.2061
  10   2.0000     -10.294078      -280.1161
  11   2.0000     -10.291338      -280.0416
  12   2.0000     -10.291060      -280.0340
  13   2.0000     -10.290349      -280.0146
  14   2.0000     -10.287428      -279.9351
  15   2.0000     -10.284148      -279.8459
  16   2.0000      -8.084358      -219.9866
  17   2.0000      -8.079006      -219.8409
  18   2.0000      -6.042858      -164.4345
  19   2.0000      -6.039315      -164.3381
  20   2.0000      -6.037647      -164.2927
  21   2.0000      -6.034870      -164.2172
  22   2.0000      -6.033670      -164.1845
  23   2.0000      -6.029641      -164.0749
  24   2.0000      -1.004073       -27.3222
  25   2.0000      -0.978973       -26.6392
  26   2.0000      -0.909660       -24.7531
  27   2.0000      -0.905872       -24.6500
  28   2.0000      -0.871157       -23.7054
  29   2.0000      -0.845949       -23.0195
  30   2.0000      -0.839221       -22.8364
  31   2.0000      -0.808808       -22.0088
  32   2.0000      -0.780264       -21.2321
  33   2.0000      -0.769250       -20.9324
  34   2.0000      -0.714209       -19.4346
  35   2.0000      -0.703097       -19.1322
  36   2.0000      -0.697463       -18.9789
  37   2.0000      -0.657814       -17.9000
  38   2.0000      -0.638351       -17.3704
  39   2.0000      -0.614876       -16.7316
  40   2.0000      -0.594313       -16.1721
  41   2.0000      -0.568963       -15.4823
  42   2.0000      -0.552441       -15.0327
  43   2.0000      -0.544431       -14.8147
  44   2.0000      -0.540579       -14.7099
  45   2.0000      -0.534193       -14.5361
  46   2.0000      -0.523031       -14.2324
  47   2.0000      -0.509435       -13.8624
  48   2.0000      -0.499282       -13.5861
  49   2.0000      -0.496031       -13.4977
  50   2.0000      -0.482076       -13.1180
  51   2.0000      -0.478202       -13.0125
  52   2.0000      -0.464678       -12.6445
  53   2.0000      -0.459485       -12.5032
  54   2.0000      -0.458332       -12.4718
  55   2.0000      -0.453584       -12.3426
  56   2.0000      -0.448888       -12.2148
  57   2.0000      -0.437408       -11.9025
  58   2.0000      -0.433824       -11.8050
  59   2.0000      -0.429938       -11.6992
  60   2.0000      -0.419661       -11.4196
  61   2.0000      -0.417178       -11.3520
  62   2.0000      -0.411450       -11.1961
  63   2.0000      -0.349851        -9.5199
  64   2.0000      -0.333036        -9.0624
  65   2.0000      -0.329187        -8.9576
  66   2.0000      -0.287048        -7.8110
  67   0.0000       0.023418         0.6372
  68   0.0000       0.068345         1.8598
  69   0.0000       0.095806         2.6070
  70   0.0000       0.114480         3.1152
  71   0.0000       0.136587         3.7167

MULLIKEN ATOMIC CHARGES
-----------------------
   0 S :    0.099014
   1 C :   -0.121004
   2 C :   -0.071890
   3 C :   -0.015668
   4 C :   -0.153578
   5 H :    0.015771
   6 C :    0.053573
   7 H :    0.022112
   8 H :    0.038557
   9 C :   -0.033872
  10 H :    0.039982
  11 H :    0.023533
  12 C :   -0.099598
  13 H :    0.026766
  14 H :    0.051680
  15 H :    0.040531
  16 S :    0.108545
  17 C :   -0.059873
  18 C :   -0.061728
  19 C :   -0.047914
  20 C :   -0.145165
  21 H :    0.034565
  22 C :    0.007888
  23 H :    0.050071
  24 H :    0.031851
  25 C :   -0.006095
  26 H :    0.026303
  27 H :    0.026103
  28 C :   -0.094636
  29 H :    0.050896
  30 H :    0.045339
  31 H :    0.037799
  32 H :    0.042695
  33 H :    0.037446
Sum of atomic charges:    0.0000000

LOEWDIN ATOMIC CHARGES
----------------------
   0 S :    0.379267
   1 C :   -0.180356
   2 C :   -0.065602
   3 C :   -0.074235
   4 C :   -0.199971
   5 H :    0.033106
   6 C :   -0.027337
   7 H :    0.034237
   8 H :    0.032932
   9 C :   -0.035404
  10 H :    0.028663
  11 H :    0.019250
  12 C :   -0.075148
  13 H :    0.020518
  14 H :    0.031968
  15 H :    0.030059
  16 S :    0.389008
  17 C :   -0.160951
  18 C :   -0.071708
  19 C :   -0.046663
  20 C :   -0.199331
  21 H :    0.039082
  22 C :   -0.030227
  23 H :    0.031049
  24 H :    0.027299
  25 C :   -0.032759
  26 H :    0.019022
  27 H :    0.024245
  28 C :   -0.070002
  29 H :    0.030050
  30 H :    0.028437
  31 H :    0.027743
  32 H :    0.025424
  33 H :    0.018334

  Mayer bond orders larger than 0.100000
B(  0-S ,  1-C ) :   1.1292 B(  0-S ,  4-C ) :   1.1297 B(  1-C ,  2-C ) :   1.6115
B(  1-C , 32-H ) :   0.9649 B(  2-C ,  3-C ) :   1.2393 B(  2-C ,  6-C ) :   1.0169
B(  3-C ,  4-C ) :   1.5820 B(  3-C ,  5-H ) :   0.9806 B(  4-C , 20-C ) :   1.0707
B(  6-C ,  7-H ) :   0.9396 B(  6-C ,  8-H ) :   0.9409 B(  6-C ,  9-C ) :   1.0739
B(  9-C , 10-H ) :   0.9585 B(  9-C , 11-H ) :   0.9534 B(  9-C , 12-C ) :   1.0672
B( 12-C , 13-H ) :   0.9749 B( 12-C , 14-H ) :   0.9777 B( 12-C , 15-H ) :   0.9755
B( 16-S , 17-C ) :   1.1445 B( 16-S , 20-C ) :   1.1288 B( 17-C , 18-C ) :   1.6325
B( 17-C , 20-C ) :   0.1019 B( 17-C , 33-H ) :   0.9637 B( 18-C , 19-C ) :   1.2323
B( 18-C , 21-H ) :   0.9840 B( 19-C , 20-C ) :   1.6087 B( 19-C , 22-C ) :   1.0138
B( 22-C , 23-H ) :   0.9331 B( 22-C , 24-H ) :   0.9334 B( 22-C , 25-C ) :   1.0701
B( 25-C , 26-H ) :   0.9488 B( 25-C , 27-H ) :   0.9517 B( 25-C , 28-C ) :   1.0660
B( 28-C , 29-H ) :   0.9787 B( 28-C , 30-H ) :   0.9767 B( 28-C , 31-H ) :   0.9758

Dispersion correction           -0.014210556
FINAL SINGLE POINT ENERGY     -1339.870104702043

DIPOLE MOMENT
-------------
                                X             Y             Z
Electronic contribution:     15.20330      17.98863      -7.17766
Nuclear contribution   :    -15.68110     -18.53567       7.73434
                        -----------------------------------------
Total Dipole Moment    :     -0.47779      -0.54704       0.55668
                        -----------------------------------------
Magnitude (a.u.)       :      0.91511
Magnitude (Debye)      :      2.32602

Rotational constants in cm-1:     0.019239     0.008137     0.006649
Rotational constants in MHz :   576.768042   243.949352   199.330852

                             ****ORCA TERMINATED NORMALLY****
TOTAL RUN TIME: 0 days 0 hours 0 minutes 33 seconds 594 msec
