                         Program Version 4.2.1 -  RELEASE  -
|  1> ! wB97X-D3 SP def2-SVP
|  2> %pal
|  3> nprocs 16
|  4> end
|  5>
|  6> * xyz 0 1
|  7> S 	 -74.6859 	 47.8228 	 136.975
|  8> C 	 -74.8008 	 49.243 	 136.031
|  9> C 	 -73.5735 	 49.5756 	 135.468
| 10> C 	 -72.5445 	 48.7479 	 135.868
| 11> C 	 -72.997 	 47.6378 	 136.603
| 12> H 	 -71.5192 	 48.8962 	 135.569
| 13> C 	 -73.2366 	 50.8698 	 134.733
| 14> H 	 -72.1519 	 50.8814 	 134.717
| 15> H 	 -73.6183 	 51.6444 	 135.342
| 16> C 	 -73.8789 	 50.9675 	 133.309
| 17> H 	 -73.3247 	 50.2982 	 132.57
| 18> H 	 -74.9106 	 50.5327 	 133.268
| 19> C 	 -73.8623 	 52.3701 	 132.755
| 20> H 	 -74.4386 	 52.3437 	 131.836
| 21> H 	 -74.3809 	 53.0826 	 133.384
| 22> H 	 -72.8929 	 52.7035 	 132.56
| 23> S 	 -72.5489 	 45.9946 	 138.68
| 24> C 	 -71.2543 	 44.8226 	 138.581
| 25> C 	 -70.6397 	 44.7579 	 137.319
| 26> C 	 -71.1426 	 45.8226 	 136.469
| 27> C 	 -72.2277 	 46.5017 	 137.064
| 28> H 	 -69.7397 	 44.1449 	 137.193
| 29> C 	 -70.4484 	 46.2266 	 135.171
| 30> H 	 -69.6912 	 45.5034 	 135.028
| 31> H 	 -69.8486 	 47.1595 	 135.191
| 32> C 	 -71.2866 	 46.2376 	 133.935
| 33> H 	 -72.1479 	 46.9446 	 134.013
| 34> H 	 -71.6849 	 45.2399 	 133.657
| 35> C 	 -70.4088 	 46.7829 	 132.757
| 36> H 	 -69.5116 	 46.1586 	 132.625
| 37> H 	 -70.107 	 47.8033 	 132.926
| 38> H 	 -70.9451 	 46.8854 	 131.793
| 39> H 	 -75.6577 	 49.8374 	 135.778
| 40> H 	 -70.8777 	 44.2086 	 139.36
| 41> *
| 42>
| 43>                          ****END OF INPUT****

CARTESIAN COORDINATES (ANGSTROEM)
---------------------------------
  S    -74.685900   47.822800  136.975000
  C    -74.800800   49.243000  136.031000
  C    -73.573500   49.575600  135.468000
  C    -72.544500   48.747900  135.868000
  C    -72.997000   47.637800  136.603000
  H    -71.519200   48.896200  135.569000
  C    -73.236600   50.869800  134.733000
  H    -72.151900   50.881400  134.717000
  H    -73.618300   51.644400  135.342000
  C    -73.878900   50.967500  133.309000
  H    -73.324700   50.298200  132.570000
  H    -74.910600   50.532700  133.268000
  C    -73.862300   52.370100  132.755000
  H    -74.438600   52.343700  131.836000
  H    -74.380900   53.082600  133.384000
  H    -72.892900   52.703500  132.560000
  S    -72.548900   45.994600  138.680000
  C    -71.254300   44.822600  138.581000
  C    -70.639700   44.757900  137.319000
  C    -71.142600   45.822600  136.469000
  C    -72.227700   46.501700  137.064000
  H    -69.739700   44.144900  137.193000
  C    -70.448400   46.226600  135.171000
  H    -69.691200   45.503400  135.028000
  H    -69.848600   47.159500  135.191000
  C    -71.286600   46.237600  133.935000
  H    -72.147900   46.944600  134.013000
  H    -71.684900   45.239900  133.657000
  C    -70.408800   46.782900  132.757000
  H    -69.511600   46.158600  132.625000
  H    -70.107000   47.803300  132.926000
  H    -70.945100   46.885400  131.793000
  H    -75.657700   49.837400  135.778000
  H    -70.877700   44.208600  139.360000

 Total Charge           Charge          ....    0
 Multiplicity           Mult            ....    1
 Number of Electrons    NEL             ....  134
 Basis Dimension        Dim             ....  322

ORBITAL ENERGIES
----------------

  NO   OCC          E(Eh)            E(eV)
   0   2.0000     -88.971511     -2421.0379
   1   2.0000     -88.970312     -2421.0053
   2   2.0000     -10.327880      -281.0359
   3   2.0000     -10.325698      -280.9765
   4   2.0000     -10.317191      -280.7450
   5   2.0000     -10.308750      -280.5154
   6   2.0000     -10.307145      -280.4717
   7   2.0000     -10.301079      -280.3066
   8   2.0000     -10.294302      -280.1222
   9   2.0000     -10.291179      -280.0372
  10   2.0000     -10.289517      -279.9920
  11   2.0000     -10.288633      -279.9679
  12   2.0000     -10.287650      -279.9412
  13   2.0000     -10.284493      -279.8553
  14   2.0000     -10.278262      -279.6857
  15   2.0000     -10.271134      -279.4918
  16   2.0000      -8.086527      -220.0456
  17   2.0000      -8.085323      -220.0128
  18   2.0000      -6.044884      -164.4897
  19   2.0000      -6.043758      -164.4590
  20   2.0000      -6.040879      -164.3807
  21   2.0000      -6.039747      -164.3499
  22   2.0000      -6.037567      -164.2906
  23   2.0000      -6.036203      -164.2534
  24   2.0000      -1.011364       -27.5206
  25   2.0000      -0.985941       -26.8288
  26   2.0000      -0.912154       -24.8210
  27   2.0000      -0.909558       -24.7503
  28   2.0000      -0.870183       -23.6789
  29   2.0000      -0.857127       -23.3236
  30   2.0000      -0.847074       -23.0501
  31   2.0000      -0.811994       -22.0955
  32   2.0000      -0.782042       -21.2804
  33   2.0000      -0.769103       -20.9283
  34   2.0000      -0.708343       -19.2750
  35   2.0000      -0.698990       -19.0205
  36   2.0000      -0.689569       -18.7641
  37   2.0000      -0.665639       -18.1130
  38   2.0000      -0.636396       -17.3172
  39   2.0000      -0.623034       -16.9536
  40   2.0000      -0.596375       -16.2282
  41   2.0000      -0.569853       -15.5065
  42   2.0000      -0.566112       -15.4047
  43   2.0000      -0.556803       -15.1514
  44   2.0000      -0.526735       -14.3332
  45   2.0000      -0.521335       -14.1863
  46   2.0000      -0.514220       -13.9926
  47   2.0000      -0.511280       -13.9126
  48   2.0000      -0.503949       -13.7132
  49   2.0000      -0.496879       -13.5208
  50   2.0000      -0.490544       -13.3484
  51   2.0000      -0.488645       -13.2967
  52   2.0000      -0.478960       -13.0332
  53   2.0000      -0.467552       -12.7227
  54   2.0000      -0.462200       -12.5771
  55   2.0000      -0.453778       -12.3479
  56   2.0000      -0.441035       -12.0012
  57   2.0000      -0.436564       -11.8795
  58   2.0000      -0.431964       -11.7543
  59   2.0000      -0.425213       -11.5706
  60   2.0000      -0.421711       -11.4753
  61   2.0000      -0.417333       -11.3562
  62   2.0000      -0.413545       -11.2531
  63   2.0000      -0.350862        -9.5475
  64   2.0000      -0.336295        -9.1510
  65   2.0000      -0.330965        -9.0060
  66   2.0000      -0.279476        -7.6049
  67   0.0000       0.023319         0.6345
  68   0.0000       0.072097         1.9619
  69   0.0000       0.104342         2.8393
  70   0.0000       0.117057         3.1853
  71   0.0000       0.129736         3.5303

MULLIKEN ATOMIC CHARGES
-----------------------
   0 S :    0.133638
   1 C :   -0.098655
   2 C :   -0.110291
   3 C :    0.010770
   4 C :   -0.152604
   5 H :    0.003652
   6 C :    0.103637
   7 H :    0.017681
   8 H :    0.025136
   9 C :   -0.133753
  10 H :    0.033247
  11 H :    0.035964
  12 C :    0.000180
  13 H :    0.027224
  14 H :    0.024144
  15 H :    0.021958
  16 S :    0.119746
  17 C :   -0.084668
  18 C :   -0.037472
  19 C :   -0.040623
  20 C :   -0.127511
  21 H :    0.033582
  22 C :    0.071640
  23 H :   -0.008675
  24 H :    0.035446
  25 C :   -0.092527
  26 H :    0.055724
  27 H :    0.035806
  28 C :   -0.060662
  29 H :    0.031057
  30 H :    0.015121
  31 H :    0.034646
  32 H :    0.034068
  33 H :    0.043375
Sum of atomic charges:    0.0000000

LOEWDIN ATOMIC CHARGES
----------------------
   0 S :    0.440149
   1 C :   -0.219593
   2 C :   -0.066403
   3 C :   -0.067205
   4 C :   -0.199049
   5 H :    0.028455
   6 C :   -0.021010
   7 H :    0.028586
   8 H :    0.026641
   9 C :   -0.046910
  10 H :    0.029604
  11 H :    0.025847
  12 C :   -0.060586
  13 H :    0.029259
  14 H :    0.022367
  15 H :    0.017133
  16 S :    0.423964
  17 C :   -0.184054
  18 C :   -0.068744
  19 C :   -0.051432
  20 C :   -0.206502
  21 H :    0.037434
  22 C :   -0.038159
  23 H :    0.024059
  24 H :    0.033958
  25 C :   -0.042067
  26 H :    0.029040
  27 H :    0.027375
  28 C :   -0.069262
  29 H :    0.023148
  30 H :    0.017201
  31 H :    0.028004
  32 H :    0.026605
  33 H :    0.022148

  Mayer bond orders larger than 0.100000
B(  0-S ,  1-C ) :   1.1549 B(  0-S ,  4-C ) :   1.1838 B(  1-C ,  2-C ) :   1.5614
B(  1-C ,  4-C ) :   0.1121 B(  1-C , 32-H ) :   0.9662 B(  2-C ,  3-C ) :   1.3184
B(  2-C ,  6-C ) :   1.0115 B(  3-C ,  4-C ) :   1.4926 B(  3-C ,  5-H ) :   0.9921
B(  4-C , 20-C ) :   1.0612 B(  6-C ,  7-H ) :   0.9436 B(  6-C ,  8-H ) :   0.9455
B(  6-C ,  9-C ) :   1.0457 B(  9-C , 10-H ) :   0.9513 B(  9-C , 11-H ) :   0.9649
B(  9-C , 12-C ) :   1.0878 B( 12-C , 13-H ) :   0.9700 B( 12-C , 14-H ) :   0.9744
B( 12-C , 15-H ) :   0.9730 B( 16-S , 17-C ) :   1.1592 B( 16-S , 20-C ) :   1.1502
B( 17-C , 18-C ) :   1.6161 B( 17-C , 33-H ) :   0.9679 B( 18-C , 19-C ) :   1.2523
B( 18-C , 21-H ) :   0.9793 B( 19-C , 20-C ) :   1.5733 B( 19-C , 22-C ) :   1.0310
B( 22-C , 23-H ) :   0.9201 B( 22-C , 24-H ) :   0.9382 B( 22-C , 25-C ) :   1.0642
B( 25-C , 26-H ) :   0.9534 B( 25-C , 27-H ) :   0.9524 B( 25-C , 28-C ) :   1.0772
B( 28-C , 29-H ) :   0.9751 B( 28-C , 30-H ) :   0.9725 B( 28-C , 31-H ) :   0.9737

Dispersion correction           -0.014488994
FINAL SINGLE POINT ENERGY     -1339.879727201436

DIPOLE MOMENT
-------------
                                X             Y             Z
Electronic contribution:     -8.85427     -14.57178      28.33045
Nuclear contribution   :      9.27479      14.86311     -28.72294
                        -----------------------------------------
Total Dipole Moment    :      0.42052       0.29134      -0.39248
                        -----------------------------------------
Magnitude (a.u.)       :      0.64479
Magnitude (Debye)      :      1.63893

Rotational constants in cm-1:     0.020534     0.008793     0.006547
Rotational constants in MHz :   615.607158   263.600829   196.280738

                             ****ORCA TERMINATED NORMALLY****
TOTAL RUN TIME: 0 days 0 hours 0 minutes 35 seconds 555 msec
