                         Program Version 4.2.1 -  RELEASE  -
|  1> ! wB97X-D3 SP def2-SVP
|  2> %pal
|  3> nprocs 16
|  4> end
|  5>
|  6> * xyz 0 1
|  7> S 	 8.36507 	 21.902 	 39.7165
|  8> C 	 8.82779 	 20.404 	 40.5707
|  9> C 	 8.74548 	 20.5675 	 41.9521
| 10> C 	 8.39961 	 21.9199 	 42.2627
| 11> C 	 8.09781 	 22.7495 	 41.1704
| 12> H 	 8.3758 	 22.3368 	 43.2638
| 13> C 	 8.97919 	 19.398 	 42.9283
| 14> H 	 8.93567 	 18.3956 	 42.434
| 15> H 	 8.22426 	 19.5131 	 43.6289
| 16> C 	 10.3279 	 19.5164 	 43.6635
| 17> H 	 10.4792 	 20.5318 	 44.0026
| 18> H 	 10.4495 	 18.7799 	 44.5084
| 19> C 	 11.5664 	 19.2404 	 42.8022
| 20> H 	 11.5764 	 20.0011 	 41.9867
| 21> H 	 12.5531 	 19.3161 	 43.3076
| 22> H 	 11.5431 	 18.2954 	 42.4183
| 23> S 	 6.30209 	 24.545 	 42.0853
| 24> C 	 6.28394 	 26.1381 	 41.4079
| 25> C 	 7.29047 	 26.315 	 40.4322
| 26> C 	 8.0183 	 25.1167 	 40.2148
| 27> C 	 7.68235 	 24.0858 	 41.0859
| 28> H 	 7.54418 	 27.2175 	 39.9093
| 29> C 	 9.15456 	 25.1649 	 39.2713
| 30> H 	 9.94243 	 24.5737 	 39.6975
| 31> H 	 9.46638 	 26.1831 	 39.362
| 32> C 	 8.94974 	 24.8258 	 37.7924
| 33> H 	 8.64697 	 25.7262 	 37.2608
| 34> H 	 8.07152 	 24.2269 	 37.7438
| 35> C 	 10.1575 	 24.2276 	 37.207
| 36> H 	 10.4904 	 23.2513 	 37.6431
| 37> H 	 11.0403 	 24.8482 	 37.0786
| 38> H 	 9.86852 	 24.0052 	 36.1848
| 39> H 	 9.06585 	 19.4395 	 40.1022
| 40> H 	 5.72406 	 26.9059 	 41.893
| 41> *
| 42>
| 43>                          ****END OF INPUT****

CARTESIAN COORDINATES (ANGSTROEM)
---------------------------------
  S      8.365070   21.902000   39.716500
  C      8.827790   20.404000   40.570700
  C      8.745480   20.567500   41.952100
  C      8.399610   21.919900   42.262700
  C      8.097810   22.749500   41.170400
  H      8.375800   22.336800   43.263800
  C      8.979190   19.398000   42.928300
  H      8.935670   18.395600   42.434000
  H      8.224260   19.513100   43.628900
  C     10.327900   19.516400   43.663500
  H     10.479200   20.531800   44.002600
  H     10.449500   18.779900   44.508400
  C     11.566400   19.240400   42.802200
  H     11.576400   20.001100   41.986700
  H     12.553100   19.316100   43.307600
  H     11.543100   18.295400   42.418300
  S      6.302090   24.545000   42.085300
  C      6.283940   26.138100   41.407900
  C      7.290470   26.315000   40.432200
  C      8.018300   25.116700   40.214800
  C      7.682350   24.085800   41.085900
  H      7.544180   27.217500   39.909300
  C      9.154560   25.164900   39.271300
  H      9.942430   24.573700   39.697500
  H      9.466380   26.183100   39.362000
  C      8.949740   24.825800   37.792400
  H      8.646970   25.726200   37.260800
  H      8.071520   24.226900   37.743800
  C     10.157500   24.227600   37.207000
  H     10.490400   23.251300   37.643100
  H     11.040300   24.848200   37.078600
  H      9.868520   24.005200   36.184800
  H      9.065850   19.439500   40.102200
  H      5.724060   26.905900   41.893000

 Total Charge           Charge          ....    0
 Multiplicity           Mult            ....    1
 Number of Electrons    NEL             ....  134
 Basis Dimension        Dim             ....  322

ORBITAL ENERGIES
----------------

  NO   OCC          E(Eh)            E(eV)
   0   2.0000     -88.967333     -2420.9242
   1   2.0000     -88.966812     -2420.9100
   2   2.0000     -10.326335      -280.9939
   3   2.0000     -10.322923      -280.9010
   4   2.0000     -10.318889      -280.7912
   5   2.0000     -10.316884      -280.7367
   6   2.0000     -10.306925      -280.4657
   7   2.0000     -10.298279      -280.2304
   8   2.0000     -10.297502      -280.2093
   9   2.0000     -10.297133      -280.1992
  10   2.0000     -10.295988      -280.1681
  11   2.0000     -10.288304      -279.9590
  12   2.0000     -10.277383      -279.6618
  13   2.0000     -10.276625      -279.6412
  14   2.0000     -10.272429      -279.5270
  15   2.0000     -10.269508      -279.4475
  16   2.0000      -8.081808      -219.9172
  17   2.0000      -8.081683      -219.9138
  18   2.0000      -6.040270      -164.3641
  19   2.0000      -6.040124      -164.3601
  20   2.0000      -6.036216      -164.2538
  21   2.0000      -6.036082      -164.2501
  22   2.0000      -6.032759      -164.1597
  23   2.0000      -6.032603      -164.1555
  24   2.0000      -1.011245       -27.5174
  25   2.0000      -0.983039       -26.7499
  26   2.0000      -0.917586       -24.9688
  27   2.0000      -0.914237       -24.8776
  28   2.0000      -0.871638       -23.7185
  29   2.0000      -0.861112       -23.4320
  30   2.0000      -0.842980       -22.9386
  31   2.0000      -0.808778       -22.0080
  32   2.0000      -0.788588       -21.4586
  33   2.0000      -0.773296       -21.0424
  34   2.0000      -0.710185       -19.3251
  35   2.0000      -0.699174       -19.0255
  36   2.0000      -0.688186       -18.7265
  37   2.0000      -0.676152       -18.3990
  38   2.0000      -0.636536       -17.3210
  39   2.0000      -0.617474       -16.8023
  40   2.0000      -0.601084       -16.3563
  41   2.0000      -0.570047       -15.5118
  42   2.0000      -0.567217       -15.4348
  43   2.0000      -0.551695       -15.0124
  44   2.0000      -0.545515       -14.8442
  45   2.0000      -0.526653       -14.3310
  46   2.0000      -0.522647       -14.2220
  47   2.0000      -0.514122       -13.9900
  48   2.0000      -0.506437       -13.7808
  49   2.0000      -0.500187       -13.6108
  50   2.0000      -0.489089       -13.3088
  51   2.0000      -0.482986       -13.1427
  52   2.0000      -0.471808       -12.8386
  53   2.0000      -0.463794       -12.6205
  54   2.0000      -0.463012       -12.5992
  55   2.0000      -0.446738       -12.1564
  56   2.0000      -0.443287       -12.0624
  57   2.0000      -0.437614       -11.9081
  58   2.0000      -0.433870       -11.8062
  59   2.0000      -0.428689       -11.6652
  60   2.0000      -0.418555       -11.3895
  61   2.0000      -0.410568       -11.1721
  62   2.0000      -0.406346       -11.0572
  63   2.0000      -0.347656        -9.4602
  64   2.0000      -0.333162        -9.0658
  65   2.0000      -0.331067        -9.0088
  66   2.0000      -0.286348        -7.7919
  67   0.0000       0.021930         0.5968
  68   0.0000       0.074331         2.0227
  69   0.0000       0.105235         2.8636
  70   0.0000       0.116322         3.1653
  71   0.0000       0.127650         3.4735

MULLIKEN ATOMIC CHARGES
-----------------------
   0 S :    0.112264
   1 C :   -0.132698
   2 C :   -0.111378
   3 C :    0.017948
   4 C :   -0.152992
   5 H :    0.008778
   6 C :    0.135036
   7 H :    0.033143
   8 H :    0.017480
   9 C :   -0.100443
  10 H :    0.030162
  11 H :    0.039434
  12 C :   -0.053439
  13 H :    0.036407
  14 H :    0.036973
  15 H :    0.004026
  16 S :    0.113026
  17 C :   -0.084820
  18 C :   -0.018718
  19 C :   -0.068448
  20 C :   -0.140988
  21 H :    0.014907
  22 C :    0.052199
  23 H :    0.023449
  24 H :    0.007911
  25 C :   -0.009791
  26 H :    0.018577
  27 H :    0.018875
  28 C :   -0.046857
  29 H :    0.037602
  30 H :    0.031958
  31 H :    0.019429
  32 H :    0.053085
  33 H :    0.057904
Sum of atomic charges:   -0.0000000

LOEWDIN ATOMIC CHARGES
----------------------
   0 S :    0.432975
   1 C :   -0.196331
   2 C :   -0.057785
   3 C :   -0.073626
   4 C :   -0.208899
   5 H :    0.027820
   6 C :   -0.017078
   7 H :    0.036835
   8 H :    0.024858
   9 C :   -0.042669
  10 H :    0.022700
  11 H :    0.028216
  12 C :   -0.066306
  13 H :    0.027769
  14 H :    0.030774
  15 H :    0.005313
  16 S :    0.419770
  17 C :   -0.185679
  18 C :   -0.063890
  19 C :   -0.057601
  20 C :   -0.204841
  21 H :    0.029901
  22 C :   -0.037656
  23 H :    0.027721
  24 H :    0.028705
  25 C :   -0.039952
  26 H :    0.026611
  27 H :    0.017023
  28 C :   -0.068109
  29 H :    0.027290
  30 H :    0.025693
  31 H :    0.027510
  32 H :    0.030790
  33 H :    0.022150

  Mayer bond orders larger than 0.100000
B(  0-S ,  1-C ) :   1.1393 B(  0-S ,  4-C ) :   1.1639 B(  1-C ,  2-C ) :   1.5951
B(  1-C , 32-H ) :   0.9664 B(  2-C ,  3-C ) :   1.2577 B(  2-C ,  6-C ) :   1.0101
B(  3-C ,  4-C ) :   1.5313 B(  3-C ,  5-H ) :   0.9924 B(  4-C , 20-C ) :   1.0822
B(  6-C ,  7-H ) :   0.9483 B(  6-C ,  8-H ) :   0.9303 B(  6-C ,  9-C ) :   1.0654
B(  9-C , 10-H ) :   0.9600 B(  9-C , 11-H ) :   0.9587 B(  9-C , 12-C ) :   1.0742
B( 12-C , 13-H ) :   0.9753 B( 12-C , 14-H ) :   0.9744 B( 12-C , 15-H ) :   0.9752
B( 16-S , 17-C ) :   1.1805 B( 16-S , 20-C ) :   1.1357 B( 17-C , 18-C ) :   1.5495
B( 17-C , 20-C ) :   0.1075 B( 17-C , 33-H ) :   0.9696 B( 18-C , 19-C ) :   1.2802
B( 18-C , 21-H ) :   0.9897 B( 19-C , 20-C ) :   1.5399 B( 19-C , 22-C ) :   1.0540
B( 22-C , 23-H ) :   0.9435 B( 22-C , 24-H ) :   0.9231 B( 22-C , 25-C ) :   1.0408
B( 25-C , 26-H ) :   0.9418 B( 25-C , 27-H ) :   0.9570 B( 25-C , 28-C ) :   1.0992
B( 28-C , 29-H ) :   0.9697 B( 28-C , 30-H ) :   0.9724 B( 28-C , 31-H ) :   0.9669

Dispersion correction           -0.014707788
FINAL SINGLE POINT ENERGY     -1339.875812474998

DIPOLE MOMENT
-------------
                                X             Y             Z
Electronic contribution:    -18.53274       8.20539       3.46629
Nuclear contribution   :     18.82014      -8.19334      -3.41975
                        -----------------------------------------
Total Dipole Moment    :      0.28740       0.01206       0.04654
                        -----------------------------------------
Magnitude (a.u.)       :      0.29139
Magnitude (Debye)      :      0.74067

Rotational constants in cm-1:     0.020129     0.008726     0.006763
Rotational constants in MHz :   603.441804   261.606216   202.740230

                             ****ORCA TERMINATED NORMALLY****
TOTAL RUN TIME: 0 days 0 hours 0 minutes 32 seconds 931 msec
