                         Program Version 4.2.1 -  RELEASE  -
|  1> ! wB97X-D3 SP def2-SVP
|  2> %pal
|  3> nprocs 16
|  4> end
|  5>
|  6> * xyz 0 1
|  7> S 	 21.903 	 8.54816 	 66.5558
|  8> C 	 23.2588 	 9.39243 	 66.0126
|  9> C 	 23.0434 	 10.7516 	 66.1879
| 10> C 	 21.7299 	 11.0681 	 66.5289
| 11> C 	 20.9383 	 9.96367 	 66.7547
| 12> H 	 21.3277 	 12.0991 	 66.6962
| 13> C 	 24.0934 	 11.8321 	 66.1497
| 14> H 	 24.3076 	 11.8081 	 65.0865
| 15> H 	 25.0028 	 11.4871 	 66.5564
| 16> C 	 23.7548 	 13.2098 	 66.722
| 17> H 	 22.7571 	 13.684 	 66.4042
| 18> H 	 23.6076 	 13.0956 	 67.8265
| 19> C 	 24.8551 	 14.2001 	 66.4662
| 20> H 	 24.6358 	 15.1894 	 66.8871
| 21> H 	 25.8235 	 13.8185 	 66.7479
| 22> H 	 24.9418 	 14.484 	 65.377
| 23> S 	 18.4169 	 10.85 	 66.2881
| 24> C 	 17.0252 	 10.2241 	 67.0882
| 25> C 	 17.5114 	 9.42154 	 68.1437
| 26> C 	 18.9191 	 9.15084 	 68.1796
| 27> C 	 19.5727 	 10.0035 	 67.2427
| 28> H 	 16.7983 	 8.96768 	 68.8281
| 29> C 	 19.5647 	 8.24372 	 69.1484
| 30> H 	 20.5636 	 7.96176 	 68.7883
| 31> H 	 19.1191 	 7.27061 	 69.0811
| 32> C 	 19.6137 	 8.77186 	 70.551
| 33> H 	 18.5441 	 9.06319 	 70.9705
| 34> H 	 20.076 	 9.78668 	 70.5235
| 35> C 	 20.2148 	 7.80859 	 71.6481
| 36> H 	 21.3182 	 7.79611 	 71.6214
| 37> H 	 20.0798 	 6.80452 	 71.2847
| 38> H 	 19.7598 	 7.90771 	 72.6188
| 39> H 	 24.1723 	 8.89865 	 65.764
| 40> H 	 15.9593 	 10.2518 	 66.8468
| 41> *
| 42>
| 43>                          ****END OF INPUT****

CARTESIAN COORDINATES (ANGSTROEM)
---------------------------------
  S     21.903000    8.548160   66.555800
  C     23.258800    9.392430   66.012600
  C     23.043400   10.751600   66.187900
  C     21.729900   11.068100   66.528900
  C     20.938300    9.963670   66.754700
  H     21.327700   12.099100   66.696200
  C     24.093400   11.832100   66.149700
  H     24.307600   11.808100   65.086500
  H     25.002800   11.487100   66.556400
  C     23.754800   13.209800   66.722000
  H     22.757100   13.684000   66.404200
  H     23.607600   13.095600   67.826500
  C     24.855100   14.200100   66.466200
  H     24.635800   15.189400   66.887100
  H     25.823500   13.818500   66.747900
  H     24.941800   14.484000   65.377000
  S     18.416900   10.850000   66.288100
  C     17.025200   10.224100   67.088200
  C     17.511400    9.421540   68.143700
  C     18.919100    9.150840   68.179600
  C     19.572700   10.003500   67.242700
  H     16.798300    8.967680   68.828100
  C     19.564700    8.243720   69.148400
  H     20.563600    7.961760   68.788300
  H     19.119100    7.270610   69.081100
  C     19.613700    8.771860   70.551000
  H     18.544100    9.063190   70.970500
  H     20.076000    9.786680   70.523500
  C     20.214800    7.808590   71.648100
  H     21.318200    7.796110   71.621400
  H     20.079800    6.804520   71.284700
  H     19.759800    7.907710   72.618800
  H     24.172300    8.898650   65.764000
  H     15.959300   10.251800   66.846800

 Total Charge           Charge          ....    0
 Multiplicity           Mult            ....    1
 Number of Electrons    NEL             ....  134
 Basis Dimension        Dim             ....  322

ORBITAL ENERGIES
----------------

  NO   OCC          E(Eh)            E(eV)
   0   2.0000     -88.967219     -2420.9211
   1   2.0000     -88.966482     -2420.9010
   2   2.0000     -10.326701      -281.0038
   3   2.0000     -10.323972      -280.9296
   4   2.0000     -10.318641      -280.7845
   5   2.0000     -10.305849      -280.4364
   6   2.0000     -10.303753      -280.3794
   7   2.0000     -10.296548      -280.1833
   8   2.0000     -10.296109      -280.1714
   9   2.0000     -10.296063      -280.1701
  10   2.0000     -10.294405      -280.1250
  11   2.0000     -10.287687      -279.9422
  12   2.0000     -10.286513      -279.9102
  13   2.0000     -10.286370      -279.9064
  14   2.0000     -10.280707      -279.7523
  15   2.0000     -10.278986      -279.7054
  16   2.0000      -8.082290      -219.9303
  17   2.0000      -8.082120      -219.9257
  18   2.0000      -6.040827      -164.3793
  19   2.0000      -6.040467      -164.3695
  20   2.0000      -6.036400      -164.2588
  21   2.0000      -6.036387      -164.2584
  22   2.0000      -6.033330      -164.1753
  23   2.0000      -6.033111      -164.1693
  24   2.0000      -1.015518       -27.6337
  25   2.0000      -0.991155       -26.9707
  26   2.0000      -0.915641       -24.9158
  27   2.0000      -0.911462       -24.8021
  28   2.0000      -0.872903       -23.7529
  29   2.0000      -0.854357       -23.2482
  30   2.0000      -0.844474       -22.9793
  31   2.0000      -0.813924       -22.1480
  32   2.0000      -0.783987       -21.3334
  33   2.0000      -0.770994       -20.9798
  34   2.0000      -0.711456       -19.3597
  35   2.0000      -0.700708       -19.0672
  36   2.0000      -0.688936       -18.7469
  37   2.0000      -0.663676       -18.0595
  38   2.0000      -0.634980       -17.2787
  39   2.0000      -0.623072       -16.9547
  40   2.0000      -0.598770       -16.2934
  41   2.0000      -0.573592       -15.6082
  42   2.0000      -0.561615       -15.2823
  43   2.0000      -0.552373       -15.0308
  44   2.0000      -0.534772       -14.5519
  45   2.0000      -0.530863       -14.4455
  46   2.0000      -0.516867       -14.0647
  47   2.0000      -0.510321       -13.8865
  48   2.0000      -0.505362       -13.7516
  49   2.0000      -0.501980       -13.6596
  50   2.0000      -0.489758       -13.3270
  51   2.0000      -0.486367       -13.2347
  52   2.0000      -0.476587       -12.9686
  53   2.0000      -0.465452       -12.6656
  54   2.0000      -0.461552       -12.5595
  55   2.0000      -0.452336       -12.3087
  56   2.0000      -0.440490       -11.9864
  57   2.0000      -0.436981       -11.8909
  58   2.0000      -0.434629       -11.8269
  59   2.0000      -0.422373       -11.4934
  60   2.0000      -0.417976       -11.3737
  61   2.0000      -0.411139       -11.1877
  62   2.0000      -0.398629       -10.8473
  63   2.0000      -0.352205        -9.5840
  64   2.0000      -0.328384        -8.9358
  65   2.0000      -0.325719        -8.8633
  66   2.0000      -0.283659        -7.7187
  67   0.0000       0.030128         0.8198
  68   0.0000       0.070014         1.9052
  69   0.0000       0.113857         3.0982
  70   0.0000       0.126870         3.4523
  71   0.0000       0.138572         3.7707

MULLIKEN ATOMIC CHARGES
-----------------------
   0 S :    0.122902
   1 C :   -0.133348
   2 C :   -0.077533
   3 C :   -0.031517
   4 C :   -0.105236
   5 H :    0.027289
   6 C :    0.097791
   7 H :    0.030572
   8 H :    0.009707
   9 C :   -0.111322
  10 H :    0.045681
  11 H :    0.041818
  12 C :   -0.035380
  13 H :    0.032976
  14 H :    0.027444
  15 H :    0.030279
  16 S :    0.120689
  17 C :   -0.101367
  18 C :   -0.053340
  19 C :   -0.077994
  20 C :   -0.144136
  21 H :    0.017557
  22 C :    0.116635
  23 H :    0.006146
  24 H :    0.015400
  25 C :   -0.133590
  26 H :    0.035115
  27 H :    0.039823
  28 C :   -0.013221
  29 H :    0.033281
  30 H :    0.009812
  31 H :    0.046925
  32 H :    0.039375
  33 H :    0.070768
Sum of atomic charges:    0.0000000

LOEWDIN ATOMIC CHARGES
----------------------
   0 S :    0.458735
   1 C :   -0.225085
   2 C :   -0.061682
   3 C :   -0.078506
   4 C :   -0.205549
   5 H :    0.038220
   6 C :   -0.033484
   7 H :    0.038316
   8 H :    0.025730
   9 C :   -0.051391
  10 H :    0.031659
  11 H :    0.030797
  12 C :   -0.067821
  13 H :    0.028724
  14 H :    0.021129
  15 H :    0.030475
  16 S :    0.445614
  17 C :   -0.213419
  18 C :   -0.068663
  19 C :   -0.057974
  20 C :   -0.207329
  21 H :    0.026415
  22 C :   -0.046431
  23 H :    0.021098
  24 H :    0.030493
  25 C :   -0.047607
  26 H :    0.031093
  27 H :    0.028518
  28 C :   -0.069319
  29 H :    0.030135
  30 H :    0.023017
  31 H :    0.027881
  32 H :    0.024366
  33 H :    0.041846

  Mayer bond orders larger than 0.100000
B(  0-S ,  1-C ) :   1.1658 B(  0-S ,  4-C ) :   1.1795 B(  1-C ,  2-C ) :   1.5426
B(  1-C , 32-H ) :   0.9831 B(  2-C ,  3-C ) :   1.3189 B(  2-C ,  6-C ) :   0.9899
B(  3-C ,  4-C ) :   1.4918 B(  3-C ,  5-H ) :   0.9859 B(  4-C , 20-C ) :   1.0457
B(  6-C ,  7-H ) :   0.9287 B(  6-C ,  8-H ) :   0.9386 B(  6-C ,  9-C ) :   1.0725
B(  9-C , 10-H ) :   0.9448 B(  9-C , 11-H ) :   0.9499 B(  9-C , 12-C ) :   1.0930
B( 12-C , 13-H ) :   0.9701 B( 12-C , 14-H ) :   0.9724 B( 12-C , 15-H ) :   0.9728
B( 16-S , 17-C ) :   1.1678 B( 16-S , 20-C ) :   1.1747 B( 17-C , 18-C ) :   1.5606
B( 17-C , 20-C ) :   0.1068 B( 17-C , 33-H ) :   0.9695 B( 18-C , 19-C ) :   1.2862
B( 18-C , 21-H ) :   0.9843 B( 19-C , 20-C ) :   1.5105 B( 19-C , 22-C ) :   1.0704
B( 22-C , 23-H ) :   0.9166 B( 22-C , 24-H ) :   0.9088 B( 22-C , 25-C ) :   1.0598
B( 25-C , 26-H ) :   0.9605 B( 25-C , 27-H ) :   0.9552 B( 25-C , 28-C ) :   1.0589
B( 28-C , 29-H ) :   0.9724 B( 28-C , 30-H ) :   0.9718 B( 28-C , 31-H ) :   0.9785

Dispersion correction           -0.013700539
FINAL SINGLE POINT ENERGY     -1339.866706036375

DIPOLE MOMENT
-------------
                                X             Y             Z
Electronic contribution:    -12.73849      -7.06059     -14.21070
Nuclear contribution   :     12.98744       7.08182      14.47227
                        -----------------------------------------
Total Dipole Moment    :      0.24895       0.02122       0.26157
                        -----------------------------------------
Magnitude (a.u.)       :      0.36173
Magnitude (Debye)      :      0.91943

Rotational constants in cm-1:     0.018086     0.007953     0.006903
Rotational constants in MHz :   542.217549   238.430536   206.956653

                             ****ORCA TERMINATED NORMALLY****
TOTAL RUN TIME: 0 days 0 hours 0 minutes 27 seconds 918 msec
