                         Program Version 4.2.1 -  RELEASE  -
|  1> ! wB97X-D3 SP def2-SVP
|  2> %pal
|  3> nprocs 16
|  4> end
|  5>
|  6> * xyz 0 1
|  7> S 	 -4.47116 	 28.4036 	 46.1407
|  8> C 	 -3.90615 	 27.5629 	 44.7105
|  9> C 	 -4.49756 	 28.0331 	 43.5242
| 10> C 	 -5.48977 	 28.9786 	 43.8118
| 11> C 	 -5.64508 	 29.343 	 45.1649
| 12> H 	 -5.95714 	 29.5026 	 43.0004
| 13> C 	 -4.33639 	 27.4781 	 42.1593
| 14> H 	 -3.22575 	 27.3544 	 41.9336
| 15> H 	 -4.51596 	 28.3425 	 41.4157
| 16> C 	 -5.09754 	 26.2546 	 41.6403
| 17> H 	 -6.18435 	 26.287 	 41.7021
| 18> H 	 -4.85038 	 26.2821 	 40.6253
| 19> C 	 -4.47505 	 25.0099 	 42.2898
| 20> H 	 -3.37343 	 24.9014 	 42.1218
| 21> H 	 -4.67758 	 24.9912 	 43.3679
| 22> H 	 -4.96131 	 24.1607 	 41.8319
| 23> S 	 -8.23883 	 30.5893 	 45.4085
| 24> C 	 -8.29169 	 32.0509 	 46.37
| 25> C 	 -7.05567 	 32.4123 	 46.91
| 26> C 	 -5.94249 	 31.6145 	 46.4484
| 27> C 	 -6.3881 	 30.5212 	 45.7041
| 28> H 	 -6.77611 	 33.1989 	 47.5575
| 29> C 	 -4.50825 	 31.7482 	 46.9804
| 30> H 	 -4.2849 	 30.889 	 47.5587
| 31> H 	 -4.53562 	 32.467 	 47.7809
| 32> C 	 -3.35022 	 32.1762 	 46.0309
| 33> H 	 -3.39691 	 33.2048 	 45.731
| 34> H 	 -3.50256 	 31.7154 	 45.0634
| 35> C 	 -1.98388 	 31.7259 	 46.5679
| 36> H 	 -1.96651 	 30.6045 	 46.5529
| 37> H 	 -1.65378 	 32.0475 	 47.5552
| 38> H 	 -1.14989 	 31.9993 	 45.9116
| 39> H 	 -3.41468 	 26.61 	 44.688
| 40> H 	 -9.1233 	 32.6322 	 46.7491
| 41> *
| 42>
| 43>                          ****END OF INPUT****

CARTESIAN COORDINATES (ANGSTROEM)
---------------------------------
  S     -4.471160   28.403600   46.140700
  C     -3.906150   27.562900   44.710500
  C     -4.497560   28.033100   43.524200
  C     -5.489770   28.978600   43.811800
  C     -5.645080   29.343000   45.164900
  H     -5.957140   29.502600   43.000400
  C     -4.336390   27.478100   42.159300
  H     -3.225750   27.354400   41.933600
  H     -4.515960   28.342500   41.415700
  C     -5.097540   26.254600   41.640300
  H     -6.184350   26.287000   41.702100
  H     -4.850380   26.282100   40.625300
  C     -4.475050   25.009900   42.289800
  H     -3.373430   24.901400   42.121800
  H     -4.677580   24.991200   43.367900
  H     -4.961310   24.160700   41.831900
  S     -8.238830   30.589300   45.408500
  C     -8.291690   32.050900   46.370000
  C     -7.055670   32.412300   46.910000
  C     -5.942490   31.614500   46.448400
  C     -6.388100   30.521200   45.704100
  H     -6.776110   33.198900   47.557500
  C     -4.508250   31.748200   46.980400
  H     -4.284900   30.889000   47.558700
  H     -4.535620   32.467000   47.780900
  C     -3.350220   32.176200   46.030900
  H     -3.396910   33.204800   45.731000
  H     -3.502560   31.715400   45.063400
  C     -1.983880   31.725900   46.567900
  H     -1.966510   30.604500   46.552900
  H     -1.653780   32.047500   47.555200
  H     -1.149890   31.999300   45.911600
  H     -3.414680   26.610000   44.688000
  H     -9.123300   32.632200   46.749100

 Total Charge           Charge          ....    0
 Multiplicity           Mult            ....    1
 Number of Electrons    NEL             ....  134
 Basis Dimension        Dim             ....  322

ORBITAL ENERGIES
----------------

  NO   OCC          E(Eh)            E(eV)
   0   2.0000     -88.974375     -2421.1158
   1   2.0000     -88.970963     -2421.0230
   2   2.0000     -10.338532      -281.3258
   3   2.0000     -10.337916      -281.3090
   4   2.0000     -10.320795      -280.8431
   5   2.0000     -10.316939      -280.7382
   6   2.0000     -10.305671      -280.4316
   7   2.0000     -10.300257      -280.2842
   8   2.0000     -10.299055      -280.2515
   9   2.0000     -10.293736      -280.1068
  10   2.0000     -10.292986      -280.0864
  11   2.0000     -10.289612      -279.9946
  12   2.0000     -10.287130      -279.9270
  13   2.0000     -10.283851      -279.8378
  14   2.0000     -10.281625      -279.7772
  15   2.0000     -10.278152      -279.6827
  16   2.0000      -8.087321      -220.0672
  17   2.0000      -8.083536      -219.9642
  18   2.0000      -6.045886      -164.5169
  19   2.0000      -6.042261      -164.4183
  20   2.0000      -6.041896      -164.4084
  21   2.0000      -6.038516      -164.3164
  22   2.0000      -6.038314      -164.3109
  23   2.0000      -6.034019      -164.1940
  24   2.0000      -0.995007       -27.0755
  25   2.0000      -0.973450       -26.4889
  26   2.0000      -0.914401       -24.8821
  27   2.0000      -0.901630       -24.5346
  28   2.0000      -0.861568       -23.4444
  29   2.0000      -0.851501       -23.1705
  30   2.0000      -0.847921       -23.0731
  31   2.0000      -0.805338       -21.9144
  32   2.0000      -0.781872       -21.2758
  33   2.0000      -0.771626       -20.9970
  34   2.0000      -0.711172       -19.3520
  35   2.0000      -0.705431       -19.1958
  36   2.0000      -0.693623       -18.8745
  37   2.0000      -0.665729       -18.1154
  38   2.0000      -0.634393       -17.2627
  39   2.0000      -0.616199       -16.7676
  40   2.0000      -0.593764       -16.1571
  41   2.0000      -0.572293       -15.5729
  42   2.0000      -0.553865       -15.0714
  43   2.0000      -0.545133       -14.8338
  44   2.0000      -0.537575       -14.6282
  45   2.0000      -0.520624       -14.1669
  46   2.0000      -0.515697       -14.0328
  47   2.0000      -0.508797       -13.8451
  48   2.0000      -0.499808       -13.6005
  49   2.0000      -0.495371       -13.4797
  50   2.0000      -0.480233       -13.0678
  51   2.0000      -0.476403       -12.9636
  52   2.0000      -0.472708       -12.8630
  53   2.0000      -0.461413       -12.5557
  54   2.0000      -0.458338       -12.4720
  55   2.0000      -0.453402       -12.3377
  56   2.0000      -0.446650       -12.1540
  57   2.0000      -0.439754       -11.9663
  58   2.0000      -0.432747       -11.7756
  59   2.0000      -0.426883       -11.6161
  60   2.0000      -0.421067       -11.4578
  61   2.0000      -0.410119       -11.1599
  62   2.0000      -0.405322       -11.0294
  63   2.0000      -0.344095        -9.3633
  64   2.0000      -0.334364        -9.0985
  65   2.0000      -0.331494        -9.0204
  66   2.0000      -0.288438        -7.8488
  67   0.0000       0.022613         0.6153
  68   0.0000       0.055904         1.5212
  69   0.0000       0.095269         2.5924
  70   0.0000       0.107935         2.9371
  71   0.0000       0.125872         3.4251

MULLIKEN ATOMIC CHARGES
-----------------------
   0 S :    0.111590
   1 C :   -0.107256
   2 C :   -0.081536
   3 C :    0.044438
   4 C :   -0.144026
   5 H :    0.006685
   6 C :   -0.045254
   7 H :    0.035064
   8 H :    0.028181
   9 C :    0.010526
  10 H :    0.038042
  11 H :    0.016611
  12 C :   -0.075122
  13 H :    0.036688
  14 H :    0.042196
  15 H :    0.030154
  16 S :    0.103160
  17 C :   -0.062180
  18 C :   -0.023024
  19 C :   -0.051304
  20 C :   -0.159683
  21 H :    0.001646
  22 C :    0.062831
  23 H :    0.024580
  24 H :   -0.000151
  25 C :   -0.023893
  26 H :    0.021280
  27 H :    0.028710
  28 C :   -0.070997
  29 H :    0.034155
  30 H :    0.030853
  31 H :    0.029279
  32 H :    0.048087
  33 H :    0.059673
Sum of atomic charges:   -0.0000000

LOEWDIN ATOMIC CHARGES
----------------------
   0 S :    0.409961
   1 C :   -0.195223
   2 C :   -0.072805
   3 C :   -0.052824
   4 C :   -0.187840
   5 H :    0.028734
   6 C :   -0.049213
   7 H :    0.038429
   8 H :    0.036153
   9 C :   -0.030594
  10 H :    0.028774
  11 H :    0.021501
  12 C :   -0.067681
  13 H :    0.029319
  14 H :    0.025567
  15 H :    0.023862
  16 S :    0.362732
  17 C :   -0.189892
  18 C :   -0.065632
  19 C :   -0.053210
  20 C :   -0.159703
  21 H :    0.023330
  22 C :   -0.032347
  23 H :    0.022693
  24 H :    0.026769
  25 C :   -0.036405
  26 H :    0.021277
  27 H :    0.027576
  28 C :   -0.070829
  29 H :    0.029233
  30 H :    0.020992
  31 H :    0.026885
  32 H :    0.025068
  33 H :    0.035342

  Mayer bond orders larger than 0.100000
B(  0-S ,  1-C ) :   1.1566 B(  0-S ,  4-C ) :   1.1460 B(  1-C ,  2-C ) :   1.5671
B(  1-C ,  4-C ) :   0.1039 B(  1-C , 32-H ) :   0.9616 B(  2-C ,  3-C ) :   1.3062
B(  2-C ,  6-C ) :   1.0373 B(  3-C ,  4-C ) :   1.5293 B(  3-C ,  5-H ) :   0.9880
B(  4-C , 20-C ) :   1.0287 B(  6-C ,  7-H ) :   0.9380 B(  6-C ,  8-H ) :   0.9365
B(  6-C ,  9-C ) :   1.0673 B(  9-C , 10-H ) :   0.9560 B(  9-C , 11-H ) :   0.9442
B(  9-C , 12-C ) :   1.0800 B( 12-C , 13-H ) :   0.9747 B( 12-C , 14-H ) :   0.9749
B( 12-C , 15-H ) :   0.9719 B( 16-S , 17-C ) :   1.1355 B( 16-S , 20-C ) :   1.1069
B( 17-C , 18-C ) :   1.6231 B( 17-C , 33-H ) :   0.9602 B( 18-C , 19-C ) :   1.2467
B( 18-C , 21-H ) :   0.9802 B( 19-C , 20-C ) :   1.6162 B( 19-C , 22-C ) :   1.0260
B( 22-C , 23-H ) :   0.9467 B( 22-C , 24-H ) :   0.9256 B( 22-C , 25-C ) :   1.0384
B( 25-C , 26-H ) :   0.9545 B( 25-C , 27-H ) :   0.9602 B( 25-C , 28-C ) :   1.0747
B( 28-C , 29-H ) :   0.9739 B( 28-C , 30-H ) :   0.9783 B( 28-C , 31-H ) :   0.9730

Dispersion correction           -0.014944688
FINAL SINGLE POINT ENERGY     -1339.858530629093

DIPOLE MOMENT
-------------
                                X             Y             Z
Electronic contribution:    -17.23018       4.80231       9.44752
Nuclear contribution   :     17.53535      -4.84168      -9.72654
                        -----------------------------------------
Total Dipole Moment    :      0.30518      -0.03936      -0.27902
                        -----------------------------------------
Magnitude (a.u.)       :      0.41537
Magnitude (Debye)      :      1.05580

Rotational constants in cm-1:     0.019412     0.008583     0.006645
Rotational constants in MHz :   581.961700   257.315565   199.197634

                             ****ORCA TERMINATED NORMALLY****
TOTAL RUN TIME: 0 days 0 hours 0 minutes 34 seconds 802 msec
