                         Program Version 4.2.1 -  RELEASE  -
|  1> ! wB97X-D3 SP def2-SVP
|  2> %pal
|  3> nprocs 16
|  4> end
|  5>
|  6> * xyz 0 1
|  7> S 	 51.1251 	 8.0797 	 101.207
|  8> C 	 50.5824 	 9.6864 	 101.591
|  9> C 	 51.3398 	 10.6192 	 100.948
| 10> C 	 52.2199 	 10.0902 	 99.9244
| 11> C 	 52.0917 	 8.6856 	 99.8813
| 12> H 	 52.7835 	 10.6314 	 99.1717
| 13> C 	 51.5307 	 12.1187 	 101.393
| 14> H 	 50.507 	 12.367 	 101.757
| 15> H 	 51.7617 	 12.786 	 100.543
| 16> C 	 52.5979 	 12.5201 	 102.448
| 17> H 	 52.6254 	 11.784 	 103.252
| 18> H 	 53.665 	 12.4976 	 102.018
| 19> C 	 52.2941 	 13.9191 	 103.101
| 20> H 	 51.4344 	 13.8477 	 103.87
| 21> H 	 53.1439 	 14.4417 	 103.545
| 22> H 	 51.9999 	 14.4475 	 102.182
| 23> S 	 53.5356 	 6.3846 	 99.5874
| 24> C 	 54.2295 	 6.0372 	 98.1524
| 25> C 	 53.8312 	 6.884 	 97.1215
| 26> C 	 53.0402 	 7.94263 	 97.5931
| 27> C 	 52.8675 	 7.85597 	 98.9491
| 28> H 	 54.2596 	 6.77801 	 96.1246
| 29> C 	 52.5041 	 8.9932 	 96.6734
| 30> H 	 53.2442 	 9.64948 	 96.1812
| 31> H 	 51.8976 	 9.68015 	 97.2463
| 32> C 	 51.5454 	 8.49004 	 95.5141
| 33> H 	 52.0472 	 7.86337 	 94.8739
| 34> H 	 51.2622 	 9.35574 	 94.9809
| 35> C 	 50.3272 	 7.68192 	 96.1365
| 36> H 	 50.6152 	 6.68653 	 96.6184
| 37> H 	 49.537 	 7.3536 	 95.4754
| 38> H 	 49.8574 	 8.15904 	 97.0412
| 39> H 	 50.0943 	 9.87953 	 102.548
| 40> H 	 54.8462 	 5.17755 	 97.9813
| 41> *
| 42>
| 43>                          ****END OF INPUT****

CARTESIAN COORDINATES (ANGSTROEM)
---------------------------------
  S     51.125100    8.079700  101.207000
  C     50.582400    9.686400  101.591000
  C     51.339800   10.619200  100.948000
  C     52.219900   10.090200   99.924400
  C     52.091700    8.685600   99.881300
  H     52.783500   10.631400   99.171700
  C     51.530700   12.118700  101.393000
  H     50.507000   12.367000  101.757000
  H     51.761700   12.786000  100.543000
  C     52.597900   12.520100  102.448000
  H     52.625400   11.784000  103.252000
  H     53.665000   12.497600  102.018000
  C     52.294100   13.919100  103.101000
  H     51.434400   13.847700  103.870000
  H     53.143900   14.441700  103.545000
  H     51.999900   14.447500  102.182000
  S     53.535600    6.384600   99.587400
  C     54.229500    6.037200   98.152400
  C     53.831200    6.884000   97.121500
  C     53.040200    7.942630   97.593100
  C     52.867500    7.855970   98.949100
  H     54.259600    6.778010   96.124600
  C     52.504100    8.993200   96.673400
  H     53.244200    9.649480   96.181200
  H     51.897600    9.680150   97.246300
  C     51.545400    8.490040   95.514100
  H     52.047200    7.863370   94.873900
  H     51.262200    9.355740   94.980900
  C     50.327200    7.681920   96.136500
  H     50.615200    6.686530   96.618400
  H     49.537000    7.353600   95.475400
  H     49.857400    8.159040   97.041200
  H     50.094300    9.879530  102.548000
  H     54.846200    5.177550   97.981300

 Total Charge           Charge          ....    0
 Multiplicity           Mult            ....    1
 Number of Electrons    NEL             ....  134
 Basis Dimension        Dim             ....  322

ORBITAL ENERGIES
----------------

  NO   OCC          E(Eh)            E(eV)
   0   2.0000     -88.968990     -2420.9693
   1   2.0000     -88.966704     -2420.9071
   2   2.0000     -10.333294      -281.1832
   3   2.0000     -10.322368      -280.8859
   4   2.0000     -10.311429      -280.5882
   5   2.0000     -10.308271      -280.5023
   6   2.0000     -10.306275      -280.4480
   7   2.0000     -10.300812      -280.2993
   8   2.0000     -10.299734      -280.2700
   9   2.0000     -10.296263      -280.1756
  10   2.0000     -10.295368      -280.1512
  11   2.0000     -10.292468      -280.0723
  12   2.0000     -10.289702      -279.9970
  13   2.0000     -10.289117      -279.9811
  14   2.0000     -10.285645      -279.8866
  15   2.0000     -10.280490      -279.7463
  16   2.0000      -8.084362      -219.9867
  17   2.0000      -8.083815      -219.9718
  18   2.0000      -6.042415      -164.4225
  19   2.0000      -6.042376      -164.4214
  20   2.0000      -6.038491      -164.3157
  21   2.0000      -6.038466      -164.3150
  22   2.0000      -6.035412      -164.2319
  23   2.0000      -6.034357      -164.2032
  24   2.0000      -1.019928       -27.7536
  25   2.0000      -0.990884       -26.9633
  26   2.0000      -0.908688       -24.7266
  27   2.0000      -0.900091       -24.4927
  28   2.0000      -0.868822       -23.6419
  29   2.0000      -0.851403       -23.1679
  30   2.0000      -0.843332       -22.9482
  31   2.0000      -0.807779       -21.9808
  32   2.0000      -0.779933       -21.2231
  33   2.0000      -0.768725       -20.9181
  34   2.0000      -0.712508       -19.3883
  35   2.0000      -0.696445       -18.9512
  36   2.0000      -0.691570       -18.8186
  37   2.0000      -0.662571       -18.0295
  38   2.0000      -0.639035       -17.3890
  39   2.0000      -0.618380       -16.8270
  40   2.0000      -0.601326       -16.3629
  41   2.0000      -0.571092       -15.5402
  42   2.0000      -0.549988       -14.9659
  43   2.0000      -0.547882       -14.9086
  44   2.0000      -0.535109       -14.5611
  45   2.0000      -0.519955       -14.1487
  46   2.0000      -0.518058       -14.0971
  47   2.0000      -0.505960       -13.7679
  48   2.0000      -0.502185       -13.6652
  49   2.0000      -0.497759       -13.5447
  50   2.0000      -0.488703       -13.2983
  51   2.0000      -0.482218       -13.1218
  52   2.0000      -0.475641       -12.9428
  53   2.0000      -0.457885       -12.4597
  54   2.0000      -0.454696       -12.3729
  55   2.0000      -0.452238       -12.3060
  56   2.0000      -0.440413       -11.9843
  57   2.0000      -0.437477       -11.9044
  58   2.0000      -0.432259       -11.7624
  59   2.0000      -0.423571       -11.5259
  60   2.0000      -0.420183       -11.4338
  61   2.0000      -0.414955       -11.2915
  62   2.0000      -0.410970       -11.1830
  63   2.0000      -0.355035        -9.6610
  64   2.0000      -0.335177        -9.1206
  65   2.0000      -0.329033        -8.9534
  66   2.0000      -0.288659        -7.8548
  67   0.0000       0.028606         0.7784
  68   0.0000       0.071588         1.9480
  69   0.0000       0.107388         2.9222
  70   0.0000       0.119298         3.2463
  71   0.0000       0.134359         3.6561

MULLIKEN ATOMIC CHARGES
-----------------------
   0 S :    0.104105
   1 C :   -0.107337
   2 C :   -0.085978
   3 C :    0.016020
   4 C :   -0.137644
   5 H :    0.027112
   6 C :    0.013673
   7 H :    0.030406
   8 H :    0.031523
   9 C :   -0.074544
  10 H :    0.023960
  11 H :    0.043116
  12 C :   -0.089103
  13 H :    0.054396
  14 H :    0.046840
  15 H :    0.033233
  16 S :    0.131201
  17 C :   -0.078181
  18 C :   -0.055583
  19 C :   -0.009249
  20 C :   -0.175085
  21 H :    0.020647
  22 C :    0.032128
  23 H :    0.039022
  24 H :    0.013406
  25 C :   -0.003208
  26 H :    0.015012
  27 H :    0.026371
  28 C :   -0.110622
  29 H :    0.040810
  30 H :    0.036107
  31 H :    0.040349
  32 H :    0.058219
  33 H :    0.048875
Sum of atomic charges:    0.0000000

LOEWDIN ATOMIC CHARGES
----------------------
   0 S :    0.405714
   1 C :   -0.212356
   2 C :   -0.059156
   3 C :   -0.066251
   4 C :   -0.184914
   5 H :    0.032795
   6 C :   -0.038596
   7 H :    0.031543
   8 H :    0.029142
   9 C :   -0.048347
  10 H :    0.016370
  11 H :    0.032000
  12 C :   -0.073886
  13 H :    0.035965
  14 H :    0.027054
  15 H :    0.025895
  16 S :    0.462981
  17 C :   -0.215293
  18 C :   -0.075055
  19 C :   -0.057358
  20 C :   -0.203252
  21 H :    0.032491
  22 C :   -0.030644
  23 H :    0.033792
  24 H :    0.024716
  25 C :   -0.017132
  26 H :    0.009721
  27 H :    0.021426
  28 C :   -0.084444
  29 H :    0.035225
  30 H :    0.021499
  31 H :    0.031190
  32 H :    0.031265
  33 H :    0.025902

  Mayer bond orders larger than 0.100000
B(  0-S ,  1-C ) :   1.1154 B(  0-S ,  4-C ) :   1.1647 B(  1-C ,  2-C ) :   1.6410
B(  1-C , 32-H ) :   0.9612 B(  2-C ,  3-C ) :   1.2290 B(  2-C ,  6-C ) :   1.0215
B(  3-C ,  4-C ) :   1.5463 B(  3-C ,  5-H ) :   0.9935 B(  4-C , 20-C ) :   1.0506
B(  6-C ,  7-H ) :   0.9477 B(  6-C ,  8-H ) :   0.9421 B(  6-C ,  9-C ) :   1.0483
B(  9-C , 10-H ) :   0.9618 B(  9-C , 11-H ) :   0.9564 B(  9-C , 12-C ) :   1.0563
B( 12-C , 13-H ) :   0.9758 B( 12-C , 14-H ) :   0.9756 B( 12-C , 15-H ) :   0.9791
B( 16-S , 17-C ) :   1.2093 B( 16-S , 20-C ) :   1.1546 B( 17-C , 18-C ) :   1.5615
B( 17-C , 33-H ) :   0.9691 B( 18-C , 19-C ) :   1.2654 B( 18-C , 21-H ) :   0.9948
B( 19-C , 20-C ) :   1.5726 B( 19-C , 22-C ) :   1.0501 B( 22-C , 23-H ) :   0.9374
B( 22-C , 24-H ) :   0.9296 B( 22-C , 25-C ) :   1.0727 B( 25-C , 26-H ) :   0.9591
B( 25-C , 27-H ) :   0.9594 B( 25-C , 28-C ) :   1.0532 B( 28-C , 29-H ) :   0.9716
B( 28-C , 30-H ) :   0.9794 B( 28-C , 31-H ) :   0.9795

Dispersion correction           -0.014410448
FINAL SINGLE POINT ENERGY     -1339.862294150136

DIPOLE MOMENT
-------------
                                X             Y             Z
Electronic contribution:      4.48948     -21.55578       5.65064
Nuclear contribution   :     -4.22964      21.87617      -5.89967
                        -----------------------------------------
Total Dipole Moment    :      0.25984       0.32039      -0.24904
                        -----------------------------------------
Magnitude (a.u.)       :      0.48186
Magnitude (Debye)      :      1.22478

Rotational constants in cm-1:     0.021637     0.007448     0.006723
Rotational constants in MHz :   648.671906   223.272559   201.552541

                             ****ORCA TERMINATED NORMALLY****
TOTAL RUN TIME: 0 days 0 hours 0 minutes 28 seconds 431 msec
