                         Program Version 4.2.1 -  RELEASE  -
|  1> ! wB97X-D3 SP def2-SVP
|  2> %pal
|  3> nprocs 16
|  4> end
|  5>
|  6> * xyz 0 1
|  7> S 	 -39.3901 	 -3.1378 	 97.7764
|  8> C 	 -40.3948 	 -3.59003 	 96.425
|  9> C 	 -41.4918 	 -4.35323 	 96.8989
| 10> C 	 -41.3773 	 -4.56106 	 98.292
| 11> C 	 -40.3113 	 -3.9977 	 98.8993
| 12> H 	 -42.0577 	 -5.04494 	 98.9348
| 13> C 	 -42.5368 	 -4.88017 	 95.899
| 14> H 	 -42.6528 	 -5.92603 	 96.0494
| 15> H 	 -42.1027 	 -4.77481 	 94.8752
| 16> C 	 -44.0234 	 -4.36666 	 96.1164
| 17> H 	 -44.3046 	 -4.5422 	 97.2074
| 18> H 	 -44.1684 	 -3.29429 	 95.8988
| 19> C 	 -45.1864 	 -4.98485 	 95.3695
| 20> H 	 -45.1805 	 -6.12667 	 95.2136
| 21> H 	 -46.0971 	 -4.71162 	 95.7758
| 22> H 	 -45.1839 	 -4.59196 	 94.3046
| 23> S 	 -39.7074 	 -2.43986 	 101.106
| 24> C 	 -39.7264 	 -3.20939 	 102.667
| 25> C 	 -39.9765 	 -4.58777 	 102.562
| 26> C 	 -40.1692 	 -5.05698 	 101.273
| 27> C 	 -40.0004 	 -4.04532 	 100.331
| 28> H 	 -40.072 	 -5.25994 	 103.42
| 29> C 	 -40.4185 	 -6.55349 	 100.983
| 30> H 	 -39.5081 	 -7.12922 	 101.046
| 31> H 	 -40.7724 	 -6.6862 	 99.9743
| 32> C 	 -41.5722 	 -7.1746 	 101.892
| 33> H 	 -42.6246 	 -6.82054 	 101.769
| 34> H 	 -41.4741 	 -6.98118 	 102.946
| 35> C 	 -41.6758 	 -8.68089 	 101.609
| 36> H 	 -41.5968 	 -8.95602 	 100.54
| 37> H 	 -42.6512 	 -9.01332 	 102.021
| 38> H 	 -40.9299 	 -9.24019 	 102.116
| 39> H 	 -40.1793 	 -3.243 	 95.4194
| 40> H 	 -39.4719 	 -2.73387 	 103.596
| 41> *
| 42>
| 43>                          ****END OF INPUT****

CARTESIAN COORDINATES (ANGSTROEM)
---------------------------------
  S    -39.390100   -3.137800   97.776400
  C    -40.394800   -3.590030   96.425000
  C    -41.491800   -4.353230   96.898900
  C    -41.377300   -4.561060   98.292000
  C    -40.311300   -3.997700   98.899300
  H    -42.057700   -5.044940   98.934800
  C    -42.536800   -4.880170   95.899000
  H    -42.652800   -5.926030   96.049400
  H    -42.102700   -4.774810   94.875200
  C    -44.023400   -4.366660   96.116400
  H    -44.304600   -4.542200   97.207400
  H    -44.168400   -3.294290   95.898800
  C    -45.186400   -4.984850   95.369500
  H    -45.180500   -6.126670   95.213600
  H    -46.097100   -4.711620   95.775800
  H    -45.183900   -4.591960   94.304600
  S    -39.707400   -2.439860  101.106000
  C    -39.726400   -3.209390  102.667000
  C    -39.976500   -4.587770  102.562000
  C    -40.169200   -5.056980  101.273000
  C    -40.000400   -4.045320  100.331000
  H    -40.072000   -5.259940  103.420000
  C    -40.418500   -6.553490  100.983000
  H    -39.508100   -7.129220  101.046000
  H    -40.772400   -6.686200   99.974300
  C    -41.572200   -7.174600  101.892000
  H    -42.624600   -6.820540  101.769000
  H    -41.474100   -6.981180  102.946000
  C    -41.675800   -8.680890  101.609000
  H    -41.596800   -8.956020  100.540000
  H    -42.651200   -9.013320  102.021000
  H    -40.929900   -9.240190  102.116000
  H    -40.179300   -3.243000   95.419400
  H    -39.471900   -2.733870  103.596000

 Total Charge           Charge          ....    0
 Multiplicity           Mult            ....    1
 Number of Electrons    NEL             ....  134
 Basis Dimension        Dim             ....  322

ORBITAL ENERGIES
----------------

  NO   OCC          E(Eh)            E(eV)
   0   2.0000     -88.969368     -2420.9796
   1   2.0000     -88.962739     -2420.7992
   2   2.0000     -10.330721      -281.1132
   3   2.0000     -10.320242      -280.8281
   4   2.0000     -10.319332      -280.8033
   5   2.0000     -10.315493      -280.6988
   6   2.0000     -10.307041      -280.4688
   7   2.0000     -10.303433      -280.3707
   8   2.0000     -10.300623      -280.2942
   9   2.0000     -10.299876      -280.2739
  10   2.0000     -10.295806      -280.1631
  11   2.0000     -10.293989      -280.1137
  12   2.0000     -10.292707      -280.0788
  13   2.0000     -10.284344      -279.8512
  14   2.0000     -10.282163      -279.7919
  15   2.0000     -10.279375      -279.7160
  16   2.0000      -8.083292      -219.9575
  17   2.0000      -8.078870      -219.8372
  18   2.0000      -6.041775      -164.4051
  19   2.0000      -6.037937      -164.3006
  20   2.0000      -6.037225      -164.2812
  21   2.0000      -6.034109      -164.1965
  22   2.0000      -6.032974      -164.1656
  23   2.0000      -6.029929      -164.0827
  24   2.0000      -1.011608       -27.5273
  25   2.0000      -0.984924       -26.8011
  26   2.0000      -0.905146       -24.6303
  27   2.0000      -0.903093       -24.5744
  28   2.0000      -0.867582       -23.6081
  29   2.0000      -0.856956       -23.3189
  30   2.0000      -0.848150       -23.0793
  31   2.0000      -0.813601       -22.1392
  32   2.0000      -0.784479       -21.3467
  33   2.0000      -0.770858       -20.9761
  34   2.0000      -0.707186       -19.2435
  35   2.0000      -0.699687       -19.0394
  36   2.0000      -0.689861       -18.7721
  37   2.0000      -0.659064       -17.9340
  38   2.0000      -0.649107       -17.6631
  39   2.0000      -0.619084       -16.8461
  40   2.0000      -0.600566       -16.3422
  41   2.0000      -0.567514       -15.4428
  42   2.0000      -0.557956       -15.1828
  43   2.0000      -0.552241       -15.0272
  44   2.0000      -0.529519       -14.4089
  45   2.0000      -0.527354       -14.3500
  46   2.0000      -0.516974       -14.0676
  47   2.0000      -0.511037       -13.9060
  48   2.0000      -0.504038       -13.7156
  49   2.0000      -0.501793       -13.6545
  50   2.0000      -0.496635       -13.5141
  51   2.0000      -0.477545       -12.9947
  52   2.0000      -0.469287       -12.7699
  53   2.0000      -0.465005       -12.6534
  54   2.0000      -0.462667       -12.5898
  55   2.0000      -0.456471       -12.4212
  56   2.0000      -0.447142       -12.1674
  57   2.0000      -0.443867       -12.0782
  58   2.0000      -0.428365       -11.6564
  59   2.0000      -0.421929       -11.4813
  60   2.0000      -0.418349       -11.3839
  61   2.0000      -0.412048       -11.2124
  62   2.0000      -0.411323       -11.1927
  63   2.0000      -0.346740        -9.4353
  64   2.0000      -0.338105        -9.2003
  65   2.0000      -0.330705        -8.9989
  66   2.0000      -0.288187        -7.8420
  67   0.0000       0.028394         0.7726
  68   0.0000       0.071245         1.9387
  69   0.0000       0.111005         3.0206
  70   0.0000       0.123938         3.3725
  71   0.0000       0.131713         3.5841

MULLIKEN ATOMIC CHARGES
-----------------------
   0 S :    0.107636
   1 C :   -0.144847
   2 C :   -0.065185
   3 C :    0.030035
   4 C :   -0.151260
   5 H :   -0.009764
   6 C :    0.104202
   7 H :    0.016569
   8 H :    0.030172
   9 C :   -0.115411
  10 H :    0.039985
  11 H :    0.040062
  12 C :   -0.061073
  13 H :    0.034679
  14 H :    0.025741
  15 H :    0.029839
  16 S :    0.105857
  17 C :   -0.081639
  18 C :   -0.047529
  19 C :   -0.016851
  20 C :   -0.145157
  21 H :    0.019211
  22 C :    0.094211
  23 H :    0.047235
  24 H :    0.014609
  25 C :   -0.114933
  26 H :    0.034469
  27 H :    0.023589
  28 C :   -0.048039
  29 H :    0.036065
  30 H :    0.032070
  31 H :    0.024775
  32 H :    0.055402
  33 H :    0.055275
Sum of atomic charges:   -0.0000000

LOEWDIN ATOMIC CHARGES
----------------------
   0 S :    0.433104
   1 C :   -0.202298
   2 C :   -0.056510
   3 C :   -0.069770
   4 C :   -0.216452
   5 H :    0.023390
   6 C :   -0.028544
   7 H :    0.026939
   8 H :    0.034888
   9 C :   -0.049933
  10 H :    0.031512
  11 H :    0.028625
  12 C :   -0.072777
  13 H :    0.028538
  14 H :    0.016593
  15 H :    0.027953
  16 S :    0.395780
  17 C :   -0.185304
  18 C :   -0.072494
  19 C :   -0.058087
  20 C :   -0.177532
  21 H :    0.031647
  22 C :   -0.017979
  23 H :    0.035700
  24 H :    0.027156
  25 C :   -0.044517
  26 H :    0.030422
  27 H :    0.017240
  28 C :   -0.066154
  29 H :    0.027772
  30 H :    0.029261
  31 H :    0.017164
  32 H :    0.027596
  33 H :    0.027070

  Mayer bond orders larger than 0.100000
B(  0-S ,  1-C ) :   1.1610 B(  0-S ,  4-C ) :   1.1720 B(  1-C ,  2-C ) :   1.5535
B(  1-C ,  4-C ) :   0.1000 B(  1-C , 32-H ) :   0.9761 B(  2-C ,  3-C ) :   1.2611
B(  2-C ,  6-C ) :   1.0298 B(  3-C ,  4-C ) :   1.5686 B(  3-C ,  5-H ) :   0.9997
B(  4-C , 20-C ) :   1.0094 B(  6-C ,  7-H ) :   0.9339 B(  6-C ,  8-H ) :   0.9467
B(  6-C ,  9-C ) :   1.0396 B(  9-C , 10-H ) :   0.9610 B(  9-C , 11-H ) :   0.9573
B(  9-C , 12-C ) :   1.0828 B( 12-C , 13-H ) :   0.9723 B( 12-C , 14-H ) :   0.9740
B( 12-C , 15-H ) :   0.9751 B( 16-S , 17-C ) :   1.1648 B( 16-S , 20-C ) :   1.1448
B( 17-C , 18-C ) :   1.5727 B( 17-C , 20-C ) :   0.1140 B( 17-C , 33-H ) :   0.9695
B( 18-C , 19-C ) :   1.2803 B( 18-C , 21-H ) :   0.9853 B( 19-C , 20-C ) :   1.5875
B( 19-C , 22-C ) :   1.0255 B( 22-C , 23-H ) :   0.9456 B( 22-C , 24-H ) :   0.9355
B( 22-C , 25-C ) :   1.0366 B( 25-C , 26-H ) :   0.9638 B( 25-C , 27-H ) :   0.9582
B( 25-C , 28-C ) :   1.0796 B( 28-C , 29-H ) :   0.9745 B( 28-C , 30-H ) :   0.9760
B( 28-C , 31-H ) :   0.9767

Dispersion correction           -0.013240959
FINAL SINGLE POINT ENERGY     -1339.870596144890

DIPOLE MOMENT
-------------
                                X             Y             Z
Electronic contribution:     22.00636      22.21657       5.38215
Nuclear contribution   :    -22.45844     -22.74497      -5.30062
                        -----------------------------------------
Total Dipole Moment    :     -0.45209      -0.52841       0.08153
                        -----------------------------------------
Magnitude (a.u.)       :      0.70017
Magnitude (Debye)      :      1.77970

Rotational constants in cm-1:     0.015688     0.008617     0.006306
Rotational constants in MHz :   470.312791   258.322114   189.055463

                             ****ORCA TERMINATED NORMALLY****
TOTAL RUN TIME: 0 days 0 hours 0 minutes 27 seconds 188 msec
