                         Program Version 4.2.1 -  RELEASE  -
|  1> ! wB97X-D3 SP def2-SVP
|  2> %pal
|  3> nprocs 16
|  4> end
|  5>
|  6> * xyz 0 1
|  7> S 	 -83.6921 	 32.1679 	 136.732
|  8> C 	 -82.1758 	 31.3898 	 136.83
|  9> C 	 -81.2798 	 31.8872 	 135.823
| 10> C 	 -81.8542 	 32.9172 	 135.075
| 11> C 	 -83.1684 	 33.0383 	 135.285
| 12> H 	 -81.4246 	 33.4411 	 134.208
| 13> C 	 -79.8599 	 31.3844 	 135.742
| 14> H 	 -79.6181 	 31.4808 	 134.685
| 15> H 	 -79.7688 	 30.2702 	 135.912
| 16> C 	 -78.7544 	 31.9145 	 136.608
| 17> H 	 -79.015 	 31.918 	 137.689
| 18> H 	 -77.9452 	 31.2498 	 136.557
| 19> C 	 -78.3741 	 33.3388 	 136.139
| 20> H 	 -78.4181 	 33.4208 	 135.037
| 21> H 	 -79.1507 	 34.0744 	 136.452
| 22> H 	 -77.394 	 33.7436 	 136.396
| 23> S 	 -85.5601 	 33.0556 	 133.931
| 24> C 	 -86.0532 	 34.4136 	 133.045
| 25> C 	 -85.0844 	 35.4312 	 133.062
| 26> C 	 -83.9457 	 35.0818 	 133.821
| 27> C 	 -84.104 	 33.8344 	 134.469
| 28> H 	 -85.1818 	 36.287 	 132.413
| 29> C 	 -82.8039 	 35.9996 	 133.942
| 30> H 	 -82.9566 	 36.8877 	 133.371
| 31> H 	 -82.0028 	 35.535 	 133.393
| 32> C 	 -82.2691 	 36.3233 	 135.344
| 33> H 	 -81.2708 	 36.769 	 135.217
| 34> H 	 -82.0063 	 35.4283 	 135.81
| 35> C 	 -83.2083 	 37.1269 	 136.158
| 36> H 	 -83.9881 	 36.4354 	 136.453
| 37> H 	 -83.5864 	 37.9725 	 135.632
| 38> H 	 -82.7773 	 37.4883 	 137.038
| 39> H 	 -81.8426 	 30.6226 	 137.56
| 40> H 	 -86.8547 	 34.4782 	 132.321
| 41> *
| 42>
| 43>                          ****END OF INPUT****

CARTESIAN COORDINATES (ANGSTROEM)
---------------------------------
  S    -83.692100   32.167900  136.732000
  C    -82.175800   31.389800  136.830000
  C    -81.279800   31.887200  135.823000
  C    -81.854200   32.917200  135.075000
  C    -83.168400   33.038300  135.285000
  H    -81.424600   33.441100  134.208000
  C    -79.859900   31.384400  135.742000
  H    -79.618100   31.480800  134.685000
  H    -79.768800   30.270200  135.912000
  C    -78.754400   31.914500  136.608000
  H    -79.015000   31.918000  137.689000
  H    -77.945200   31.249800  136.557000
  C    -78.374100   33.338800  136.139000
  H    -78.418100   33.420800  135.037000
  H    -79.150700   34.074400  136.452000
  H    -77.394000   33.743600  136.396000
  S    -85.560100   33.055600  133.931000
  C    -86.053200   34.413600  133.045000
  C    -85.084400   35.431200  133.062000
  C    -83.945700   35.081800  133.821000
  C    -84.104000   33.834400  134.469000
  H    -85.181800   36.287000  132.413000
  C    -82.803900   35.999600  133.942000
  H    -82.956600   36.887700  133.371000
  H    -82.002800   35.535000  133.393000
  C    -82.269100   36.323300  135.344000
  H    -81.270800   36.769000  135.217000
  H    -82.006300   35.428300  135.810000
  C    -83.208300   37.126900  136.158000
  H    -83.988100   36.435400  136.453000
  H    -83.586400   37.972500  135.632000
  H    -82.777300   37.488300  137.038000
  H    -81.842600   30.622600  137.560000
  H    -86.854700   34.478200  132.321000

 Total Charge           Charge          ....    0
 Multiplicity           Mult            ....    1
 Number of Electrons    NEL             ....  134
 Basis Dimension        Dim             ....  322

ORBITAL ENERGIES
----------------

  NO   OCC          E(Eh)            E(eV)
   0   2.0000     -88.970358     -2421.0065
   1   2.0000     -88.969465     -2420.9822
   2   2.0000     -10.326801      -281.0065
   3   2.0000     -10.325749      -280.9779
   4   2.0000     -10.316710      -280.7319
   5   2.0000     -10.313121      -280.6343
   6   2.0000     -10.302604      -280.3481
   7   2.0000     -10.300842      -280.3002
   8   2.0000     -10.291481      -280.0454
   9   2.0000     -10.291130      -280.0359
  10   2.0000     -10.290788      -280.0266
  11   2.0000     -10.285935      -279.8945
  12   2.0000     -10.282295      -279.7955
  13   2.0000     -10.279853      -279.7290
  14   2.0000     -10.272069      -279.5172
  15   2.0000     -10.259211      -279.1673
  16   2.0000      -8.085247      -220.0108
  17   2.0000      -8.084893      -220.0011
  18   2.0000      -6.043580      -164.4542
  19   2.0000      -6.043152      -164.4425
  20   2.0000      -6.039720      -164.3491
  21   2.0000      -6.039147      -164.3335
  22   2.0000      -6.036194      -164.2532
  23   2.0000      -6.036040      -164.2490
  24   2.0000      -1.012667       -27.5561
  25   2.0000      -0.990687       -26.9580
  26   2.0000      -0.918466       -24.9927
  27   2.0000      -0.914184       -24.8762
  28   2.0000      -0.867879       -23.6162
  29   2.0000      -0.858891       -23.3716
  30   2.0000      -0.851525       -23.1712
  31   2.0000      -0.813720       -22.1424
  32   2.0000      -0.787040       -21.4165
  33   2.0000      -0.768634       -20.9156
  34   2.0000      -0.710497       -19.3336
  35   2.0000      -0.707997       -19.2656
  36   2.0000      -0.687177       -18.6990
  37   2.0000      -0.664649       -18.0860
  38   2.0000      -0.640304       -17.4236
  39   2.0000      -0.618672       -16.8349
  40   2.0000      -0.596084       -16.2203
  41   2.0000      -0.572878       -15.5888
  42   2.0000      -0.559095       -15.2137
  43   2.0000      -0.550672       -14.9846
  44   2.0000      -0.546282       -14.8651
  45   2.0000      -0.536882       -14.6093
  46   2.0000      -0.515670       -14.0321
  47   2.0000      -0.510432       -13.8896
  48   2.0000      -0.501046       -13.6341
  49   2.0000      -0.497691       -13.5429
  50   2.0000      -0.489515       -13.3204
  51   2.0000      -0.479033       -13.0351
  52   2.0000      -0.475736       -12.9454
  53   2.0000      -0.471368       -12.8266
  54   2.0000      -0.463073       -12.6008
  55   2.0000      -0.448698       -12.2097
  56   2.0000      -0.443317       -12.0633
  57   2.0000      -0.440883       -11.9970
  58   2.0000      -0.437383       -11.9018
  59   2.0000      -0.423166       -11.5149
  60   2.0000      -0.418824       -11.3968
  61   2.0000      -0.413441       -11.2503
  62   2.0000      -0.411913       -11.2087
  63   2.0000      -0.353600        -9.6220
  64   2.0000      -0.331662        -9.0250
  65   2.0000      -0.330496        -8.9932
  66   2.0000      -0.283188        -7.7059
  67   0.0000       0.027131         0.7383
  68   0.0000       0.068615         1.8671
  69   0.0000       0.112669         3.0659
  70   0.0000       0.119002         3.2382
  71   0.0000       0.127863         3.4793

MULLIKEN ATOMIC CHARGES
-----------------------
   0 S :    0.130988
   1 C :   -0.119485
   2 C :   -0.088820
   3 C :    0.023259
   4 C :   -0.157970
   5 H :    0.019551
   6 C :    0.004379
   7 H :    0.021459
   8 H :    0.030748
   9 C :   -0.001756
  10 H :    0.030636
  11 H :    0.015390
  12 C :   -0.080621
  13 H :    0.015727
  14 H :    0.041264
  15 H :    0.035209
  16 S :    0.134017
  17 C :   -0.084126
  18 C :   -0.059277
  19 C :   -0.035408
  20 C :   -0.162525
  21 H :    0.015378
  22 C :    0.073898
  23 H :   -0.000091
  24 H :    0.018874
  25 C :   -0.048349
  26 H :    0.011129
  27 H :    0.013354
  28 C :    0.022804
  29 H :    0.034725
  30 H :    0.015819
  31 H :    0.013760
  32 H :    0.060849
  33 H :    0.055213
Sum of atomic charges:    0.0000000

LOEWDIN ATOMIC CHARGES
----------------------
   0 S :    0.421596
   1 C :   -0.218308
   2 C :   -0.063660
   3 C :   -0.071157
   4 C :   -0.188300
   5 H :    0.039196
   6 C :   -0.042027
   7 H :    0.028597
   8 H :    0.038996
   9 C :   -0.036462
  10 H :    0.029758
  11 H :    0.017763
  12 C :   -0.075409
  13 H :    0.021533
  14 H :    0.030713
  15 H :    0.023197
  16 S :    0.451167
  17 C :   -0.210060
  18 C :   -0.072439
  19 C :   -0.055381
  20 C :   -0.212655
  21 H :    0.029758
  22 C :   -0.032342
  23 H :    0.025585
  24 H :    0.031502
  25 C :   -0.036349
  26 H :    0.023256
  27 H :    0.015429
  28 C :   -0.052660
  29 H :    0.032106
  30 H :    0.020420
  31 H :    0.019342
  32 H :    0.036657
  33 H :    0.030634

  Mayer bond orders larger than 0.100000
B(  0-S ,  1-C ) :   1.1539 B(  0-S ,  4-C ) :   1.1578 B(  1-C ,  2-C ) :   1.5664
B(  1-C ,  4-C ) :   0.1062 B(  1-C , 32-H ) :   0.9659 B(  2-C ,  3-C ) :   1.2748
B(  2-C ,  6-C ) :   1.0294 B(  3-C ,  4-C ) :   1.5701 B(  3-C ,  5-H ) :   0.9825
B(  4-C , 20-C ) :   1.0303 B(  6-C ,  7-H ) :   0.9397 B(  6-C ,  8-H ) :   0.9396
B(  6-C ,  9-C ) :   1.0815 B(  9-C , 10-H ) :   0.9516 B(  9-C , 11-H ) :   0.9513
B(  9-C , 12-C ) :   1.0650 B( 12-C , 13-H ) :   0.9762 B( 12-C , 14-H ) :   0.9761
B( 12-C , 15-H ) :   0.9763 B( 16-S , 17-C ) :   1.1928 B( 16-S , 20-C ) :   1.1697
B( 17-C , 18-C ) :   1.5523 B( 17-C , 20-C ) :   0.1066 B( 17-C , 33-H ) :   0.9650
B( 18-C , 19-C ) :   1.3003 B( 18-C , 21-H ) :   0.9905 B( 19-C , 20-C ) :   1.5168
B( 19-C , 22-C ) :   1.0538 B( 22-C , 23-H ) :   0.9281 B( 22-C , 24-H ) :   0.9099
B( 22-C , 25-C ) :   1.0861 B( 25-C , 26-H ) :   0.9447 B( 25-C , 27-H ) :   0.9457
B( 25-C , 28-C ) :   1.0836 B( 28-C , 29-H ) :   0.9708 B( 28-C , 30-H ) :   0.9751
B( 28-C , 31-H ) :   0.9684

Dispersion correction           -0.015707555
FINAL SINGLE POINT ENERGY     -1339.874160466018

DIPOLE MOMENT
-------------
                                X             Y             Z
Electronic contribution:    -24.28377     -12.25140      -3.06259
Nuclear contribution   :     24.85106      12.40133       2.81620
                        -----------------------------------------
Total Dipole Moment    :      0.56730       0.14992      -0.24639
                        -----------------------------------------
Magnitude (a.u.)       :      0.63640
Magnitude (Debye)      :      1.61761

Rotational constants in cm-1:     0.020414     0.009435     0.007586
Rotational constants in MHz :   611.984664   282.858657   227.431352

                             ****ORCA TERMINATED NORMALLY****
TOTAL RUN TIME: 0 days 0 hours 0 minutes 37 seconds 812 msec
