                         Program Version 4.2.1 -  RELEASE  -
|  1> ! wB97X-D3 SP def2-SVP
|  2> %pal
|  3> nprocs 16
|  4> end
|  5>
|  6> * xyz 0 1
|  7> S 	 -4.87861 	 -9.8133 	 80.8892
|  8> C 	 -4.96053 	 -9.77054 	 79.1412
|  9> C 	 -6.20146 	 -9.46039 	 78.7164
| 10> C 	 -7.15676 	 -9.19385 	 79.7879
| 11> C 	 -6.59805 	 -9.39193 	 81.0184
| 12> H 	 -8.1612 	 -8.82333 	 79.6394
| 13> C 	 -6.63437 	 -9.32227 	 77.2909
| 14> H 	 -5.82165 	 -9.20456 	 76.64
| 15> H 	 -7.22082 	 -8.40579 	 77.206
| 16> C 	 -7.412 	 -10.4442 	 76.7128
| 17> H 	 -7.53942 	 -10.3572 	 75.6077
| 18> H 	 -6.92563 	 -11.4153 	 76.7769
| 19> C 	 -8.7667 	 -10.7808 	 77.3619
| 20> H 	 -8.66811 	 -11.2719 	 78.3289
| 21> H 	 -9.52846 	 -9.97206 	 77.5214
| 22> H 	 -9.16888 	 -11.6075 	 76.8025
| 23> S 	 -6.1985 	 -8.14416 	 83.4839
| 24> C 	 -7.5194 	 -7.82814 	 84.5589
| 25> C 	 -8.59738 	 -8.52589 	 84.1351
| 26> C 	 -8.47394 	 -9.03996 	 82.822
| 27> C 	 -7.19676 	 -8.99319 	 82.3472
| 28> H 	 -9.53448 	 -8.5964 	 84.6922
| 29> C 	 -9.59504 	 -9.88889 	 82.2399
| 30> H 	 -10.0164 	 -10.5247 	 83.0773
| 31> H 	 -9.15965 	 -10.6839 	 81.5325
| 32> C 	 -10.6247 	 -9.1874 	 81.3876
| 33> H 	 -10.1193 	 -8.39428 	 80.7994
| 34> H 	 -11.4102 	 -8.69786 	 81.9843
| 35> C 	 -11.4066 	 -10.1651 	 80.4948
| 36> H 	 -10.8973 	 -11.0543 	 80.1892
| 37> H 	 -11.8006 	 -9.66569 	 79.4709
| 38> H 	 -12.2357 	 -10.5889 	 80.9791
| 39> H 	 -4.21857 	 -10.1178 	 78.4625
| 40> H 	 -7.4246 	 -7.37226 	 85.525
| 41> *
| 42>
| 43>                          ****END OF INPUT****

CARTESIAN COORDINATES (ANGSTROEM)
---------------------------------
  S     -4.878610   -9.813300   80.889200
  C     -4.960530   -9.770540   79.141200
  C     -6.201460   -9.460390   78.716400
  C     -7.156760   -9.193850   79.787900
  C     -6.598050   -9.391930   81.018400
  H     -8.161200   -8.823330   79.639400
  C     -6.634370   -9.322270   77.290900
  H     -5.821650   -9.204560   76.640000
  H     -7.220820   -8.405790   77.206000
  C     -7.412000  -10.444200   76.712800
  H     -7.539420  -10.357200   75.607700
  H     -6.925630  -11.415300   76.776900
  C     -8.766700  -10.780800   77.361900
  H     -8.668110  -11.271900   78.328900
  H     -9.528460   -9.972060   77.521400
  H     -9.168880  -11.607500   76.802500
  S     -6.198500   -8.144160   83.483900
  C     -7.519400   -7.828140   84.558900
  C     -8.597380   -8.525890   84.135100
  C     -8.473940   -9.039960   82.822000
  C     -7.196760   -8.993190   82.347200
  H     -9.534480   -8.596400   84.692200
  C     -9.595040   -9.888890   82.239900
  H    -10.016400  -10.524700   83.077300
  H     -9.159650  -10.683900   81.532500
  C    -10.624700   -9.187400   81.387600
  H    -10.119300   -8.394280   80.799400
  H    -11.410200   -8.697860   81.984300
  C    -11.406600  -10.165100   80.494800
  H    -10.897300  -11.054300   80.189200
  H    -11.800600   -9.665690   79.470900
  H    -12.235700  -10.588900   80.979100
  H     -4.218570  -10.117800   78.462500
  H     -7.424600   -7.372260   85.525000

 Total Charge           Charge          ....    0
 Multiplicity           Mult            ....    1
 Number of Electrons    NEL             ....  134
 Basis Dimension        Dim             ....  322

ORBITAL ENERGIES
----------------

  NO   OCC          E(Eh)            E(eV)
   0   2.0000     -88.966361     -2420.8978
   1   2.0000     -88.962353     -2420.7887
   2   2.0000     -10.337166      -281.2886
   3   2.0000     -10.328739      -281.0593
   4   2.0000     -10.312649      -280.6215
   5   2.0000     -10.310986      -280.5762
   6   2.0000     -10.298843      -280.2458
   7   2.0000     -10.298165      -280.2273
   8   2.0000     -10.296769      -280.1893
   9   2.0000     -10.296594      -280.1846
  10   2.0000     -10.290930      -280.0304
  11   2.0000     -10.289902      -280.0025
  12   2.0000     -10.287056      -279.9250
  13   2.0000     -10.284079      -279.8440
  14   2.0000     -10.282529      -279.8018
  15   2.0000     -10.276966      -279.6505
  16   2.0000      -8.080819      -219.8903
  17   2.0000      -8.077985      -219.8131
  18   2.0000      -6.039559      -164.3448
  19   2.0000      -6.036516      -164.2619
  20   2.0000      -6.035485      -164.2339
  21   2.0000      -6.032316      -164.1477
  22   2.0000      -6.031233      -164.1182
  23   2.0000      -6.028698      -164.0492
  24   2.0000      -1.011689       -27.5295
  25   2.0000      -0.990659       -26.9572
  26   2.0000      -0.918377       -24.9903
  27   2.0000      -0.909971       -24.7616
  28   2.0000      -0.870674       -23.6923
  29   2.0000      -0.852433       -23.1959
  30   2.0000      -0.843426       -22.9508
  31   2.0000      -0.822652       -22.3855
  32   2.0000      -0.786286       -21.3959
  33   2.0000      -0.773806       -21.0563
  34   2.0000      -0.704906       -19.1815
  35   2.0000      -0.700278       -19.0555
  36   2.0000      -0.694799       -18.9064
  37   2.0000      -0.665807       -18.1175
  38   2.0000      -0.642047       -17.4710
  39   2.0000      -0.620198       -16.8764
  40   2.0000      -0.599706       -16.3188
  41   2.0000      -0.574869       -15.6430
  42   2.0000      -0.564382       -15.3576
  43   2.0000      -0.552172       -15.0254
  44   2.0000      -0.542259       -14.7556
  45   2.0000      -0.524949       -14.2846
  46   2.0000      -0.520682       -14.1685
  47   2.0000      -0.512440       -13.9442
  48   2.0000      -0.507455       -13.8086
  49   2.0000      -0.500980       -13.6324
  50   2.0000      -0.489284       -13.3141
  51   2.0000      -0.481004       -13.0888
  52   2.0000      -0.472589       -12.8598
  53   2.0000      -0.467069       -12.7096
  54   2.0000      -0.459826       -12.5125
  55   2.0000      -0.445846       -12.1321
  56   2.0000      -0.442889       -12.0516
  57   2.0000      -0.437194       -11.8967
  58   2.0000      -0.433789       -11.8040
  59   2.0000      -0.426372       -11.6022
  60   2.0000      -0.416557       -11.3351
  61   2.0000      -0.410737       -11.1767
  62   2.0000      -0.406431       -11.0595
  63   2.0000      -0.360037        -9.7971
  64   2.0000      -0.332190        -9.0394
  65   2.0000      -0.328724        -8.9450
  66   2.0000      -0.296716        -8.0740
  67   0.0000       0.031289         0.8514
  68   0.0000       0.077864         2.1188
  69   0.0000       0.111116         3.0236
  70   0.0000       0.117021         3.1843
  71   0.0000       0.127510         3.4697

MULLIKEN ATOMIC CHARGES
-----------------------
   0 S :    0.092408
   1 C :   -0.097647
   2 C :   -0.104534
   3 C :    0.028376
   4 C :   -0.101857
   5 H :    0.001634
   6 C :    0.129463
   7 H :   -0.000410
   8 H :    0.027643
   9 C :   -0.081732
  10 H :    0.033838
  11 H :    0.018416
  12 C :   -0.077019
  13 H :    0.032403
  14 H :    0.038190
  15 H :    0.022494
  16 S :    0.095959
  17 C :   -0.079424
  18 C :   -0.023575
  19 C :   -0.043998
  20 C :   -0.118020
  21 H :    0.021857
  22 C :   -0.031157
  23 H :    0.042015
  24 H :    0.036618
  25 C :   -0.048505
  26 H :    0.041355
  27 H :    0.032163
  28 C :   -0.068713
  29 H :    0.018647
  30 H :    0.048653
  31 H :    0.020787
  32 H :    0.037624
  33 H :    0.056048
Sum of atomic charges:   -0.0000000

LOEWDIN ATOMIC CHARGES
----------------------
   0 S :    0.384242
   1 C :   -0.188297
   2 C :   -0.057948
   3 C :   -0.056072
   4 C :   -0.171848
   5 H :    0.030275
   6 C :   -0.032255
   7 H :    0.025038
   8 H :    0.035406
   9 C :   -0.044549
  10 H :    0.028711
  11 H :    0.027191
  12 C :   -0.077086
  13 H :    0.024214
  14 H :    0.023671
  15 H :    0.026620
  16 S :    0.414292
  17 C :   -0.187222
  18 C :   -0.069704
  19 C :   -0.073618
  20 C :   -0.192519
  21 H :    0.033114
  22 C :   -0.042420
  23 H :    0.036799
  24 H :    0.035933
  25 C :   -0.047314
  26 H :    0.025974
  27 H :    0.027897
  28 C :   -0.072801
  29 H :    0.017159
  30 H :    0.041180
  31 H :    0.018241
  32 H :    0.027709
  33 H :    0.029987

  Mayer bond orders larger than 0.100000
B(  0-S ,  1-C ) :   1.1070 B(  0-S ,  4-C ) :   1.1378 B(  1-C ,  2-C ) :   1.6784
B(  1-C , 32-H ) :   0.9635 B(  2-C ,  3-C ) :   1.1985 B(  2-C ,  6-C ) :   1.0278
B(  3-C ,  4-C ) :   1.6021 B(  3-C ,  5-H ) :   0.9897 B(  4-C , 20-C ) :   1.0026
B(  6-C ,  7-H ) :   0.9287 B(  6-C ,  8-H ) :   0.9357 B(  6-C ,  9-C ) :   1.0840
B(  9-C , 10-H ) :   0.9556 B(  9-C , 11-H ) :   0.9457 B(  9-C , 12-C ) :   1.0856
B( 12-C , 13-H ) :   0.9666 B( 12-C , 14-H ) :   0.9743 B( 12-C , 15-H ) :   0.9680
B( 16-S , 17-C ) :   1.1546 B( 16-S , 20-C ) :   1.1452 B( 17-C , 18-C ) :   1.5990
B( 17-C , 33-H ) :   0.9699 B( 18-C , 19-C ) :   1.2588 B( 18-C , 21-H ) :   0.9851
B( 19-C , 20-C ) :   1.6146 B( 19-C , 22-C ) :   1.0363 B( 22-C , 23-H ) :   0.9442
B( 22-C , 24-H ) :   0.9491 B( 22-C , 25-C ) :   1.0471 B( 25-C , 26-H ) :   0.9592
B( 25-C , 27-H ) :   0.9499 B( 25-C , 28-C ) :   1.0658 B( 28-C , 29-H ) :   0.9753
B( 28-C , 30-H ) :   0.9751 B( 28-C , 31-H ) :   0.9744

Dispersion correction           -0.015544418
FINAL SINGLE POINT ENERGY     -1339.876251487508

DIPOLE MOMENT
-------------
                                X             Y             Z
Electronic contribution:     24.68882       7.92422      19.82792
Nuclear contribution   :    -25.23773      -8.09787     -20.16593
                        -----------------------------------------
Total Dipole Moment    :     -0.54891      -0.17365      -0.33801
                        -----------------------------------------
Magnitude (a.u.)       :      0.66761
Magnitude (Debye)      :      1.69694

Rotational constants in cm-1:     0.017447     0.010801     0.007018
Rotational constants in MHz :   523.050979   323.815451   210.407913

                             ****ORCA TERMINATED NORMALLY****
TOTAL RUN TIME: 0 days 0 hours 0 minutes 36 seconds 689 msec
