                         Program Version 4.2.1 -  RELEASE  -
|  1> ! wB97X-D3 SP def2-SVP
|  2> %pal
|  3> nprocs 16
|  4> end
|  5>
|  6> * xyz 0 1
|  7> S 	 3.13127 	 -20.6967 	 56.4181
|  8> C 	 1.7628 	 -21.7792 	 56.5465
|  9> C 	 1.82444 	 -22.8691 	 55.7035
| 10> C 	 2.99882 	 -22.8086 	 54.8496
| 11> C 	 3.78643 	 -21.7061 	 55.0652
| 12> H 	 3.28177 	 -23.5788 	 54.1178
| 13> C 	 0.789548 	 -24.0424 	 55.6048
| 14> H 	 0.92546 	 -24.5852 	 54.6591
| 15> H 	 -0.226926 	 -23.6604 	 55.605
| 16> C 	 0.836304 	 -25.0826 	 56.755
| 17> H 	 1.88082 	 -25.3254 	 57.087
| 18> H 	 0.272614 	 -24.7688 	 57.5822
| 19> C 	 0.0910388 	 -26.3335 	 56.3371
| 20> H 	 0.0154854 	 -27.1187 	 57.0548
| 21> H 	 -0.935764 	 -26.1421 	 56.0777
| 22> H 	 0.453251 	 -26.9357 	 55.5093
| 23> S 	 4.69084 	 -20.9346 	 52.584
| 24> C 	 6.34432 	 -20.6161 	 52.3894
| 25> C 	 7.05301 	 -20.707 	 53.5509
| 26> C 	 6.26203 	 -20.9878 	 54.6878
| 27> C 	 5.00571 	 -21.4379 	 54.2606
| 28> H 	 8.18803 	 -20.5871 	 53.5091
| 29> C 	 6.84137 	 -21.2554 	 56.0673
| 30> H 	 5.99679 	 -21.3465 	 56.7359
| 31> H 	 7.33855 	 -20.3824 	 56.4306
| 32> C 	 7.6958 	 -22.4835 	 56.1386
| 33> H 	 8.42319 	 -22.4731 	 56.8818
| 34> H 	 8.34815 	 -22.3653 	 55.2665
| 35> C 	 6.81825 	 -23.8334 	 56.1187
| 36> H 	 6.0593 	 -23.756 	 55.3569
| 37> H 	 6.35299 	 -23.9864 	 57.0413
| 38> H 	 7.26572 	 -24.7867 	 55.8613
| 39> H 	 0.969746 	 -21.4721 	 57.1239
| 40> H 	 6.82781 	 -20.2876 	 51.494
| 41> *
| 42>
| 43>                          ****END OF INPUT****

CARTESIAN COORDINATES (ANGSTROEM)
---------------------------------
  S      3.131270  -20.696700   56.418100
  C      1.762800  -21.779200   56.546500
  C      1.824440  -22.869100   55.703500
  C      2.998820  -22.808600   54.849600
  C      3.786430  -21.706100   55.065200
  H      3.281770  -23.578800   54.117800
  C      0.789548  -24.042400   55.604800
  H      0.925460  -24.585200   54.659100
  H     -0.226926  -23.660400   55.605000
  C      0.836304  -25.082600   56.755000
  H      1.880820  -25.325400   57.087000
  H      0.272614  -24.768800   57.582200
  C      0.091039  -26.333500   56.337100
  H      0.015485  -27.118700   57.054800
  H     -0.935764  -26.142100   56.077700
  H      0.453251  -26.935700   55.509300
  S      4.690840  -20.934600   52.584000
  C      6.344320  -20.616100   52.389400
  C      7.053010  -20.707000   53.550900
  C      6.262030  -20.987800   54.687800
  C      5.005710  -21.437900   54.260600
  H      8.188030  -20.587100   53.509100
  C      6.841370  -21.255400   56.067300
  H      5.996790  -21.346500   56.735900
  H      7.338550  -20.382400   56.430600
  C      7.695800  -22.483500   56.138600
  H      8.423190  -22.473100   56.881800
  H      8.348150  -22.365300   55.266500
  C      6.818250  -23.833400   56.118700
  H      6.059300  -23.756000   55.356900
  H      6.352990  -23.986400   57.041300
  H      7.265720  -24.786700   55.861300
  H      0.969746  -21.472100   57.123900
  H      6.827810  -20.287600   51.494000

 Total Charge           Charge          ....    0
 Multiplicity           Mult            ....    1
 Number of Electrons    NEL             ....  134
 Basis Dimension        Dim             ....  322

ORBITAL ENERGIES
----------------

  NO   OCC          E(Eh)            E(eV)
   0   2.0000     -88.966885     -2420.9120
   1   2.0000     -88.966029     -2420.8887
   2   2.0000     -10.331058      -281.1224
   3   2.0000     -10.327333      -281.0210
   4   2.0000     -10.310217      -280.5553
   5   2.0000     -10.308373      -280.5051
   6   2.0000     -10.306776      -280.4616
   7   2.0000     -10.302631      -280.3488
   8   2.0000     -10.298143      -280.2267
   9   2.0000     -10.296082      -280.1706
  10   2.0000     -10.293349      -280.0963
  11   2.0000     -10.287020      -279.9241
  12   2.0000     -10.284236      -279.8483
  13   2.0000     -10.282809      -279.8095
  14   2.0000     -10.270752      -279.4814
  15   2.0000     -10.269115      -279.4368
  16   2.0000      -8.081333      -219.9043
  17   2.0000      -8.080486      -219.8812
  18   2.0000      -6.039638      -164.3469
  19   2.0000      -6.039087      -164.3319
  20   2.0000      -6.035901      -164.2452
  21   2.0000      -6.035225      -164.2268
  22   2.0000      -6.032114      -164.1422
  23   2.0000      -6.031154      -164.1161
  24   2.0000      -1.005522       -27.3616
  25   2.0000      -0.981005       -26.6945
  26   2.0000      -0.911462       -24.8021
  27   2.0000      -0.907318       -24.6894
  28   2.0000      -0.867399       -23.6031
  29   2.0000      -0.847623       -23.0650
  30   2.0000      -0.841993       -22.9118
  31   2.0000      -0.810437       -22.0531
  32   2.0000      -0.785180       -21.3658
  33   2.0000      -0.772529       -21.0216
  34   2.0000      -0.712851       -19.3977
  35   2.0000      -0.704787       -19.1782
  36   2.0000      -0.695916       -18.9368
  37   2.0000      -0.657867       -17.9015
  38   2.0000      -0.639557       -17.4032
  39   2.0000      -0.614025       -16.7085
  40   2.0000      -0.597962       -16.2714
  41   2.0000      -0.565837       -15.3972
  42   2.0000      -0.564185       -15.3522
  43   2.0000      -0.554456       -15.0875
  44   2.0000      -0.534914       -14.5558
  45   2.0000      -0.518822       -14.1179
  46   2.0000      -0.516356       -14.0508
  47   2.0000      -0.505971       -13.7682
  48   2.0000      -0.497839       -13.5469
  49   2.0000      -0.493852       -13.4384
  50   2.0000      -0.484255       -13.1772
  51   2.0000      -0.476875       -12.9764
  52   2.0000      -0.471319       -12.8252
  53   2.0000      -0.461417       -12.5558
  54   2.0000      -0.454857       -12.3773
  55   2.0000      -0.448710       -12.2100
  56   2.0000      -0.443659       -12.0726
  57   2.0000      -0.443262       -12.0618
  58   2.0000      -0.431813       -11.7502
  59   2.0000      -0.425543       -11.5796
  60   2.0000      -0.422933       -11.5086
  61   2.0000      -0.419463       -11.4142
  62   2.0000      -0.412276       -11.2186
  63   2.0000      -0.343892        -9.3578
  64   2.0000      -0.334519        -9.1027
  65   2.0000      -0.328602        -8.9417
  66   2.0000      -0.294860        -8.0236
  67   0.0000       0.033541         0.9127
  68   0.0000       0.060078         1.6348
  69   0.0000       0.104704         2.8491
  70   0.0000       0.115161         3.1337
  71   0.0000       0.128857         3.5064

MULLIKEN ATOMIC CHARGES
-----------------------
   0 S :    0.103501
   1 C :   -0.114620
   2 C :   -0.045213
   3 C :   -0.006554
   4 C :   -0.128988
   5 H :    0.028844
   6 C :    0.058116
   7 H :    0.026212
   8 H :    0.028178
   9 C :   -0.031781
  10 H :    0.043793
  11 H :    0.021344
  12 C :   -0.061157
  13 H :    0.017142
  14 H :    0.015897
  15 H :    0.019782
  16 S :    0.122441
  17 C :   -0.071311
  18 C :   -0.067015
  19 C :   -0.052489
  20 C :   -0.171493
  21 H :    0.044462
  22 C :    0.077792
  23 H :    0.007765
  24 H :    0.020997
  25 C :   -0.009350
  26 H :    0.008082
  27 H :    0.007311
  28 C :   -0.027755
  29 H :    0.024376
  30 H :    0.023440
  31 H :    0.023641
  32 H :    0.022221
  33 H :    0.042392
Sum of atomic charges:   -0.0000000

LOEWDIN ATOMIC CHARGES
----------------------
   0 S :    0.379699
   1 C :   -0.178612
   2 C :   -0.058574
   3 C :   -0.064147
   4 C :   -0.181591
   5 H :    0.036605
   6 C :   -0.026167
   7 H :    0.030441
   8 H :    0.031547
   9 C :   -0.034600
  10 H :    0.031149
  11 H :    0.020152
  12 C :   -0.073315
  13 H :    0.022595
  14 H :    0.022246
  15 H :    0.022194
  16 S :    0.425596
  17 C :   -0.199958
  18 C :   -0.082083
  19 C :   -0.050878
  20 C :   -0.191632
  21 H :    0.042097
  22 C :   -0.029718
  23 H :    0.020228
  24 H :    0.030708
  25 C :   -0.028689
  26 H :    0.014367
  27 H :    0.024006
  28 C :   -0.058862
  29 H :    0.025706
  30 H :    0.018300
  31 H :    0.025476
  32 H :    0.009613
  33 H :    0.026100

  Mayer bond orders larger than 0.100000
B(  0-S ,  1-C ) :   1.1396 B(  0-S ,  4-C ) :   1.1117 B(  1-C ,  2-C ) :   1.6225
B(  1-C , 32-H ) :   0.9814 B(  2-C ,  3-C ) :   1.2146 B(  2-C ,  6-C ) :   1.0158
B(  3-C ,  4-C ) :   1.5962 B(  3-C ,  5-H ) :   0.9912 B(  4-C , 20-C ) :   1.0402
B(  6-C ,  7-H ) :   0.9546 B(  6-C ,  8-H ) :   0.9390 B(  6-C ,  9-C ) :   1.0578
B(  9-C , 10-H ) :   0.9605 B(  9-C , 11-H ) :   0.9520 B(  9-C , 12-C ) :   1.0795
B( 12-C , 13-H ) :   0.9716 B( 12-C , 14-H ) :   0.9711 B( 12-C , 15-H ) :   0.9737
B( 16-S , 17-C ) :   1.1650 B( 16-S , 20-C ) :   1.1480 B( 17-C , 18-C ) :   1.6227
B( 17-C , 33-H ) :   0.9649 B( 18-C , 19-C ) :   1.2334 B( 18-C , 21-H ) :   0.9741
B( 19-C , 20-C ) :   1.5670 B( 19-C , 22-C ) :   1.0614 B( 22-C , 23-H ) :   0.9301
B( 22-C , 24-H ) :   0.9250 B( 22-C , 25-C ) :   1.0719 B( 25-C , 26-H ) :   0.9559
B( 25-C , 27-H ) :   0.9536 B( 25-C , 28-C ) :   1.0521 B( 28-C , 29-H ) :   0.9778
B( 28-C , 30-H ) :   0.9784 B( 28-C , 31-H ) :   0.9758

Dispersion correction           -0.014851292
FINAL SINGLE POINT ENERGY     -1339.863065352573

DIPOLE MOMENT
-------------
                                X             Y             Z
Electronic contribution:      1.81831      22.42387     -10.44072
Nuclear contribution   :     -1.80472     -22.74858      10.54839
                        -----------------------------------------
Total Dipole Moment    :      0.01359      -0.32471       0.10767
                        -----------------------------------------
Magnitude (a.u.)       :      0.34237
Magnitude (Debye)      :      0.87024

Rotational constants in cm-1:     0.021011     0.007665     0.007085
Rotational constants in MHz :   629.880034   229.788836   212.388561

                             ****ORCA TERMINATED NORMALLY****
TOTAL RUN TIME: 0 days 0 hours 0 minutes 34 seconds 430 msec
