                         Program Version 4.2.1 -  RELEASE  -
|  1> ! wB97X-D3 SP def2-SVP
|  2> %pal
|  3> nprocs 16
|  4> end
|  5>
|  6> * xyz 0 1
|  7> S 	 54.764 	 12.9475 	 74.5957
|  8> C 	 55.5236 	 14.5301 	 74.4869
|  9> C 	 56.8578 	 14.5107 	 75.0542
| 10> C 	 57.1098 	 13.258 	 75.7454
| 11> C 	 56.1056 	 12.2813 	 75.508
| 12> H 	 57.9082 	 12.9596 	 76.4144
| 13> C 	 57.7296 	 15.7304 	 75.1938
| 14> H 	 57.0781 	 16.6181 	 75.3492
| 15> H 	 58.1503 	 15.9429 	 74.1602
| 16> C 	 58.9025 	 15.7868 	 76.2559
| 17> H 	 59.6579 	 14.9971 	 76.1738
| 18> H 	 59.2737 	 16.7782 	 76.0831
| 19> C 	 58.4044 	 15.6724 	 77.7392
| 20> H 	 58.2402 	 14.6257 	 78.1563
| 21> H 	 59.1679 	 16.2491 	 78.2747
| 22> H 	 57.4409 	 16.1854 	 78.0299
| 23> S 	 54.6707 	 10.6904 	 77.2336
| 24> C 	 55.3562 	 9.12218 	 77.6618
| 25> C 	 56.4873 	 8.88058 	 76.94
| 26> C 	 56.8192 	 9.87208 	 75.939
| 27> C 	 55.9536 	 10.9514 	 76.0559
| 28> H 	 57.0512 	 7.96785 	 77.113
| 29> C 	 57.8808 	 9.5647 	 74.8641
| 30> H 	 58.8657 	 9.28277 	 75.1871
| 31> H 	 58.0764 	 10.4994 	 74.3924
| 32> C 	 57.2824 	 8.64244 	 73.8116
| 33> H 	 56.4316 	 9.13642 	 73.3095
| 34> H 	 56.822 	 7.84734 	 74.4294
| 35> C 	 58.2669 	 8.31278 	 72.6737
| 36> H 	 58.6195 	 9.22093 	 72.2885
| 37> H 	 57.85 	 7.7819 	 71.842
| 38> H 	 59.0862 	 7.72662 	 72.9748
| 39> H 	 54.9888 	 15.4125 	 74.2198
| 40> H 	 54.8214 	 8.45049 	 78.3257
| 41> *
| 42>
| 43>                          ****END OF INPUT****

CARTESIAN COORDINATES (ANGSTROEM)
---------------------------------
  S     54.764000   12.947500   74.595700
  C     55.523600   14.530100   74.486900
  C     56.857800   14.510700   75.054200
  C     57.109800   13.258000   75.745400
  C     56.105600   12.281300   75.508000
  H     57.908200   12.959600   76.414400
  C     57.729600   15.730400   75.193800
  H     57.078100   16.618100   75.349200
  H     58.150300   15.942900   74.160200
  C     58.902500   15.786800   76.255900
  H     59.657900   14.997100   76.173800
  H     59.273700   16.778200   76.083100
  C     58.404400   15.672400   77.739200
  H     58.240200   14.625700   78.156300
  H     59.167900   16.249100   78.274700
  H     57.440900   16.185400   78.029900
  S     54.670700   10.690400   77.233600
  C     55.356200    9.122180   77.661800
  C     56.487300    8.880580   76.940000
  C     56.819200    9.872080   75.939000
  C     55.953600   10.951400   76.055900
  H     57.051200    7.967850   77.113000
  C     57.880800    9.564700   74.864100
  H     58.865700    9.282770   75.187100
  H     58.076400   10.499400   74.392400
  C     57.282400    8.642440   73.811600
  H     56.431600    9.136420   73.309500
  H     56.822000    7.847340   74.429400
  C     58.266900    8.312780   72.673700
  H     58.619500    9.220930   72.288500
  H     57.850000    7.781900   71.842000
  H     59.086200    7.726620   72.974800
  H     54.988800   15.412500   74.219800
  H     54.821400    8.450490   78.325700

 Total Charge           Charge          ....    0
 Multiplicity           Mult            ....    1
 Number of Electrons    NEL             ....  134
 Basis Dimension        Dim             ....  322

ORBITAL ENERGIES
----------------

  NO   OCC          E(Eh)            E(eV)
   0   2.0000     -88.965879     -2420.8846
   1   2.0000     -88.962924     -2420.8042
   2   2.0000     -10.327989      -281.0389
   3   2.0000     -10.325748      -280.9779
   4   2.0000     -10.318154      -280.7713
   5   2.0000     -10.317348      -280.7493
   6   2.0000     -10.312661      -280.6218
   7   2.0000     -10.307400      -280.4786
   8   2.0000     -10.301706      -280.3237
   9   2.0000     -10.300834      -280.3000
  10   2.0000     -10.298060      -280.2245
  11   2.0000     -10.293466      -280.0995
  12   2.0000     -10.287323      -279.9323
  13   2.0000     -10.287220      -279.9295
  14   2.0000     -10.285455      -279.8814
  15   2.0000     -10.268093      -279.4090
  16   2.0000      -8.080116      -219.8711
  17   2.0000      -8.077654      -219.8041
  18   2.0000      -6.038513      -164.3163
  19   2.0000      -6.036143      -164.2518
  20   2.0000      -6.034501      -164.2071
  21   2.0000      -6.032230      -164.1453
  22   2.0000      -6.031240      -164.1184
  23   2.0000      -6.028352      -164.0398
  24   2.0000      -1.000725       -27.2311
  25   2.0000      -0.973767       -26.4976
  26   2.0000      -0.909865       -24.7587
  27   2.0000      -0.902607       -24.5612
  28   2.0000      -0.864789       -23.5321
  29   2.0000      -0.847734       -23.0680
  30   2.0000      -0.839587       -22.8463
  31   2.0000      -0.811539       -22.0831
  32   2.0000      -0.785110       -21.3639
  33   2.0000      -0.768146       -20.9023
  34   2.0000      -0.706353       -19.2209
  35   2.0000      -0.699116       -19.0239
  36   2.0000      -0.690120       -18.7791
  37   2.0000      -0.657521       -17.8921
  38   2.0000      -0.641020       -17.4430
  39   2.0000      -0.616333       -16.7713
  40   2.0000      -0.601077       -16.3561
  41   2.0000      -0.564781       -15.3685
  42   2.0000      -0.559243       -15.2178
  43   2.0000      -0.539535       -14.6815
  44   2.0000      -0.533086       -14.5060
  45   2.0000      -0.524394       -14.2695
  46   2.0000      -0.519428       -14.1344
  47   2.0000      -0.511192       -13.9102
  48   2.0000      -0.508102       -13.8262
  49   2.0000      -0.499162       -13.5829
  50   2.0000      -0.493155       -13.4194
  51   2.0000      -0.477268       -12.9871
  52   2.0000      -0.466220       -12.6865
  53   2.0000      -0.462164       -12.5761
  54   2.0000      -0.450684       -12.2637
  55   2.0000      -0.447956       -12.1895
  56   2.0000      -0.442377       -12.0377
  57   2.0000      -0.434989       -11.8366
  58   2.0000      -0.430643       -11.7184
  59   2.0000      -0.425599       -11.5811
  60   2.0000      -0.422950       -11.5091
  61   2.0000      -0.412927       -11.2363
  62   2.0000      -0.411165       -11.1884
  63   2.0000      -0.338157        -9.2017
  64   2.0000      -0.326946        -8.8966
  65   2.0000      -0.323718        -8.8088
  66   2.0000      -0.293962        -7.9991
  67   0.0000       0.027940         0.7603
  68   0.0000       0.064873         1.7653
  69   0.0000       0.114703         3.1212
  70   0.0000       0.117831         3.2063
  71   0.0000       0.127028         3.4566

MULLIKEN ATOMIC CHARGES
-----------------------
   0 S :    0.109337
   1 C :   -0.122179
   2 C :   -0.071159
   3 C :    0.045140
   4 C :   -0.187970
   5 H :    0.016713
   6 C :   -0.000425
   7 H :    0.033169
   8 H :    0.047167
   9 C :   -0.040124
  10 H :    0.046293
  11 H :    0.034233
  12 C :   -0.116882
  13 H :    0.055951
  14 H :    0.038731
  15 H :    0.037796
  16 S :    0.103786
  17 C :   -0.096818
  18 C :   -0.029358
  19 C :   -0.042498
  20 C :   -0.167789
  21 H :    0.023412
  22 C :    0.106664
  23 H :    0.021557
  24 H :    0.002217
  25 C :   -0.097671
  26 H :    0.033732
  27 H :    0.026459
  28 C :    0.020555
  29 H :    0.013467
  30 H :    0.027364
  31 H :    0.017192
  32 H :    0.049266
  33 H :    0.062670
Sum of atomic charges:   -0.0000000

LOEWDIN ATOMIC CHARGES
----------------------
   0 S :    0.408923
   1 C :   -0.202035
   2 C :   -0.056855
   3 C :   -0.060221
   4 C :   -0.200220
   5 H :    0.032919
   6 C :   -0.047340
   7 H :    0.034943
   8 H :    0.040311
   9 C :   -0.034852
  10 H :    0.029280
  11 H :    0.028206
  12 C :   -0.085194
  13 H :    0.032704
  14 H :    0.028365
  15 H :    0.029456
  16 S :    0.391274
  17 C :   -0.176932
  18 C :   -0.072711
  19 C :   -0.044940
  20 C :   -0.207287
  21 H :    0.031357
  22 C :   -0.028081
  23 H :    0.026667
  24 H :    0.024137
  25 C :   -0.038994
  26 H :    0.030844
  27 H :    0.023061
  28 C :   -0.054901
  29 H :    0.021601
  30 H :    0.026797
  31 H :    0.017921
  32 H :    0.021512
  33 H :    0.030283

  Mayer bond orders larger than 0.100000
B(  0-S ,  1-C ) :   1.1584 B(  0-S ,  4-C ) :   1.1659 B(  1-C ,  2-C ) :   1.5556
B(  1-C ,  4-C ) :   0.1106 B(  1-C , 32-H ) :   0.9758 B(  2-C ,  3-C ) :   1.2569
B(  2-C ,  6-C ) :   1.0189 B(  3-C ,  4-C ) :   1.5583 B(  3-C ,  5-H ) :   0.9865
B(  4-C , 20-C ) :   1.0251 B(  6-C ,  7-H ) :   0.9455 B(  6-C ,  8-H ) :   0.9335
B(  6-C ,  9-C ) :   1.0787 B(  9-C , 10-H ) :   0.9546 B(  9-C , 11-H ) :   0.9559
B(  9-C , 12-C ) :   1.0558 B( 12-C , 13-H ) :   0.9763 B( 12-C , 14-H ) :   0.9766
B( 12-C , 15-H ) :   0.9773 B( 16-S , 17-C ) :   1.1387 B( 16-S , 20-C ) :   1.1399
B( 17-C , 18-C ) :   1.6229 B( 17-C , 33-H ) :   0.9702 B( 18-C , 19-C ) :   1.2197
B( 18-C , 21-H ) :   0.9858 B( 19-C , 20-C ) :   1.6123 B( 19-C , 22-C ) :   1.0423
B( 22-C , 23-H ) :   0.9423 B( 22-C , 24-H ) :   0.9180 B( 22-C , 25-C ) :   1.0550
B( 25-C , 26-H ) :   0.9532 B( 25-C , 27-H ) :   0.9636 B( 25-C , 28-C ) :   1.0720
B( 28-C , 29-H ) :   0.9689 B( 28-C , 30-H ) :   0.9738 B( 28-C , 31-H ) :   0.9754

Dispersion correction           -0.014125916
FINAL SINGLE POINT ENERGY     -1339.864374514010

DIPOLE MOMENT
-------------
                                X             Y             Z
Electronic contribution:    -20.64174      -2.87723       4.58420
Nuclear contribution   :     21.19681       2.96868      -4.54237
                        -----------------------------------------
Total Dipole Moment    :      0.55507       0.09145       0.04183
                        -----------------------------------------
Magnitude (a.u.)       :      0.56410
Magnitude (Debye)      :      1.43383

Rotational constants in cm-1:     0.017378     0.008221     0.007431
Rotational constants in MHz :   520.971532   246.462483   222.771347

                             ****ORCA TERMINATED NORMALLY****
TOTAL RUN TIME: 0 days 0 hours 0 minutes 29 seconds 937 msec
