                         Program Version 4.2.1 -  RELEASE  -
|  1> ! wB97X-D3 SP def2-SVP
|  2> %pal
|  3> nprocs 16
|  4> end
|  5>
|  6> * xyz 0 1
|  7> S 	 32.5399 	 2.83589 	 66.7436
|  8> C 	 32.2877 	 4.42856 	 66.0723
|  9> C 	 31.0903 	 4.5355 	 65.4108
| 10> C 	 30.3352 	 3.31217 	 65.4396
| 11> C 	 30.9337 	 2.31623 	 66.2196
| 12> H 	 29.549 	 3.03307 	 64.9273
| 13> C 	 30.6889 	 5.65419 	 64.5282
| 14> H 	 31.5433 	 6.29908 	 64.3632
| 15> H 	 29.8877 	 6.20421 	 65.0429
| 16> C 	 30.1816 	 5.33975 	 63.1391
| 17> H 	 29.2284 	 4.80327 	 63.3576
| 18> H 	 30.0077 	 6.30025 	 62.7502
| 19> C 	 31.2335 	 4.67436 	 62.1648
| 20> H 	 31.2172 	 3.64456 	 62.3922
| 21> H 	 30.8412 	 4.64947 	 61.1063
| 22> H 	 32.2419 	 5.1211 	 62.1422
| 23> S 	 31.7466 	 -0.266987 	 66.6765
| 24> C 	 30.6121 	 -1.52796 	 67.0554
| 25> C 	 29.3138 	 -1.10326 	 66.8367
| 26> C 	 29.2667 	 0.30607 	 66.495
| 27> C 	 30.5384 	 0.919075 	 66.3469
| 28> H 	 28.5374 	 -1.85136 	 66.8331
| 29> C 	 27.9042 	 0.944721 	 66.1976
| 30> H 	 27.8888 	 1.9291 	 66.6589
| 31> H 	 27.189 	 0.478794 	 66.8704
| 32> C 	 27.3621 	 0.820134 	 64.6734
| 33> H 	 27.2238 	 -0.205006 	 64.2901
| 34> H 	 28.0517 	 1.32664 	 63.9359
| 35> C 	 25.939 	 1.30543 	 64.3425
| 36> H 	 25.7787 	 2.35177 	 64.1705
| 37> H 	 25.2861 	 1.09875 	 65.2207
| 38> H 	 25.5402 	 0.719853 	 63.4509
| 39> H 	 33.0204 	 5.20872 	 66.254
| 40> H 	 30.9015 	 -2.60402 	 67.0504
| 41> *
| 42>
| 43>                          ****END OF INPUT****

CARTESIAN COORDINATES (ANGSTROEM)
---------------------------------
  S     32.539900    2.835890   66.743600
  C     32.287700    4.428560   66.072300
  C     31.090300    4.535500   65.410800
  C     30.335200    3.312170   65.439600
  C     30.933700    2.316230   66.219600
  H     29.549000    3.033070   64.927300
  C     30.688900    5.654190   64.528200
  H     31.543300    6.299080   64.363200
  H     29.887700    6.204210   65.042900
  C     30.181600    5.339750   63.139100
  H     29.228400    4.803270   63.357600
  H     30.007700    6.300250   62.750200
  C     31.233500    4.674360   62.164800
  H     31.217200    3.644560   62.392200
  H     30.841200    4.649470   61.106300
  H     32.241900    5.121100   62.142200
  S     31.746600   -0.266987   66.676500
  C     30.612100   -1.527960   67.055400
  C     29.313800   -1.103260   66.836700
  C     29.266700    0.306070   66.495000
  C     30.538400    0.919075   66.346900
  H     28.537400   -1.851360   66.833100
  C     27.904200    0.944721   66.197600
  H     27.888800    1.929100   66.658900
  H     27.189000    0.478794   66.870400
  C     27.362100    0.820134   64.673400
  H     27.223800   -0.205006   64.290100
  H     28.051700    1.326640   63.935900
  C     25.939000    1.305430   64.342500
  H     25.778700    2.351770   64.170500
  H     25.286100    1.098750   65.220700
  H     25.540200    0.719853   63.450900
  H     33.020400    5.208720   66.254000
  H     30.901500   -2.604020   67.050400

 Total Charge           Charge          ....    0
 Multiplicity           Mult            ....    1
 Number of Electrons    NEL             ....  134
 Basis Dimension        Dim             ....  322

ORBITAL ENERGIES
----------------

  NO   OCC          E(Eh)            E(eV)
   0   2.0000     -88.965022     -2420.8613
   1   2.0000     -88.964716     -2420.8530
   2   2.0000     -10.333978      -281.2018
   3   2.0000     -10.331794      -281.1424
   4   2.0000     -10.319137      -280.7980
   5   2.0000     -10.313438      -280.6429
   6   2.0000     -10.310860      -280.5728
   7   2.0000     -10.301907      -280.3291
   8   2.0000     -10.300510      -280.2911
   9   2.0000     -10.299543      -280.2648
  10   2.0000     -10.297996      -280.2227
  11   2.0000     -10.288080      -279.9529
  12   2.0000     -10.286618      -279.9131
  13   2.0000     -10.285867      -279.8927
  14   2.0000     -10.285363      -279.8790
  15   2.0000     -10.282125      -279.7908
  16   2.0000      -8.080281      -219.8756
  17   2.0000      -8.079681      -219.8593
  18   2.0000      -6.038855      -164.3256
  19   2.0000      -6.038257      -164.3093
  20   2.0000      -6.034488      -164.2068
  21   2.0000      -6.034224      -164.1996
  22   2.0000      -6.031091      -164.1143
  23   2.0000      -6.030359      -164.0944
  24   2.0000      -1.007363       -27.4117
  25   2.0000      -0.984218       -26.7819
  26   2.0000      -0.916355       -24.9353
  27   2.0000      -0.896439       -24.3934
  28   2.0000      -0.871399       -23.7120
  29   2.0000      -0.853002       -23.2114
  30   2.0000      -0.843225       -22.9453
  31   2.0000      -0.818939       -22.2845
  32   2.0000      -0.784203       -21.3393
  33   2.0000      -0.771256       -20.9870
  34   2.0000      -0.709996       -19.3200
  35   2.0000      -0.698250       -19.0003
  36   2.0000      -0.691602       -18.8194
  37   2.0000      -0.662486       -18.0272
  38   2.0000      -0.645235       -17.5577
  39   2.0000      -0.626224       -17.0404
  40   2.0000      -0.590013       -16.0551
  41   2.0000      -0.569443       -15.4953
  42   2.0000      -0.558769       -15.2049
  43   2.0000      -0.553271       -15.0553
  44   2.0000      -0.540559       -14.7093
  45   2.0000      -0.530372       -14.4321
  46   2.0000      -0.520672       -14.1682
  47   2.0000      -0.511128       -13.9085
  48   2.0000      -0.503808       -13.7093
  49   2.0000      -0.499579       -13.5942
  50   2.0000      -0.488976       -13.3057
  51   2.0000      -0.486415       -13.2360
  52   2.0000      -0.472776       -12.8649
  53   2.0000      -0.462957       -12.5977
  54   2.0000      -0.456334       -12.4175
  55   2.0000      -0.450583       -12.2610
  56   2.0000      -0.440852       -11.9962
  57   2.0000      -0.437723       -11.9110
  58   2.0000      -0.429711       -11.6930
  59   2.0000      -0.421485       -11.4692
  60   2.0000      -0.416771       -11.3409
  61   2.0000      -0.414320       -11.2742
  62   2.0000      -0.410197       -11.1620
  63   2.0000      -0.362040        -9.8516
  64   2.0000      -0.332195        -9.0395
  65   2.0000      -0.326928        -8.8962
  66   2.0000      -0.283987        -7.7277
  67   0.0000       0.018821         0.5121
  68   0.0000       0.079994         2.1767
  69   0.0000       0.101726         2.7681
  70   0.0000       0.122150         3.3239
  71   0.0000       0.125721         3.4210

MULLIKEN ATOMIC CHARGES
-----------------------
   0 S :    0.092845
   1 C :   -0.139495
   2 C :   -0.026194
   3 C :    0.069804
   4 C :   -0.113825
   5 H :   -0.082500
   6 C :    0.050032
   7 H :    0.008447
   8 H :    0.040369
   9 C :   -0.076587
  10 H :    0.039441
  11 H :    0.021833
  12 C :   -0.054269
  13 H :    0.030948
  14 H :    0.036591
  15 H :    0.048770
  16 S :    0.089274
  17 C :   -0.109624
  18 C :   -0.024421
  19 C :   -0.085590
  20 C :   -0.113437
  21 H :    0.023891
  22 C :    0.076808
  23 H :    0.029887
  24 H :    0.010822
  25 C :   -0.080112
  26 H :    0.036030
  27 H :    0.043375
  28 C :   -0.082949
  29 H :    0.030595
  30 H :    0.029024
  31 H :    0.047209
  32 H :    0.054026
  33 H :    0.078978
Sum of atomic charges:   -0.0000000

LOEWDIN ATOMIC CHARGES
----------------------
   0 S :    0.394137
   1 C :   -0.194208
   2 C :   -0.061534
   3 C :   -0.044232
   4 C :   -0.172003
   5 H :   -0.001106
   6 C :   -0.036161
   7 H :    0.024593
   8 H :    0.036859
   9 C :   -0.036438
  10 H :    0.027909
  11 H :    0.019746
  12 C :   -0.068663
  13 H :    0.021324
  14 H :    0.033550
  15 H :    0.032040
  16 S :    0.418929
  17 C :   -0.200253
  18 C :   -0.067189
  19 C :   -0.059600
  20 C :   -0.205155
  21 H :    0.032791
  22 C :   -0.040676
  23 H :    0.032504
  24 H :    0.029675
  25 C :   -0.048277
  26 H :    0.032440
  27 H :    0.026615
  28 C :   -0.075668
  29 H :    0.016134
  30 H :    0.027106
  31 H :    0.035769
  32 H :    0.028853
  33 H :    0.040189

  Mayer bond orders larger than 0.100000
B(  0-S ,  1-C ) :   1.1324 B(  0-S ,  4-C ) :   1.1475 B(  1-C ,  2-C ) :   1.6082
B(  1-C , 32-H ) :   0.9686 B(  2-C ,  3-C ) :   1.2116 B(  2-C ,  6-C ) :   1.0309
B(  3-C ,  4-C ) :   1.5600 B(  3-C ,  5-H ) :   1.0183 B(  4-C , 20-C ) :   1.0807
B(  6-C ,  7-H ) :   0.9436 B(  6-C ,  8-H ) :   0.9267 B(  6-C ,  9-C ) :   1.0891
B(  9-C , 10-H ) :   0.9520 B(  9-C , 11-H ) :   0.9540 B(  9-C , 12-C ) :   1.0634
B( 12-C , 13-H ) :   0.9761 B( 12-C , 14-H ) :   0.9753 B( 12-C , 15-H ) :   0.9745
B( 16-S , 17-C ) :   1.1667 B( 16-S , 20-C ) :   1.1436 B( 17-C , 18-C ) :   1.5941
B( 17-C , 33-H ) :   0.9570 B( 18-C , 19-C ) :   1.2642 B( 18-C , 21-H ) :   0.9910
B( 19-C , 20-C ) :   1.5429 B( 19-C , 22-C ) :   1.0590 B( 22-C , 23-H ) :   0.9327
B( 22-C , 24-H ) :   0.9299 B( 22-C , 25-C ) :   1.0320 B( 25-C , 26-H ) :   0.9647
B( 25-C , 27-H ) :   0.9590 B( 25-C , 28-C ) :   1.0632 B( 28-C , 29-H ) :   0.9774
B( 28-C , 30-H ) :   0.9727 B( 28-C , 31-H ) :   0.9810

Dispersion correction           -0.014317986
FINAL SINGLE POINT ENERGY     -1339.852645298974

DIPOLE MOMENT
-------------
                                X             Y             Z
Electronic contribution:     20.94591     -10.73736      18.95302
Nuclear contribution   :    -21.47723      10.84423     -19.43421
                        -----------------------------------------
Total Dipole Moment    :     -0.53132       0.10688      -0.48119
                        -----------------------------------------
Magnitude (a.u.)       :      0.72475
Magnitude (Debye)      :      1.84218

Rotational constants in cm-1:     0.016046     0.010257     0.006967
Rotational constants in MHz :   481.032735   307.501678   208.862578

                             ****ORCA TERMINATED NORMALLY****
TOTAL RUN TIME: 0 days 0 hours 0 minutes 30 seconds 485 msec
