                         Program Version 4.2.1 -  RELEASE  -
|  1> ! wB97X-D3 SP def2-SVP
|  2> %pal
|  3> nprocs 16
|  4> end
|  5>
|  6> * xyz 0 1
|  7> S 	 -0.602755 	 27.9515 	 53.1664
|  8> C 	 0.794642 	 27.1574 	 53.8349
|  9> C 	 1.96983 	 27.9095 	 53.6069
| 10> C 	 1.61686 	 29.263 	 53.2343
| 11> C 	 0.232005 	 29.5117 	 53.0761
| 12> H 	 2.32631 	 30.0787 	 53.059
| 13> C 	 3.33789 	 27.3611 	 53.7554
| 14> H 	 3.62873 	 27.5503 	 54.7863
| 15> H 	 4.05432 	 27.8844 	 53.0789
| 16> C 	 3.59153 	 25.8484 	 53.4894
| 17> H 	 4.63319 	 25.6339 	 53.8365
| 18> H 	 2.92547 	 25.3138 	 54.0792
| 19> C 	 3.46465 	 25.5641 	 52.0099
| 20> H 	 2.60844 	 26.0829 	 51.4622
| 21> H 	 4.27891 	 25.98 	 51.4561
| 22> H 	 3.55812 	 24.4784 	 51.8174
| 23> S 	 -1.58702 	 30.5294 	 51.2129
| 24> C 	 -1.6933 	 32.2491 	 51.0528
| 25> C 	 -0.992197 	 32.8645 	 51.9776
| 26> C 	 -0.133598 	 32.02 	 52.796
| 27> C 	 -0.279932 	 30.7084 	 52.4619
| 28> H 	 -1.21913 	 33.9365 	 52.1054
| 29> C 	 0.760425 	 32.5111 	 53.8996
| 30> H 	 1.68748 	 32.8181 	 53.4377
| 31> H 	 0.908653 	 31.7849 	 54.741
| 32> C 	 0.23883 	 33.6744 	 54.8185
| 33> H 	 0.163852 	 34.4761 	 54.1638
| 34> H 	 1.0525 	 33.9629 	 55.5078
| 35> C 	 -1.1073 	 33.3469 	 55.5577
| 36> H 	 -1.31007 	 34.2411 	 56.1836
| 37> H 	 -1.13455 	 32.4852 	 56.2213
| 38> H 	 -1.91545 	 33.2815 	 54.8271
| 39> H 	 0.751818 	 26.2711 	 54.3598
| 40> H 	 -2.52629 	 32.6534 	 50.4883
| 41> *
| 42>
| 43>                          ****END OF INPUT****

CARTESIAN COORDINATES (ANGSTROEM)
---------------------------------
  S     -0.602755   27.951500   53.166400
  C      0.794642   27.157400   53.834900
  C      1.969830   27.909500   53.606900
  C      1.616860   29.263000   53.234300
  C      0.232005   29.511700   53.076100
  H      2.326310   30.078700   53.059000
  C      3.337890   27.361100   53.755400
  H      3.628730   27.550300   54.786300
  H      4.054320   27.884400   53.078900
  C      3.591530   25.848400   53.489400
  H      4.633190   25.633900   53.836500
  H      2.925470   25.313800   54.079200
  C      3.464650   25.564100   52.009900
  H      2.608440   26.082900   51.462200
  H      4.278910   25.980000   51.456100
  H      3.558120   24.478400   51.817400
  S     -1.587020   30.529400   51.212900
  C     -1.693300   32.249100   51.052800
  C     -0.992197   32.864500   51.977600
  C     -0.133598   32.020000   52.796000
  C     -0.279932   30.708400   52.461900
  H     -1.219130   33.936500   52.105400
  C      0.760425   32.511100   53.899600
  H      1.687480   32.818100   53.437700
  H      0.908653   31.784900   54.741000
  C      0.238830   33.674400   54.818500
  H      0.163852   34.476100   54.163800
  H      1.052500   33.962900   55.507800
  C     -1.107300   33.346900   55.557700
  H     -1.310070   34.241100   56.183600
  H     -1.134550   32.485200   56.221300
  H     -1.915450   33.281500   54.827100
  H      0.751818   26.271100   54.359800
  H     -2.526290   32.653400   50.488300

 Total Charge           Charge          ....    0
 Multiplicity           Mult            ....    1
 Number of Electrons    NEL             ....  134
 Basis Dimension        Dim             ....  322

ORBITAL ENERGIES
----------------

  NO   OCC          E(Eh)            E(eV)
   0   2.0000     -88.966963     -2420.9141
   1   2.0000     -88.955692     -2420.6075
   2   2.0000     -10.331494      -281.1342
   3   2.0000     -10.327654      -281.0298
   4   2.0000     -10.312077      -280.6059
   5   2.0000     -10.308223      -280.5010
   6   2.0000     -10.307269      -280.4751
   7   2.0000     -10.303178      -280.3637
   8   2.0000     -10.300847      -280.3003
   9   2.0000     -10.293549      -280.1017
  10   2.0000     -10.291565      -280.0477
  11   2.0000     -10.291229      -280.0386
  12   2.0000     -10.287745      -279.9438
  13   2.0000     -10.286786      -279.9177
  14   2.0000     -10.281475      -279.7732
  15   2.0000     -10.277639      -279.6688
  16   2.0000      -8.081276      -219.9027
  17   2.0000      -8.070817      -219.6181
  18   2.0000      -6.039952      -164.3555
  19   2.0000      -6.035891      -164.2450
  20   2.0000      -6.031837      -164.1346
  21   2.0000      -6.029485      -164.0706
  22   2.0000      -6.025535      -163.9631
  23   2.0000      -6.021120      -163.8430
  24   2.0000      -1.004528       -27.3346
  25   2.0000      -0.982463       -26.7342
  26   2.0000      -0.915558       -24.9136
  27   2.0000      -0.904711       -24.6184
  28   2.0000      -0.873266       -23.7628
  29   2.0000      -0.849446       -23.1146
  30   2.0000      -0.838540       -22.8178
  31   2.0000      -0.813249       -22.1296
  32   2.0000      -0.782377       -21.2896
  33   2.0000      -0.773205       -21.0400
  34   2.0000      -0.711674       -19.3656
  35   2.0000      -0.707217       -19.2444
  36   2.0000      -0.694949       -18.9105
  37   2.0000      -0.652900       -17.7663
  38   2.0000      -0.637991       -17.3606
  39   2.0000      -0.610120       -16.6022
  40   2.0000      -0.598181       -16.2773
  41   2.0000      -0.577494       -15.7144
  42   2.0000      -0.559458       -15.2236
  43   2.0000      -0.556095       -15.1321
  44   2.0000      -0.541593       -14.7375
  45   2.0000      -0.532628       -14.4936
  46   2.0000      -0.512502       -13.9459
  47   2.0000      -0.510853       -13.9010
  48   2.0000      -0.508620       -13.8403
  49   2.0000      -0.494602       -13.4588
  50   2.0000      -0.490848       -13.3567
  51   2.0000      -0.480127       -13.0649
  52   2.0000      -0.472664       -12.8618
  53   2.0000      -0.467443       -12.7198
  54   2.0000      -0.458806       -12.4847
  55   2.0000      -0.444600       -12.0982
  56   2.0000      -0.441643       -12.0177
  57   2.0000      -0.436917       -11.8891
  58   2.0000      -0.431275       -11.7356
  59   2.0000      -0.427272       -11.6267
  60   2.0000      -0.417748       -11.3675
  61   2.0000      -0.411753       -11.2044
  62   2.0000      -0.400913       -10.9094
  63   2.0000      -0.358163        -9.7461
  64   2.0000      -0.327396        -8.9089
  65   2.0000      -0.323120        -8.7925
  66   2.0000      -0.283450        -7.7131
  67   0.0000       0.022299         0.6068
  68   0.0000       0.067962         1.8494
  69   0.0000       0.108390         2.9494
  70   0.0000       0.117242         3.1903
  71   0.0000       0.136252         3.7076

MULLIKEN ATOMIC CHARGES
-----------------------
   0 S :    0.107443
   1 C :   -0.103166
   2 C :   -0.074497
   3 C :   -0.003374
   4 C :   -0.124586
   5 H :    0.025340
   6 C :    0.021903
   7 H :    0.041192
   8 H :    0.031352
   9 C :   -0.032304
  10 H :    0.034948
  11 H :    0.011620
  12 C :   -0.067074
  13 H :    0.055380
  14 H :    0.012317
  15 H :    0.039471
  16 S :    0.061254
  17 C :   -0.082201
  18 C :   -0.040831
  19 C :   -0.029826
  20 C :   -0.145552
  21 H :    0.029718
  22 C :    0.016310
  23 H :    0.042147
  24 H :    0.047690
  25 C :   -0.070326
  26 H :    0.007840
  27 H :    0.033685
  28 C :   -0.056794
  29 H :    0.036803
  30 H :    0.043232
  31 H :    0.040021
  32 H :    0.029160
  33 H :    0.061703
Sum of atomic charges:   -0.0000000

LOEWDIN ATOMIC CHARGES
----------------------
   0 S :    0.403196
   1 C :   -0.187718
   2 C :   -0.058567
   3 C :   -0.054518
   4 C :   -0.191516
   5 H :    0.032688
   6 C :   -0.038512
   7 H :    0.035483
   8 H :    0.035094
   9 C :   -0.032597
  10 H :    0.033669
  11 H :    0.009014
  12 C :   -0.076506
  13 H :    0.039230
  14 H :    0.020097
  15 H :    0.029155
  16 S :    0.358264
  17 C :   -0.183211
  18 C :   -0.079531
  19 C :   -0.062373
  20 C :   -0.163637
  21 H :    0.037545
  22 C :   -0.038470
  23 H :    0.030443
  24 H :    0.039113
  25 C :   -0.035338
  26 H :    0.007551
  27 H :    0.028309
  28 C :   -0.065702
  29 H :    0.031632
  30 H :    0.026865
  31 H :    0.027365
  32 H :    0.011593
  33 H :    0.031890

  Mayer bond orders larger than 0.100000
B(  0-S ,  1-C ) :   1.1529 B(  0-S ,  4-C ) :   1.1403 B(  1-C ,  2-C ) :   1.5500
B(  1-C ,  4-C ) :   0.1030 B(  1-C , 32-H ) :   0.9827 B(  2-C ,  3-C ) :   1.2716
B(  2-C ,  6-C ) :   1.0255 B(  3-C ,  4-C ) :   1.5146 B(  3-C ,  5-H ) :   0.9929
B(  4-C , 20-C ) :   1.0981 B(  6-C ,  7-H ) :   0.9271 B(  6-C ,  8-H ) :   0.9480
B(  6-C ,  9-C ) :   1.0873 B(  9-C , 10-H ) :   0.9515 B(  9-C , 11-H ) :   0.9529
B(  9-C , 12-C ) :   1.0754 B( 12-C , 13-H ) :   0.9755 B( 12-C , 14-H ) :   0.9690
B( 12-C , 15-H ) :   0.9738 B( 16-S , 17-C ) :   1.1277 B( 16-S , 20-C ) :   1.0998
B( 17-C , 18-C ) :   1.6851 B( 17-C , 33-H ) :   0.9607 B( 18-C , 19-C ) :   1.1764
B( 18-C , 21-H ) :   0.9836 B( 19-C , 20-C ) :   1.6528 B( 19-C , 22-C ) :   1.0420
B( 22-C , 23-H ) :   0.9326 B( 22-C , 24-H ) :   0.9423 B( 22-C , 25-C ) :   1.0682
B( 25-C , 26-H ) :   0.9514 B( 25-C , 27-H ) :   0.9583 B( 25-C , 28-C ) :   1.0695
B( 28-C , 29-H ) :   0.9746 B( 28-C , 30-H ) :   0.9782 B( 28-C , 31-H ) :   0.9743

Dispersion correction           -0.014300765
FINAL SINGLE POINT ENERGY     -1339.856468461403

DIPOLE MOMENT
-------------
                                X             Y             Z
Electronic contribution:    -16.02803      -2.13726     -10.39040
Nuclear contribution   :     16.55779       2.37941      10.76331
                        -----------------------------------------
Total Dipole Moment    :      0.52976       0.24215       0.37291
                        -----------------------------------------
Magnitude (a.u.)       :      0.69163
Magnitude (Debye)      :      1.75797

Rotational constants in cm-1:     0.023229     0.007472     0.006480
Rotational constants in MHz :   696.397738   224.004586   194.262098

                             ****ORCA TERMINATED NORMALLY****
TOTAL RUN TIME: 0 days 0 hours 0 minutes 34 seconds 740 msec
