                         Program Version 4.2.1 -  RELEASE  -
|  1> ! wB97X-D3 SP def2-SVP
|  2> %pal
|  3> nprocs 16
|  4> end
|  5>
|  6> * xyz 0 1
|  7> S 	 -64.0135 	 50.7635 	 121.435
|  8> C 	 -63.3036 	 50.3502 	 123.027
|  9> C 	 -64.2151 	 49.9438 	 123.943
| 10> C 	 -65.5632 	 50.1663 	 123.387
| 11> C 	 -65.5662 	 50.5458 	 122.074
| 12> H 	 -66.5487 	 50.0943 	 123.803
| 13> C 	 -63.942 	 49.5245 	 125.34
| 14> H 	 -63.5062 	 50.5139 	 125.791
| 15> H 	 -63.102 	 48.8049 	 125.188
| 16> C 	 -65.1096 	 48.9922 	 126.258
| 17> H 	 -65.9613 	 49.6739 	 126.287
| 18> H 	 -65.3938 	 48.046 	 125.826
| 19> C 	 -65.0214 	 48.7009 	 127.803
| 20> H 	 -65.818 	 48.1102 	 128.255
| 21> H 	 -64.0912 	 48.2008 	 128.014
| 22> H 	 -64.9331 	 49.6572 	 128.33
| 23> S 	 -66.853 	 52.6104 	 120.904
| 24> C 	 -68.4108 	 52.3709 	 120.012
| 25> C 	 -68.7522 	 51.0034 	 120.103
| 26> C 	 -67.8185 	 50.2166 	 120.844
| 27> C 	 -66.7349 	 50.8979 	 121.335
| 28> H 	 -69.6949 	 50.6636 	 119.615
| 29> C 	 -68.0134 	 48.7115 	 121.08
| 30> H 	 -69.0993 	 48.5693 	 121.061
| 31> H 	 -67.8291 	 48.4943 	 122.146
| 32> C 	 -67.2863 	 47.7549 	 120.175
| 33> H 	 -66.2117 	 47.8144 	 120.249
| 34> H 	 -67.6154 	 47.8906 	 119.172
| 35> C 	 -67.5722 	 46.2781 	 120.492
| 36> H 	 -67.4171 	 45.7533 	 119.557
| 37> H 	 -68.6075 	 46.0066 	 120.765
| 38> H 	 -66.8372 	 45.8073 	 121.169
| 39> H 	 -62.2407 	 50.3884 	 123.273
| 40> H 	 -68.9345 	 53.0164 	 119.336
| 41> *
| 42>
| 43>                          ****END OF INPUT****

CARTESIAN COORDINATES (ANGSTROEM)
---------------------------------
  S    -64.013500   50.763500  121.435000
  C    -63.303600   50.350200  123.027000
  C    -64.215100   49.943800  123.943000
  C    -65.563200   50.166300  123.387000
  C    -65.566200   50.545800  122.074000
  H    -66.548700   50.094300  123.803000
  C    -63.942000   49.524500  125.340000
  H    -63.506200   50.513900  125.791000
  H    -63.102000   48.804900  125.188000
  C    -65.109600   48.992200  126.258000
  H    -65.961300   49.673900  126.287000
  H    -65.393800   48.046000  125.826000
  C    -65.021400   48.700900  127.803000
  H    -65.818000   48.110200  128.255000
  H    -64.091200   48.200800  128.014000
  H    -64.933100   49.657200  128.330000
  S    -66.853000   52.610400  120.904000
  C    -68.410800   52.370900  120.012000
  C    -68.752200   51.003400  120.103000
  C    -67.818500   50.216600  120.844000
  C    -66.734900   50.897900  121.335000
  H    -69.694900   50.663600  119.615000
  C    -68.013400   48.711500  121.080000
  H    -69.099300   48.569300  121.061000
  H    -67.829100   48.494300  122.146000
  C    -67.286300   47.754900  120.175000
  H    -66.211700   47.814400  120.249000
  H    -67.615400   47.890600  119.172000
  C    -67.572200   46.278100  120.492000
  H    -67.417100   45.753300  119.557000
  H    -68.607500   46.006600  120.765000
  H    -66.837200   45.807300  121.169000
  H    -62.240700   50.388400  123.273000
  H    -68.934500   53.016400  119.336000

 Total Charge           Charge          ....    0
 Multiplicity           Mult            ....    1
 Number of Electrons    NEL             ....  134
 Basis Dimension        Dim             ....  322

ORBITAL ENERGIES
----------------

  NO   OCC          E(Eh)            E(eV)
   0   2.0000     -88.966774     -2420.9090
   1   2.0000     -88.962746     -2420.7994
   2   2.0000     -10.322524      -280.8902
   3   2.0000     -10.322269      -280.8832
   4   2.0000     -10.319333      -280.8033
   5   2.0000     -10.313061      -280.6327
   6   2.0000     -10.311803      -280.5984
   7   2.0000     -10.306849      -280.4636
   8   2.0000     -10.301539      -280.3191
   9   2.0000     -10.300059      -280.2789
  10   2.0000     -10.297047      -280.1969
  11   2.0000     -10.291950      -280.0582
  12   2.0000     -10.287920      -279.9485
  13   2.0000     -10.284286      -279.8496
  14   2.0000     -10.278881      -279.7026
  15   2.0000     -10.274934      -279.5952
  16   2.0000      -8.081850      -219.9183
  17   2.0000      -8.076191      -219.7643
  18   2.0000      -6.040452      -164.3690
  19   2.0000      -6.036394      -164.2586
  20   2.0000      -6.034853      -164.2167
  21   2.0000      -6.032397      -164.1499
  22   2.0000      -6.030779      -164.1058
  23   2.0000      -6.026940      -164.0014
  24   2.0000      -1.009364       -27.4662
  25   2.0000      -0.977700       -26.6046
  26   2.0000      -0.910833       -24.7850
  27   2.0000      -0.905340       -24.6356
  28   2.0000      -0.871717       -23.7206
  29   2.0000      -0.848869       -23.0989
  30   2.0000      -0.843945       -22.9649
  31   2.0000      -0.815209       -22.1830
  32   2.0000      -0.784530       -21.3482
  33   2.0000      -0.770799       -20.9745
  34   2.0000      -0.715045       -19.4574
  35   2.0000      -0.697187       -18.9714
  36   2.0000      -0.690549       -18.7908
  37   2.0000      -0.660815       -17.9817
  38   2.0000      -0.642950       -17.4956
  39   2.0000      -0.610463       -16.6115
  40   2.0000      -0.586612       -15.9625
  41   2.0000      -0.570708       -15.5298
  42   2.0000      -0.566489       -15.4149
  43   2.0000      -0.561863       -15.2891
  44   2.0000      -0.526982       -14.3399
  45   2.0000      -0.523583       -14.2474
  46   2.0000      -0.517685       -14.0869
  47   2.0000      -0.510007       -13.8780
  48   2.0000      -0.506238       -13.7754
  49   2.0000      -0.499216       -13.5843
  50   2.0000      -0.495647       -13.4872
  51   2.0000      -0.480677       -13.0799
  52   2.0000      -0.469896       -12.7865
  53   2.0000      -0.461538       -12.5591
  54   2.0000      -0.456146       -12.4124
  55   2.0000      -0.454497       -12.3675
  56   2.0000      -0.438383       -11.9290
  57   2.0000      -0.435774       -11.8580
  58   2.0000      -0.432572       -11.7709
  59   2.0000      -0.427313       -11.6278
  60   2.0000      -0.419264       -11.4088
  61   2.0000      -0.407409       -11.0862
  62   2.0000      -0.406621       -11.0647
  63   2.0000      -0.336572        -9.1586
  64   2.0000      -0.329624        -8.9695
  65   2.0000      -0.324665        -8.8346
  66   2.0000      -0.301998        -8.2178
  67   0.0000       0.033714         0.9174
  68   0.0000       0.065229         1.7750
  69   0.0000       0.111981         3.0472
  70   0.0000       0.118394         3.2217
  71   0.0000       0.126793         3.4502

MULLIKEN ATOMIC CHARGES
-----------------------
   0 S :    0.128423
   1 C :   -0.146468
   2 C :   -0.053667
   3 C :    0.033191
   4 C :   -0.159363
   5 H :    0.008172
   6 C :    0.023833
   7 H :    0.060053
   8 H :    0.048814
   9 C :   -0.093094
  10 H :    0.042700
  11 H :    0.033119
  12 C :   -0.045879
  13 H :    0.047866
  14 H :    0.021020
  15 H :    0.030987
  16 S :    0.093359
  17 C :   -0.088486
  18 C :   -0.068430
  19 C :   -0.019111
  20 C :   -0.180429
  21 H :    0.035805
  22 C :    0.068962
  23 H :    0.008112
  24 H :    0.016781
  25 C :   -0.016328
  26 H :    0.034350
  27 H :    0.018777
  28 C :   -0.070120
  29 H :    0.020786
  30 H :    0.028863
  31 H :    0.039299
  32 H :    0.042706
  33 H :    0.055398
Sum of atomic charges:    0.0000000

LOEWDIN ATOMIC CHARGES
----------------------
   0 S :    0.413936
   1 C :   -0.191053
   2 C :   -0.060146
   3 C :   -0.058719
   4 C :   -0.220500
   5 H :    0.028832
   6 C :   -0.044256
   7 H :    0.050226
   8 H :    0.041055
   9 C :   -0.045051
  10 H :    0.027814
  11 H :    0.023610
  12 C :   -0.063737
  13 H :    0.032755
  14 H :    0.019949
  15 H :    0.025205
  16 S :    0.378404
  17 C :   -0.173840
  18 C :   -0.074124
  19 C :   -0.061796
  20 C :   -0.190698
  21 H :    0.038320
  22 C :   -0.035853
  23 H :    0.028162
  24 H :    0.030169
  25 C :   -0.034119
  26 H :    0.029694
  27 H :    0.021432
  28 C :   -0.070853
  29 H :    0.026142
  30 H :    0.023554
  31 H :    0.027224
  32 H :    0.028743
  33 H :    0.029520

  Mayer bond orders larger than 0.100000
B(  0-S ,  1-C ) :   1.1152 B(  0-S ,  4-C ) :   1.1418 B(  1-C ,  2-C ) :   1.6644
B(  1-C , 32-H ) :   0.9695 B(  2-C ,  3-C ) :   1.1711 B(  2-C ,  6-C ) :   1.0014
B(  3-C ,  4-C ) :   1.6253 B(  3-C ,  5-H ) :   0.9894 B(  4-C , 20-C ) :   1.0241
B(  6-C ,  7-H ) :   0.9379 B(  6-C ,  8-H ) :   0.9386 B(  6-C ,  9-C ) :   1.0630
B(  9-C , 10-H ) :   0.9565 B(  9-C , 11-H ) :   0.9586 B(  9-C , 12-C ) :   1.0773
B( 12-C , 13-H ) :   0.9750 B( 12-C , 14-H ) :   0.9757 B( 12-C , 15-H ) :   0.9776
B( 16-S , 17-C ) :   1.1400 B( 16-S , 20-C ) :   1.1312 B( 17-C , 18-C ) :   1.6191
B( 17-C , 20-C ) :   0.1090 B( 17-C , 33-H ) :   0.9677 B( 18-C , 19-C ) :   1.2425
B( 18-C , 21-H ) :   0.9798 B( 19-C , 20-C ) :   1.6186 B( 19-C , 22-C ) :   1.0307
B( 22-C , 23-H ) :   0.9278 B( 22-C , 24-H ) :   0.9331 B( 22-C , 25-C ) :   1.0802
B( 25-C , 26-H ) :   0.9527 B( 25-C , 27-H ) :   0.9562 B( 25-C , 28-C ) :   1.0805
B( 28-C , 29-H ) :   0.9750 B( 28-C , 30-H ) :   0.9745 B( 28-C , 31-H ) :   0.9777

Dispersion correction           -0.013768904
FINAL SINGLE POINT ENERGY     -1339.857062437729

DIPOLE MOMENT
-------------
                                X             Y             Z
Electronic contribution:      4.71511      22.77067     -15.90199
Nuclear contribution   :     -4.88851     -23.28000      16.27946
                        -----------------------------------------
Total Dipole Moment    :     -0.17341      -0.50932       0.37747
                        -----------------------------------------
Magnitude (a.u.)       :      0.65724
Magnitude (Debye)      :      1.67058

Rotational constants in cm-1:     0.016536     0.008377     0.007060
Rotational constants in MHz :   495.735434   251.138158   211.645553

                             ****ORCA TERMINATED NORMALLY****
TOTAL RUN TIME: 0 days 0 hours 0 minutes 31 seconds 706 msec
