                         Program Version 4.2.1 -  RELEASE  -
|  1> ! wB97X-D3 SP def2-SVP
|  2> %pal
|  3> nprocs 16
|  4> end
|  5>
|  6> * xyz 0 1
|  7> S 	 -48.7222 	 63.6641 	 131.512
|  8> C 	 -48.559 	 61.9462 	 131.102
|  9> C 	 -48.0136 	 61.2583 	 132.155
| 10> C 	 -47.8623 	 62.0187 	 133.342
| 11> C 	 -48.2756 	 63.3276 	 133.194
| 12> H 	 -47.3896 	 61.7366 	 134.279
| 13> C 	 -47.5777 	 59.7681 	 132.039
| 14> H 	 -47.8635 	 59.2596 	 131.127
| 15> H 	 -48.0463 	 59.1836 	 132.769
| 16> C 	 -46.1052 	 59.5227 	 132.035
| 17> H 	 -45.7952 	 58.5098 	 131.745
| 18> H 	 -45.6234 	 60.1465 	 131.332
| 19> C 	 -45.4276 	 59.6603 	 133.369
| 20> H 	 -46.0355 	 59.1286 	 134.169
| 21> H 	 -44.4703 	 59.1147 	 133.28
| 22> H 	 -45.1527 	 60.6297 	 133.708
| 23> S 	 -47.234 	 65.8289 	 133.93
| 24> C 	 -47.3265 	 66.2822 	 135.6
| 25> C 	 -47.9986 	 65.3416 	 136.354
| 26> C 	 -48.4691 	 64.2316 	 135.605
| 27> C 	 -48.1919 	 64.3374 	 134.25
| 28> H 	 -48.1734 	 65.4724 	 137.429
| 29> C 	 -49.2658 	 63.0858 	 136.261
| 30> H 	 -49.7448 	 62.5257 	 135.468
| 31> H 	 -50.1301 	 63.427 	 136.926
| 32> C 	 -48.4546 	 62.1601 	 137.085
| 33> H 	 -47.9934 	 62.7441 	 137.795
| 34> H 	 -47.7024 	 61.7388 	 136.469
| 35> C 	 -49.3341 	 61.0747 	 137.713
| 36> H 	 -49.6424 	 60.3983 	 136.862
| 37> H 	 -50.2091 	 61.484 	 138.213
| 38> H 	 -48.7694 	 60.4972 	 138.466
| 39> H 	 -48.6062 	 61.5832 	 130.102
| 40> H 	 -47.0987 	 67.2572 	 135.987
| 41> *
| 42>
| 43>                          ****END OF INPUT****

CARTESIAN COORDINATES (ANGSTROEM)
---------------------------------
  S    -48.722200   63.664100  131.512000
  C    -48.559000   61.946200  131.102000
  C    -48.013600   61.258300  132.155000
  C    -47.862300   62.018700  133.342000
  C    -48.275600   63.327600  133.194000
  H    -47.389600   61.736600  134.279000
  C    -47.577700   59.768100  132.039000
  H    -47.863500   59.259600  131.127000
  H    -48.046300   59.183600  132.769000
  C    -46.105200   59.522700  132.035000
  H    -45.795200   58.509800  131.745000
  H    -45.623400   60.146500  131.332000
  C    -45.427600   59.660300  133.369000
  H    -46.035500   59.128600  134.169000
  H    -44.470300   59.114700  133.280000
  H    -45.152700   60.629700  133.708000
  S    -47.234000   65.828900  133.930000
  C    -47.326500   66.282200  135.600000
  C    -47.998600   65.341600  136.354000
  C    -48.469100   64.231600  135.605000
  C    -48.191900   64.337400  134.250000
  H    -48.173400   65.472400  137.429000
  C    -49.265800   63.085800  136.261000
  H    -49.744800   62.525700  135.468000
  H    -50.130100   63.427000  136.926000
  C    -48.454600   62.160100  137.085000
  H    -47.993400   62.744100  137.795000
  H    -47.702400   61.738800  136.469000
  C    -49.334100   61.074700  137.713000
  H    -49.642400   60.398300  136.862000
  H    -50.209100   61.484000  138.213000
  H    -48.769400   60.497200  138.466000
  H    -48.606200   61.583200  130.102000
  H    -47.098700   67.257200  135.987000

 Total Charge           Charge          ....    0
 Multiplicity           Mult            ....    1
 Number of Electrons    NEL             ....  134
 Basis Dimension        Dim             ....  322

ORBITAL ENERGIES
----------------

  NO   OCC          E(Eh)            E(eV)
   0   2.0000     -88.967468     -2420.9279
   1   2.0000     -88.966461     -2420.9005
   2   2.0000     -10.333197      -281.1806
   3   2.0000     -10.331169      -281.1254
   4   2.0000     -10.317556      -280.7550
   5   2.0000     -10.315492      -280.6988
   6   2.0000     -10.305663      -280.4313
   7   2.0000     -10.305464      -280.4259
   8   2.0000     -10.296448      -280.1806
   9   2.0000     -10.295040      -280.1423
  10   2.0000     -10.290902      -280.0297
  11   2.0000     -10.286310      -279.9047
  12   2.0000     -10.284143      -279.8457
  13   2.0000     -10.278010      -279.6789
  14   2.0000     -10.275237      -279.6034
  15   2.0000     -10.273180      -279.5474
  16   2.0000      -8.081557      -219.9103
  17   2.0000      -8.080866      -219.8915
  18   2.0000      -6.040145      -164.3607
  19   2.0000      -6.039417      -164.3409
  20   2.0000      -6.036246      -164.2546
  21   2.0000      -6.035428      -164.2324
  22   2.0000      -6.032179      -164.1439
  23   2.0000      -6.031592      -164.1280
  24   2.0000      -1.004786       -27.3416
  25   2.0000      -0.983662       -26.7668
  26   2.0000      -0.919245       -25.0139
  27   2.0000      -0.917656       -24.9707
  28   2.0000      -0.871726       -23.7209
  29   2.0000      -0.852041       -23.1852
  30   2.0000      -0.844219       -22.9724
  31   2.0000      -0.815212       -22.1830
  32   2.0000      -0.785808       -21.3829
  33   2.0000      -0.773644       -21.0519
  34   2.0000      -0.705721       -19.2036
  35   2.0000      -0.699563       -19.0361
  36   2.0000      -0.696386       -18.9496
  37   2.0000      -0.661548       -18.0016
  38   2.0000      -0.645882       -17.5753
  39   2.0000      -0.619602       -16.8602
  40   2.0000      -0.601035       -16.3550
  41   2.0000      -0.577465       -15.7136
  42   2.0000      -0.575565       -15.6619
  43   2.0000      -0.547801       -14.9064
  44   2.0000      -0.545270       -14.8376
  45   2.0000      -0.521530       -14.1916
  46   2.0000      -0.519057       -14.1243
  47   2.0000      -0.515068       -14.0157
  48   2.0000      -0.507103       -13.7990
  49   2.0000      -0.499138       -13.5822
  50   2.0000      -0.491866       -13.3843
  51   2.0000      -0.487010       -13.2522
  52   2.0000      -0.467735       -12.7277
  53   2.0000      -0.463693       -12.6177
  54   2.0000      -0.460034       -12.5182
  55   2.0000      -0.450766       -12.2660
  56   2.0000      -0.439344       -11.9552
  57   2.0000      -0.438076       -11.9206
  58   2.0000      -0.435347       -11.8464
  59   2.0000      -0.423033       -11.5113
  60   2.0000      -0.422375       -11.4934
  61   2.0000      -0.417020       -11.3477
  62   2.0000      -0.411994       -11.2109
  63   2.0000      -0.348534        -9.4841
  64   2.0000      -0.334913        -9.1134
  65   2.0000      -0.334240        -9.0951
  66   2.0000      -0.294737        -8.0202
  67   0.0000       0.023377         0.6361
  68   0.0000       0.070079         1.9069
  69   0.0000       0.109274         2.9735
  70   0.0000       0.122790         3.3413
  71   0.0000       0.126221         3.4347

MULLIKEN ATOMIC CHARGES
-----------------------
   0 S :    0.098483
   1 C :   -0.106711
   2 C :   -0.067512
   3 C :    0.025539
   4 C :   -0.149122
   5 H :    0.009708
   6 C :    0.110435
   7 H :    0.008512
   8 H :    0.010242
   9 C :   -0.059100
  10 H :    0.024009
  11 H :    0.015499
  12 C :   -0.073005
  13 H :    0.027641
  14 H :    0.027402
  15 H :    0.035315
  16 S :    0.097520
  17 C :   -0.078549
  18 C :   -0.042392
  19 C :   -0.027402
  20 C :   -0.138964
  21 H :    0.026736
  22 C :    0.018457
  23 H :    0.019875
  24 H :    0.033358
  25 C :   -0.017341
  26 H :    0.000251
  27 H :    0.010839
  28 C :   -0.051535
  29 H :    0.040808
  30 H :    0.031082
  31 H :    0.039728
  32 H :    0.044534
  33 H :    0.055660
Sum of atomic charges:    0.0000000

LOEWDIN ATOMIC CHARGES
----------------------
   0 S :    0.384155
   1 C :   -0.180887
   2 C :   -0.055335
   3 C :   -0.060629
   4 C :   -0.182764
   5 H :    0.033102
   6 C :   -0.025515
   7 H :    0.031882
   8 H :    0.020355
   9 C :   -0.043256
  10 H :    0.028695
  11 H :    0.020822
  12 C :   -0.070746
  13 H :    0.027251
  14 H :    0.029247
  15 H :    0.015469
  16 S :    0.391350
  17 C :   -0.184574
  18 C :   -0.073987
  19 C :   -0.053068
  20 C :   -0.182859
  21 H :    0.034692
  22 C :   -0.031892
  23 H :    0.024852
  24 H :    0.035974
  25 C :   -0.036187
  26 H :    0.010823
  27 H :    0.016442
  28 C :   -0.061836
  29 H :    0.033730
  30 H :    0.022987
  31 H :    0.027968
  32 H :    0.025165
  33 H :    0.028577

  Mayer bond orders larger than 0.100000
B(  0-S ,  1-C ) :   1.1246 B(  0-S ,  4-C ) :   1.1468 B(  1-C ,  2-C ) :   1.6339
B(  1-C , 32-H ) :   0.9705 B(  2-C ,  3-C ) :   1.2326 B(  2-C ,  6-C ) :   1.0113
B(  3-C ,  4-C ) :   1.5681 B(  3-C ,  5-H ) :   0.9899 B(  4-C , 20-C ) :   1.0394
B(  6-C ,  7-H ) :   0.9389 B(  6-C ,  8-H ) :   0.9420 B(  6-C ,  9-C ) :   1.0816
B(  9-C , 10-H ) :   0.9585 B(  9-C , 11-H ) :   0.9444 B(  9-C , 12-C ) :   1.0873
B( 12-C , 13-H ) :   0.9725 B( 12-C , 14-H ) :   0.9733 B( 12-C , 15-H ) :   0.9717
B( 16-S , 17-C ) :   1.1597 B( 16-S , 20-C ) :   1.1248 B( 17-C , 18-C ) :   1.6040
B( 17-C , 33-H ) :   0.9652 B( 18-C , 19-C ) :   1.2465 B( 18-C , 21-H ) :   0.9863
B( 19-C , 20-C ) :   1.6092 B( 19-C , 22-C ) :   1.0321 B( 22-C , 23-H ) :   0.9346
B( 22-C , 24-H ) :   0.9411 B( 22-C , 25-C ) :   1.0668 B( 25-C , 26-H ) :   0.9483
B( 25-C , 27-H ) :   0.9442 B( 25-C , 28-C ) :   1.0860 B( 28-C , 29-H ) :   0.9739
B( 28-C , 30-H ) :   0.9733 B( 28-C , 31-H ) :   0.9744

Dispersion correction           -0.014689393
FINAL SINGLE POINT ENERGY     -1339.880389130228

DIPOLE MOMENT
-------------
                                X             Y             Z
Electronic contribution:     -3.64004      26.03432     -14.19851
Nuclear contribution   :      3.81949     -26.56633      14.56850
                        -----------------------------------------
Total Dipole Moment    :      0.17945      -0.53201       0.36999
                        -----------------------------------------
Magnitude (a.u.)       :      0.67240
Magnitude (Debye)      :      1.70911

Rotational constants in cm-1:     0.015815     0.010185     0.007506
Rotational constants in MHz :   474.135904   305.351489   225.009819

                             ****ORCA TERMINATED NORMALLY****
TOTAL RUN TIME: 0 days 0 hours 0 minutes 36 seconds 227 msec
