                         Program Version 4.2.1 -  RELEASE  -
|  1> ! wB97X-D3 SP def2-SVP
|  2> %pal
|  3> nprocs 16
|  4> end
|  5>
|  6> * xyz 0 1
|  7> S 	 37.0112 	 28.1088 	 54.3316
|  8> C 	 37.0478 	 29.8521 	 54.041
|  9> C 	 36.2518 	 30.5039 	 54.9863
| 10> C 	 35.5801 	 29.4777 	 55.8168
| 11> C 	 35.9162 	 28.1933 	 55.6337
| 12> H 	 34.9261 	 29.753 	 56.6289
| 13> C 	 35.9404 	 31.9909 	 55.0223
| 14> H 	 36.904 	 32.5215 	 54.9713
| 15> H 	 35.6715 	 32.3566 	 55.988
| 16> C 	 34.9541 	 32.616 	 54.0149
| 17> H 	 34.0307 	 32.0438 	 53.967
| 18> H 	 34.5989 	 33.603 	 54.3353
| 19> C 	 35.4639 	 32.7105 	 52.5587
| 20> H 	 35.8608 	 31.7646 	 52.2118
| 21> H 	 34.644 	 32.9422 	 51.8818
| 22> H 	 36.2264 	 33.4758 	 52.5092
| 23> S 	 35.0741 	 25.5911 	 55.5036
| 24> C 	 34.6786 	 24.7644 	 56.969
| 25> C 	 34.8288 	 25.5002 	 58.0905
| 26> C 	 35.2488 	 26.8372 	 57.8168
| 27> C 	 35.3739 	 27.0473 	 56.4043
| 28> H 	 34.5074 	 25.1652 	 59.0697
| 29> C 	 35.4658 	 27.8463 	 58.9228
| 30> H 	 36.1247 	 28.5558 	 58.4727
| 31> H 	 36.0254 	 27.2665 	 59.7081
| 32> C 	 34.1825 	 28.4533 	 59.5202
| 33> H 	 33.4632 	 27.6261 	 59.6801
| 34> H 	 33.6539 	 29.1696 	 58.8322
| 35> C 	 34.5044 	 29.2058 	 60.8928
| 36> H 	 33.5585 	 29.6459 	 61.3441
| 37> H 	 35.2547 	 30.0547 	 60.8349
| 38> H 	 34.8158 	 28.5707 	 61.6228
| 39> H 	 37.4245 	 30.3171 	 53.1118
| 40> H 	 34.3585 	 23.7826 	 56.8258
| 41> *
| 42>
| 43>                          ****END OF INPUT****

CARTESIAN COORDINATES (ANGSTROEM)
---------------------------------
  S     37.011200   28.108800   54.331600
  C     37.047800   29.852100   54.041000
  C     36.251800   30.503900   54.986300
  C     35.580100   29.477700   55.816800
  C     35.916200   28.193300   55.633700
  H     34.926100   29.753000   56.628900
  C     35.940400   31.990900   55.022300
  H     36.904000   32.521500   54.971300
  H     35.671500   32.356600   55.988000
  C     34.954100   32.616000   54.014900
  H     34.030700   32.043800   53.967000
  H     34.598900   33.603000   54.335300
  C     35.463900   32.710500   52.558700
  H     35.860800   31.764600   52.211800
  H     34.644000   32.942200   51.881800
  H     36.226400   33.475800   52.509200
  S     35.074100   25.591100   55.503600
  C     34.678600   24.764400   56.969000
  C     34.828800   25.500200   58.090500
  C     35.248800   26.837200   57.816800
  C     35.373900   27.047300   56.404300
  H     34.507400   25.165200   59.069700
  C     35.465800   27.846300   58.922800
  H     36.124700   28.555800   58.472700
  H     36.025400   27.266500   59.708100
  C     34.182500   28.453300   59.520200
  H     33.463200   27.626100   59.680100
  H     33.653900   29.169600   58.832200
  C     34.504400   29.205800   60.892800
  H     33.558500   29.645900   61.344100
  H     35.254700   30.054700   60.834900
  H     34.815800   28.570700   61.622800
  H     37.424500   30.317100   53.111800
  H     34.358500   23.782600   56.825800

 Total Charge           Charge          ....    0
 Multiplicity           Mult            ....    1
 Number of Electrons    NEL             ....  134
 Basis Dimension        Dim             ....  322

ORBITAL ENERGIES
----------------

  NO   OCC          E(Eh)            E(eV)
   0   2.0000     -88.966356     -2420.8976
   1   2.0000     -88.962420     -2420.7905
   2   2.0000     -10.331904      -281.1454
   3   2.0000     -10.324093      -280.9329
   4   2.0000     -10.319460      -280.8068
   5   2.0000     -10.311945      -280.6023
   6   2.0000     -10.309311      -280.5306
   7   2.0000     -10.308510      -280.5088
   8   2.0000     -10.302372      -280.3418
   9   2.0000     -10.294927      -280.1392
  10   2.0000     -10.293944      -280.1124
  11   2.0000     -10.293499      -280.1003
  12   2.0000     -10.288576      -279.9664
  13   2.0000     -10.288410      -279.9619
  14   2.0000     -10.285558      -279.8843
  15   2.0000     -10.275909      -279.6217
  16   2.0000      -8.082074      -219.9244
  17   2.0000      -8.077827      -219.8089
  18   2.0000      -6.040362      -164.3666
  19   2.0000      -6.036464      -164.2605
  20   2.0000      -6.036455      -164.2603
  21   2.0000      -6.033014      -164.1666
  22   2.0000      -6.032137      -164.1428
  23   2.0000      -6.028497      -164.0438
  24   2.0000      -1.009643       -27.4738
  25   2.0000      -0.987421       -26.8691
  26   2.0000      -0.909078       -24.7373
  27   2.0000      -0.907062       -24.6824
  28   2.0000      -0.868699       -23.6385
  29   2.0000      -0.849718       -23.1220
  30   2.0000      -0.841616       -22.9015
  31   2.0000      -0.816143       -22.2084
  32   2.0000      -0.786372       -21.3983
  33   2.0000      -0.775393       -21.0995
  34   2.0000      -0.709135       -19.2965
  35   2.0000      -0.701440       -19.0871
  36   2.0000      -0.692853       -18.8535
  37   2.0000      -0.663705       -18.0603
  38   2.0000      -0.640311       -17.4238
  39   2.0000      -0.618607       -16.8332
  40   2.0000      -0.601825       -16.3765
  41   2.0000      -0.573726       -15.6119
  42   2.0000      -0.561172       -15.2703
  43   2.0000      -0.541323       -14.7301
  44   2.0000      -0.540804       -14.7160
  45   2.0000      -0.521360       -14.1869
  46   2.0000      -0.520684       -14.1685
  47   2.0000      -0.514500       -14.0003
  48   2.0000      -0.503811       -13.7094
  49   2.0000      -0.497005       -13.5242
  50   2.0000      -0.491793       -13.3824
  51   2.0000      -0.478232       -13.0134
  52   2.0000      -0.470861       -12.8128
  53   2.0000      -0.463852       -12.6221
  54   2.0000      -0.458526       -12.4771
  55   2.0000      -0.454599       -12.3703
  56   2.0000      -0.444364       -12.0917
  57   2.0000      -0.441408       -12.0113
  58   2.0000      -0.434071       -11.8117
  59   2.0000      -0.427224       -11.6254
  60   2.0000      -0.423051       -11.5118
  61   2.0000      -0.413888       -11.2625
  62   2.0000      -0.412561       -11.2264
  63   2.0000      -0.352092        -9.5809
  64   2.0000      -0.334462        -9.1012
  65   2.0000      -0.326032        -8.8718
  66   2.0000      -0.294169        -8.0047
  67   0.0000       0.030769         0.8373
  68   0.0000       0.077090         2.0977
  69   0.0000       0.109421         2.9775
  70   0.0000       0.119898         3.2626
  71   0.0000       0.130356         3.5472

MULLIKEN ATOMIC CHARGES
-----------------------
   0 S :    0.097523
   1 C :   -0.143277
   2 C :   -0.082814
   3 C :   -0.001070
   4 C :   -0.098157
   5 H :   -0.005790
   6 C :    0.074560
   7 H :    0.023361
   8 H :    0.006480
   9 C :   -0.056707
  10 H :    0.025433
  11 H :    0.026085
  12 C :   -0.051079
  13 H :    0.022668
  14 H :    0.034029
  15 H :    0.028469
  16 S :    0.103436
  17 C :   -0.072689
  18 C :   -0.002914
  19 C :   -0.067084
  20 C :   -0.160202
  21 H :    0.019512
  22 C :    0.069945
  23 H :    0.026364
  24 H :    0.036137
  25 C :   -0.079241
  26 H :    0.032732
  27 H :    0.046858
  28 C :   -0.058040
  29 H :    0.036978
  30 H :    0.046068
  31 H :    0.013897
  32 H :    0.071521
  33 H :    0.037009
Sum of atomic charges:    0.0000000

LOEWDIN ATOMIC CHARGES
----------------------
   0 S :    0.407653
   1 C :   -0.197389
   2 C :   -0.057267
   3 C :   -0.072584
   4 C :   -0.213232
   5 H :    0.024021
   6 C :   -0.041165
   7 H :    0.036586
   8 H :    0.028474
   9 C :   -0.037460
  10 H :    0.024124
  11 H :    0.025630
  12 C :   -0.063527
  13 H :    0.020143
  14 H :    0.028241
  15 H :    0.020821
  16 S :    0.421428
  17 C :   -0.171175
  18 C :   -0.071656
  19 C :   -0.047719
  20 C :   -0.200624
  21 H :    0.033473
  22 C :   -0.035576
  23 H :    0.027361
  24 H :    0.039946
  25 C :   -0.037750
  26 H :    0.027028
  27 H :    0.029010
  28 C :   -0.069201
  29 H :    0.033249
  30 H :    0.033571
  31 H :    0.007335
  32 H :    0.035075
  33 H :    0.013159

  Mayer bond orders larger than 0.100000
B(  0-S ,  1-C ) :   1.1372 B(  0-S ,  4-C ) :   1.1367 B(  1-C ,  2-C ) :   1.6045
B(  1-C , 32-H ) :   0.9623 B(  2-C ,  3-C ) :   1.2314 B(  2-C ,  6-C ) :   1.0324
B(  3-C ,  4-C ) :   1.5937 B(  3-C ,  5-H ) :   0.9993 B(  4-C , 20-C ) :   1.0267
B(  6-C ,  7-H ) :   0.9369 B(  6-C ,  8-H ) :   0.9346 B(  6-C ,  9-C ) :   1.0648
B(  9-C , 10-H ) :   0.9572 B(  9-C , 11-H ) :   0.9544 B(  9-C , 12-C ) :   1.0805
B( 12-C , 13-H ) :   0.9739 B( 12-C , 14-H ) :   0.9725 B( 12-C , 15-H ) :   0.9783
B( 16-S , 17-C ) :   1.1732 B( 16-S , 20-C ) :   1.1562 B( 17-C , 18-C ) :   1.5814
B( 17-C , 33-H ) :   0.9786 B( 18-C , 19-C ) :   1.2569 B( 18-C , 21-H ) :   0.9918
B( 19-C , 20-C ) :   1.5646 B( 19-C , 22-C ) :   1.0423 B( 22-C , 23-H ) :   0.9247
B( 22-C , 24-H ) :   0.9380 B( 22-C , 25-C ) :   1.0563 B( 25-C , 26-H ) :   0.9572
B( 25-C , 27-H ) :   0.9549 B( 25-C , 28-C ) :   1.0661 B( 28-C , 29-H ) :   0.9757
B( 28-C , 30-H ) :   0.9773 B( 28-C , 31-H ) :   0.9780

Dispersion correction           -0.013960090
FINAL SINGLE POINT ENERGY     -1339.878597794058

DIPOLE MOMENT
-------------
                                X             Y             Z
Electronic contribution:      6.82011     -24.29509     -11.04247
Nuclear contribution   :     -7.15861      24.65950      11.50885
                        -----------------------------------------
Total Dipole Moment    :     -0.33850       0.36441       0.46638
                        -----------------------------------------
Magnitude (a.u.)       :      0.68182
Magnitude (Debye)      :      1.73306

Rotational constants in cm-1:     0.018187     0.008353     0.006209
Rotational constants in MHz :   545.225908   250.403034   186.139478

                             ****ORCA TERMINATED NORMALLY****
TOTAL RUN TIME: 0 days 0 hours 0 minutes 33 seconds 979 msec
