                         Program Version 4.2.1 -  RELEASE  -
|  1> ! wB97X-D3 SP def2-SVP
|  2> %pal
|  3> nprocs 16
|  4> end
|  5>
|  6> * xyz 0 1
|  7> S 	 47.7608 	 5.65385 	 86.6811
|  8> C 	 47.9209 	 4.95755 	 85.038
|  9> C 	 47.3057 	 3.70545 	 85.0107
| 10> C 	 46.7079 	 3.36362 	 86.2486
| 11> C 	 46.8799 	 4.25758 	 87.2969
| 12> H 	 46.0523 	 2.47457 	 86.3598
| 13> C 	 46.9917 	 2.93249 	 83.7368
| 14> H 	 47.5614 	 3.32709 	 82.8984
| 15> H 	 45.9 	 3.01588 	 83.6359
| 16> C 	 47.3099 	 1.49159 	 83.9013
| 17> H 	 46.6289 	 1.09384 	 84.6555
| 18> H 	 47.0188 	 0.981855 	 82.9575
| 19> C 	 48.6967 	 1.09778 	 84.2831
| 20> H 	 48.7586 	 -0.00799551 	 84.307
| 21> H 	 49.392 	 1.46506 	 83.5052
| 22> H 	 49.1651 	 1.42996 	 85.2245
| 23> S 	 45.6975 	 5.59088 	 89.3187
| 24> C 	 45.4255 	 4.62365 	 90.7532
| 25> C 	 46.0847 	 3.40863 	 90.7395
| 26> C 	 46.576 	 3.03094 	 89.4548
| 27> C 	 46.3662 	 4.10925 	 88.6125
| 28> H 	 46.0628 	 2.84602 	 91.7022
| 29> C 	 47.1868 	 1.72693 	 89.1357
| 30> H 	 46.4673 	 1.31336 	 88.3875
| 31> H 	 47.1681 	 1.17078 	 90.05
| 32> C 	 48.698 	 1.66166 	 88.5934
| 33> H 	 48.8197 	 2.33173 	 87.7694
| 34> H 	 48.8876 	 0.700148 	 88.2148
| 35> C 	 49.7433 	 2.27441 	 89.5965
| 36> H 	 50.5317 	 2.66959 	 88.9441
| 37> H 	 50.1131 	 1.61087 	 90.4097
| 38> H 	 49.3964 	 3.16916 	 90.1075
| 39> H 	 48.3195 	 5.40232 	 84.1039
| 40> H 	 44.965 	 5.09344 	 91.6427
| 41> *
| 42>
| 43>                          ****END OF INPUT****

CARTESIAN COORDINATES (ANGSTROEM)
---------------------------------
  S     47.760800    5.653850   86.681100
  C     47.920900    4.957550   85.038000
  C     47.305700    3.705450   85.010700
  C     46.707900    3.363620   86.248600
  C     46.879900    4.257580   87.296900
  H     46.052300    2.474570   86.359800
  C     46.991700    2.932490   83.736800
  H     47.561400    3.327090   82.898400
  H     45.900000    3.015880   83.635900
  C     47.309900    1.491590   83.901300
  H     46.628900    1.093840   84.655500
  H     47.018800    0.981855   82.957500
  C     48.696700    1.097780   84.283100
  H     48.758600   -0.007996   84.307000
  H     49.392000    1.465060   83.505200
  H     49.165100    1.429960   85.224500
  S     45.697500    5.590880   89.318700
  C     45.425500    4.623650   90.753200
  C     46.084700    3.408630   90.739500
  C     46.576000    3.030940   89.454800
  C     46.366200    4.109250   88.612500
  H     46.062800    2.846020   91.702200
  C     47.186800    1.726930   89.135700
  H     46.467300    1.313360   88.387500
  H     47.168100    1.170780   90.050000
  C     48.698000    1.661660   88.593400
  H     48.819700    2.331730   87.769400
  H     48.887600    0.700148   88.214800
  C     49.743300    2.274410   89.596500
  H     50.531700    2.669590   88.944100
  H     50.113100    1.610870   90.409700
  H     49.396400    3.169160   90.107500
  H     48.319500    5.402320   84.103900
  H     44.965000    5.093440   91.642700

 Total Charge           Charge          ....    0
 Multiplicity           Mult            ....    1
 Number of Electrons    NEL             ....  134
 Basis Dimension        Dim             ....  322

ORBITAL ENERGIES
----------------

  NO   OCC          E(Eh)            E(eV)
   0   2.0000     -88.969064     -2420.9713
   1   2.0000     -88.966081     -2420.8901
   2   2.0000     -10.325979      -280.9842
   3   2.0000     -10.323422      -280.9146
   4   2.0000     -10.319284      -280.8020
   5   2.0000     -10.316749      -280.7330
   6   2.0000     -10.306601      -280.4569
   7   2.0000     -10.299336      -280.2592
   8   2.0000     -10.297283      -280.2033
   9   2.0000     -10.296912      -280.1932
  10   2.0000     -10.290468      -280.0179
  11   2.0000     -10.289844      -280.0009
  12   2.0000     -10.286376      -279.9065
  13   2.0000     -10.282870      -279.8111
  14   2.0000     -10.279132      -279.7094
  15   2.0000     -10.278125      -279.6820
  16   2.0000      -8.083744      -219.9699
  17   2.0000      -8.079561      -219.8560
  18   2.0000      -6.042026      -164.4119
  19   2.0000      -6.038664      -164.3204
  20   2.0000      -6.038291      -164.3103
  21   2.0000      -6.034337      -164.2027
  22   2.0000      -6.034192      -164.1987
  23   2.0000      -6.030208      -164.0903
  24   2.0000      -1.008127       -27.4325
  25   2.0000      -0.980020       -26.6677
  26   2.0000      -0.920964       -25.0607
  27   2.0000      -0.905401       -24.6372
  28   2.0000      -0.869517       -23.6608
  29   2.0000      -0.852433       -23.1959
  30   2.0000      -0.839608       -22.8469
  31   2.0000      -0.809564       -22.0294
  32   2.0000      -0.787161       -21.4197
  33   2.0000      -0.774001       -21.0616
  34   2.0000      -0.715791       -19.4777
  35   2.0000      -0.696658       -18.9570
  36   2.0000      -0.688332       -18.7305
  37   2.0000      -0.660377       -17.9698
  38   2.0000      -0.630293       -17.1511
  39   2.0000      -0.619501       -16.8575
  40   2.0000      -0.589631       -16.0447
  41   2.0000      -0.563694       -15.3389
  42   2.0000      -0.559886       -15.2353
  43   2.0000      -0.550847       -14.9893
  44   2.0000      -0.542149       -14.7526
  45   2.0000      -0.537400       -14.6234
  46   2.0000      -0.522693       -14.2232
  47   2.0000      -0.509349       -13.8601
  48   2.0000      -0.495753       -13.4901
  49   2.0000      -0.492244       -13.3946
  50   2.0000      -0.486781       -13.2460
  51   2.0000      -0.481271       -13.0960
  52   2.0000      -0.472177       -12.8486
  53   2.0000      -0.469403       -12.7731
  54   2.0000      -0.452672       -12.3178
  55   2.0000      -0.450088       -12.2475
  56   2.0000      -0.441136       -12.0039
  57   2.0000      -0.438873       -11.9423
  58   2.0000      -0.435352       -11.8465
  59   2.0000      -0.423564       -11.5258
  60   2.0000      -0.417911       -11.3719
  61   2.0000      -0.415802       -11.3145
  62   2.0000      -0.407228       -11.0812
  63   2.0000      -0.347121        -9.4457
  64   2.0000      -0.335133        -9.1194
  65   2.0000      -0.328268        -8.9326
  66   2.0000      -0.282602        -7.6900
  67   0.0000       0.021772         0.5924
  68   0.0000       0.067285         1.8309
  69   0.0000       0.102329         2.7845
  70   0.0000       0.123021         3.3476
  71   0.0000       0.124432         3.3860

MULLIKEN ATOMIC CHARGES
-----------------------
   0 S :    0.097911
   1 C :   -0.141486
   2 C :   -0.094228
   3 C :   -0.028065
   4 C :   -0.130550
   5 H :    0.022812
   6 C :    0.105971
   7 H :    0.013626
   8 H :    0.047531
   9 C :   -0.093355
  10 H :    0.018139
  11 H :    0.030596
  12 C :   -0.058216
  13 H :    0.034932
  14 H :    0.023834
  15 H :    0.041898
  16 S :    0.111067
  17 C :   -0.103108
  18 C :   -0.053834
  19 C :   -0.043195
  20 C :   -0.166729
  21 H :    0.034322
  22 C :    0.076219
  23 H :    0.047922
  24 H :    0.016241
  25 C :   -0.038553
  26 H :    0.047783
  27 H :    0.023570
  28 C :   -0.079059
  29 H :    0.036710
  30 H :    0.042214
  31 H :    0.036479
  32 H :    0.057100
  33 H :    0.063500
Sum of atomic charges:   -0.0000000

LOEWDIN ATOMIC CHARGES
----------------------
   0 S :    0.378473
   1 C :   -0.204254
   2 C :   -0.065365
   3 C :   -0.079077
   4 C :   -0.189506
   5 H :    0.031287
   6 C :   -0.025697
   7 H :    0.026270
   8 H :    0.042281
   9 C :   -0.053173
  10 H :    0.019513
  11 H :    0.029771
  12 C :   -0.072421
  13 H :    0.031063
  14 H :    0.025748
  15 H :    0.027814
  16 S :    0.395668
  17 C :   -0.185484
  18 C :   -0.073510
  19 C :   -0.048576
  20 C :   -0.189277
  21 H :    0.039858
  22 C :   -0.031558
  23 H :    0.042521
  24 H :    0.028501
  25 C :   -0.026127
  26 H :    0.024507
  27 H :    0.018327
  28 C :   -0.070911
  29 H :    0.031676
  30 H :    0.025312
  31 H :    0.027846
  32 H :    0.038108
  33 H :    0.030393

  Mayer bond orders larger than 0.100000
B(  0-S ,  1-C ) :   1.1148 B(  0-S ,  4-C ) :   1.1325 B(  1-C ,  2-C ) :   1.6097
B(  1-C , 32-H ) :   0.9621 B(  2-C ,  3-C ) :   1.2462 B(  2-C ,  6-C ) :   1.0249
B(  3-C ,  4-C ) :   1.5627 B(  3-C ,  5-H ) :   0.9859 B(  4-C , 20-C ) :   1.0947
B(  6-C ,  7-H ) :   0.9372 B(  6-C ,  8-H ) :   0.9388 B(  6-C ,  9-C ) :   1.0850
B(  9-C , 10-H ) :   0.9471 B(  9-C , 11-H ) :   0.9493 B(  9-C , 12-C ) :   1.0852
B( 12-C , 13-H ) :   0.9705 B( 12-C , 14-H ) :   0.9706 B( 12-C , 15-H ) :   0.9685
B( 16-S , 17-C ) :   1.1427 B( 16-S , 20-C ) :   1.1330 B( 17-C , 18-C ) :   1.6344
B( 17-C , 33-H ) :   0.9631 B( 18-C , 19-C ) :   1.2157 B( 18-C , 21-H ) :   0.9814
B( 19-C , 20-C ) :   1.5736 B( 19-C , 22-C ) :   1.0359 B( 22-C , 23-H ) :   0.9269
B( 22-C , 24-H ) :   0.9307 B( 22-C , 25-C ) :   1.0598 B( 25-C , 26-H ) :   0.9589
B( 25-C , 27-H ) :   0.9587 B( 25-C , 28-C ) :   1.0563 B( 28-C , 29-H ) :   0.9804
B( 28-C , 30-H ) :   0.9774 B( 28-C , 31-H ) :   0.9750

Dispersion correction           -0.016349344
FINAL SINGLE POINT ENERGY     -1339.869004396112

DIPOLE MOMENT
-------------
                                X             Y             Z
Electronic contribution:    -11.30145      23.48934       8.83811
Nuclear contribution   :     11.27807     -24.07964      -8.89782
                        -----------------------------------------
Total Dipole Moment    :     -0.02339      -0.59030      -0.05971
                        -----------------------------------------
Magnitude (a.u.)       :      0.59377
Magnitude (Debye)      :      1.50925

Rotational constants in cm-1:     0.020045     0.010123     0.008104
Rotational constants in MHz :   600.924543   303.494179   242.939368

                             ****ORCA TERMINATED NORMALLY****
TOTAL RUN TIME: 0 days 0 hours 0 minutes 33 seconds 40 msec
