                         Program Version 4.2.1 -  RELEASE  -
|  1> ! wB97X-D3 SP def2-SVP
|  2> %pal
|  3> nprocs 16
|  4> end
|  5>
|  6> * xyz 0 1
|  7> S 	 34.2867 	 17.4695 	 62.5239
|  8> C 	 33.7888 	 18.1957 	 64.0214
|  9> C 	 34.5748 	 17.8141 	 65.1102
| 10> C 	 35.6076 	 16.9432 	 64.6937
| 11> C 	 35.5852 	 16.6141 	 63.3495
| 12> H 	 36.3352 	 16.5196 	 65.3487
| 13> C 	 34.4035 	 18.2776 	 66.5475
| 14> H 	 33.4982 	 18.9127 	 66.6208
| 15> H 	 35.2041 	 18.9322 	 66.8156
| 16> C 	 34.2678 	 17.1919 	 67.5778
| 17> H 	 33.3588 	 16.6043 	 67.3312
| 18> H 	 35.1693 	 16.4842 	 67.4228
| 19> C 	 34.0572 	 17.6699 	 69.0416
| 20> H 	 33.0111 	 18.0851 	 69.1008
| 21> H 	 34.147 	 16.8605 	 69.7599
| 22> H 	 34.7097 	 18.4185 	 69.3553
| 23> S 	 37.3345 	 16.703 	 61.2111
| 24> C 	 38.723 	 15.5541 	 61.1655
| 25> C 	 38.5957 	 14.6549 	 62.1948
| 26> C 	 37.4549 	 14.8368 	 63.0249
| 27> C 	 36.656 	 15.9271 	 62.6192
| 28> H 	 39.4407 	 13.937 	 62.1989
| 29> C 	 37.0543 	 13.9186 	 64.1038
| 30> H 	 36.0107 	 14.0429 	 64.4752
| 31> H 	 37.6447 	 14.2778 	 65.0159
| 32> C 	 37.2965 	 12.4386 	 63.7393
| 33> H 	 37.57 	 12.0605 	 64.6693
| 34> H 	 38.2545 	 12.3412 	 63.2576
| 35> C 	 36.1888 	 11.6033 	 63.0988
| 36> H 	 36.1931 	 11.9468 	 62.0977
| 37> H 	 35.258 	 11.7836 	 63.6314
| 38> H 	 36.3486 	 10.6041 	 63.1402
| 39> H 	 33.1732 	 19.0353 	 64.2092
| 40> H 	 39.5787 	 15.6064 	 60.5318
| 41> *
| 42>
| 43>                          ****END OF INPUT****

CARTESIAN COORDINATES (ANGSTROEM)
---------------------------------
  S     34.286700   17.469500   62.523900
  C     33.788800   18.195700   64.021400
  C     34.574800   17.814100   65.110200
  C     35.607600   16.943200   64.693700
  C     35.585200   16.614100   63.349500
  H     36.335200   16.519600   65.348700
  C     34.403500   18.277600   66.547500
  H     33.498200   18.912700   66.620800
  H     35.204100   18.932200   66.815600
  C     34.267800   17.191900   67.577800
  H     33.358800   16.604300   67.331200
  H     35.169300   16.484200   67.422800
  C     34.057200   17.669900   69.041600
  H     33.011100   18.085100   69.100800
  H     34.147000   16.860500   69.759900
  H     34.709700   18.418500   69.355300
  S     37.334500   16.703000   61.211100
  C     38.723000   15.554100   61.165500
  C     38.595700   14.654900   62.194800
  C     37.454900   14.836800   63.024900
  C     36.656000   15.927100   62.619200
  H     39.440700   13.937000   62.198900
  C     37.054300   13.918600   64.103800
  H     36.010700   14.042900   64.475200
  H     37.644700   14.277800   65.015900
  C     37.296500   12.438600   63.739300
  H     37.570000   12.060500   64.669300
  H     38.254500   12.341200   63.257600
  C     36.188800   11.603300   63.098800
  H     36.193100   11.946800   62.097700
  H     35.258000   11.783600   63.631400
  H     36.348600   10.604100   63.140200
  H     33.173200   19.035300   64.209200
  H     39.578700   15.606400   60.531800

 Total Charge           Charge          ....    0
 Multiplicity           Mult            ....    1
 Number of Electrons    NEL             ....  134
 Basis Dimension        Dim             ....  322

ORBITAL ENERGIES
----------------

  NO   OCC          E(Eh)            E(eV)
   0   2.0000     -88.970898     -2421.0212
   1   2.0000     -88.962851     -2420.8023
   2   2.0000     -10.331612      -281.1374
   3   2.0000     -10.327458      -281.0244
   4   2.0000     -10.317930      -280.7652
   5   2.0000     -10.310626      -280.5664
   6   2.0000     -10.302239      -280.3382
   7   2.0000     -10.300248      -280.2840
   8   2.0000     -10.297055      -280.1971
   9   2.0000     -10.295947      -280.1670
  10   2.0000     -10.294965      -280.1402
  11   2.0000     -10.292069      -280.0614
  12   2.0000     -10.291761      -280.0531
  13   2.0000     -10.282156      -279.7917
  14   2.0000     -10.274982      -279.5965
  15   2.0000     -10.266071      -279.3540
  16   2.0000      -8.085258      -220.0110
  17   2.0000      -8.076913      -219.7840
  18   2.0000      -6.043762      -164.4591
  19   2.0000      -6.039808      -164.3515
  20   2.0000      -6.036064      -164.2496
  21   2.0000      -6.035461      -164.2332
  22   2.0000      -6.031468      -164.1246
  23   2.0000      -6.027701      -164.0221
  24   2.0000      -1.005191       -27.3526
  25   2.0000      -0.981905       -26.7190
  26   2.0000      -0.914471       -24.8840
  27   2.0000      -0.909641       -24.7526
  28   2.0000      -0.870213       -23.6797
  29   2.0000      -0.853461       -23.2238
  30   2.0000      -0.845942       -23.0193
  31   2.0000      -0.818514       -22.2729
  32   2.0000      -0.785579       -21.3767
  33   2.0000      -0.774955       -21.0876
  34   2.0000      -0.712735       -19.3945
  35   2.0000      -0.703950       -19.1554
  36   2.0000      -0.692864       -18.8538
  37   2.0000      -0.649893       -17.6845
  38   2.0000      -0.639387       -17.3986
  39   2.0000      -0.625392       -17.0178
  40   2.0000      -0.600988       -16.3537
  41   2.0000      -0.572608       -15.5814
  42   2.0000      -0.562625       -15.3098
  43   2.0000      -0.559559       -15.2264
  44   2.0000      -0.532476       -14.4894
  45   2.0000      -0.527315       -14.3490
  46   2.0000      -0.523163       -14.2360
  47   2.0000      -0.510619       -13.8947
  48   2.0000      -0.501749       -13.6533
  49   2.0000      -0.496628       -13.5139
  50   2.0000      -0.492011       -13.3883
  51   2.0000      -0.481317       -13.0973
  52   2.0000      -0.474872       -12.9219
  53   2.0000      -0.465206       -12.6589
  54   2.0000      -0.462875       -12.5955
  55   2.0000      -0.452777       -12.3207
  56   2.0000      -0.444775       -12.1029
  57   2.0000      -0.439357       -11.9555
  58   2.0000      -0.433488       -11.7958
  59   2.0000      -0.427498       -11.6328
  60   2.0000      -0.424576       -11.5533
  61   2.0000      -0.414682       -11.2841
  62   2.0000      -0.398345       -10.8395
  63   2.0000      -0.352753        -9.5989
  64   2.0000      -0.334649        -9.1063
  65   2.0000      -0.324865        -8.8400
  66   2.0000      -0.285744        -7.7755
  67   0.0000       0.024033         0.6540
  68   0.0000       0.074308         2.0220
  69   0.0000       0.108857         2.9622
  70   0.0000       0.123362         3.3569
  71   0.0000       0.132446         3.6040

MULLIKEN ATOMIC CHARGES
-----------------------
   0 S :    0.118733
   1 C :   -0.080871
   2 C :   -0.109676
   3 C :    0.029717
   4 C :   -0.150863
   5 H :    0.001247
   6 C :    0.094088
   7 H :    0.009128
   8 H :    0.029531
   9 C :   -0.136496
  10 H :    0.039125
  11 H :    0.037346
  12 C :   -0.023287
  13 H :    0.036926
  14 H :    0.038214
  15 H :    0.018800
  16 S :    0.088126
  17 C :   -0.099421
  18 C :   -0.055528
  19 C :   -0.025472
  20 C :   -0.118431
  21 H :    0.036075
  22 C :   -0.000961
  23 H :    0.035045
  24 H :    0.044673
  25 C :   -0.054135
  26 H :   -0.009496
  27 H :    0.007288
  28 C :    0.048413
  29 H :    0.033065
  30 H :    0.026277
  31 H :    0.013963
  32 H :    0.030433
  33 H :    0.048424
Sum of atomic charges:   -0.0000000

LOEWDIN ATOMIC CHARGES
----------------------
   0 S :    0.412505
   1 C :   -0.201246
   2 C :   -0.058632
   3 C :   -0.056122
   4 C :   -0.189148
   5 H :    0.025038
   6 C :   -0.035169
   7 H :    0.029253
   8 H :    0.028127
   9 C :   -0.048874
  10 H :    0.029623
  11 H :    0.026065
  12 C :   -0.061139
  13 H :    0.034127
  14 H :    0.029345
  15 H :    0.013729
  16 S :    0.382263
  17 C :   -0.168275
  18 C :   -0.076394
  19 C :   -0.065325
  20 C :   -0.199371
  21 H :    0.040278
  22 C :   -0.038641
  23 H :    0.034530
  24 H :    0.039946
  25 C :   -0.039280
  26 H :    0.014277
  27 H :    0.019696
  28 C :   -0.042990
  29 H :    0.027995
  30 H :    0.029304
  31 H :    0.014268
  32 H :    0.023421
  33 H :    0.026815

  Mayer bond orders larger than 0.100000
B(  0-S ,  1-C ) :   1.1398 B(  0-S ,  4-C ) :   1.1470 B(  1-C ,  2-C ) :   1.6199
B(  1-C , 32-H ) :   0.9587 B(  2-C ,  3-C ) :   1.2620 B(  2-C ,  6-C ) :   1.0238
B(  3-C ,  4-C ) :   1.5550 B(  3-C ,  5-H ) :   0.9914 B(  4-C , 20-C ) :   1.0483
B(  6-C ,  7-H ) :   0.9370 B(  6-C ,  8-H ) :   0.9329 B(  6-C ,  9-C ) :   1.0620
B(  9-C , 10-H ) :   0.9570 B(  9-C , 11-H ) :   0.9551 B(  9-C , 12-C ) :   1.0756
B( 12-C , 13-H ) :   0.9736 B( 12-C , 14-H ) :   0.9746 B( 12-C , 15-H ) :   0.9774
B( 16-S , 17-C ) :   1.1401 B( 16-S , 20-C ) :   1.1379 B( 17-C , 18-C ) :   1.6346
B( 17-C , 33-H ) :   0.9688 B( 18-C , 19-C ) :   1.2217 B( 18-C , 21-H ) :   0.9817
B( 19-C , 20-C ) :   1.5717 B( 19-C , 22-C ) :   1.0519 B( 22-C , 23-H ) :   0.9394
B( 22-C , 24-H ) :   0.9240 B( 22-C , 25-C ) :   1.0627 B( 25-C , 26-H ) :   0.9406
B( 25-C , 27-H ) :   0.9513 B( 25-C , 28-C ) :   1.0719 B( 28-C , 29-H ) :   0.9760
B( 28-C , 30-H ) :   0.9707 B( 28-C , 31-H ) :   0.9714

Dispersion correction           -0.013755568
FINAL SINGLE POINT ENERGY     -1339.862898308026

DIPOLE MOMENT
-------------
                                X             Y             Z
Electronic contribution:      2.36516      12.67516     -25.13722
Nuclear contribution   :     -2.07146     -12.88983      25.85609
                        -----------------------------------------
Total Dipole Moment    :      0.29370      -0.21466       0.71886
                        -----------------------------------------
Magnitude (a.u.)       :      0.80567
Magnitude (Debye)      :      2.04785

Rotational constants in cm-1:     0.018009     0.008250     0.006525
Rotational constants in MHz :   539.892719   247.327791   195.609833

                             ****ORCA TERMINATED NORMALLY****
TOTAL RUN TIME: 0 days 0 hours 0 minutes 29 seconds 399 msec
