                         Program Version 4.2.1 -  RELEASE  -
|  1> ! wB97X-D3 SP def2-SVP
|  2> %pal
|  3> nprocs 16
|  4> end
|  5>
|  6> * xyz 0 1
|  7> S 	 -33.1472 	 29.0777 	 42.8353
|  8> C 	 -31.9408 	 27.7934 	 42.6551
|  9> C 	 -30.7131 	 28.1852 	 43.0764
| 10> C 	 -30.7602 	 29.4785 	 43.7014
| 11> C 	 -32.0431 	 30.066 	 43.7858
| 12> H 	 -29.8571 	 30.0048 	 44.0701
| 13> C 	 -29.3432 	 27.4473 	 42.9119
| 14> H 	 -29.3464 	 26.4231 	 43.3867
| 15> H 	 -28.52 	 28.0136 	 43.3351
| 16> C 	 -28.9202 	 27.3189 	 41.4136
| 17> H 	 -29.6912 	 26.6938 	 40.9188
| 18> H 	 -29.0859 	 28.3229 	 40.8754
| 19> C 	 -27.5547 	 26.6574 	 41.192
| 20> H 	 -27.5252 	 26.0465 	 40.2347
| 21> H 	 -26.7531 	 27.4325 	 41.2918
| 22> H 	 -27.3143 	 26.0294 	 42.043
| 23> S 	 -33.59 	 31.5981 	 45.5852
| 24> C 	 -33.5158 	 33.3321 	 45.2946
| 25> C 	 -32.4977 	 33.7143 	 44.46
| 26> C 	 -31.8767 	 32.5782 	 43.7874
| 27> C 	 -32.3539 	 31.3826 	 44.3382
| 28> H 	 -32.2237 	 34.689 	 44.2189
| 29> C 	 -30.8065 	 32.8138 	 42.7641
| 30> H 	 -31.2835 	 33.1185 	 41.7998
| 31> H 	 -30.3649 	 31.8798 	 42.5592
| 32> C 	 -29.6555 	 33.8469 	 43.1309
| 33> H 	 -30.1228 	 34.7814 	 43.3129
| 34> H 	 -29.0579 	 33.7573 	 42.1806
| 35> C 	 -28.6662 	 33.6069 	 44.2018
| 36> H 	 -28.2657 	 32.6756 	 43.9484
| 37> H 	 -29.1027 	 33.6939 	 45.1775
| 38> H 	 -27.9146 	 34.3532 	 44.2324
| 39> H 	 -32.1144 	 26.8788 	 42.1569
| 40> H 	 -34.2381 	 34.0193 	 45.7394
| 41> *
| 42>
| 43>                          ****END OF INPUT****

CARTESIAN COORDINATES (ANGSTROEM)
---------------------------------
  S    -33.147200   29.077700   42.835300
  C    -31.940800   27.793400   42.655100
  C    -30.713100   28.185200   43.076400
  C    -30.760200   29.478500   43.701400
  C    -32.043100   30.066000   43.785800
  H    -29.857100   30.004800   44.070100
  C    -29.343200   27.447300   42.911900
  H    -29.346400   26.423100   43.386700
  H    -28.520000   28.013600   43.335100
  C    -28.920200   27.318900   41.413600
  H    -29.691200   26.693800   40.918800
  H    -29.085900   28.322900   40.875400
  C    -27.554700   26.657400   41.192000
  H    -27.525200   26.046500   40.234700
  H    -26.753100   27.432500   41.291800
  H    -27.314300   26.029400   42.043000
  S    -33.590000   31.598100   45.585200
  C    -33.515800   33.332100   45.294600
  C    -32.497700   33.714300   44.460000
  C    -31.876700   32.578200   43.787400
  C    -32.353900   31.382600   44.338200
  H    -32.223700   34.689000   44.218900
  C    -30.806500   32.813800   42.764100
  H    -31.283500   33.118500   41.799800
  H    -30.364900   31.879800   42.559200
  C    -29.655500   33.846900   43.130900
  H    -30.122800   34.781400   43.312900
  H    -29.057900   33.757300   42.180600
  C    -28.666200   33.606900   44.201800
  H    -28.265700   32.675600   43.948400
  H    -29.102700   33.693900   45.177500
  H    -27.914600   34.353200   44.232400
  H    -32.114400   26.878800   42.156900
  H    -34.238100   34.019300   45.739400

 Total Charge           Charge          ....    0
 Multiplicity           Mult            ....    1
 Number of Electrons    NEL             ....  134
 Basis Dimension        Dim             ....  322

ORBITAL ENERGIES
----------------

  NO   OCC          E(Eh)            E(eV)
   0   2.0000     -88.968127     -2420.9458
   1   2.0000     -88.964626     -2420.8505
   2   2.0000     -10.329753      -281.0869
   3   2.0000     -10.326346      -280.9941
   4   2.0000     -10.320646      -280.8390
   5   2.0000     -10.310545      -280.5642
   6   2.0000     -10.304598      -280.4024
   7   2.0000     -10.302354      -280.3413
   8   2.0000     -10.301591      -280.3205
   9   2.0000     -10.296391      -280.1790
  10   2.0000     -10.294254      -280.1209
  11   2.0000     -10.292685      -280.0782
  12   2.0000     -10.290865      -280.0287
  13   2.0000     -10.289096      -279.9805
  14   2.0000     -10.288483      -279.9638
  15   2.0000     -10.267212      -279.3850
  16   2.0000      -8.082447      -219.9346
  17   2.0000      -8.078786      -219.8350
  18   2.0000      -6.040966      -164.3830
  19   2.0000      -6.037363      -164.2850
  20   2.0000      -6.037212      -164.2809
  21   2.0000      -6.033413      -164.1775
  22   2.0000      -6.033027      -164.1670
  23   2.0000      -6.029464      -164.0700
  24   2.0000      -0.999639       -27.2016
  25   2.0000      -0.978815       -26.6349
  26   2.0000      -0.912241       -24.8233
  27   2.0000      -0.903574       -24.5875
  28   2.0000      -0.867365       -23.6022
  29   2.0000      -0.857856       -23.3434
  30   2.0000      -0.840842       -22.8805
  31   2.0000      -0.810726       -22.0610
  32   2.0000      -0.785556       -21.3761
  33   2.0000      -0.772709       -21.0265
  34   2.0000      -0.704395       -19.1676
  35   2.0000      -0.696778       -18.9603
  36   2.0000      -0.689473       -18.7615
  37   2.0000      -0.658136       -17.9088
  38   2.0000      -0.638411       -17.3720
  39   2.0000      -0.614527       -16.7221
  40   2.0000      -0.602418       -16.3926
  41   2.0000      -0.567947       -15.4546
  42   2.0000      -0.566084       -15.4039
  43   2.0000      -0.554243       -15.0817
  44   2.0000      -0.542564       -14.7639
  45   2.0000      -0.526775       -14.3343
  46   2.0000      -0.516233       -14.0474
  47   2.0000      -0.504513       -13.7285
  48   2.0000      -0.500700       -13.6247
  49   2.0000      -0.495227       -13.4758
  50   2.0000      -0.492918       -13.4130
  51   2.0000      -0.482580       -13.1317
  52   2.0000      -0.475861       -12.9488
  53   2.0000      -0.466223       -12.6866
  54   2.0000      -0.458471       -12.4756
  55   2.0000      -0.452495       -12.3130
  56   2.0000      -0.449839       -12.2408
  57   2.0000      -0.441406       -12.0113
  58   2.0000      -0.428349       -11.6560
  59   2.0000      -0.425950       -11.5907
  60   2.0000      -0.419783       -11.4229
  61   2.0000      -0.409767       -11.1503
  62   2.0000      -0.402100       -10.9417
  63   2.0000      -0.333653        -9.0792
  64   2.0000      -0.332038        -9.0352
  65   2.0000      -0.326610        -8.8875
  66   2.0000      -0.298257        -8.1160
  67   0.0000       0.031441         0.8556
  68   0.0000       0.065570         1.7842
  69   0.0000       0.107846         2.9346
  70   0.0000       0.114773         3.1231
  71   0.0000       0.125876         3.4253

MULLIKEN ATOMIC CHARGES
-----------------------
   0 S :    0.111127
   1 C :   -0.122174
   2 C :   -0.055858
   3 C :    0.006684
   4 C :   -0.154418
   5 H :    0.023514
   6 C :    0.055976
   7 H :    0.049198
   8 H :    0.019268
   9 C :   -0.134701
  10 H :    0.022998
  11 H :    0.045720
  12 C :   -0.048210
  13 H :    0.059827
  14 H :    0.037698
  15 H :    0.024292
  16 S :    0.118515
  17 C :   -0.097289
  18 C :    0.011405
  19 C :   -0.056172
  20 C :   -0.183199
  21 H :   -0.007502
  22 C :    0.105003
  23 H :    0.045146
  24 H :   -0.006914
  25 C :   -0.116851
  26 H :    0.022931
  27 H :    0.036743
  28 C :    0.027891
  29 H :    0.014286
  30 H :    0.027399
  31 H :    0.022732
  32 H :    0.031322
  33 H :    0.063612
Sum of atomic charges:   -0.0000000

LOEWDIN ATOMIC CHARGES
----------------------
   0 S :    0.395241
   1 C :   -0.182011
   2 C :   -0.066075
   3 C :   -0.065779
   4 C :   -0.194920
   5 H :    0.032059
   6 C :   -0.030317
   7 H :    0.037191
   8 H :    0.024894
   9 C :   -0.056787
  10 H :    0.018739
  11 H :    0.031735
  12 C :   -0.076668
  13 H :    0.039781
  14 H :    0.030575
  15 H :    0.023903
  16 S :    0.393623
  17 C :   -0.172845
  18 C :   -0.063016
  19 C :   -0.041208
  20 C :   -0.209257
  21 H :    0.018408
  22 C :   -0.031629
  23 H :    0.044271
  24 H :    0.019066
  25 C :   -0.033772
  26 H :    0.012385
  27 H :    0.035041
  28 C :   -0.053914
  29 H :    0.018616
  30 H :    0.025402
  31 H :    0.026495
  32 H :    0.020198
  33 H :    0.030574

  Mayer bond orders larger than 0.100000
B(  0-S ,  1-C ) :   1.1362 B(  0-S ,  4-C ) :   1.1479 B(  1-C ,  2-C ) :   1.6170
B(  1-C , 32-H ) :   0.9735 B(  2-C ,  3-C ) :   1.2579 B(  2-C ,  6-C ) :   1.0104
B(  3-C ,  4-C ) :   1.5638 B(  3-C ,  5-H ) :   0.9855 B(  4-C , 20-C ) :   1.0464
B(  6-C ,  7-H ) :   0.9397 B(  6-C ,  8-H ) :   0.9511 B(  6-C ,  9-C ) :   1.0539
B(  9-C , 10-H ) :   0.9607 B(  9-C , 11-H ) :   0.9579 B(  9-C , 12-C ) :   1.0642
B( 12-C , 13-H ) :   0.9750 B( 12-C , 14-H ) :   0.9734 B( 12-C , 15-H ) :   0.9720
B( 16-S , 17-C ) :   1.1482 B( 16-S , 20-C ) :   1.1221 B( 17-C , 18-C ) :   1.6253
B( 17-C , 33-H ) :   0.9648 B( 18-C , 19-C ) :   1.2176 B( 18-C , 21-H ) :   0.9960
B( 19-C , 20-C ) :   1.6099 B( 19-C , 22-C ) :   1.0466 B( 22-C , 23-H ) :   0.9233
B( 22-C , 24-H ) :   0.9240 B( 22-C , 25-C ) :   1.0632 B( 25-C , 26-H ) :   0.9564
B( 25-C , 27-H ) :   0.9565 B( 25-C , 28-C ) :   1.0908 B( 28-C , 29-H ) :   0.9725
B( 28-C , 30-H ) :   0.9690 B( 28-C , 31-H ) :   0.9655

Dispersion correction           -0.014219648
FINAL SINGLE POINT ENERGY     -1339.862349163035

DIPOLE MOMENT
-------------
                                X             Y             Z
Electronic contribution:    -28.94187       0.69558      10.97166
Nuclear contribution   :     29.58883      -0.44051     -11.28182
                        -----------------------------------------
Total Dipole Moment    :      0.64696       0.25507      -0.31016
                        -----------------------------------------
Magnitude (a.u.)       :      0.76146
Magnitude (Debye)      :      1.93548

Rotational constants in cm-1:     0.019022     0.008315     0.006294
Rotational constants in MHz :   570.278972   249.288989   188.687710

                             ****ORCA TERMINATED NORMALLY****
TOTAL RUN TIME: 0 days 0 hours 0 minutes 33 seconds 119 msec
