                         Program Version 4.2.1 -  RELEASE  -
|  1> ! wB97X-D3 SP def2-SVP
|  2> %pal
|  3> nprocs 16
|  4> end
|  5>
|  6> * xyz 0 1
|  7> S 	 68.4023 	 21.6846 	 75.045
|  8> C 	 69.2175 	 21.526 	 76.5435
|  9> C 	 70.3734 	 22.2887 	 76.5022
| 10> C 	 70.5614 	 23.026 	 75.2892
| 11> C 	 69.5002 	 22.8633 	 74.4137
| 12> H 	 71.2607 	 23.7237 	 74.9016
| 13> C 	 71.2678 	 22.3567 	 77.7166
| 14> H 	 70.9263 	 21.7973 	 78.5121
| 15> H 	 71.207 	 23.3797 	 78.055
| 16> C 	 72.782 	 22.1891 	 77.3901
| 17> H 	 72.8558 	 21.1423 	 77.015
| 18> H 	 73.1477 	 22.8276 	 76.5699
| 19> C 	 73.7833 	 22.3175 	 78.5854
| 20> H 	 73.5009 	 21.6292 	 79.3834
| 21> H 	 74.75 	 22.1167 	 78.2443
| 22> H 	 73.8746 	 23.3748 	 79.0335
| 23> S 	 68.918 	 21.8755 	 71.982
| 24> C 	 68.9732 	 23.0044 	 70.5851
| 25> C 	 69.494 	 24.2768 	 70.9058
| 26> C 	 69.8225 	 24.4056 	 72.3089
| 27> C 	 69.4361 	 23.2246 	 72.9969
| 28> H 	 69.5274 	 25.0975 	 70.1126
| 29> C 	 70.6045 	 25.573 	 72.9672
| 30> H 	 70.9831 	 26.3649 	 72.2061
| 31> H 	 71.4865 	 25.0356 	 73.3727
| 32> C 	 69.8783 	 26.3876 	 74.0458
| 33> H 	 70.4915 	 27.2737 	 74.355
| 34> H 	 69.6773 	 25.7535 	 74.9128
| 35> C 	 68.5372 	 27.0287 	 73.5553
| 36> H 	 68.3057 	 27.9456 	 74.1816
| 37> H 	 67.735 	 26.28 	 73.7617
| 38> H 	 68.5519 	 27.2612 	 72.4779
| 39> H 	 68.8859 	 21.0191 	 77.4783
| 40> H 	 68.8383 	 22.721 	 69.5679
| 41> *
| 42>
| 43>                          ****END OF INPUT****

CARTESIAN COORDINATES (ANGSTROEM)
---------------------------------
  S     68.402300   21.684600   75.045000
  C     69.217500   21.526000   76.543500
  C     70.373400   22.288700   76.502200
  C     70.561400   23.026000   75.289200
  C     69.500200   22.863300   74.413700
  H     71.260700   23.723700   74.901600
  C     71.267800   22.356700   77.716600
  H     70.926300   21.797300   78.512100
  H     71.207000   23.379700   78.055000
  C     72.782000   22.189100   77.390100
  H     72.855800   21.142300   77.015000
  H     73.147700   22.827600   76.569900
  C     73.783300   22.317500   78.585400
  H     73.500900   21.629200   79.383400
  H     74.750000   22.116700   78.244300
  H     73.874600   23.374800   79.033500
  S     68.918000   21.875500   71.982000
  C     68.973200   23.004400   70.585100
  C     69.494000   24.276800   70.905800
  C     69.822500   24.405600   72.308900
  C     69.436100   23.224600   72.996900
  H     69.527400   25.097500   70.112600
  C     70.604500   25.573000   72.967200
  H     70.983100   26.364900   72.206100
  H     71.486500   25.035600   73.372700
  C     69.878300   26.387600   74.045800
  H     70.491500   27.273700   74.355000
  H     69.677300   25.753500   74.912800
  C     68.537200   27.028700   73.555300
  H     68.305700   27.945600   74.181600
  H     67.735000   26.280000   73.761700
  H     68.551900   27.261200   72.477900
  H     68.885900   21.019100   77.478300
  H     68.838300   22.721000   69.567900

 Total Charge           Charge          ....    0
 Multiplicity           Mult            ....    1
 Number of Electrons    NEL             ....  134
 Basis Dimension        Dim             ....  322

ORBITAL ENERGIES
----------------

  NO   OCC          E(Eh)            E(eV)
   0   2.0000     -88.973000     -2421.0784
   1   2.0000     -88.964867     -2420.8571
   2   2.0000     -10.333670      -281.1934
   3   2.0000     -10.328121      -281.0425
   4   2.0000     -10.319926      -280.8195
   5   2.0000     -10.315297      -280.6935
   6   2.0000     -10.313995      -280.6581
   7   2.0000     -10.309912      -280.5470
   8   2.0000     -10.308650      -280.5126
   9   2.0000     -10.304520      -280.4002
  10   2.0000     -10.293999      -280.1140
  11   2.0000     -10.292499      -280.0731
  12   2.0000     -10.290023      -280.0058
  13   2.0000     -10.284728      -279.8617
  14   2.0000     -10.283053      -279.8161
  15   2.0000     -10.282409      -279.7986
  16   2.0000      -8.086339      -220.0405
  17   2.0000      -8.080555      -219.8831
  18   2.0000      -6.044892      -164.4899
  19   2.0000      -6.041215      -164.3898
  20   2.0000      -6.039008      -164.3298
  21   2.0000      -6.036938      -164.2734
  22   2.0000      -6.034762      -164.2142
  23   2.0000      -6.031454      -164.1242
  24   2.0000      -1.010978       -27.5101
  25   2.0000      -0.978246       -26.6194
  26   2.0000      -0.908544       -24.7227
  27   2.0000      -0.902548       -24.5596
  28   2.0000      -0.868389       -23.6301
  29   2.0000      -0.849831       -23.1251
  30   2.0000      -0.841105       -22.8876
  31   2.0000      -0.815058       -22.1789
  32   2.0000      -0.781692       -21.2709
  33   2.0000      -0.768904       -20.9229
  34   2.0000      -0.709262       -19.3000
  35   2.0000      -0.693443       -18.8695
  36   2.0000      -0.681629       -18.5481
  37   2.0000      -0.662499       -18.0275
  38   2.0000      -0.646337       -17.5877
  39   2.0000      -0.616061       -16.7639
  40   2.0000      -0.585746       -15.9390
  41   2.0000      -0.563362       -15.3299
  42   2.0000      -0.561456       -15.2780
  43   2.0000      -0.554002       -15.0752
  44   2.0000      -0.543245       -14.7824
  45   2.0000      -0.525873       -14.3097
  46   2.0000      -0.511774       -13.9261
  47   2.0000      -0.506107       -13.7719
  48   2.0000      -0.505539       -13.7564
  49   2.0000      -0.498794       -13.5729
  50   2.0000      -0.484170       -13.1749
  51   2.0000      -0.479999       -13.0615
  52   2.0000      -0.473430       -12.8827
  53   2.0000      -0.463213       -12.6047
  54   2.0000      -0.461063       -12.5462
  55   2.0000      -0.449221       -12.2239
  56   2.0000      -0.443495       -12.0681
  57   2.0000      -0.439562       -11.9611
  58   2.0000      -0.436379       -11.8745
  59   2.0000      -0.422349       -11.4927
  60   2.0000      -0.413501       -11.2519
  61   2.0000      -0.412865       -11.2346
  62   2.0000      -0.410542       -11.1714
  63   2.0000      -0.354441        -9.6448
  64   2.0000      -0.334883        -9.1126
  65   2.0000      -0.326589        -8.8869
  66   2.0000      -0.283703        -7.7199
  67   0.0000       0.021886         0.5955
  68   0.0000       0.068030         1.8512
  69   0.0000       0.098030         2.6675
  70   0.0000       0.117881         3.2077
  71   0.0000       0.130634         3.5547

MULLIKEN ATOMIC CHARGES
-----------------------
   0 S :    0.100462
   1 C :   -0.124094
   2 C :   -0.093002
   3 C :    0.054283
   4 C :   -0.150659
   5 H :   -0.019815
   6 C :    0.142769
   7 H :   -0.010404
   8 H :    0.022256
   9 C :   -0.136910
  10 H :    0.034940
  11 H :    0.040910
  12 C :   -0.041783
  13 H :    0.034580
  14 H :    0.024585
  15 H :    0.037011
  16 S :    0.113871
  17 C :   -0.086845
  18 C :   -0.065514
  19 C :   -0.026297
  20 C :   -0.153385
  21 H :    0.051212
  22 C :   -0.002917
  23 H :    0.042529
  24 H :    0.056415
  25 C :   -0.084865
  26 H :    0.039771
  27 H :    0.044274
  28 C :   -0.086808
  29 H :    0.045511
  30 H :    0.049525
  31 H :    0.036015
  32 H :    0.065455
  33 H :    0.046924
Sum of atomic charges:   -0.0000000

LOEWDIN ATOMIC CHARGES
----------------------
   0 S :    0.424488
   1 C :   -0.222969
   2 C :   -0.057004
   3 C :   -0.067239
   4 C :   -0.198430
   5 H :    0.024623
   6 C :   -0.026164
   7 H :    0.016000
   8 H :    0.031920
   9 C :   -0.042845
  10 H :    0.027032
  11 H :    0.025360
  12 C :   -0.066708
  13 H :    0.024751
  14 H :    0.018156
  15 H :    0.031488
  16 S :    0.391803
  17 C :   -0.179255
  18 C :   -0.071298
  19 C :   -0.059672
  20 C :   -0.187057
  21 H :    0.045794
  22 C :   -0.040496
  23 H :    0.042102
  24 H :    0.033931
  25 C :   -0.050298
  26 H :    0.028681
  27 H :    0.023444
  28 C :   -0.073611
  29 H :    0.032627
  30 H :    0.032565
  31 H :    0.023642
  32 H :    0.043373
  33 H :    0.021266

  Mayer bond orders larger than 0.100000
B(  0-S ,  1-C ) :   1.1357 B(  0-S ,  4-C ) :   1.1689 B(  1-C ,  2-C ) :   1.5890
B(  1-C , 32-H ) :   0.9666 B(  2-C ,  3-C ) :   1.2295 B(  2-C ,  6-C ) :   1.0380
B(  3-C ,  4-C ) :   1.5406 B(  3-C ,  5-H ) :   0.9957 B(  4-C , 20-C ) :   1.0497
B(  6-C ,  7-H ) :   0.9406 B(  6-C ,  8-H ) :   0.9301 B(  6-C ,  9-C ) :   1.0445
B(  9-C , 10-H ) :   0.9585 B(  9-C , 11-H ) :   0.9581 B(  9-C , 12-C ) :   1.0843
B( 12-C , 13-H ) :   0.9757 B( 12-C , 14-H ) :   0.9746 B( 12-C , 15-H ) :   0.9745
B( 16-S , 17-C ) :   1.1290 B( 16-S , 20-C ) :   1.1512 B( 17-C , 18-C ) :   1.6311
B( 17-C , 20-C ) :   0.1030 B( 17-C , 33-H ) :   0.9696 B( 18-C , 19-C ) :   1.2434
B( 18-C , 21-H ) :   0.9722 B( 19-C , 20-C ) :   1.5817 B( 19-C , 22-C ) :   1.0082
B( 22-C , 23-H ) :   0.9407 B( 22-C , 24-H ) :   0.9407 B( 22-C , 25-C ) :   1.0741
B( 25-C , 26-H ) :   0.9618 B( 25-C , 27-H ) :   0.9541 B( 25-C , 28-C ) :   1.0594
B( 28-C , 29-H ) :   0.9781 B( 28-C , 30-H ) :   0.9756 B( 28-C , 31-H ) :   0.9792

Dispersion correction           -0.014479856
FINAL SINGLE POINT ENERGY     -1339.862337838243

DIPOLE MOMENT
-------------
                                X             Y             Z
Electronic contribution:    -15.88443     -16.17528     -14.88367
Nuclear contribution   :     16.36746      16.54803      15.09648
                        -----------------------------------------
Total Dipole Moment    :      0.48303       0.37275       0.21281
                        -----------------------------------------
Magnitude (a.u.)       :      0.64618
Magnitude (Debye)      :      1.64246

Rotational constants in cm-1:     0.018957     0.008491     0.007064
Rotational constants in MHz :   568.330426   254.544295   211.779152

                             ****ORCA TERMINATED NORMALLY****
TOTAL RUN TIME: 0 days 0 hours 0 minutes 29 seconds 446 msec
