                         Program Version 4.2.1 -  RELEASE  -
|  1> ! wB97X-D3 SP def2-SVP
|  2> %pal
|  3> nprocs 16
|  4> end
|  5>
|  6> * xyz 0 1
|  7> S 	 -1.20227 	 -11.3133 	 89.1242
|  8> C 	 0.574177 	 -11.6822 	 89.1251
|  9> C 	 1.28415 	 -10.5581 	 88.6882
| 10> C 	 0.395019 	 -9.50868 	 88.2431
| 11> C 	 -0.998418 	 -9.78137 	 88.2847
| 12> H 	 0.631625 	 -8.50986 	 87.7968
| 13> C 	 2.74753 	 -10.3874 	 88.6481
| 14> H 	 3.1125 	 -10.3951 	 87.653
| 15> H 	 3.17662 	 -11.2499 	 89.1192
| 16> C 	 3.12263 	 -9.09658 	 89.2993
| 17> H 	 4.16568 	 -8.97705 	 89.065
| 18> H 	 2.71089 	 -8.24164 	 88.7861
| 19> C 	 2.8308 	 -9.09572 	 90.7957
| 20> H 	 3.27878 	 -10.0312 	 91.1485
| 21> H 	 3.43024 	 -8.27817 	 91.2267
| 22> H 	 1.81146 	 -8.94275 	 91.1531
| 23> S 	 -3.6762 	 -9.65769 	 87.9285
| 24> C 	 -4.50244 	 -8.51827 	 86.9335
| 25> C 	 -3.58425 	 -7.58241 	 86.3612
| 26> C 	 -2.2281 	 -7.97073 	 86.7039
| 27> C 	 -2.08948 	 -9.06407 	 87.5681
| 28> H 	 -3.95278 	 -6.78577 	 85.7351
| 29> C 	 -1.09743 	 -7.12986 	 86.2197
| 30> H 	 -1.46661 	 -6.85644 	 85.1918
| 31> H 	 -0.311046 	 -7.85016 	 85.9969
| 32> C 	 -0.70267 	 -5.96722 	 87.1501
| 33> H 	 -0.451068 	 -6.27595 	 88.1714
| 34> H 	 -1.61821 	 -5.2856 	 87.2816
| 35> C 	 0.386944 	 -5.08089 	 86.5399
| 36> H 	 0.295156 	 -4.97952 	 85.4544
| 37> H 	 1.3614 	 -5.40371 	 86.6404
| 38> H 	 0.316702 	 -4.06894 	 86.9185
| 39> H 	 1.00786 	 -12.7127 	 89.2533
| 40> H 	 -5.55392 	 -8.55355 	 86.6253
| 41> *
| 42>
| 43>                          ****END OF INPUT****

CARTESIAN COORDINATES (ANGSTROEM)
---------------------------------
  S     -1.202270  -11.313300   89.124200
  C      0.574177  -11.682200   89.125100
  C      1.284150  -10.558100   88.688200
  C      0.395019   -9.508680   88.243100
  C     -0.998418   -9.781370   88.284700
  H      0.631625   -8.509860   87.796800
  C      2.747530  -10.387400   88.648100
  H      3.112500  -10.395100   87.653000
  H      3.176620  -11.249900   89.119200
  C      3.122630   -9.096580   89.299300
  H      4.165680   -8.977050   89.065000
  H      2.710890   -8.241640   88.786100
  C      2.830800   -9.095720   90.795700
  H      3.278780  -10.031200   91.148500
  H      3.430240   -8.278170   91.226700
  H      1.811460   -8.942750   91.153100
  S     -3.676200   -9.657690   87.928500
  C     -4.502440   -8.518270   86.933500
  C     -3.584250   -7.582410   86.361200
  C     -2.228100   -7.970730   86.703900
  C     -2.089480   -9.064070   87.568100
  H     -3.952780   -6.785770   85.735100
  C     -1.097430   -7.129860   86.219700
  H     -1.466610   -6.856440   85.191800
  H     -0.311046   -7.850160   85.996900
  C     -0.702670   -5.967220   87.150100
  H     -0.451068   -6.275950   88.171400
  H     -1.618210   -5.285600   87.281600
  C      0.386944   -5.080890   86.539900
  H      0.295156   -4.979520   85.454400
  H      1.361400   -5.403710   86.640400
  H      0.316702   -4.068940   86.918500
  H      1.007860  -12.712700   89.253300
  H     -5.553920   -8.553550   86.625300

 Total Charge           Charge          ....    0
 Multiplicity           Mult            ....    1
 Number of Electrons    NEL             ....  134
 Basis Dimension        Dim             ....  322

ORBITAL ENERGIES
----------------

  NO   OCC          E(Eh)            E(eV)
   0   2.0000     -88.965390     -2420.8713
   1   2.0000     -88.964917     -2420.8585
   2   2.0000     -10.341153      -281.3971
   3   2.0000     -10.333665      -281.1933
   4   2.0000     -10.324498      -280.9439
   5   2.0000     -10.323182      -280.9081
   6   2.0000     -10.307148      -280.4717
   7   2.0000     -10.305662      -280.4313
   8   2.0000     -10.301873      -280.3282
   9   2.0000     -10.300230      -280.2835
  10   2.0000     -10.298456      -280.2352
  11   2.0000     -10.293266      -280.0940
  12   2.0000     -10.282560      -279.8027
  13   2.0000     -10.281232      -279.7666
  14   2.0000     -10.276439      -279.6361
  15   2.0000     -10.272340      -279.5246
  16   2.0000      -8.080850      -219.8911
  17   2.0000      -8.078464      -219.8262
  18   2.0000      -6.039312      -164.3380
  19   2.0000      -6.037264      -164.2823
  20   2.0000      -6.035028      -164.2215
  21   2.0000      -6.033171      -164.1709
  22   2.0000      -6.031854      -164.1351
  23   2.0000      -6.028928      -164.0555
  24   2.0000      -1.003661       -27.3110
  25   2.0000      -0.978559       -26.6280
  26   2.0000      -0.924533       -25.1578
  27   2.0000      -0.910765       -24.7832
  28   2.0000      -0.865261       -23.5450
  29   2.0000      -0.854396       -23.2493
  30   2.0000      -0.836828       -22.7712
  31   2.0000      -0.811549       -22.0834
  32   2.0000      -0.783547       -21.3214
  33   2.0000      -0.773538       -21.0490
  34   2.0000      -0.712935       -19.3999
  35   2.0000      -0.704388       -19.1674
  36   2.0000      -0.690234       -18.7822
  37   2.0000      -0.666665       -18.1409
  38   2.0000      -0.636648       -17.3241
  39   2.0000      -0.617829       -16.8120
  40   2.0000      -0.588422       -16.0118
  41   2.0000      -0.570721       -15.5301
  42   2.0000      -0.566038       -15.4027
  43   2.0000      -0.557855       -15.1800
  44   2.0000      -0.534470       -14.5437
  45   2.0000      -0.531489       -14.4626
  46   2.0000      -0.524851       -14.2819
  47   2.0000      -0.512670       -13.9505
  48   2.0000      -0.506942       -13.7946
  49   2.0000      -0.503681       -13.7058
  50   2.0000      -0.484940       -13.1959
  51   2.0000      -0.484258       -13.1773
  52   2.0000      -0.465494       -12.6667
  53   2.0000      -0.461886       -12.5686
  54   2.0000      -0.458709       -12.4821
  55   2.0000      -0.448480       -12.2038
  56   2.0000      -0.445340       -12.1183
  57   2.0000      -0.439468       -11.9585
  58   2.0000      -0.434315       -11.8183
  59   2.0000      -0.430454       -11.7132
  60   2.0000      -0.417084       -11.3494
  61   2.0000      -0.413707       -11.2575
  62   2.0000      -0.401079       -10.9139
  63   2.0000      -0.357115        -9.7176
  64   2.0000      -0.332085        -9.0365
  65   2.0000      -0.323297        -8.7974
  66   2.0000      -0.280352        -7.6288
  67   0.0000       0.013489         0.3670
  68   0.0000       0.080265         2.1841
  69   0.0000       0.094813         2.5800
  70   0.0000       0.115406         3.1403
  71   0.0000       0.126590         3.4447

MULLIKEN ATOMIC CHARGES
-----------------------
   0 S :    0.083271
   1 C :   -0.154182
   2 C :   -0.081840
   3 C :   -0.042460
   4 C :   -0.092461
   5 H :    0.022553
   6 C :    0.123457
   7 H :    0.025065
   8 H :    0.004716
   9 C :   -0.083170
  10 H :    0.014987
  11 H :    0.022573
  12 C :   -0.031950
  13 H :    0.024522
  14 H :    0.029029
  15 H :    0.057070
  16 S :    0.093596
  17 C :   -0.098968
  18 C :   -0.036984
  19 C :   -0.102266
  20 C :   -0.095577
  21 H :    0.025110
  22 C :    0.020421
  23 H :    0.026724
  24 H :    0.028890
  25 C :   -0.067607
  26 H :    0.041382
  27 H :    0.036889
  28 C :   -0.005392
  29 H :    0.018662
  30 H :    0.012794
  31 H :    0.030802
  32 H :    0.078644
  33 H :    0.071701
Sum of atomic charges:   -0.0000000

LOEWDIN ATOMIC CHARGES
----------------------
   0 S :    0.366624
   1 C :   -0.194730
   2 C :   -0.056062
   3 C :   -0.079555
   4 C :   -0.184395
   5 H :    0.033268
   6 C :   -0.029240
   7 H :    0.030518
   8 H :    0.026244
   9 C :   -0.040165
  10 H :    0.023655
  11 H :    0.020576
  12 C :   -0.061714
  13 H :    0.026783
  14 H :    0.028903
  15 H :    0.031728
  16 S :    0.429009
  17 C :   -0.197383
  18 C :   -0.072278
  19 C :   -0.061303
  20 C :   -0.200761
  21 H :    0.033161
  22 C :   -0.045702
  23 H :    0.037341
  24 H :    0.027517
  25 C :   -0.040100
  26 H :    0.027297
  27 H :    0.035954
  28 C :   -0.063959
  29 H :    0.027510
  30 H :    0.012385
  31 H :    0.028155
  32 H :    0.044758
  33 H :    0.035960

  Mayer bond orders larger than 0.100000
B(  0-S ,  1-C ) :   1.1128 B(  0-S ,  4-C ) :   1.1395 B(  1-C ,  2-C ) :   1.6099
B(  1-C , 32-H ) :   0.9594 B(  2-C ,  3-C ) :   1.2187 B(  2-C ,  6-C ) :   1.0349
B(  3-C ,  4-C ) :   1.5819 B(  3-C ,  5-H ) :   0.9768 B(  4-C , 20-C ) :   1.0667
B(  6-C ,  7-H ) :   0.9234 B(  6-C ,  8-H ) :   0.9350 B(  6-C ,  9-C ) :   1.0956
B(  9-C , 10-H ) :   0.9491 B(  9-C , 11-H ) :   0.9467 B(  9-C , 12-C ) :   1.0663
B( 12-C , 13-H ) :   0.9752 B( 12-C , 14-H ) :   0.9729 B( 12-C , 15-H ) :   0.9739
B( 16-S , 17-C ) :   1.1938 B( 16-S , 20-C ) :   1.1359 B( 17-C , 18-C ) :   1.5573
B( 17-C , 33-H ) :   0.9647 B( 18-C , 19-C ) :   1.2760 B( 18-C , 21-H ) :   0.9936
B( 19-C , 20-C ) :   1.5503 B( 19-C , 22-C ) :   1.0439 B( 22-C , 23-H ) :   0.9287
B( 22-C , 24-H ) :   0.9360 B( 22-C , 25-C ) :   1.0529 B( 25-C , 26-H ) :   0.9563
B( 25-C , 27-H ) :   0.9553 B( 25-C , 28-C ) :   1.0736 B( 28-C , 29-H ) :   0.9712
B( 28-C , 30-H ) :   0.9751 B( 28-C , 31-H ) :   0.9752

Dispersion correction           -0.014593847
FINAL SINGLE POINT ENERGY     -1339.859326033065

DIPOLE MOMENT
-------------
                                X             Y             Z
Electronic contribution:    -23.62577     -18.50587       1.40564
Nuclear contribution   :     24.16690      18.98493      -1.81819
                        -----------------------------------------
Total Dipole Moment    :      0.54113       0.47906      -0.41255
                        -----------------------------------------
Magnitude (a.u.)       :      0.83217
Magnitude (Debye)      :      2.11522

Rotational constants in cm-1:     0.017427     0.010168     0.006866
Rotational constants in MHz :   522.455511   304.840947   205.828327

                             ****ORCA TERMINATED NORMALLY****
TOTAL RUN TIME: 0 days 0 hours 0 minutes 34 seconds 355 msec
