                         Program Version 4.2.1 -  RELEASE  -
|  1> ! wB97X-D3 SP def2-SVP
|  2> %pal
|  3> nprocs 16
|  4> end
|  5>
|  6> * xyz 0 1
|  7> S 	 3.83368 	 23.2408 	 36.0343
|  8> C 	 2.46548 	 24.2089 	 36.6268
|  9> C 	 1.93343 	 23.5897 	 37.7463
| 10> C 	 2.71472 	 22.457 	 38.1695
| 11> C 	 3.76803 	 22.1183 	 37.3719
| 12> H 	 2.43964 	 21.8645 	 39.0183
| 13> C 	 0.792394 	 24.0579 	 38.5606
| 14> H 	 0.992845 	 24.9954 	 39.0472
| 15> H 	 0.657296 	 23.3841 	 39.4229
| 16> C 	 -0.572485 	 24.1387 	 37.8602
| 17> H 	 -0.602654 	 25.0334 	 37.2105
| 18> H 	 -0.809388 	 23.3001 	 37.1445
| 19> C 	 -1.75021 	 24.1773 	 38.8639
| 20> H 	 -1.66749 	 23.3412 	 39.5875
| 21> H 	 -1.80731 	 25.0022 	 39.5758
| 22> H 	 -2.7549 	 24.3179 	 38.3965
| 23> S 	 6.25223 	 21.6681 	 38.4466
| 24> C 	 6.80117 	 20.0316 	 38.5604
| 25> C 	 5.95275 	 19.1197 	 37.9147
| 26> C 	 4.75509 	 19.7512 	 37.4826
| 27> C 	 4.80344 	 21.1248 	 37.6565
| 28> H 	 6.20191 	 18.0487 	 37.8574
| 29> C 	 3.76486 	 19.0387 	 36.5571
| 30> H 	 4.39917 	 18.3044 	 36.0513
| 31> H 	 3.33358 	 19.7893 	 35.7968
| 32> C 	 2.63036 	 18.2754 	 37.3009
| 33> H 	 2.00318 	 19.0256 	 37.8147
| 34> H 	 3.14707 	 17.7781 	 38.1548
| 35> C 	 1.95529 	 17.2556 	 36.4051
| 36> H 	 1.48032 	 17.7176 	 35.5512
| 37> H 	 1.14376 	 16.716 	 37.0402
| 38> H 	 2.62056 	 16.4803 	 36.0219
| 39> H 	 2.01882 	 25.0375 	 36.1535
| 40> H 	 7.72686 	 19.7571 	 39.1054
| 41> *
| 42>
| 43>                          ****END OF INPUT****

CARTESIAN COORDINATES (ANGSTROEM)
---------------------------------
  S      3.833680   23.240800   36.034300
  C      2.465480   24.208900   36.626800
  C      1.933430   23.589700   37.746300
  C      2.714720   22.457000   38.169500
  C      3.768030   22.118300   37.371900
  H      2.439640   21.864500   39.018300
  C      0.792394   24.057900   38.560600
  H      0.992845   24.995400   39.047200
  H      0.657296   23.384100   39.422900
  C     -0.572485   24.138700   37.860200
  H     -0.602654   25.033400   37.210500
  H     -0.809388   23.300100   37.144500
  C     -1.750210   24.177300   38.863900
  H     -1.667490   23.341200   39.587500
  H     -1.807310   25.002200   39.575800
  H     -2.754900   24.317900   38.396500
  S      6.252230   21.668100   38.446600
  C      6.801170   20.031600   38.560400
  C      5.952750   19.119700   37.914700
  C      4.755090   19.751200   37.482600
  C      4.803440   21.124800   37.656500
  H      6.201910   18.048700   37.857400
  C      3.764860   19.038700   36.557100
  H      4.399170   18.304400   36.051300
  H      3.333580   19.789300   35.796800
  C      2.630360   18.275400   37.300900
  H      2.003180   19.025600   37.814700
  H      3.147070   17.778100   38.154800
  C      1.955290   17.255600   36.405100
  H      1.480320   17.717600   35.551200
  H      1.143760   16.716000   37.040200
  H      2.620560   16.480300   36.021900
  H      2.018820   25.037500   36.153500
  H      7.726860   19.757100   39.105400

 Total Charge           Charge          ....    0
 Multiplicity           Mult            ....    1
 Number of Electrons    NEL             ....  134
 Basis Dimension        Dim             ....  322

ORBITAL ENERGIES
----------------

  NO   OCC          E(Eh)            E(eV)
   0   2.0000     -88.968439     -2420.9543
   1   2.0000     -88.964002     -2420.8336
   2   2.0000     -10.326191      -280.9900
   3   2.0000     -10.322834      -280.8986
   4   2.0000     -10.320742      -280.8417
   5   2.0000     -10.314250      -280.6650
   6   2.0000     -10.301814      -280.3266
   7   2.0000     -10.299065      -280.2518
   8   2.0000     -10.297789      -280.2171
   9   2.0000     -10.295956      -280.1672
  10   2.0000     -10.295239      -280.1477
  11   2.0000     -10.290311      -280.0136
  12   2.0000     -10.289652      -279.9957
  13   2.0000     -10.288430      -279.9624
  14   2.0000     -10.284279      -279.8495
  15   2.0000     -10.284173      -279.8466
  16   2.0000      -8.083699      -219.9686
  17   2.0000      -8.078262      -219.8207
  18   2.0000      -6.042001      -164.4112
  19   2.0000      -6.038122      -164.3056
  20   2.0000      -6.036873      -164.2717
  21   2.0000      -6.034656      -164.2113
  22   2.0000      -6.032662      -164.1571
  23   2.0000      -6.029105      -164.0603
  24   2.0000      -1.007260       -27.4089
  25   2.0000      -0.984538       -26.7906
  26   2.0000      -0.911927       -24.8148
  27   2.0000      -0.904913       -24.6239
  28   2.0000      -0.866546       -23.5799
  29   2.0000      -0.852396       -23.1949
  30   2.0000      -0.844995       -22.9935
  31   2.0000      -0.812016       -22.0961
  32   2.0000      -0.779200       -21.2031
  33   2.0000      -0.768482       -20.9115
  34   2.0000      -0.708429       -19.2773
  35   2.0000      -0.699882       -19.0448
  36   2.0000      -0.688525       -18.7357
  37   2.0000      -0.662021       -18.0145
  38   2.0000      -0.644695       -17.5430
  39   2.0000      -0.617237       -16.7959
  40   2.0000      -0.592218       -16.1151
  41   2.0000      -0.571137       -15.5414
  42   2.0000      -0.559982       -15.2379
  43   2.0000      -0.557484       -15.1699
  44   2.0000      -0.523545       -14.2464
  45   2.0000      -0.520687       -14.1686
  46   2.0000      -0.514654       -14.0044
  47   2.0000      -0.509964       -13.8768
  48   2.0000      -0.505743       -13.7620
  49   2.0000      -0.500907       -13.6304
  50   2.0000      -0.492449       -13.4002
  51   2.0000      -0.476352       -12.9622
  52   2.0000      -0.470880       -12.8133
  53   2.0000      -0.465120       -12.6566
  54   2.0000      -0.454733       -12.3739
  55   2.0000      -0.453006       -12.3269
  56   2.0000      -0.449592       -12.2340
  57   2.0000      -0.435162       -11.8414
  58   2.0000      -0.430069       -11.7028
  59   2.0000      -0.419716       -11.4211
  60   2.0000      -0.417957       -11.3732
  61   2.0000      -0.415117       -11.2959
  62   2.0000      -0.411119       -11.1871
  63   2.0000      -0.338242        -9.2040
  64   2.0000      -0.327513        -8.9121
  65   2.0000      -0.322512        -8.7760
  66   2.0000      -0.308976        -8.4077
  67   0.0000       0.044110         1.2003
  68   0.0000       0.053239         1.4487
  69   0.0000       0.113673         3.0932
  70   0.0000       0.121294         3.3006
  71   0.0000       0.127596         3.4721

MULLIKEN ATOMIC CHARGES
-----------------------
   0 S :    0.102767
   1 C :   -0.099351
   2 C :   -0.078803
   3 C :    0.052355
   4 C :   -0.169458
   5 H :    0.005354
   6 C :    0.069899
   7 H :    0.037608
   8 H :    0.009270
   9 C :   -0.085116
  10 H :    0.029023
  11 H :    0.045803
  12 C :   -0.075559
  13 H :    0.032096
  14 H :    0.015448
  15 H :    0.042462
  16 S :    0.139032
  17 C :   -0.118537
  18 C :   -0.039989
  19 C :    0.001617
  20 C :   -0.187832
  21 H :    0.031908
  22 C :    0.017875
  23 H :    0.022524
  24 H :    0.052115
  25 C :   -0.083928
  26 H :    0.034067
  27 H :    0.024627
  28 C :   -0.044958
  29 H :    0.034729
  30 H :    0.045087
  31 H :    0.034974
  32 H :    0.033321
  33 H :    0.069573
Sum of atomic charges:   -0.0000000

LOEWDIN ATOMIC CHARGES
----------------------
   0 S :    0.395462
   1 C :   -0.179320
   2 C :   -0.063546
   3 C :   -0.057394
   4 C :   -0.201851
   5 H :    0.027560
   6 C :   -0.036038
   7 H :    0.035147
   8 H :    0.029630
   9 C :   -0.043910
  10 H :    0.022425
  11 H :    0.032971
  12 C :   -0.080878
  13 H :    0.026685
  14 H :    0.021201
  15 H :    0.033253
  16 S :    0.431947
  17 C :   -0.195430
  18 C :   -0.076101
  19 C :   -0.056317
  20 C :   -0.212120
  21 H :    0.036711
  22 C :   -0.032251
  23 H :    0.028932
  24 H :    0.038224
  25 C :   -0.049366
  26 H :    0.026357
  27 H :    0.025019
  28 C :   -0.070074
  29 H :    0.023864
  30 H :    0.037689
  31 H :    0.026033
  32 H :    0.021454
  33 H :    0.034028

  Mayer bond orders larger than 0.100000
B(  0-S ,  1-C ) :   1.1338 B(  0-S ,  4-C ) :   1.1466 B(  1-C ,  2-C ) :   1.5969
B(  1-C , 32-H ) :   0.9791 B(  2-C ,  3-C ) :   1.2485 B(  2-C ,  6-C ) :   1.0315
B(  3-C ,  4-C ) :   1.5962 B(  3-C ,  5-H ) :   0.9943 B(  4-C , 20-C ) :   0.9965
B(  6-C ,  7-H ) :   0.9314 B(  6-C ,  8-H ) :   0.9464 B(  6-C ,  9-C ) :   1.0470
B(  9-C , 10-H ) :   0.9531 B(  9-C , 11-H ) :   0.9622 B(  9-C , 12-C ) :   1.0769
B( 12-C , 13-H ) :   0.9746 B( 12-C , 14-H ) :   0.9731 B( 12-C , 15-H ) :   0.9742
B( 16-S , 17-C ) :   1.1778 B( 16-S , 20-C ) :   1.1587 B( 17-C , 18-C ) :   1.5875
B( 17-C , 20-C ) :   0.1007 B( 17-C , 33-H ) :   0.9636 B( 18-C , 19-C ) :   1.2559
B( 18-C , 21-H ) :   0.9841 B( 19-C , 20-C ) :   1.5984 B( 19-C , 22-C ) :   1.0259
B( 22-C , 23-H ) :   0.9462 B( 22-C , 24-H ) :   0.9398 B( 22-C , 25-C ) :   1.0470
B( 25-C , 26-H ) :   0.9530 B( 25-C , 27-H ) :   0.9587 B( 25-C , 28-C ) :   1.0764
B( 28-C , 29-H ) :   0.9736 B( 28-C , 30-H ) :   0.9732 B( 28-C , 31-H ) :   0.9733

Dispersion correction           -0.013820999
FINAL SINGLE POINT ENERGY     -1339.886309383717

DIPOLE MOMENT
-------------
                                X             Y             Z
Electronic contribution:     27.35747       8.79515      -2.64923
Nuclear contribution   :    -27.75383      -9.01790       2.89589
                        -----------------------------------------
Total Dipole Moment    :     -0.39637      -0.22275       0.24666
                        -----------------------------------------
Magnitude (a.u.)       :      0.51727
Magnitude (Debye)      :      1.31478

Rotational constants in cm-1:     0.017544     0.008095     0.006459
Rotational constants in MHz :   525.960040   242.694138   193.633623

                             ****ORCA TERMINATED NORMALLY****
TOTAL RUN TIME: 0 days 0 hours 0 minutes 34 seconds 89 msec
