                         Program Version 4.2.1 -  RELEASE  -
|  1> ! wB97X-D3 SP def2-SVP
|  2> %pal
|  3> nprocs 16
|  4> end
|  5>
|  6> * xyz 0 1
|  7> S 	 -71.0539 	 37.8725 	 131.687
|  8> C 	 -70.3549 	 38.5679 	 130.229
|  9> C 	 -69.0795 	 39.0112 	 130.51
| 10> C 	 -68.5689 	 38.4955 	 131.736
| 11> C 	 -69.4645 	 37.7324 	 132.441
| 12> H 	 -67.5821 	 38.6622 	 132.105
| 13> C 	 -68.2009 	 39.6876 	 129.508
| 14> H 	 -68.717 	 39.5883 	 128.542
| 15> H 	 -67.2916 	 39.0658 	 129.37
| 16> C 	 -67.9446 	 41.2577 	 129.749
| 17> H 	 -67.6442 	 41.6162 	 128.793
| 18> H 	 -68.8791 	 41.7857 	 129.884
| 19> C 	 -66.9376 	 41.669 	 130.853
| 20> H 	 -66.0362 	 41.0713 	 131.082
| 21> H 	 -66.6078 	 42.7041 	 130.618
| 22> H 	 -67.4805 	 41.634 	 131.747
| 23> S 	 -69.5179 	 38.341 	 135.008
| 24> C 	 -69.0797 	 37.1957 	 136.217
| 25> C 	 -68.4713 	 36.1214 	 135.611
| 26> C 	 -68.5129 	 36.0906 	 134.207
| 27> C 	 -69.2452 	 37.1685 	 133.77
| 28> H 	 -68.1255 	 35.3839 	 136.315
| 29> C 	 -67.9712 	 34.9912 	 133.361
| 30> H 	 -67.0147 	 34.737 	 133.732
| 31> H 	 -67.8852 	 35.3302 	 132.263
| 32> C 	 -68.9292 	 33.8369 	 133.509
| 33> H 	 -69.1927 	 33.5554 	 134.555
| 34> H 	 -68.3551 	 32.9838 	 133.115
| 35> C 	 -70.1579 	 33.8647 	 132.592
| 36> H 	 -70.848 	 34.6493 	 132.983
| 37> H 	 -70.7204 	 32.9297 	 132.463
| 38> H 	 -69.9962 	 34.2405 	 131.58
| 39> H 	 -70.9328 	 38.8695 	 129.4
| 40> H 	 -69.1241 	 37.3454 	 137.231
| 41> *
| 42>
| 43>                          ****END OF INPUT****

CARTESIAN COORDINATES (ANGSTROEM)
---------------------------------
  S    -71.053900   37.872500  131.687000
  C    -70.354900   38.567900  130.229000
  C    -69.079500   39.011200  130.510000
  C    -68.568900   38.495500  131.736000
  C    -69.464500   37.732400  132.441000
  H    -67.582100   38.662200  132.105000
  C    -68.200900   39.687600  129.508000
  H    -68.717000   39.588300  128.542000
  H    -67.291600   39.065800  129.370000
  C    -67.944600   41.257700  129.749000
  H    -67.644200   41.616200  128.793000
  H    -68.879100   41.785700  129.884000
  C    -66.937600   41.669000  130.853000
  H    -66.036200   41.071300  131.082000
  H    -66.607800   42.704100  130.618000
  H    -67.480500   41.634000  131.747000
  S    -69.517900   38.341000  135.008000
  C    -69.079700   37.195700  136.217000
  C    -68.471300   36.121400  135.611000
  C    -68.512900   36.090600  134.207000
  C    -69.245200   37.168500  133.770000
  H    -68.125500   35.383900  136.315000
  C    -67.971200   34.991200  133.361000
  H    -67.014700   34.737000  133.732000
  H    -67.885200   35.330200  132.263000
  C    -68.929200   33.836900  133.509000
  H    -69.192700   33.555400  134.555000
  H    -68.355100   32.983800  133.115000
  C    -70.157900   33.864700  132.592000
  H    -70.848000   34.649300  132.983000
  H    -70.720400   32.929700  132.463000
  H    -69.996200   34.240500  131.580000
  H    -70.932800   38.869500  129.400000
  H    -69.124100   37.345400  137.231000

 Total Charge           Charge          ....    0
 Multiplicity           Mult            ....    1
 Number of Electrons    NEL             ....  134
 Basis Dimension        Dim             ....  322

ORBITAL ENERGIES
----------------

  NO   OCC          E(Eh)            E(eV)
   0   2.0000     -88.961329     -2420.7608
   1   2.0000     -88.959069     -2420.6993
   2   2.0000     -10.325221      -280.9636
   3   2.0000     -10.317365      -280.7498
   4   2.0000     -10.310027      -280.5501
   5   2.0000     -10.305616      -280.4301
   6   2.0000     -10.299270      -280.2574
   7   2.0000     -10.296180      -280.1733
   8   2.0000     -10.295419      -280.1526
   9   2.0000     -10.292796      -280.0812
  10   2.0000     -10.290109      -280.0081
  11   2.0000     -10.288548      -279.9656
  12   2.0000     -10.287302      -279.9317
  13   2.0000     -10.285886      -279.8932
  14   2.0000     -10.278113      -279.6817
  15   2.0000     -10.272784      -279.5367
  16   2.0000      -8.075779      -219.7531
  17   2.0000      -8.075119      -219.7352
  18   2.0000      -6.034263      -164.2006
  19   2.0000      -6.033548      -164.1812
  20   2.0000      -6.030463      -164.0972
  21   2.0000      -6.029512      -164.0714
  22   2.0000      -6.026434      -163.9876
  23   2.0000      -6.025800      -163.9704
  24   2.0000      -1.012714       -27.5573
  25   2.0000      -0.987305       -26.8659
  26   2.0000      -0.916792       -24.9472
  27   2.0000      -0.902110       -24.5477
  28   2.0000      -0.869704       -23.6659
  29   2.0000      -0.846300       -23.0290
  30   2.0000      -0.844835       -22.9891
  31   2.0000      -0.815655       -22.1951
  32   2.0000      -0.784004       -21.3338
  33   2.0000      -0.772159       -21.0115
  34   2.0000      -0.706999       -19.2384
  35   2.0000      -0.702630       -19.1195
  36   2.0000      -0.695205       -18.9175
  37   2.0000      -0.660172       -17.9642
  38   2.0000      -0.643713       -17.5163
  39   2.0000      -0.617118       -16.7926
  40   2.0000      -0.601812       -16.3761
  41   2.0000      -0.567904       -15.4534
  42   2.0000      -0.557975       -15.1833
  43   2.0000      -0.542265       -14.7558
  44   2.0000      -0.535471       -14.5709
  45   2.0000      -0.528557       -14.3828
  46   2.0000      -0.522216       -14.2102
  47   2.0000      -0.514448       -13.9988
  48   2.0000      -0.501499       -13.6465
  49   2.0000      -0.498664       -13.5693
  50   2.0000      -0.485703       -13.2167
  51   2.0000      -0.481197       -13.0940
  52   2.0000      -0.478207       -13.0127
  53   2.0000      -0.466626       -12.6975
  54   2.0000      -0.460024       -12.5179
  55   2.0000      -0.441069       -12.0021
  56   2.0000      -0.439422       -11.9573
  57   2.0000      -0.438023       -11.9192
  58   2.0000      -0.434976       -11.8363
  59   2.0000      -0.430859       -11.7243
  60   2.0000      -0.418786       -11.3957
  61   2.0000      -0.409645       -11.1470
  62   2.0000      -0.399249       -10.8641
  63   2.0000      -0.335221        -9.1218
  64   2.0000      -0.322505        -8.7758
  65   2.0000      -0.318310        -8.6617
  66   2.0000      -0.310638        -8.4529
  67   0.0000       0.043252         1.1770
  68   0.0000       0.053397         1.4530
  69   0.0000       0.113426         3.0865
  70   0.0000       0.120093         3.2679
  71   0.0000       0.129752         3.5307

MULLIKEN ATOMIC CHARGES
-----------------------
   0 S :    0.099484
   1 C :   -0.099076
   2 C :   -0.075499
   3 C :    0.054739
   4 C :   -0.170582
   5 H :    0.001310
   6 C :    0.020140
   7 H :    0.013058
   8 H :    0.041938
   9 C :   -0.044497
  10 H :    0.015917
  11 H :    0.026033
  12 C :   -0.051535
  13 H :    0.036308
  14 H :    0.041071
  15 H :    0.029741
  16 S :    0.112659
  17 C :   -0.048603
  18 C :   -0.067283
  19 C :   -0.002173
  20 C :   -0.193178
  21 H :    0.010375
  22 C :    0.115232
  23 H :    0.014372
  24 H :    0.049212
  25 C :   -0.085353
  26 H :    0.042702
  27 H :    0.021777
  28 C :   -0.060070
  29 H :    0.028293
  30 H :    0.042505
  31 H :    0.024263
  32 H :    0.037449
  33 H :    0.019269
Sum of atomic charges:   -0.0000000

LOEWDIN ATOMIC CHARGES
----------------------
   0 S :    0.391668
   1 C :   -0.185751
   2 C :   -0.068195
   3 C :   -0.058194
   4 C :   -0.197168
   5 H :    0.027450
   6 C :   -0.034241
   7 H :    0.030462
   8 H :    0.035225
   9 C :   -0.031733
  10 H :    0.016681
  11 H :    0.027501
  12 C :   -0.070240
  13 H :    0.027744
  14 H :    0.033878
  15 H :    0.019659
  16 S :    0.427657
  17 C :   -0.177819
  18 C :   -0.072852
  19 C :   -0.052022
  20 C :   -0.211539
  21 H :    0.028151
  22 C :   -0.024749
  23 H :    0.027227
  24 H :    0.045659
  25 C :   -0.043495
  26 H :    0.030567
  27 H :    0.022870
  28 C :   -0.074423
  29 H :    0.025295
  30 H :    0.028557
  31 H :    0.024606
  32 H :    0.019795
  33 H :    0.011768

  Mayer bond orders larger than 0.100000
B(  0-S ,  1-C ) :   1.1354 B(  0-S ,  4-C ) :   1.1476 B(  1-C ,  2-C ) :   1.6113
B(  1-C , 32-H ) :   0.9721 B(  2-C ,  3-C ) :   1.2227 B(  2-C ,  6-C ) :   1.0307
B(  3-C ,  4-C ) :   1.5869 B(  3-C ,  5-H ) :   1.0066 B(  4-C , 20-C ) :   0.9990
B(  6-C ,  7-H ) :   0.9418 B(  6-C ,  8-H ) :   0.9512 B(  6-C ,  9-C ) :   1.0558
B(  9-C , 10-H ) :   0.9634 B(  9-C , 11-H ) :   0.9558 B(  9-C , 12-C ) :   1.0629
B( 12-C , 13-H ) :   0.9793 B( 12-C , 14-H ) :   0.9738 B( 12-C , 15-H ) :   0.9778
B( 16-S , 17-C ) :   1.1558 B( 16-S , 20-C ) :   1.1728 B( 17-C , 18-C ) :   1.6151
B( 17-C , 20-C ) :   0.1031 B( 17-C , 33-H ) :   0.9807 B( 18-C , 19-C ) :   1.2154
B( 18-C , 21-H ) :   0.9937 B( 19-C , 20-C ) :   1.5942 B( 19-C , 22-C ) :   1.0507
B( 22-C , 23-H ) :   0.9188 B( 22-C , 24-H ) :   0.9308 B( 22-C , 25-C ) :   1.0760
B( 25-C , 26-H ) :   0.9566 B( 25-C , 27-H ) :   0.9518 B( 25-C , 28-C ) :   1.0710
B( 28-C , 29-H ) :   0.9706 B( 28-C , 30-H ) :   0.9766 B( 28-C , 31-H ) :   0.9719

Dispersion correction           -0.015239116
FINAL SINGLE POINT ENERGY     -1339.862440546405

DIPOLE MOMENT
-------------
                                X             Y             Z
Electronic contribution:    -10.91722       2.21043      11.00120
Nuclear contribution   :     11.45534      -2.20392     -11.15754
                        -----------------------------------------
Total Dipole Moment    :      0.53812       0.00650      -0.15634
                        -----------------------------------------
Magnitude (a.u.)       :      0.56041
Magnitude (Debye)      :      1.42444

Rotational constants in cm-1:     0.020575     0.008682     0.007575
Rotational constants in MHz :   616.826418   260.275051   227.086502

                             ****ORCA TERMINATED NORMALLY****
TOTAL RUN TIME: 0 days 0 hours 0 minutes 34 seconds 317 msec
