                         Program Version 4.2.1 -  RELEASE  -
|  1> ! wB97X-D3 SP def2-SVP
|  2> %pal
|  3> nprocs 16
|  4> end
|  5>
|  6> * xyz 0 1
|  7> S 	 31.6849 	 4.27993 	 65.4388
|  8> C 	 31.4384 	 5.6251 	 64.3057
|  9> C 	 31.183 	 5.1133 	 62.9881
| 10> C 	 30.8126 	 3.71226 	 63.0206
| 11> C 	 31.0012 	 3.11817 	 64.2326
| 12> H 	 30.5751 	 3.12587 	 62.1463
| 13> C 	 30.9457 	 5.87312 	 61.7401
| 14> H 	 30.3927 	 6.74341 	 61.9173
| 15> H 	 30.3064 	 5.13178 	 61.2372
| 16> C 	 32.0892 	 6.08244 	 60.7925
| 17> H 	 32.6563 	 5.19328 	 60.5291
| 18> H 	 31.7183 	 6.45287 	 59.8118
| 19> C 	 33.0417 	 7.14096 	 61.3517
| 20> H 	 33.4825 	 6.8588 	 62.2953
| 21> H 	 33.8063 	 7.30494 	 60.6009
| 22> H 	 32.6254 	 8.12753 	 61.5424
| 23> S 	 31.9689 	 1.0171 	 65.7769
| 24> C 	 31.1908 	 -0.557577 	 65.6076
| 25> C 	 30.1052 	 -0.502917 	 64.7509
| 26> C 	 29.977 	 0.778324 	 64.1656
| 27> C 	 30.9525 	 1.72517 	 64.5156
| 28> H 	 29.4978 	 -1.371 	 64.6185
| 29> C 	 28.8643 	 1.05404 	 63.1415
| 30> H 	 29.2354 	 0.832136 	 62.1782
| 31> H 	 28.6283 	 2.12296 	 63.201
| 32> C 	 27.6113 	 0.214612 	 63.3519
| 33> H 	 27.0189 	 0.365017 	 64.3034
| 34> H 	 27.8653 	 -0.826386 	 63.4409
| 35> C 	 26.6149 	 0.46502 	 62.1526
| 36> H 	 27.1097 	 0.329077 	 61.1388
| 37> H 	 26.3196 	 1.56597 	 62.2163
| 38> H 	 25.6647 	 -0.130042 	 62.3436
| 39> H 	 31.791 	 6.66881 	 64.4089
| 40> H 	 31.5216 	 -1.47425 	 66.0718
| 41> *
| 42>
| 43>                          ****END OF INPUT****

CARTESIAN COORDINATES (ANGSTROEM)
---------------------------------
  S     31.684900    4.279930   65.438800
  C     31.438400    5.625100   64.305700
  C     31.183000    5.113300   62.988100
  C     30.812600    3.712260   63.020600
  C     31.001200    3.118170   64.232600
  H     30.575100    3.125870   62.146300
  C     30.945700    5.873120   61.740100
  H     30.392700    6.743410   61.917300
  H     30.306400    5.131780   61.237200
  C     32.089200    6.082440   60.792500
  H     32.656300    5.193280   60.529100
  H     31.718300    6.452870   59.811800
  C     33.041700    7.140960   61.351700
  H     33.482500    6.858800   62.295300
  H     33.806300    7.304940   60.600900
  H     32.625400    8.127530   61.542400
  S     31.968900    1.017100   65.776900
  C     31.190800   -0.557577   65.607600
  C     30.105200   -0.502917   64.750900
  C     29.977000    0.778324   64.165600
  C     30.952500    1.725170   64.515600
  H     29.497800   -1.371000   64.618500
  C     28.864300    1.054040   63.141500
  H     29.235400    0.832136   62.178200
  H     28.628300    2.122960   63.201000
  C     27.611300    0.214612   63.351900
  H     27.018900    0.365017   64.303400
  H     27.865300   -0.826386   63.440900
  C     26.614900    0.465020   62.152600
  H     27.109700    0.329077   61.138800
  H     26.319600    1.565970   62.216300
  H     25.664700   -0.130042   62.343600
  H     31.791000    6.668810   64.408900
  H     31.521600   -1.474250   66.071800

 Total Charge           Charge          ....    0
 Multiplicity           Mult            ....    1
 Number of Electrons    NEL             ....  134
 Basis Dimension        Dim             ....  322

ORBITAL ENERGIES
----------------

  NO   OCC          E(Eh)            E(eV)
   0   2.0000     -88.969094     -2420.9721
   1   2.0000     -88.967733     -2420.9351
   2   2.0000     -10.332637      -281.1653
   3   2.0000     -10.327174      -281.0167
   4   2.0000     -10.322558      -280.8911
   5   2.0000     -10.320384      -280.8319
   6   2.0000     -10.306726      -280.4603
   7   2.0000     -10.304561      -280.4014
   8   2.0000     -10.295765      -280.1620
   9   2.0000     -10.294031      -280.1148
  10   2.0000     -10.293792      -280.1083
  11   2.0000     -10.291214      -280.0382
  12   2.0000     -10.289620      -279.9948
  13   2.0000     -10.287809      -279.9455
  14   2.0000     -10.283675      -279.8330
  15   2.0000     -10.271896      -279.5125
  16   2.0000      -8.082298      -219.9305
  17   2.0000      -8.081860      -219.9186
  18   2.0000      -6.041134      -164.3876
  19   2.0000      -6.040459      -164.3693
  20   2.0000      -6.037163      -164.2796
  21   2.0000      -6.036455      -164.2603
  22   2.0000      -6.032655      -164.1569
  23   2.0000      -6.032565      -164.1545
  24   2.0000      -1.004145       -27.3242
  25   2.0000      -0.977689       -26.6043
  26   2.0000      -0.919517       -25.0213
  27   2.0000      -0.907920       -24.7058
  28   2.0000      -0.872130       -23.7319
  29   2.0000      -0.852175       -23.1889
  30   2.0000      -0.841838       -22.9076
  31   2.0000      -0.814033       -22.1510
  32   2.0000      -0.780756       -21.2454
  33   2.0000      -0.766767       -20.8648
  34   2.0000      -0.709071       -19.2948
  35   2.0000      -0.703894       -19.1539
  36   2.0000      -0.699733       -19.0407
  37   2.0000      -0.655273       -17.8309
  38   2.0000      -0.636987       -17.3333
  39   2.0000      -0.625119       -17.0104
  40   2.0000      -0.597305       -16.2535
  41   2.0000      -0.571110       -15.5407
  42   2.0000      -0.566872       -15.4254
  43   2.0000      -0.552502       -15.0343
  44   2.0000      -0.539428       -14.6786
  45   2.0000      -0.529374       -14.4050
  46   2.0000      -0.520106       -14.1528
  47   2.0000      -0.512513       -13.9462
  48   2.0000      -0.502967       -13.6864
  49   2.0000      -0.495088       -13.4720
  50   2.0000      -0.485357       -13.2072
  51   2.0000      -0.480157       -13.0657
  52   2.0000      -0.466186       -12.6856
  53   2.0000      -0.461454       -12.5568
  54   2.0000      -0.460530       -12.5317
  55   2.0000      -0.456648       -12.4260
  56   2.0000      -0.451764       -12.2931
  57   2.0000      -0.440982       -11.9997
  58   2.0000      -0.433359       -11.7923
  59   2.0000      -0.422177       -11.4880
  60   2.0000      -0.418577       -11.3901
  61   2.0000      -0.411368       -11.1939
  62   2.0000      -0.406552       -11.0628
  63   2.0000      -0.360240        -9.8026
  64   2.0000      -0.335343        -9.1252
  65   2.0000      -0.325978        -8.8703
  66   2.0000      -0.280299        -7.6273
  67   0.0000       0.016896         0.4598
  68   0.0000       0.064383         1.7520
  69   0.0000       0.098240         2.6732
  70   0.0000       0.114759         3.1227
  71   0.0000       0.136616         3.7175

MULLIKEN ATOMIC CHARGES
-----------------------
   0 S :    0.093188
   1 C :   -0.105487
   2 C :   -0.110549
   3 C :   -0.021821
   4 C :   -0.104334
   5 H :    0.023171
   6 C :    0.067951
   7 H :    0.023290
   8 H :    0.016217
   9 C :   -0.044010
  10 H :    0.027446
  11 H :    0.028477
  12 C :   -0.057031
  13 H :    0.030591
  14 H :    0.029348
  15 H :    0.018914
  16 S :    0.092532
  17 C :   -0.085329
  18 C :   -0.029294
  19 C :   -0.055412
  20 C :   -0.122521
  21 H :    0.017162
  22 C :    0.075387
  23 H :    0.030365
  24 H :    0.038996
  25 C :   -0.111911
  26 H :    0.041272
  27 H :    0.026789
  28 C :   -0.092667
  29 H :    0.046769
  30 H :    0.039783
  31 H :    0.052498
  32 H :    0.065689
  33 H :    0.054531
Sum of atomic charges:   -0.0000000

LOEWDIN ATOMIC CHARGES
----------------------
   0 S :    0.369351
   1 C :   -0.204137
   2 C :   -0.051191
   3 C :   -0.068257
   4 C :   -0.163835
   5 H :    0.032626
   6 C :   -0.035524
   7 H :    0.027350
   8 H :    0.036193
   9 C :   -0.036335
  10 H :    0.026333
  11 H :    0.028132
  12 C :   -0.068060
  13 H :    0.021154
  14 H :    0.025197
  15 H :    0.021256
  16 S :    0.392381
  17 C :   -0.171992
  18 C :   -0.072265
  19 C :   -0.050231
  20 C :   -0.198013
  21 H :    0.030824
  22 C :   -0.030419
  23 H :    0.026198
  24 H :    0.033702
  25 C :   -0.047888
  26 H :    0.032580
  27 H :    0.014661
  28 C :   -0.078228
  29 H :    0.029446
  30 H :    0.030731
  31 H :    0.033610
  32 H :    0.035170
  33 H :    0.029481

  Mayer bond orders larger than 0.100000
B(  0-S ,  1-C ) :   1.1186 B(  0-S ,  4-C ) :   1.1115 B(  1-C ,  2-C ) :   1.6040
B(  1-C , 32-H ) :   0.9599 B(  2-C ,  3-C ) :   1.2324 B(  2-C ,  6-C ) :   1.0232
B(  3-C ,  4-C ) :   1.5812 B(  3-C ,  5-H ) :   0.9830 B(  4-C , 20-C ) :   1.1213
B(  6-C ,  7-H ) :   0.9443 B(  6-C ,  8-H ) :   0.9380 B(  6-C ,  9-C ) :   1.0804
B(  9-C , 10-H ) :   0.9514 B(  9-C , 11-H ) :   0.9517 B(  9-C , 12-C ) :   1.0787
B( 12-C , 13-H ) :   0.9748 B( 12-C , 14-H ) :   0.9735 B( 12-C , 15-H ) :   0.9750
B( 16-S , 17-C ) :   1.1634 B( 16-S , 20-C ) :   1.1133 B( 17-C , 18-C ) :   1.5917
B( 17-C , 33-H ) :   0.9642 B( 18-C , 19-C ) :   1.2615 B( 18-C , 21-H ) :   0.9949
B( 19-C , 20-C ) :   1.5623 B( 19-C , 22-C ) :   1.0310 B( 22-C , 23-H ) :   0.9345
B( 22-C , 24-H ) :   0.9277 B( 22-C , 25-C ) :   1.0666 B( 25-C , 26-H ) :   0.9564
B( 25-C , 27-H ) :   0.9473 B( 25-C , 28-C ) :   1.0767 B( 28-C , 29-H ) :   0.9736
B( 28-C , 30-H ) :   0.9751 B( 28-C , 31-H ) :   0.9731

Dispersion correction           -0.013674037
FINAL SINGLE POINT ENERGY     -1339.866404068709

DIPOLE MOMENT
-------------
                                X             Y             Z
Electronic contribution:     12.19728      -6.04842      22.77634
Nuclear contribution   :    -12.49497       5.90625     -23.41474
                        -----------------------------------------
Total Dipole Moment    :     -0.29768      -0.14217      -0.63841
                        -----------------------------------------
Magnitude (a.u.)       :      0.71860
Magnitude (Debye)      :      1.82654

Rotational constants in cm-1:     0.018643     0.008202     0.006242
Rotational constants in MHz :   558.908951   245.889091   187.145142

                             ****ORCA TERMINATED NORMALLY****
TOTAL RUN TIME: 0 days 0 hours 0 minutes 27 seconds 951 msec
