                         Program Version 4.2.1 -  RELEASE  -
|  1> ! wB97X-D3 SP def2-SVP
|  2> %pal
|  3> nprocs 16
|  4> end
|  5>
|  6> * xyz 0 1
|  7> S 	 34.0912 	 12.5314 	 70.438
|  8> C 	 32.4735 	 13.0635 	 70.337
|  9> C 	 32.2993 	 13.9155 	 69.2016
| 10> C 	 33.5289 	 14.2623 	 68.5246
| 11> C 	 34.6357 	 13.6394 	 69.1118
| 12> H 	 33.6484 	 14.824 	 67.5884
| 13> C 	 30.984 	 14.5613 	 68.8583
| 14> H 	 30.2346 	 13.7772 	 69.0872
| 15> H 	 30.9199 	 14.886 	 67.8048
| 16> C 	 30.9348 	 15.9416 	 69.5574
| 17> H 	 31.1757 	 15.7629 	 70.5847
| 18> H 	 31.7293 	 16.6348 	 69.2414
| 19> C 	 29.5719 	 16.5692 	 69.4389
| 20> H 	 28.8554 	 16.0097 	 69.939
| 21> H 	 29.6134 	 17.562 	 69.7136
| 22> H 	 29.2017 	 16.5592 	 68.4582
| 23> S 	 36.7233 	 15.1387 	 67.9679
| 24> C 	 38.192 	 14.3162 	 67.5088
| 25> C 	 38.0427 	 12.9415 	 67.622
| 26> C 	 36.8187 	 12.5962 	 68.2413
| 27> C 	 35.9434 	 13.6157 	 68.5565
| 28> H 	 38.8843 	 12.2466 	 67.4453
| 29> C 	 36.4819 	 11.1152 	 68.3923
| 30> H 	 36.7245 	 10.6145 	 67.5207
| 31> H 	 35.3805 	 11.0743 	 68.359
| 32> C 	 36.9751 	 10.4423 	 69.6815
| 33> H 	 36.3637 	 10.7662 	 70.4576
| 34> H 	 37.9345 	 10.8829 	 69.876
| 35> C 	 36.9774 	 8.945 	 69.6547
| 36> H 	 37.4274 	 8.59909 	 70.547
| 37> H 	 37.3985 	 8.55892 	 68.7175
| 38> H 	 35.8959 	 8.67633 	 69.6434
| 39> H 	 31.8041 	 12.7716 	 71.0315
| 40> H 	 39.1417 	 14.7884 	 67.2563
| 41> *
| 42>
| 43>                          ****END OF INPUT****

CARTESIAN COORDINATES (ANGSTROEM)
---------------------------------
  S     34.091200   12.531400   70.438000
  C     32.473500   13.063500   70.337000
  C     32.299300   13.915500   69.201600
  C     33.528900   14.262300   68.524600
  C     34.635700   13.639400   69.111800
  H     33.648400   14.824000   67.588400
  C     30.984000   14.561300   68.858300
  H     30.234600   13.777200   69.087200
  H     30.919900   14.886000   67.804800
  C     30.934800   15.941600   69.557400
  H     31.175700   15.762900   70.584700
  H     31.729300   16.634800   69.241400
  C     29.571900   16.569200   69.438900
  H     28.855400   16.009700   69.939000
  H     29.613400   17.562000   69.713600
  H     29.201700   16.559200   68.458200
  S     36.723300   15.138700   67.967900
  C     38.192000   14.316200   67.508800
  C     38.042700   12.941500   67.622000
  C     36.818700   12.596200   68.241300
  C     35.943400   13.615700   68.556500
  H     38.884300   12.246600   67.445300
  C     36.481900   11.115200   68.392300
  H     36.724500   10.614500   67.520700
  H     35.380500   11.074300   68.359000
  C     36.975100   10.442300   69.681500
  H     36.363700   10.766200   70.457600
  H     37.934500   10.882900   69.876000
  C     36.977400    8.945000   69.654700
  H     37.427400    8.599090   70.547000
  H     37.398500    8.558920   68.717500
  H     35.895900    8.676330   69.643400
  H     31.804100   12.771600   71.031500
  H     39.141700   14.788400   67.256300

 Total Charge           Charge          ....    0
 Multiplicity           Mult            ....    1
 Number of Electrons    NEL             ....  134
 Basis Dimension        Dim             ....  322

ORBITAL ENERGIES
----------------

  NO   OCC          E(Eh)            E(eV)
   0   2.0000     -88.971172     -2421.0287
   1   2.0000     -88.965177     -2420.8655
   2   2.0000     -10.335695      -281.2486
   3   2.0000     -10.327985      -281.0388
   4   2.0000     -10.320195      -280.8268
   5   2.0000     -10.311700      -280.5956
   6   2.0000     -10.308663      -280.5130
   7   2.0000     -10.301955      -280.3305
   8   2.0000     -10.298782      -280.2441
   9   2.0000     -10.294415      -280.1253
  10   2.0000     -10.293340      -280.0960
  11   2.0000     -10.281524      -279.7745
  12   2.0000     -10.277170      -279.6560
  13   2.0000     -10.272704      -279.5345
  14   2.0000     -10.269496      -279.4472
  15   2.0000     -10.258403      -279.1453
  16   2.0000      -8.084880      -220.0008
  17   2.0000      -8.079064      -219.8425
  18   2.0000      -6.043452      -164.4507
  19   2.0000      -6.039410      -164.3407
  20   2.0000      -6.037715      -164.2946
  21   2.0000      -6.035778      -164.2419
  22   2.0000      -6.033680      -164.1848
  23   2.0000      -6.029735      -164.0774
  24   2.0000      -1.002846       -27.2888
  25   2.0000      -0.980791       -26.6887
  26   2.0000      -0.914942       -24.8968
  27   2.0000      -0.909165       -24.7396
  28   2.0000      -0.876761       -23.8579
  29   2.0000      -0.854820       -23.2608
  30   2.0000      -0.849263       -23.1096
  31   2.0000      -0.814660       -22.1680
  32   2.0000      -0.780521       -21.2390
  33   2.0000      -0.767084       -20.8734
  34   2.0000      -0.709669       -19.3111
  35   2.0000      -0.703286       -19.1374
  36   2.0000      -0.696178       -18.9440
  37   2.0000      -0.669669       -18.2226
  38   2.0000      -0.646262       -17.5857
  39   2.0000      -0.610759       -16.6196
  40   2.0000      -0.594340       -16.1728
  41   2.0000      -0.574857       -15.6426
  42   2.0000      -0.563365       -15.3299
  43   2.0000      -0.561655       -15.2834
  44   2.0000      -0.539960       -14.6930
  45   2.0000      -0.532139       -14.4802
  46   2.0000      -0.519334       -14.1318
  47   2.0000      -0.517048       -14.0696
  48   2.0000      -0.507520       -13.8103
  49   2.0000      -0.503738       -13.7074
  50   2.0000      -0.498211       -13.5570
  51   2.0000      -0.477423       -12.9913
  52   2.0000      -0.467564       -12.7231
  53   2.0000      -0.467331       -12.7167
  54   2.0000      -0.455604       -12.3976
  55   2.0000      -0.450857       -12.2684
  56   2.0000      -0.446628       -12.1534
  57   2.0000      -0.440188       -11.9781
  58   2.0000      -0.434359       -11.8195
  59   2.0000      -0.422292       -11.4911
  60   2.0000      -0.412767       -11.2320
  61   2.0000      -0.408798       -11.1240
  62   2.0000      -0.405986       -11.0474
  63   2.0000      -0.360308        -9.8045
  64   2.0000      -0.331488        -9.0203
  65   2.0000      -0.324772        -8.8375
  66   2.0000      -0.282126        -7.6771
  67   0.0000       0.021963         0.5977
  68   0.0000       0.063798         1.7360
  69   0.0000       0.100103         2.7239
  70   0.0000       0.114151         3.1062
  71   0.0000       0.138950         3.7810

MULLIKEN ATOMIC CHARGES
-----------------------
   0 S :    0.104373
   1 C :   -0.070736
   2 C :   -0.096085
   3 C :    0.007360
   4 C :   -0.142196
   5 H :    0.036994
   6 C :    0.034309
   7 H :    0.041052
   8 H :    0.027493
   9 C :   -0.092920
  10 H :    0.015421
  11 H :    0.033715
  12 C :    0.065665
  13 H :    0.007793
  14 H :    0.016441
  15 H :   -0.001565
  16 S :    0.090668
  17 C :   -0.096541
  18 C :   -0.027440
  19 C :   -0.074041
  20 C :   -0.124645
  21 H :    0.034903
  22 C :    0.048614
  23 H :   -0.001596
  24 H :    0.016709
  25 C :   -0.024783
  26 H :    0.003016
  27 H :    0.010950
  28 C :   -0.012111
  29 H :    0.033432
  30 H :    0.030165
  31 H :    0.027125
  32 H :    0.012682
  33 H :    0.065779
Sum of atomic charges:   -0.0000000

LOEWDIN ATOMIC CHARGES
----------------------
   0 S :    0.423330
   1 C :   -0.199162
   2 C :   -0.052694
   3 C :   -0.060264
   4 C :   -0.174577
   5 H :    0.038760
   6 C :   -0.038542
   7 H :    0.035403
   8 H :    0.032819
   9 C :   -0.034387
  10 H :    0.017382
  11 H :    0.029164
  12 C :   -0.050933
  13 H :    0.019035
  14 H :    0.019183
  15 H :    0.018661
  16 S :    0.382582
  17 C :   -0.182642
  18 C :   -0.077401
  19 C :   -0.058324
  20 C :   -0.182921
  21 H :    0.038860
  22 C :   -0.031263
  23 H :    0.016613
  24 H :    0.022981
  25 C :   -0.037308
  26 H :    0.007305
  27 H :    0.016349
  28 C :   -0.056479
  29 H :    0.023104
  30 H :    0.024431
  31 H :    0.031573
  32 H :    0.004575
  33 H :    0.034785

  Mayer bond orders larger than 0.100000
B(  0-S ,  1-C ) :   1.1547 B(  0-S ,  4-C ) :   1.1421 B(  1-C ,  2-C ) :   1.5467
B(  1-C ,  4-C ) :   0.1007 B(  1-C , 32-H ) :   0.9907 B(  2-C ,  3-C ) :   1.2661
B(  2-C ,  6-C ) :   1.0467 B(  3-C ,  4-C ) :   1.5342 B(  3-C ,  5-H ) :   0.9843
B(  4-C , 20-C ) :   1.0872 B(  6-C ,  7-H ) :   0.9463 B(  6-C ,  8-H ) :   0.9388
B(  6-C ,  9-C ) :   1.0459 B(  9-C , 10-H ) :   0.9572 B(  9-C , 11-H ) :   0.9560
B(  9-C , 12-C ) :   1.0877 B( 12-C , 13-H ) :   0.9697 B( 12-C , 14-H ) :   0.9681
B( 12-C , 15-H ) :   0.9646 B( 16-S , 17-C ) :   1.1626 B( 16-S , 20-C ) :   1.1030
B( 17-C , 18-C ) :   1.5897 B( 17-C , 33-H ) :   0.9646 B( 18-C , 19-C ) :   1.2577
B( 18-C , 21-H ) :   0.9843 B( 19-C , 20-C ) :   1.5884 B( 19-C , 22-C ) :   1.0397
B( 22-C , 23-H ) :   0.9407 B( 22-C , 24-H ) :   0.9270 B( 22-C , 25-C ) :   1.0509
B( 25-C , 26-H ) :   0.9423 B( 25-C , 27-H ) :   0.9578 B( 25-C , 28-C ) :   1.0886
B( 28-C , 29-H ) :   0.9717 B( 28-C , 30-H ) :   0.9775 B( 28-C , 31-H ) :   0.9726

Dispersion correction           -0.014190350
FINAL SINGLE POINT ENERGY     -1339.858241913917

DIPOLE MOMENT
-------------
                                X             Y             Z
Electronic contribution:     11.97563       5.82072      -1.39163
Nuclear contribution   :    -12.19926      -5.94911       1.28064
                        -----------------------------------------
Total Dipole Moment    :     -0.22363      -0.12839      -0.11099
                        -----------------------------------------
Magnitude (a.u.)       :      0.28074
Magnitude (Debye)      :      0.71358

Rotational constants in cm-1:     0.021600     0.007899     0.006066
Rotational constants in MHz :   647.549961   236.802487   181.858855

                             ****ORCA TERMINATED NORMALLY****
TOTAL RUN TIME: 0 days 0 hours 0 minutes 27 seconds 950 msec
