                         Program Version 4.2.1 -  RELEASE  -
|  1> ! wB97X-D3 SP def2-SVP
|  2> %pal
|  3> nprocs 16
|  4> end
|  5>
|  6> * xyz 0 1
|  7> S 	 -13.7346 	 67.7131 	 55.3365
|  8> C 	 -13.4246 	 66.408 	 56.5758
|  9> C 	 -12.1145 	 66.0828 	 56.6002
| 10> C 	 -11.355 	 66.8909 	 55.6581
| 11> C 	 -12.0295 	 67.8332 	 54.9528
| 12> H 	 -10.3213 	 66.7804 	 55.2968
| 13> C 	 -11.4092 	 65.1821 	 57.5785
| 14> H 	 -10.64 	 64.7795 	 56.9851
| 15> H 	 -12.1243 	 64.5557 	 58.0402
| 16> C 	 -10.6811 	 65.7906 	 58.8004
| 17> H 	 -10.0156 	 66.524 	 58.3615
| 18> H 	 -11.3331 	 66.3895 	 59.416
| 19> C 	 -9.67805 	 64.8379 	 59.4399
| 20> H 	 -9.32578 	 65.1837 	 60.3567
| 21> H 	 -10.0935 	 63.889 	 59.6325
| 22> H 	 -8.88624 	 64.6966 	 58.7427
| 23> S 	 -11.6906 	 68.2568 	 52.2884
| 24> C 	 -10.178 	 69.0647 	 51.7638
| 25> C 	 -9.71333 	 69.7962 	 52.8411
| 26> C 	 -10.4731 	 69.5915 	 54.0529
| 27> C 	 -11.4596 	 68.6582 	 53.9498
| 28> H 	 -8.77944 	 70.4058 	 52.7443
| 29> C 	 -10.0759 	 70.1238 	 55.2579
| 30> H 	 -9.50572 	 69.3367 	 55.8089
| 31> H 	 -11.0647 	 70.275 	 55.7577
| 32> C 	 -9.34837 	 71.4767 	 55.3378
| 33> H 	 -9.65066 	 72.0719 	 54.4587
| 34> H 	 -8.25926 	 71.2995 	 55.1842
| 35> C 	 -9.62767 	 72.1685 	 56.6616
| 36> H 	 -10.7169 	 72.1387 	 56.8239
| 37> H 	 -9.38057 	 73.1785 	 56.6855
| 38> H 	 -9.11435 	 71.7738 	 57.5619
| 39> H 	 -14.1719 	 66.0032 	 57.2132
| 40> H 	 -9.75679 	 69.1065 	 50.7639
| 41> *
| 42>
| 43>                          ****END OF INPUT****

CARTESIAN COORDINATES (ANGSTROEM)
---------------------------------
  S    -13.734600   67.713100   55.336500
  C    -13.424600   66.408000   56.575800
  C    -12.114500   66.082800   56.600200
  C    -11.355000   66.890900   55.658100
  C    -12.029500   67.833200   54.952800
  H    -10.321300   66.780400   55.296800
  C    -11.409200   65.182100   57.578500
  H    -10.640000   64.779500   56.985100
  H    -12.124300   64.555700   58.040200
  C    -10.681100   65.790600   58.800400
  H    -10.015600   66.524000   58.361500
  H    -11.333100   66.389500   59.416000
  C     -9.678050   64.837900   59.439900
  H     -9.325780   65.183700   60.356700
  H    -10.093500   63.889000   59.632500
  H     -8.886240   64.696600   58.742700
  S    -11.690600   68.256800   52.288400
  C    -10.178000   69.064700   51.763800
  C     -9.713330   69.796200   52.841100
  C    -10.473100   69.591500   54.052900
  C    -11.459600   68.658200   53.949800
  H     -8.779440   70.405800   52.744300
  C    -10.075900   70.123800   55.257900
  H     -9.505720   69.336700   55.808900
  H    -11.064700   70.275000   55.757700
  C     -9.348370   71.476700   55.337800
  H     -9.650660   72.071900   54.458700
  H     -8.259260   71.299500   55.184200
  C     -9.627670   72.168500   56.661600
  H    -10.716900   72.138700   56.823900
  H     -9.380570   73.178500   56.685500
  H     -9.114350   71.773800   57.561900
  H    -14.171900   66.003200   57.213200
  H     -9.756790   69.106500   50.763900

 Total Charge           Charge          ....    0
 Multiplicity           Mult            ....    1
 Number of Electrons    NEL             ....  134
 Basis Dimension        Dim             ....  322

ORBITAL ENERGIES
----------------

  NO   OCC          E(Eh)            E(eV)
   0   2.0000     -88.961327     -2420.7608
   1   2.0000     -88.958984     -2420.6970
   2   2.0000     -10.325087      -280.9599
   3   2.0000     -10.323327      -280.9120
   4   2.0000     -10.316984      -280.7394
   5   2.0000     -10.314749      -280.6786
   6   2.0000     -10.302895      -280.3560
   7   2.0000     -10.298358      -280.2326
   8   2.0000     -10.293273      -280.0942
   9   2.0000     -10.293238      -280.0933
  10   2.0000     -10.291439      -280.0443
  11   2.0000     -10.286836      -279.9190
  12   2.0000     -10.283199      -279.8201
  13   2.0000     -10.280333      -279.7421
  14   2.0000     -10.275787      -279.6184
  15   2.0000     -10.270390      -279.4715
  16   2.0000      -8.075267      -219.7392
  17   2.0000      -8.073909      -219.7022
  18   2.0000      -6.033966      -164.1926
  19   2.0000      -6.032590      -164.1551
  20   2.0000      -6.029955      -164.0834
  21   2.0000      -6.028342      -164.0395
  22   2.0000      -6.025779      -163.9698
  23   2.0000      -6.024488      -163.9347
  24   2.0000      -1.012627       -27.5550
  25   2.0000      -0.983464       -26.7614
  26   2.0000      -0.919898       -25.0317
  27   2.0000      -0.917417       -24.9642
  28   2.0000      -0.879232       -23.9251
  29   2.0000      -0.856169       -23.2976
  30   2.0000      -0.845319       -23.0023
  31   2.0000      -0.819080       -22.2883
  32   2.0000      -0.786636       -21.4054
  33   2.0000      -0.769626       -20.9426
  34   2.0000      -0.712938       -19.4000
  35   2.0000      -0.707301       -19.2466
  36   2.0000      -0.705898       -19.2085
  37   2.0000      -0.652937       -17.7673
  38   2.0000      -0.647645       -17.6233
  39   2.0000      -0.616762       -16.7829
  40   2.0000      -0.598288       -16.2802
  41   2.0000      -0.579476       -15.7683
  42   2.0000      -0.575921       -15.6716
  43   2.0000      -0.566546       -15.4165
  44   2.0000      -0.531673       -14.4676
  45   2.0000      -0.525585       -14.3019
  46   2.0000      -0.522474       -14.2172
  47   2.0000      -0.519157       -14.1270
  48   2.0000      -0.511407       -13.9161
  49   2.0000      -0.505288       -13.7496
  50   2.0000      -0.494762       -13.4632
  51   2.0000      -0.478340       -13.0163
  52   2.0000      -0.474075       -12.9002
  53   2.0000      -0.468906       -12.7596
  54   2.0000      -0.459035       -12.4910
  55   2.0000      -0.454062       -12.3556
  56   2.0000      -0.447116       -12.1666
  57   2.0000      -0.436623       -11.8811
  58   2.0000      -0.424888       -11.5618
  59   2.0000      -0.419577       -11.4173
  60   2.0000      -0.418374       -11.3845
  61   2.0000      -0.415279       -11.3003
  62   2.0000      -0.409682       -11.1480
  63   2.0000      -0.341647        -9.2967
  64   2.0000      -0.326661        -8.8889
  65   2.0000      -0.318495        -8.6667
  66   2.0000      -0.303013        -8.2454
  67   0.0000       0.036136         0.9833
  68   0.0000       0.056896         1.5482
  69   0.0000       0.110375         3.0035
  70   0.0000       0.118101         3.2137
  71   0.0000       0.125749         3.4218

MULLIKEN ATOMIC CHARGES
-----------------------
   0 S :    0.084634
   1 C :   -0.120370
   2 C :   -0.052686
   3 C :    0.019785
   4 C :   -0.176447
   5 H :    0.024329
   6 C :    0.104588
   7 H :    0.012305
   8 H :    0.013026
   9 C :   -0.077378
  10 H :    0.009890
  11 H :    0.024811
  12 C :    0.018680
  13 H :    0.021698
  14 H :    0.011784
  15 H :    0.022442
  16 S :    0.096381
  17 C :   -0.096704
  18 C :   -0.048138
  19 C :   -0.050282
  20 C :   -0.136408
  21 H :    0.039925
  22 C :    0.018513
  23 H :    0.046824
  24 H :    0.039085
  25 C :   -0.078979
  26 H :    0.034109
  27 H :    0.032363
  28 C :   -0.018166
  29 H :    0.030291
  30 H :    0.014660
  31 H :    0.036983
  32 H :    0.036535
  33 H :    0.061915
Sum of atomic charges:    0.0000000

LOEWDIN ATOMIC CHARGES
----------------------
   0 S :    0.360698
   1 C :   -0.159705
   2 C :   -0.060451
   3 C :   -0.062041
   4 C :   -0.193175
   5 H :    0.035731
   6 C :   -0.021176
   7 H :    0.028398
   8 H :    0.024789
   9 C :   -0.036978
  10 H :    0.021053
  11 H :    0.019558
  12 C :   -0.047259
  13 H :    0.022163
  14 H :    0.016817
  15 H :    0.024946
  16 S :    0.395385
  17 C :   -0.168335
  18 C :   -0.079273
  19 C :   -0.063005
  20 C :   -0.217276
  21 H :    0.039458
  22 C :   -0.050518
  23 H :    0.043575
  24 H :    0.043118
  25 C :   -0.042489
  26 H :    0.026981
  27 H :    0.025588
  28 C :   -0.062828
  29 H :    0.029284
  30 H :    0.017095
  31 H :    0.031947
  32 H :    0.024041
  33 H :    0.033886

  Mayer bond orders larger than 0.100000
B(  0-S ,  1-C ) :   1.1071 B(  0-S ,  4-C ) :   1.1084 B(  1-C ,  2-C ) :   1.6613
B(  1-C , 32-H ) :   0.9745 B(  2-C ,  3-C ) :   1.1691 B(  2-C ,  6-C ) :   1.0397
B(  3-C ,  4-C ) :   1.6628 B(  3-C ,  5-H ) :   0.9784 B(  4-C , 20-C ) :   1.0322
B(  6-C ,  7-H ) :   0.9298 B(  6-C ,  8-H ) :   0.9370 B(  6-C ,  9-C ) :   1.0697
B(  9-C , 10-H ) :   0.9561 B(  9-C , 11-H ) :   0.9585 B(  9-C , 12-C ) :   1.0704
B( 12-C , 13-H ) :   0.9706 B( 12-C , 14-H ) :   0.9761 B( 12-C , 15-H ) :   0.9753
B( 16-S , 17-C ) :   1.1532 B( 16-S , 20-C ) :   1.1156 B( 17-C , 18-C ) :   1.6059
B( 17-C , 33-H ) :   0.9686 B( 18-C , 19-C ) :   1.2141 B( 18-C , 21-H ) :   0.9827
B( 19-C , 20-C ) :   1.5930 B( 19-C , 22-C ) :   1.1023 B( 22-C , 23-H ) :   0.8982
B( 22-C , 24-H ) :   0.9283 B( 22-C , 25-C ) :   1.0635 B( 25-C , 26-H ) :   0.9598
B( 25-C , 27-H ) :   0.9417 B( 25-C , 28-C ) :   1.0875 B( 28-C , 29-H ) :   0.9740
B( 28-C , 30-H ) :   0.9714 B( 28-C , 31-H ) :   0.9722

Dispersion correction           -0.013882266
FINAL SINGLE POINT ENERGY     -1339.839531744873

DIPOLE MOMENT
-------------
                                X             Y             Z
Electronic contribution:    -17.67430      -2.32336     -22.99254
Nuclear contribution   :     18.45043       2.34740      23.50975
                        -----------------------------------------
Total Dipole Moment    :      0.77612       0.02404       0.51721
                        -----------------------------------------
Magnitude (a.u.)       :      0.93298
Magnitude (Debye)      :      2.37144

Rotational constants in cm-1:     0.016247     0.008680     0.006920
Rotational constants in MHz :   487.059453   260.213192   207.461283

                             ****ORCA TERMINATED NORMALLY****
TOTAL RUN TIME: 0 days 0 hours 0 minutes 33 seconds 673 msec
