                         Program Version 4.2.1 -  RELEASE  -
|  1> ! wB97X-D3 SP def2-SVP
|  2> %pal
|  3> nprocs 16
|  4> end
|  5>
|  6> * xyz 0 1
|  7> S 	 55.9357 	 20.8916 	 46.3249
|  8> C 	 55.0775 	 22.2296 	 47.0989
|  9> C 	 54.5411 	 21.9012 	 48.3109
| 10> C 	 54.9848 	 20.6141 	 48.8219
| 11> C 	 55.6223 	 19.9148 	 47.7668
| 12> H 	 54.7413 	 20.1354 	 49.7653
| 13> C 	 53.9012 	 22.91 	 49.3019
| 14> H 	 54.5679 	 23.797 	 49.2318
| 15> H 	 54.1711 	 22.5266 	 50.285
| 16> C 	 52.3674 	 23.2239 	 49.2469
| 17> H 	 51.7961 	 22.2551 	 49.4379
| 18> H 	 52.03 	 23.7112 	 50.1732
| 19> C 	 51.8999 	 23.7653 	 47.8954
| 20> H 	 52.3948 	 24.6991 	 47.531
| 21> H 	 52.1939 	 22.991 	 47.1727
| 22> H 	 50.8163 	 23.902 	 47.7388
| 23> S 	 57.9658 	 18.5341 	 47.718
| 24> C 	 57.9516 	 16.7649 	 47.8938
| 25> C 	 56.7424 	 16.3685 	 48.304
| 26> C 	 55.7027 	 17.4001 	 48.305
| 27> C 	 56.2416 	 18.5883 	 47.8378
| 28> H 	 56.6113 	 15.2842 	 48.6041
| 29> C 	 54.2736 	 17.1162 	 48.757
| 30> H 	 53.9819 	 17.7073 	 49.6042
| 31> H 	 54.199 	 16.0855 	 49.1362
| 32> C 	 53.0739 	 17.4645 	 47.7622
| 33> H 	 53.1649 	 16.878 	 46.8662
| 34> H 	 53.0816 	 18.5128 	 47.4388
| 35> C 	 51.6447 	 17.2745 	 48.4312
| 36> H 	 51.5349 	 16.3486 	 48.9997
| 37> H 	 50.8306 	 17.2373 	 47.5885
| 38> H 	 51.4682 	 18.1291 	 49.121
| 39> H 	 54.8256 	 23.1436 	 46.6702
| 40> H 	 58.7824 	 16.0826 	 47.8019
| 41> *
| 42>
| 43>                          ****END OF INPUT****

CARTESIAN COORDINATES (ANGSTROEM)
---------------------------------
  S     55.935700   20.891600   46.324900
  C     55.077500   22.229600   47.098900
  C     54.541100   21.901200   48.310900
  C     54.984800   20.614100   48.821900
  C     55.622300   19.914800   47.766800
  H     54.741300   20.135400   49.765300
  C     53.901200   22.910000   49.301900
  H     54.567900   23.797000   49.231800
  H     54.171100   22.526600   50.285000
  C     52.367400   23.223900   49.246900
  H     51.796100   22.255100   49.437900
  H     52.030000   23.711200   50.173200
  C     51.899900   23.765300   47.895400
  H     52.394800   24.699100   47.531000
  H     52.193900   22.991000   47.172700
  H     50.816300   23.902000   47.738800
  S     57.965800   18.534100   47.718000
  C     57.951600   16.764900   47.893800
  C     56.742400   16.368500   48.304000
  C     55.702700   17.400100   48.305000
  C     56.241600   18.588300   47.837800
  H     56.611300   15.284200   48.604100
  C     54.273600   17.116200   48.757000
  H     53.981900   17.707300   49.604200
  H     54.199000   16.085500   49.136200
  C     53.073900   17.464500   47.762200
  H     53.164900   16.878000   46.866200
  H     53.081600   18.512800   47.438800
  C     51.644700   17.274500   48.431200
  H     51.534900   16.348600   48.999700
  H     50.830600   17.237300   47.588500
  H     51.468200   18.129100   49.121000
  H     54.825600   23.143600   46.670200
  H     58.782400   16.082600   47.801900

 Total Charge           Charge          ....    0
 Multiplicity           Mult            ....    1
 Number of Electrons    NEL             ....  134
 Basis Dimension        Dim             ....  322

ORBITAL ENERGIES
----------------

  NO   OCC          E(Eh)            E(eV)
   0   2.0000     -88.971829     -2421.0465
   1   2.0000     -88.962447     -2420.7913
   2   2.0000     -10.334742      -281.2226
   3   2.0000     -10.323816      -280.9253
   4   2.0000     -10.312883      -280.6278
   5   2.0000     -10.310191      -280.5546
   6   2.0000     -10.307593      -280.4839
   7   2.0000     -10.304519      -280.4002
   8   2.0000     -10.303574      -280.3745
   9   2.0000     -10.299547      -280.2649
  10   2.0000     -10.299232      -280.2564
  11   2.0000     -10.297415      -280.2069
  12   2.0000     -10.296284      -280.1761
  13   2.0000     -10.291685      -280.0510
  14   2.0000     -10.289389      -279.9885
  15   2.0000     -10.284404      -279.8529
  16   2.0000      -8.085721      -220.0236
  17   2.0000      -8.077364      -219.7962
  18   2.0000      -6.044220      -164.4716
  19   2.0000      -6.040452      -164.3691
  20   2.0000      -6.036433      -164.2597
  21   2.0000      -6.036049      -164.2492
  22   2.0000      -6.032026      -164.1398
  23   2.0000      -6.027730      -164.0229
  24   2.0000      -1.005150       -27.3515
  25   2.0000      -0.980645       -26.6847
  26   2.0000      -0.903967       -24.5982
  27   2.0000      -0.895050       -24.3556
  28   2.0000      -0.868605       -23.6359
  29   2.0000      -0.848394       -23.0860
  30   2.0000      -0.840019       -22.8581
  31   2.0000      -0.813482       -22.1360
  32   2.0000      -0.781330       -21.2611
  33   2.0000      -0.769411       -20.9367
  34   2.0000      -0.709250       -19.2997
  35   2.0000      -0.702046       -19.1036
  36   2.0000      -0.691395       -18.8138
  37   2.0000      -0.656112       -17.8537
  38   2.0000      -0.639564       -17.4034
  39   2.0000      -0.611477       -16.6391
  40   2.0000      -0.593383       -16.1468
  41   2.0000      -0.564761       -15.3679
  42   2.0000      -0.557021       -15.1573
  43   2.0000      -0.545156       -14.8345
  44   2.0000      -0.534565       -14.5463
  45   2.0000      -0.515986       -14.0407
  46   2.0000      -0.512521       -13.9464
  47   2.0000      -0.508642       -13.8408
  48   2.0000      -0.497685       -13.5427
  49   2.0000      -0.495522       -13.4838
  50   2.0000      -0.487634       -13.2692
  51   2.0000      -0.484126       -13.1737
  52   2.0000      -0.471955       -12.8426
  53   2.0000      -0.460657       -12.5351
  54   2.0000      -0.458174       -12.4675
  55   2.0000      -0.449678       -12.2364
  56   2.0000      -0.441323       -12.0090
  57   2.0000      -0.433894       -11.8069
  58   2.0000      -0.429756       -11.6942
  59   2.0000      -0.427361       -11.6291
  60   2.0000      -0.424419       -11.5490
  61   2.0000      -0.421264       -11.4632
  62   2.0000      -0.406180       -11.0527
  63   2.0000      -0.345005        -9.3881
  64   2.0000      -0.334110        -9.0916
  65   2.0000      -0.323644        -8.8068
  66   2.0000      -0.297671        -8.1001
  67   0.0000       0.027048         0.7360
  68   0.0000       0.069861         1.9010
  69   0.0000       0.105230         2.8635
  70   0.0000       0.112261         3.0548
  71   0.0000       0.119439         3.2501

MULLIKEN ATOMIC CHARGES
-----------------------
   0 S :    0.119967
   1 C :   -0.079965
   2 C :   -0.100675
   3 C :    0.037904
   4 C :   -0.188896
   5 H :    0.029709
   6 C :    0.027714
   7 H :    0.040408
   8 H :    0.015997
   9 C :   -0.050370
  10 H :    0.024853
  11 H :    0.031770
  12 C :   -0.073369
  13 H :    0.035278
  14 H :    0.038778
  15 H :    0.042820
  16 S :    0.102565
  17 C :   -0.082573
  18 C :   -0.056631
  19 C :   -0.014864
  20 C :   -0.143753
  21 H :    0.038222
  22 C :    0.072316
  23 H :    0.014109
  24 H :    0.019889
  25 C :   -0.081354
  26 H :    0.032374
  27 H :    0.050622
  28 C :   -0.111234
  29 H :    0.036261
  30 H :    0.053738
  31 H :    0.044169
  32 H :    0.023768
  33 H :    0.050454
Sum of atomic charges:   -0.0000000

LOEWDIN ATOMIC CHARGES
----------------------
   0 S :    0.399501
   1 C :   -0.184926
   2 C :   -0.062843
   3 C :   -0.054252
   4 C :   -0.183932
   5 H :    0.034746
   6 C :   -0.033903
   7 H :    0.035627
   8 H :    0.029616
   9 C :   -0.050080
  10 H :    0.031940
  11 H :    0.024994
  12 C :   -0.078428
  13 H :    0.025841
  14 H :    0.030194
  15 H :    0.029993
  16 S :    0.396271
  17 C :   -0.179727
  18 C :   -0.075836
  19 C :   -0.058142
  20 C :   -0.207927
  21 H :    0.041073
  22 C :   -0.034426
  23 H :    0.025579
  24 H :    0.031868
  25 C :   -0.035512
  26 H :    0.017799
  27 H :    0.029178
  28 C :   -0.077602
  29 H :    0.019982
  30 H :    0.039953
  31 H :    0.026541
  32 H :    0.015122
  33 H :    0.031716

  Mayer bond orders larger than 0.100000
B(  0-S ,  1-C ) :   1.1205 B(  0-S ,  4-C ) :   1.1570 B(  1-C ,  2-C ) :   1.6469
B(  1-C , 32-H ) :   0.9675 B(  2-C ,  3-C ) :   1.2159 B(  2-C ,  6-C ) :   0.9989
B(  3-C ,  4-C ) :   1.5856 B(  3-C ,  5-H ) :   0.9834 B(  4-C , 20-C ) :   1.0226
B(  6-C ,  7-H ) :   0.9535 B(  6-C ,  8-H ) :   0.9460 B(  6-C ,  9-C ) :   1.0590
B(  9-C , 10-H ) :   0.9514 B(  9-C , 11-H ) :   0.9578 B(  9-C , 12-C ) :   1.0634
B( 12-C , 13-H ) :   0.9775 B( 12-C , 14-H ) :   0.9696 B( 12-C , 15-H ) :   0.9751
B( 16-S , 17-C ) :   1.1144 B( 16-S , 20-C ) :   1.1514 B( 17-C , 18-C ) :   1.6703
B( 17-C , 33-H ) :   0.9675 B( 18-C , 19-C ) :   1.2094 B( 18-C , 21-H ) :   0.9748
B( 19-C , 20-C ) :   1.6120 B( 19-C , 22-C ) :   1.0500 B( 22-C , 23-H ) :   0.9324
B( 22-C , 24-H ) :   0.9366 B( 22-C , 25-C ) :   1.0463 B( 25-C , 26-H ) :   0.9637
B( 25-C , 27-H ) :   0.9567 B( 25-C , 28-C ) :   1.0662 B( 28-C , 29-H ) :   0.9784
B( 28-C , 30-H ) :   0.9755 B( 28-C , 31-H ) :   0.9769

Dispersion correction           -0.014684321
FINAL SINGLE POINT ENERGY     -1339.866431841872

DIPOLE MOMENT
-------------
                                X             Y             Z
Electronic contribution:     28.30294      -4.44863      -8.78853
Nuclear contribution   :    -28.77145       4.35813       9.23840
                        -----------------------------------------
Total Dipole Moment    :     -0.46851      -0.09050       0.44987
                        -----------------------------------------
Magnitude (a.u.)       :      0.65580
Magnitude (Debye)      :      1.66692

Rotational constants in cm-1:     0.019123     0.008936     0.006835
Rotational constants in MHz :   573.306840   267.879679   204.898752

                             ****ORCA TERMINATED NORMALLY****
TOTAL RUN TIME: 0 days 0 hours 0 minutes 30 seconds 103 msec
