                         Program Version 4.2.1 -  RELEASE  -
|  1> ! wB97X-D3 SP def2-SVP
|  2> %pal
|  3> nprocs 16
|  4> end
|  5>
|  6> * xyz 0 1
|  7> S 	 -98.7511 	 40.1356 	 120.459
|  8> C 	 -97.1078 	 40.217 	 119.881
|  9> C 	 -96.9258 	 41.0412 	 118.792
| 10> C 	 -98.0618 	 41.8577 	 118.657
| 11> C 	 -99.1282 	 41.4895 	 119.482
| 12> H 	 -98.1001 	 42.7119 	 117.98
| 13> C 	 -95.6164 	 41.1071 	 118.001
| 14> H 	 -94.7773 	 40.7669 	 118.667
| 15> H 	 -95.3599 	 42.1476 	 117.829
| 16> C 	 -95.5385 	 40.1736 	 116.734
| 17> H 	 -95.9503 	 39.1708 	 117.003
| 18> H 	 -96.1517 	 40.559 	 115.843
| 19> C 	 -94.079 	 39.8943 	 116.28
| 20> H 	 -93.6488 	 39.5121 	 117.147
| 21> H 	 -94.095 	 39.2272 	 115.408
| 22> H 	 -93.5547 	 40.7314 	 115.971
| 23> S 	 -101.332 	 41.9311 	 117.993
| 24> C 	 -102.658 	 42.8832 	 118.642
| 25> C 	 -102.296 	 43.3968 	 119.898
| 26> C 	 -101.013 	 42.9219 	 120.415
| 27> C 	 -100.416 	 42.0937 	 119.509
| 28> H 	 -103.01 	 44.0453 	 120.349
| 29> C 	 -100.472 	 43.535 	 121.65
| 30> H 	 -100.617 	 44.62 	 121.773
| 31> H 	 -99.3897 	 43.2662 	 121.628
| 32> C 	 -101.157 	 42.743 	 122.853
| 33> H 	 -100.839 	 41.7072 	 122.828
| 34> H 	 -102.213 	 42.6736 	 122.708
| 35> C 	 -100.895 	 43.3658 	 124.185
| 36> H 	 -100.964 	 44.393 	 124.176
| 37> H 	 -99.9462 	 43.157 	 124.584
| 38> H 	 -101.667 	 43.0424 	 124.892
| 39> H 	 -96.4149 	 39.4732 	 120.215
| 40> H 	 -103.609 	 42.9206 	 118.117
| 41> *
| 42>
| 43>                          ****END OF INPUT****

CARTESIAN COORDINATES (ANGSTROEM)
---------------------------------
  S    -98.751100   40.135600  120.459000
  C    -97.107800   40.217000  119.881000
  C    -96.925800   41.041200  118.792000
  C    -98.061800   41.857700  118.657000
  C    -99.128200   41.489500  119.482000
  H    -98.100100   42.711900  117.980000
  C    -95.616400   41.107100  118.001000
  H    -94.777300   40.766900  118.667000
  H    -95.359900   42.147600  117.829000
  C    -95.538500   40.173600  116.734000
  H    -95.950300   39.170800  117.003000
  H    -96.151700   40.559000  115.843000
  C    -94.079000   39.894300  116.280000
  H    -93.648800   39.512100  117.147000
  H    -94.095000   39.227200  115.408000
  H    -93.554700   40.731400  115.971000
  S    -101.332000   41.931100  117.993000
  C    -102.658000   42.883200  118.642000
  C    -102.296000   43.396800  119.898000
  C    -101.013000   42.921900  120.415000
  C    -100.416000   42.093700  119.509000
  H    -103.010000   44.045300  120.349000
  C    -100.472000   43.535000  121.650000
  H    -100.617000   44.620000  121.773000
  H    -99.389700   43.266200  121.628000
  C    -101.157000   42.743000  122.853000
  H    -100.839000   41.707200  122.828000
  H    -102.213000   42.673600  122.708000
  C    -100.895000   43.365800  124.185000
  H    -100.964000   44.393000  124.176000
  H    -99.946200   43.157000  124.584000
  H    -101.667000   43.042400  124.892000
  H    -96.414900   39.473200  120.215000
  H    -103.609000   42.920600  118.117000

 Total Charge           Charge          ....    0
 Multiplicity           Mult            ....    1
 Number of Electrons    NEL             ....  134
 Basis Dimension        Dim             ....  322

ORBITAL ENERGIES
----------------

  NO   OCC          E(Eh)            E(eV)
   0   2.0000     -88.968203     -2420.9479
   1   2.0000     -88.958741     -2420.6904
   2   2.0000     -10.320770      -280.8424
   3   2.0000     -10.319615      -280.8110
   4   2.0000     -10.318203      -280.7726
   5   2.0000     -10.307691      -280.4865
   6   2.0000     -10.302877      -280.3555
   7   2.0000     -10.301152      -280.3086
   8   2.0000     -10.299833      -280.2727
   9   2.0000     -10.298211      -280.2286
  10   2.0000     -10.294457      -280.1264
  11   2.0000     -10.293992      -280.1138
  12   2.0000     -10.292109      -280.0625
  13   2.0000     -10.279318      -279.7145
  14   2.0000     -10.270696      -279.4799
  15   2.0000     -10.261201      -279.2215
  16   2.0000      -8.083586      -219.9656
  17   2.0000      -8.073281      -219.6851
  18   2.0000      -6.041778      -164.4051
  19   2.0000      -6.038112      -164.3054
  20   2.0000      -6.034550      -164.2084
  21   2.0000      -6.031828      -164.1344
  22   2.0000      -6.027855      -164.0263
  23   2.0000      -6.023976      -163.9207
  24   2.0000      -1.009445       -27.4684
  25   2.0000      -0.980783       -26.6885
  26   2.0000      -0.908066       -24.7097
  27   2.0000      -0.905846       -24.6493
  28   2.0000      -0.869358       -23.6564
  29   2.0000      -0.852272       -23.1915
  30   2.0000      -0.852095       -23.1867
  31   2.0000      -0.807556       -21.9747
  32   2.0000      -0.784028       -21.3345
  33   2.0000      -0.769623       -20.9425
  34   2.0000      -0.705202       -19.1895
  35   2.0000      -0.698000       -18.9935
  36   2.0000      -0.693231       -18.8638
  37   2.0000      -0.665368       -18.1056
  38   2.0000      -0.642261       -17.4768
  39   2.0000      -0.616989       -16.7891
  40   2.0000      -0.593313       -16.1449
  41   2.0000      -0.567052       -15.4303
  42   2.0000      -0.565327       -15.3833
  43   2.0000      -0.556834       -15.1522
  44   2.0000      -0.529128       -14.3983
  45   2.0000      -0.522301       -14.2125
  46   2.0000      -0.520798       -14.1716
  47   2.0000      -0.511138       -13.9088
  48   2.0000      -0.510658       -13.8957
  49   2.0000      -0.501202       -13.6384
  50   2.0000      -0.494583       -13.4583
  51   2.0000      -0.469781       -12.7834
  52   2.0000      -0.466818       -12.7028
  53   2.0000      -0.463060       -12.6005
  54   2.0000      -0.459940       -12.5156
  55   2.0000      -0.448321       -12.1994
  56   2.0000      -0.446758       -12.1569
  57   2.0000      -0.434966       -11.8360
  58   2.0000      -0.428956       -11.6725
  59   2.0000      -0.427469       -11.6320
  60   2.0000      -0.421069       -11.4579
  61   2.0000      -0.419146       -11.4055
  62   2.0000      -0.414665       -11.2836
  63   2.0000      -0.337164        -9.1747
  64   2.0000      -0.330112        -8.9828
  65   2.0000      -0.321856        -8.7581
  66   2.0000      -0.297259        -8.0888
  67   0.0000       0.039294         1.0692
  68   0.0000       0.061947         1.6857
  69   0.0000       0.104608         2.8465
  70   0.0000       0.115502         3.1430
  71   0.0000       0.133523         3.6333

MULLIKEN ATOMIC CHARGES
-----------------------
   0 S :    0.132964
   1 C :   -0.124981
   2 C :   -0.058362
   3 C :    0.029605
   4 C :   -0.190783
   5 H :    0.013292
   6 C :    0.047314
   7 H :    0.020758
   8 H :    0.029444
   9 C :   -0.112092
  10 H :    0.037709
  11 H :    0.045782
  12 C :   -0.006351
  13 H :    0.018172
  14 H :    0.039399
  15 H :    0.016967
  16 S :    0.098720
  17 C :   -0.110799
  18 C :   -0.027811
  19 C :    0.005577
  20 C :   -0.182953
  21 H :    0.010877
  22 C :    0.056893
  23 H :    0.044506
  24 H :    0.040372
  25 C :   -0.099630
  26 H :    0.022593
  27 H :    0.020074
  28 C :    0.035169
  29 H :   -0.000814
  30 H :    0.018018
  31 H :    0.025977
  32 H :    0.036998
  33 H :    0.067393
Sum of atomic charges:    0.0000000

LOEWDIN ATOMIC CHARGES
----------------------
   0 S :    0.433457
   1 C :   -0.194621
   2 C :   -0.062560
   3 C :   -0.060687
   4 C :   -0.218675
   5 H :    0.032372
   6 C :   -0.033946
   7 H :    0.034736
   8 H :    0.028999
   9 C :   -0.041675
  10 H :    0.028175
  11 H :    0.028712
  12 C :   -0.054800
  13 H :    0.016254
  14 H :    0.032395
  15 H :    0.013894
  16 S :    0.387581
  17 C :   -0.183174
  18 C :   -0.066296
  19 C :   -0.049966
  20 C :   -0.198130
  21 H :    0.024006
  22 C :   -0.028123
  23 H :    0.034910
  24 H :    0.036883
  25 C :   -0.033040
  26 H :    0.023636
  27 H :    0.018570
  28 C :   -0.059064
  29 H :    0.012671
  30 H :    0.019861
  31 H :    0.031111
  32 H :    0.016299
  33 H :    0.030234

  Mayer bond orders larger than 0.100000
B(  0-S ,  1-C ) :   1.1569 B(  0-S ,  4-C ) :   1.1715 B(  1-C ,  2-C ) :   1.5894
B(  1-C ,  4-C ) :   0.1037 B(  1-C , 32-H ) :   0.9679 B(  2-C ,  3-C ) :   1.2651
B(  2-C ,  6-C ) :   1.0208 B(  3-C ,  4-C ) :   1.5480 B(  3-C ,  5-H ) :   0.9978
B(  4-C , 20-C ) :   1.0335 B(  6-C ,  7-H ) :   0.9457 B(  6-C ,  8-H ) :   0.9418
B(  6-C ,  9-C ) :   1.0450 B(  9-C , 10-H ) :   0.9606 B(  9-C , 11-H ) :   0.9573
B(  9-C , 12-C ) :   1.0725 B( 12-C , 13-H ) :   0.9765 B( 12-C , 14-H ) :   0.9746
B( 12-C , 15-H ) :   0.9773 B( 16-S , 17-C ) :   1.1477 B( 16-S , 20-C ) :   1.1309
B( 17-C , 18-C ) :   1.6213 B( 17-C , 33-H ) :   0.9699 B( 18-C , 19-C ) :   1.1870
B( 18-C , 21-H ) :   0.9943 B( 19-C , 20-C ) :   1.6232 B( 19-C , 22-C ) :   1.0560
B( 22-C , 23-H ) :   0.9488 B( 22-C , 24-H ) :   0.9246 B( 22-C , 25-C ) :   1.0432
B( 25-C , 26-H ) :   0.9489 B( 25-C , 27-H ) :   0.9682 B( 25-C , 28-C ) :   1.0884
B( 28-C , 29-H ) :   0.9676 B( 28-C , 30-H ) :   0.9694 B( 28-C , 31-H ) :   0.9698

Dispersion correction           -0.013868200
FINAL SINGLE POINT ENERGY     -1339.870149068768

DIPOLE MOMENT
-------------
                                X             Y             Z
Electronic contribution:    -13.97503      -3.38612      -4.86096
Nuclear contribution   :     14.21301       3.62308       4.92445
                        -----------------------------------------
Total Dipole Moment    :      0.23797       0.23696       0.06349
                        -----------------------------------------
Magnitude (a.u.)       :      0.34178
Magnitude (Debye)      :      0.86874

Rotational constants in cm-1:     0.022872     0.007199     0.005985
Rotational constants in MHz :   685.694870   215.815607   179.421394

                             ****ORCA TERMINATED NORMALLY****
TOTAL RUN TIME: 0 days 0 hours 0 minutes 30 seconds 509 msec
