                         Program Version 4.2.1 -  RELEASE  -
|  1> ! wB97X-D3 SP def2-SVP
|  2> %pal
|  3> nprocs 16
|  4> end
|  5>
|  6> * xyz 0 1
|  7> S 	 5.03221 	 -6.48514 	 100.418
|  8> C 	 4.90428 	 -5.52366 	 98.9713
|  9> C 	 5.10297 	 -6.37058 	 97.8843
| 10> C 	 5.35189 	 -7.72683 	 98.2704
| 11> C 	 5.59643 	 -7.92185 	 99.6253
| 12> H 	 5.32867 	 -8.58718 	 97.62
| 13> C 	 5.11779 	 -5.92915 	 96.4189
| 14> H 	 4.7258 	 -4.93738 	 96.4827
| 15> H 	 4.23651 	 -6.54366 	 96.0048
| 16> C 	 6.2652 	 -6.13846 	 95.5217
| 17> H 	 6.91693 	 -5.2779 	 95.549
| 18> H 	 6.81607 	 -7.0759 	 95.6759
| 19> C 	 5.9317 	 -6.20553 	 94.0009
| 20> H 	 5.62515 	 -7.1833 	 93.6442
| 21> H 	 5.22921 	 -5.4265 	 93.7886
| 22> H 	 6.88126 	 -5.95888 	 93.514
| 23> S 	 4.03549 	 -9.89058 	 100.894
| 24> C 	 4.95132 	 -11.298 	 101.416
| 25> C 	 6.30326 	 -11.2085 	 101.138
| 26> C 	 6.68165 	 -10.0323 	 100.477
| 27> C 	 5.56977 	 -9.1806 	 100.29
| 28> H 	 7.05358 	 -11.9398 	 101.473
| 29> C 	 8.08122 	 -9.77657 	 99.902
| 30> H 	 7.93707 	 -9.39524 	 98.8736
| 31> H 	 8.53642 	 -10.765 	 99.8186
| 32> C 	 9.00827 	 -8.96416 	 100.735
| 33> H 	 9.11365 	 -9.32435 	 101.751
| 34> H 	 8.55275 	 -7.99846 	 100.84
| 35> C 	 10.2625 	 -8.70767 	 99.9723
| 36> H 	 9.96989 	 -7.9777 	 99.1935
| 37> H 	 10.9077 	 -9.60823 	 99.6531
| 38> H 	 10.9261 	 -8.24279 	 100.6
| 39> H 	 4.60888 	 -4.45831 	 98.8745
| 40> H 	 4.43121 	 -12.0724 	 101.991
| 41> *
| 42>
| 43>                          ****END OF INPUT****

CARTESIAN COORDINATES (ANGSTROEM)
---------------------------------
  S      5.032210   -6.485140  100.418000
  C      4.904280   -5.523660   98.971300
  C      5.102970   -6.370580   97.884300
  C      5.351890   -7.726830   98.270400
  C      5.596430   -7.921850   99.625300
  H      5.328670   -8.587180   97.620000
  C      5.117790   -5.929150   96.418900
  H      4.725800   -4.937380   96.482700
  H      4.236510   -6.543660   96.004800
  C      6.265200   -6.138460   95.521700
  H      6.916930   -5.277900   95.549000
  H      6.816070   -7.075900   95.675900
  C      5.931700   -6.205530   94.000900
  H      5.625150   -7.183300   93.644200
  H      5.229210   -5.426500   93.788600
  H      6.881260   -5.958880   93.514000
  S      4.035490   -9.890580  100.894000
  C      4.951320  -11.298000  101.416000
  C      6.303260  -11.208500  101.138000
  C      6.681650  -10.032300  100.477000
  C      5.569770   -9.180600  100.290000
  H      7.053580  -11.939800  101.473000
  C      8.081220   -9.776570   99.902000
  H      7.937070   -9.395240   98.873600
  H      8.536420  -10.765000   99.818600
  C      9.008270   -8.964160  100.735000
  H      9.113650   -9.324350  101.751000
  H      8.552750   -7.998460  100.840000
  C     10.262500   -8.707670   99.972300
  H      9.969890   -7.977700   99.193500
  H     10.907700   -9.608230   99.653100
  H     10.926100   -8.242790  100.600000
  H      4.608880   -4.458310   98.874500
  H      4.431210  -12.072400  101.991000

 Total Charge           Charge          ....    0
 Multiplicity           Mult            ....    1
 Number of Electrons    NEL             ....  134
 Basis Dimension        Dim             ....  322

ORBITAL ENERGIES
----------------

  NO   OCC          E(Eh)            E(eV)
   0   2.0000     -88.967931     -2420.9405
   1   2.0000     -88.961882     -2420.7759
   2   2.0000     -10.323515      -280.9171
   3   2.0000     -10.321766      -280.8695
   4   2.0000     -10.319694      -280.8131
   5   2.0000     -10.319434      -280.8061
   6   2.0000     -10.302716      -280.3511
   7   2.0000     -10.300058      -280.2788
   8   2.0000     -10.293876      -280.1106
   9   2.0000     -10.293321      -280.0955
  10   2.0000     -10.293143      -280.0907
  11   2.0000     -10.288206      -279.9563
  12   2.0000     -10.285512      -279.8830
  13   2.0000     -10.277883      -279.6754
  14   2.0000     -10.274203      -279.5753
  15   2.0000     -10.273269      -279.5499
  16   2.0000      -8.081776      -219.9163
  17   2.0000      -8.077009      -219.7866
  18   2.0000      -6.040180      -164.3616
  19   2.0000      -6.036541      -164.2626
  20   2.0000      -6.035495      -164.2342
  21   2.0000      -6.032577      -164.1548
  22   2.0000      -6.031366      -164.1218
  23   2.0000      -6.027805      -164.0249
  24   2.0000      -1.006514       -27.3886
  25   2.0000      -0.980625       -26.6842
  26   2.0000      -0.917648       -24.9705
  27   2.0000      -0.915890       -24.9226
  28   2.0000      -0.872663       -23.7464
  29   2.0000      -0.854922       -23.2636
  30   2.0000      -0.845175       -22.9984
  31   2.0000      -0.810101       -22.0440
  32   2.0000      -0.784635       -21.3510
  33   2.0000      -0.769799       -20.9473
  34   2.0000      -0.707817       -19.2607
  35   2.0000      -0.695114       -18.9150
  36   2.0000      -0.690368       -18.7859
  37   2.0000      -0.657284       -17.8856
  38   2.0000      -0.640957       -17.4413
  39   2.0000      -0.616565       -16.7776
  40   2.0000      -0.599848       -16.3227
  41   2.0000      -0.573879       -15.6160
  42   2.0000      -0.568860       -15.4795
  43   2.0000      -0.564739       -15.3673
  44   2.0000      -0.532055       -14.4780
  45   2.0000      -0.526590       -14.3292
  46   2.0000      -0.518912       -14.1203
  47   2.0000      -0.511169       -13.9096
  48   2.0000      -0.502763       -13.6809
  49   2.0000      -0.498918       -13.5763
  50   2.0000      -0.493110       -13.4182
  51   2.0000      -0.477744       -13.0001
  52   2.0000      -0.469025       -12.7628
  53   2.0000      -0.463480       -12.6119
  54   2.0000      -0.454715       -12.3734
  55   2.0000      -0.450291       -12.2530
  56   2.0000      -0.448392       -12.2014
  57   2.0000      -0.438593       -11.9347
  58   2.0000      -0.431426       -11.7397
  59   2.0000      -0.424911       -11.5624
  60   2.0000      -0.420837       -11.4516
  61   2.0000      -0.411296       -11.1919
  62   2.0000      -0.400503       -10.8982
  63   2.0000      -0.338465        -9.2101
  64   2.0000      -0.329893        -8.9768
  65   2.0000      -0.318571        -8.6688
  66   2.0000      -0.300031        -8.1643
  67   0.0000       0.034375         0.9354
  68   0.0000       0.049968         1.3597
  69   0.0000       0.112585         3.0636
  70   0.0000       0.119507         3.2520
  71   0.0000       0.130787         3.5589

MULLIKEN ATOMIC CHARGES
-----------------------
   0 S :    0.096454
   1 C :   -0.121051
   2 C :   -0.113708
   3 C :    0.025519
   4 C :   -0.163503
   5 H :    0.017881
   6 C :    0.070078
   7 H :    0.000921
   8 H :    0.036302
   9 C :   -0.040306
  10 H :    0.027022
  11 H :    0.033826
  12 C :   -0.064404
  13 H :    0.038297
  14 H :    0.028780
  15 H :    0.030452
  16 S :    0.122297
  17 C :   -0.107970
  18 C :   -0.023155
  19 C :   -0.033563
  20 C :   -0.183781
  21 H :    0.023260
  22 C :    0.076094
  23 H :    0.029840
  24 H :    0.008888
  25 C :   -0.049262
  26 H :    0.022996
  27 H :    0.019011
  28 C :   -0.021840
  29 H :    0.042009
  30 H :    0.037318
  31 H :    0.004795
  32 H :    0.064689
  33 H :    0.065810
Sum of atomic charges:    0.0000000

LOEWDIN ATOMIC CHARGES
----------------------
   0 S :    0.417011
   1 C :   -0.207231
   2 C :   -0.069695
   3 C :   -0.052288
   4 C :   -0.214231
   5 H :    0.028833
   6 C :   -0.042083
   7 H :    0.024497
   8 H :    0.043070
   9 C :   -0.044139
  10 H :    0.025591
  11 H :    0.029313
  12 C :   -0.057128
  13 H :    0.021532
  14 H :    0.019490
  15 H :    0.028955
  16 S :    0.390107
  17 C :   -0.182031
  18 C :   -0.076391
  19 C :   -0.048116
  20 C :   -0.199977
  21 H :    0.036002
  22 C :   -0.028228
  23 H :    0.035272
  24 H :    0.027660
  25 C :   -0.042602
  26 H :    0.022819
  27 H :    0.025906
  28 C :   -0.064503
  29 H :    0.036087
  30 H :    0.033142
  31 H :    0.012750
  32 H :    0.040878
  33 H :    0.029730

  Mayer bond orders larger than 0.100000
B(  0-S ,  1-C ) :   1.1530 B(  0-S ,  4-C ) :   1.1450 B(  1-C ,  2-C ) :   1.5827
B(  1-C ,  4-C ) :   0.1011 B(  1-C , 32-H ) :   0.9634 B(  2-C ,  3-C ) :   1.2573
B(  2-C ,  6-C ) :   1.0209 B(  3-C ,  4-C ) :   1.5536 B(  3-C ,  5-H ) :   0.9919
B(  4-C , 20-C ) :   1.0562 B(  6-C ,  7-H ) :   0.9312 B(  6-C ,  8-H ) :   0.9381
B(  6-C ,  9-C ) :   1.0693 B(  9-C , 10-H ) :   0.9574 B(  9-C , 11-H ) :   0.9540
B(  9-C , 12-C ) :   1.0758 B( 12-C , 13-H ) :   0.9771 B( 12-C , 14-H ) :   0.9788
B( 12-C , 15-H ) :   0.9775 B( 16-S , 17-C ) :   1.1556 B( 16-S , 20-C ) :   1.1402
B( 17-C , 18-C ) :   1.5858 B( 17-C , 20-C ) :   0.1072 B( 17-C , 33-H ) :   0.9656
B( 18-C , 19-C ) :   1.2859 B( 18-C , 21-H ) :   0.9819 B( 19-C , 20-C ) :   1.5779
B( 19-C , 22-C ) :   1.0224 B( 22-C , 23-H ) :   0.9283 B( 22-C , 24-H ) :   0.9310
B( 22-C , 25-C ) :   1.0830 B( 25-C , 26-H ) :   0.9499 B( 25-C , 27-H ) :   0.9469
B( 25-C , 28-C ) :   1.0899 B( 28-C , 29-H ) :   0.9726 B( 28-C , 30-H ) :   0.9698
B( 28-C , 31-H ) :   0.9672

Dispersion correction           -0.013765733
FINAL SINGLE POINT ENERGY     -1339.856191188346

DIPOLE MOMENT
-------------
                                X             Y             Z
Electronic contribution:    -19.20497      -4.30937      20.16350
Nuclear contribution   :     19.49512       4.29700     -20.61534
                        -----------------------------------------
Total Dipole Moment    :      0.29015      -0.01237      -0.45184
                        -----------------------------------------
Magnitude (a.u.)       :      0.53712
Magnitude (Debye)      :      1.36526

Rotational constants in cm-1:     0.016815     0.008540     0.007070
Rotational constants in MHz :   504.090875   256.035337   211.946054

                             ****ORCA TERMINATED NORMALLY****
TOTAL RUN TIME: 0 days 0 hours 0 minutes 33 seconds 209 msec
