                         Program Version 4.2.1 -  RELEASE  -
|  1> ! wB97X-D3 SP def2-SVP
|  2> %pal
|  3> nprocs 16
|  4> end
|  5>
|  6> * xyz 0 1
|  7> S 	 -9.55823 	 59.9106 	 60.8137
|  8> C 	 -9.80214 	 58.3092 	 60.1484
|  9> C 	 -10.9364 	 57.6752 	 60.6525
| 10> C 	 -11.6136 	 58.5185 	 61.5514
| 11> C 	 -11.0318 	 59.7733 	 61.6863
| 12> H 	 -12.5711 	 58.3098 	 62.0489
| 13> C 	 -11.2749 	 56.3149 	 60.461
| 14> H 	 -11.1791 	 56.088 	 59.4046
| 15> H 	 -12.304 	 56.276 	 60.7564
| 16> C 	 -10.4973 	 55.2306 	 61.2136
| 17> H 	 -10.8273 	 54.3004 	 60.7224
| 18> H 	 -9.37314 	 55.3376 	 60.9125
| 19> C 	 -10.5945 	 55.1993 	 62.7504
| 20> H 	 -10.2271 	 56.137 	 63.113
| 21> H 	 -11.5513 	 55.0643 	 63.1857
| 22> H 	 -9.86557 	 54.4496 	 63.0749
| 23> S 	 -10.5422 	 61.6691 	 63.6653
| 24> C 	 -11.7811 	 62.6423 	 64.1904
| 25> C 	 -13.0033 	 62.4862 	 63.5136
| 26> C 	 -12.845 	 61.4382 	 62.5677
| 27> C 	 -11.5711 	 60.9484 	 62.4355
| 28> H 	 -13.873 	 63.0149 	 63.7109
| 29> C 	 -13.9666 	 61.3265 	 61.5229
| 30> H 	 -14.8936 	 61.4543 	 62.0506
| 31> H 	 -13.9873 	 60.3398 	 61.0142
| 32> C 	 -13.9623 	 62.4187 	 60.4252
| 33> H 	 -14.1418 	 63.481 	 60.7917
| 34> H 	 -14.7281 	 62.1369 	 59.6745
| 35> C 	 -12.697 	 62.3579 	 59.5349
| 36> H 	 -11.8428 	 62.8513 	 59.9961
| 37> H 	 -12.8428 	 62.9303 	 58.6259
| 38> H 	 -12.3468 	 61.3173 	 59.4515
| 39> H 	 -9.01369 	 57.9059 	 59.5179
| 40> H 	 -11.5704 	 63.3522 	 64.9395
| 41> *
| 42>
| 43>                          ****END OF INPUT****

CARTESIAN COORDINATES (ANGSTROEM)
---------------------------------
  S     -9.558230   59.910600   60.813700
  C     -9.802140   58.309200   60.148400
  C    -10.936400   57.675200   60.652500
  C    -11.613600   58.518500   61.551400
  C    -11.031800   59.773300   61.686300
  H    -12.571100   58.309800   62.048900
  C    -11.274900   56.314900   60.461000
  H    -11.179100   56.088000   59.404600
  H    -12.304000   56.276000   60.756400
  C    -10.497300   55.230600   61.213600
  H    -10.827300   54.300400   60.722400
  H     -9.373140   55.337600   60.912500
  C    -10.594500   55.199300   62.750400
  H    -10.227100   56.137000   63.113000
  H    -11.551300   55.064300   63.185700
  H     -9.865570   54.449600   63.074900
  S    -10.542200   61.669100   63.665300
  C    -11.781100   62.642300   64.190400
  C    -13.003300   62.486200   63.513600
  C    -12.845000   61.438200   62.567700
  C    -11.571100   60.948400   62.435500
  H    -13.873000   63.014900   63.710900
  C    -13.966600   61.326500   61.522900
  H    -14.893600   61.454300   62.050600
  H    -13.987300   60.339800   61.014200
  C    -13.962300   62.418700   60.425200
  H    -14.141800   63.481000   60.791700
  H    -14.728100   62.136900   59.674500
  C    -12.697000   62.357900   59.534900
  H    -11.842800   62.851300   59.996100
  H    -12.842800   62.930300   58.625900
  H    -12.346800   61.317300   59.451500
  H     -9.013690   57.905900   59.517900
  H    -11.570400   63.352200   64.939500

 Total Charge           Charge          ....    0
 Multiplicity           Mult            ....    1
 Number of Electrons    NEL             ....  134
 Basis Dimension        Dim             ....  322

ORBITAL ENERGIES
----------------

  NO   OCC          E(Eh)            E(eV)
   0   2.0000     -88.967136     -2420.9189
   1   2.0000     -88.965301     -2420.8689
   2   2.0000     -10.328157      -281.0434
   3   2.0000     -10.323559      -280.9183
   4   2.0000     -10.311994      -280.6036
   5   2.0000     -10.311751      -280.5970
   6   2.0000     -10.299030      -280.2509
   7   2.0000     -10.295769      -280.1621
   8   2.0000     -10.293476      -280.0997
   9   2.0000     -10.291900      -280.0568
  10   2.0000     -10.290804      -280.0270
  11   2.0000     -10.290255      -280.0121
  12   2.0000     -10.289562      -279.9932
  13   2.0000     -10.280052      -279.7344
  14   2.0000     -10.273334      -279.5516
  15   2.0000     -10.266408      -279.3632
  16   2.0000      -8.082390      -219.9330
  17   2.0000      -8.081975      -219.9217
  18   2.0000      -6.040609      -164.3733
  19   2.0000      -6.040109      -164.3597
  20   2.0000      -6.036832      -164.2706
  21   2.0000      -6.036119      -164.2511
  22   2.0000      -6.033445      -164.1784
  23   2.0000      -6.033112      -164.1693
  24   2.0000      -1.012090       -27.5404
  25   2.0000      -0.992964       -27.0199
  26   2.0000      -0.920983       -25.0612
  27   2.0000      -0.904960       -24.6252
  28   2.0000      -0.862783       -23.4775
  29   2.0000      -0.852312       -23.1926
  30   2.0000      -0.847994       -23.0751
  31   2.0000      -0.812667       -22.1138
  32   2.0000      -0.785249       -21.3677
  33   2.0000      -0.773957       -21.0604
  34   2.0000      -0.707097       -19.2411
  35   2.0000      -0.694535       -18.8993
  36   2.0000      -0.685708       -18.6591
  37   2.0000      -0.667659       -18.1679
  38   2.0000      -0.641805       -17.4644
  39   2.0000      -0.614248       -16.7145
  40   2.0000      -0.596453       -16.2303
  41   2.0000      -0.574413       -15.6306
  42   2.0000      -0.554419       -15.0865
  43   2.0000      -0.548176       -14.9166
  44   2.0000      -0.544733       -14.8229
  45   2.0000      -0.534327       -14.5398
  46   2.0000      -0.522512       -14.2183
  47   2.0000      -0.507398       -13.8070
  48   2.0000      -0.498184       -13.5563
  49   2.0000      -0.497185       -13.5291
  50   2.0000      -0.492168       -13.3926
  51   2.0000      -0.479247       -13.0410
  52   2.0000      -0.471281       -12.8242
  53   2.0000      -0.467745       -12.7280
  54   2.0000      -0.450991       -12.2721
  55   2.0000      -0.445507       -12.1229
  56   2.0000      -0.444526       -12.0962
  57   2.0000      -0.437937       -11.9169
  58   2.0000      -0.433545       -11.7973
  59   2.0000      -0.426553       -11.6071
  60   2.0000      -0.418319       -11.3830
  61   2.0000      -0.415945       -11.3184
  62   2.0000      -0.403500       -10.9798
  63   2.0000      -0.342632        -9.3235
  64   2.0000      -0.334302        -9.0968
  65   2.0000      -0.332013        -9.0345
  66   2.0000      -0.289746        -7.8844
  67   0.0000       0.033158         0.9023
  68   0.0000       0.068944         1.8761
  69   0.0000       0.112275         3.0552
  70   0.0000       0.118992         3.2379
  71   0.0000       0.132801         3.6137

MULLIKEN ATOMIC CHARGES
-----------------------
   0 S :    0.115292
   1 C :   -0.141919
   2 C :   -0.073828
   3 C :    0.019595
   4 C :   -0.166633
   5 H :    0.019976
   6 C :    0.088010
   7 H :    0.027421
   8 H :    0.006358
   9 C :   -0.103480
  10 H :    0.031409
  11 H :    0.031014
  12 C :   -0.014523
  13 H :    0.031735
  14 H :    0.028248
  15 H :    0.037317
  16 S :    0.119050
  17 C :   -0.071907
  18 C :   -0.013655
  19 C :   -0.031445
  20 C :   -0.142683
  21 H :   -0.004602
  22 C :    0.047442
  23 H :    0.015883
  24 H :    0.028237
  25 C :   -0.093307
  26 H :    0.040143
  27 H :    0.035836
  28 C :   -0.054975
  29 H :    0.027049
  30 H :    0.033055
  31 H :    0.036855
  32 H :    0.049515
  33 H :    0.043519
Sum of atomic charges:   -0.0000000

LOEWDIN ATOMIC CHARGES
----------------------
   0 S :    0.423337
   1 C :   -0.197365
   2 C :   -0.068659
   3 C :   -0.068251
   4 C :   -0.203803
   5 H :    0.035601
   6 C :   -0.042444
   7 H :    0.037727
   8 H :    0.028304
   9 C :   -0.037431
  10 H :    0.023283
  11 H :    0.030783
  12 C :   -0.062308
  13 H :    0.026587
  14 H :    0.019697
  15 H :    0.033355
  16 S :    0.444786
  17 C :   -0.194366
  18 C :   -0.062062
  19 C :   -0.058686
  20 C :   -0.208470
  21 H :    0.021595
  22 C :   -0.031684
  23 H :    0.025345
  24 H :    0.029866
  25 C :   -0.043696
  26 H :    0.027660
  27 H :    0.029108
  28 C :   -0.072424
  29 H :    0.021977
  30 H :    0.024334
  31 H :    0.028417
  32 H :    0.023446
  33 H :    0.016439

  Mayer bond orders larger than 0.100000
B(  0-S ,  1-C ) :   1.1479 B(  0-S ,  4-C ) :   1.1857 B(  1-C ,  2-C ) :   1.5546
B(  1-C ,  4-C ) :   0.1037 B(  1-C , 32-H ) :   0.9744 B(  2-C ,  3-C ) :   1.2613
B(  2-C ,  6-C ) :   1.0532 B(  3-C ,  4-C ) :   1.5582 B(  3-C ,  5-H ) :   0.9893
B(  4-C , 20-C ) :   0.9836 B(  6-C ,  7-H ) :   0.9223 B(  6-C ,  8-H ) :   0.9259
B(  6-C ,  9-C ) :   1.0782 B(  9-C , 10-H ) :   0.9554 B(  9-C , 11-H ) :   0.9539
B(  9-C , 12-C ) :   1.0710 B( 12-C , 13-H ) :   0.9723 B( 12-C , 14-H ) :   0.9767
B( 12-C , 15-H ) :   0.9715 B( 16-S , 17-C ) :   1.2163 B( 16-S , 20-C ) :   1.1437
B( 17-C , 18-C ) :   1.5375 B( 17-C , 33-H ) :   0.9729 B( 18-C , 19-C ) :   1.2483
B( 18-C , 21-H ) :   1.0130 B( 19-C , 20-C ) :   1.6027 B( 19-C , 22-C ) :   1.0530
B( 22-C , 23-H ) :   0.9315 B( 22-C , 24-H ) :   0.9405 B( 22-C , 25-C ) :   1.0798
B( 25-C , 26-H ) :   0.9535 B( 25-C , 27-H ) :   0.9561 B( 25-C , 28-C ) :   1.0700
B( 28-C , 29-H ) :   0.9709 B( 28-C , 30-H ) :   0.9752 B( 28-C , 31-H ) :   0.9730

Dispersion correction           -0.015750608
FINAL SINGLE POINT ENERGY     -1339.879202613596

DIPOLE MOMENT
-------------
                                X             Y             Z
Electronic contribution:     11.13187      12.18686       8.02851
Nuclear contribution   :    -11.46198     -12.39919      -8.05378
                        -----------------------------------------
Total Dipole Moment    :     -0.33011      -0.21233      -0.02527
                        -----------------------------------------
Magnitude (a.u.)       :      0.39331
Magnitude (Debye)      :      0.99973

Rotational constants in cm-1:     0.021552     0.008471     0.007773
Rotational constants in MHz :   646.125491   253.963048   233.035268

                             ****ORCA TERMINATED NORMALLY****
TOTAL RUN TIME: 0 days 0 hours 0 minutes 35 seconds 226 msec
