                         Program Version 4.2.1 -  RELEASE  -
|  1> ! wB97X-D3 SP def2-SVP
|  2> %pal
|  3> nprocs 16
|  4> end
|  5>
|  6> * xyz 0 1
|  7> S 	 -33.6305 	 71.7888 	 172.089
|  8> C 	 -32.6023 	 73.2262 	 172.157
|  9> C 	 -33.2839 	 74.3765 	 171.843
| 10> C 	 -34.6509 	 74.1174 	 171.489
| 11> C 	 -34.9847 	 72.7508 	 171.488
| 12> H 	 -35.419 	 74.806 	 171.199
| 13> C 	 -32.6832 	 75.7756 	 171.743
| 14> H 	 -31.7084 	 75.6719 	 172.183
| 15> H 	 -33.2332 	 76.5005 	 172.375
| 16> C 	 -32.5709 	 76.4377 	 170.368
| 17> H 	 -32.0761 	 75.7978 	 169.664
| 18> H 	 -33.5168 	 76.5175 	 169.854
| 19> C 	 -31.7041 	 77.6573 	 170.381
| 20> H 	 -32.2991 	 78.4516 	 170.691
| 21> H 	 -30.8518 	 77.5357 	 170.996
| 22> H 	 -31.2649 	 77.9887 	 169.459
| 23> S 	 -36.3474 	 70.9771 	 169.649
| 24> C 	 -37.9755 	 71.4329 	 169.37
| 25> C 	 -38.4825 	 72.0658 	 170.491
| 26> C 	 -37.521 	 72.3868 	 171.515
| 27> C 	 -36.2244 	 72.1096 	 171.049
| 28> H 	 -39.5283 	 72.3049 	 170.562
| 29> C 	 -37.8711 	 72.9525 	 172.841
| 30> H 	 -37.0212 	 73.3826 	 173.357
| 31> H 	 -38.1998 	 72.2065 	 173.496
| 32> C 	 -39.0205 	 74.0129 	 172.856
| 33> H 	 -39.409 	 74.2057 	 173.894
| 34> H 	 -39.856 	 73.6113 	 172.187
| 35> C 	 -38.5099 	 75.2785 	 172.278
| 36> H 	 -38.2687 	 75.081 	 171.222
| 37> H 	 -37.5501 	 75.5254 	 172.753
| 38> H 	 -39.1687 	 76.0897 	 172.282
| 39> H 	 -31.6243 	 73.1132 	 172.555
| 40> H 	 -38.5414 	 71.0684 	 168.541
| 41> *
| 42>
| 43>                          ****END OF INPUT****

CARTESIAN COORDINATES (ANGSTROEM)
---------------------------------
  S    -33.630500   71.788800  172.089000
  C    -32.602300   73.226200  172.157000
  C    -33.283900   74.376500  171.843000
  C    -34.650900   74.117400  171.489000
  C    -34.984700   72.750800  171.488000
  H    -35.419000   74.806000  171.199000
  C    -32.683200   75.775600  171.743000
  H    -31.708400   75.671900  172.183000
  H    -33.233200   76.500500  172.375000
  C    -32.570900   76.437700  170.368000
  H    -32.076100   75.797800  169.664000
  H    -33.516800   76.517500  169.854000
  C    -31.704100   77.657300  170.381000
  H    -32.299100   78.451600  170.691000
  H    -30.851800   77.535700  170.996000
  H    -31.264900   77.988700  169.459000
  S    -36.347400   70.977100  169.649000
  C    -37.975500   71.432900  169.370000
  C    -38.482500   72.065800  170.491000
  C    -37.521000   72.386800  171.515000
  C    -36.224400   72.109600  171.049000
  H    -39.528300   72.304900  170.562000
  C    -37.871100   72.952500  172.841000
  H    -37.021200   73.382600  173.357000
  H    -38.199800   72.206500  173.496000
  C    -39.020500   74.012900  172.856000
  H    -39.409000   74.205700  173.894000
  H    -39.856000   73.611300  172.187000
  C    -38.509900   75.278500  172.278000
  H    -38.268700   75.081000  171.222000
  H    -37.550100   75.525400  172.753000
  H    -39.168700   76.089700  172.282000
  H    -31.624300   73.113200  172.555000
  H    -38.541400   71.068400  168.541000

 Total Charge           Charge          ....    0
 Multiplicity           Mult            ....    1
 Number of Electrons    NEL             ....  134
 Basis Dimension        Dim             ....  322

ORBITAL ENERGIES
----------------

  NO   OCC          E(Eh)            E(eV)
   0   2.0000     -88.963232     -2420.8126
   1   2.0000     -88.962496     -2420.7926
   2   2.0000     -10.333008      -281.1755
   3   2.0000     -10.329976      -281.0929
   4   2.0000     -10.317912      -280.7647
   5   2.0000     -10.314274      -280.6657
   6   2.0000     -10.308341      -280.5042
   7   2.0000     -10.304816      -280.4083
   8   2.0000     -10.296842      -280.1913
   9   2.0000     -10.294885      -280.1381
  10   2.0000     -10.293606      -280.1032
  11   2.0000     -10.293259      -280.0938
  12   2.0000     -10.286174      -279.9010
  13   2.0000     -10.278648      -279.6962
  14   2.0000     -10.269180      -279.4386
  15   2.0000     -10.265666      -279.3430
  16   2.0000      -8.078163      -219.8180
  17   2.0000      -8.077087      -219.7887
  18   2.0000      -6.036651      -164.2656
  19   2.0000      -6.035536      -164.2353
  20   2.0000      -6.032853      -164.1623
  21   2.0000      -6.031645      -164.1294
  22   2.0000      -6.028706      -164.0494
  23   2.0000      -6.027905      -164.0276
  24   2.0000      -1.001441       -27.2506
  25   2.0000      -0.981552       -26.7094
  26   2.0000      -0.917192       -24.9581
  27   2.0000      -0.913971       -24.8704
  28   2.0000      -0.871000       -23.7011
  29   2.0000      -0.852842       -23.2070
  30   2.0000      -0.844340       -22.9757
  31   2.0000      -0.813218       -22.1288
  32   2.0000      -0.787407       -21.4264
  33   2.0000      -0.774661       -21.0796
  34   2.0000      -0.710973       -19.3466
  35   2.0000      -0.698539       -19.0082
  36   2.0000      -0.696342       -18.9484
  37   2.0000      -0.651569       -17.7301
  38   2.0000      -0.647117       -17.6089
  39   2.0000      -0.618974       -16.8431
  40   2.0000      -0.608219       -16.5505
  41   2.0000      -0.573344       -15.6015
  42   2.0000      -0.562507       -15.3066
  43   2.0000      -0.561292       -15.2735
  44   2.0000      -0.542109       -14.7515
  45   2.0000      -0.525206       -14.2916
  46   2.0000      -0.518234       -14.1019
  47   2.0000      -0.516697       -14.0600
  48   2.0000      -0.508786       -13.8448
  49   2.0000      -0.502284       -13.6678
  50   2.0000      -0.490461       -13.3461
  51   2.0000      -0.485784       -13.2189
  52   2.0000      -0.477305       -12.9881
  53   2.0000      -0.461857       -12.5678
  54   2.0000      -0.454363       -12.3638
  55   2.0000      -0.448203       -12.1962
  56   2.0000      -0.442441       -12.0394
  57   2.0000      -0.437489       -11.9047
  58   2.0000      -0.436773       -11.8852
  59   2.0000      -0.428807       -11.6684
  60   2.0000      -0.420365       -11.4387
  61   2.0000      -0.416409       -11.3311
  62   2.0000      -0.406097       -11.0505
  63   2.0000      -0.337755        -9.1908
  64   2.0000      -0.330452        -8.9920
  65   2.0000      -0.325691        -8.8625
  66   2.0000      -0.291976        -7.9451
  67   0.0000       0.026568         0.7230
  68   0.0000       0.055007         1.4968
  69   0.0000       0.109099         2.9687
  70   0.0000       0.121809         3.3146
  71   0.0000       0.128576         3.4987

MULLIKEN ATOMIC CHARGES
-----------------------
   0 S :    0.091001
   1 C :   -0.122709
   2 C :   -0.061457
   3 C :    0.049318
   4 C :   -0.183110
   5 H :    0.003133
   6 C :    0.075312
   7 H :    0.004885
   8 H :    0.032130
   9 C :   -0.056209
  10 H :    0.012372
  11 H :    0.023154
  12 C :   -0.001487
  13 H :    0.014676
  14 H :    0.016285
  15 H :    0.021480
  16 S :    0.107675
  17 C :   -0.079407
  18 C :   -0.040078
  19 C :   -0.018784
  20 C :   -0.160877
  21 H :    0.015734
  22 C :    0.102334
  23 H :    0.023744
  24 H :    0.029179
  25 C :   -0.132505
  26 H :    0.039251
  27 H :    0.036574
  28 C :   -0.016056
  29 H :    0.029443
  30 H :    0.023079
  31 H :    0.024036
  32 H :    0.041781
  33 H :    0.056103
Sum of atomic charges:   -0.0000000

LOEWDIN ATOMIC CHARGES
----------------------
   0 S :    0.384807
   1 C :   -0.180951
   2 C :   -0.061812
   3 C :   -0.055025
   4 C :   -0.183126
   5 H :    0.028677
   6 C :   -0.026806
   7 H :    0.025751
   8 H :    0.033602
   9 C :   -0.044004
  10 H :    0.022586
  11 H :    0.023247
  12 C :   -0.054770
  13 H :    0.017444
  14 H :    0.022791
  15 H :    0.027030
  16 S :    0.393552
  17 C :   -0.182562
  18 C :   -0.076483
  19 C :   -0.042427
  20 C :   -0.193337
  21 H :    0.025462
  22 C :   -0.028033
  23 H :    0.032210
  24 H :    0.032218
  25 C :   -0.043661
  26 H :    0.027989
  27 H :    0.026189
  28 C :   -0.065689
  29 H :    0.027246
  30 H :    0.024414
  31 H :    0.015607
  32 H :    0.020145
  33 H :    0.027718

  Mayer bond orders larger than 0.100000
B(  0-S ,  1-C ) :   1.1344 B(  0-S ,  4-C ) :   1.1482 B(  1-C ,  2-C ) :   1.6176
B(  1-C , 32-H ) :   0.9728 B(  2-C ,  3-C ) :   1.2164 B(  2-C ,  6-C ) :   1.0306
B(  3-C ,  4-C ) :   1.5876 B(  3-C ,  5-H ) :   0.9968 B(  4-C , 20-C ) :   1.0488
B(  6-C ,  7-H ) :   0.9374 B(  6-C ,  8-H ) :   0.9374 B(  6-C ,  9-C ) :   1.0619
B(  9-C , 10-H ) :   0.9516 B(  9-C , 11-H ) :   0.9534 B(  9-C , 12-C ) :   1.0827
B( 12-C , 13-H ) :   0.9754 B( 12-C , 14-H ) :   0.9709 B( 12-C , 15-H ) :   0.9728
B( 16-S , 17-C ) :   1.1622 B( 16-S , 20-C ) :   1.1204 B( 17-C , 18-C ) :   1.5956
B( 17-C , 33-H ) :   0.9723 B( 18-C , 19-C ) :   1.2259 B( 18-C , 21-H ) :   0.9907
B( 19-C , 20-C ) :   1.5562 B( 19-C , 22-C ) :   1.0511 B( 22-C , 23-H ) :   0.9320
B( 22-C , 24-H ) :   0.9229 B( 22-C , 25-C ) :   1.0679 B( 25-C , 26-H ) :   0.9537
B( 25-C , 27-H ) :   0.9516 B( 25-C , 28-C ) :   1.0809 B( 28-C , 29-H ) :   0.9683
B( 28-C , 30-H ) :   0.9693 B( 28-C , 31-H ) :   0.9709

Dispersion correction           -0.014542151
FINAL SINGLE POINT ENERGY     -1339.864533133002

DIPOLE MOMENT
-------------
                                X             Y             Z
Electronic contribution:      1.56548     -27.53446      -3.79808
Nuclear contribution   :     -1.82331      28.11921       3.90358
                        -----------------------------------------
Total Dipole Moment    :     -0.25783       0.58475       0.10549
                        -----------------------------------------
Magnitude (a.u.)       :      0.64771
Magnitude (Debye)      :      1.64636

Rotational constants in cm-1:     0.017989     0.008250     0.006967
Rotational constants in MHz :   539.305635   247.314560   208.866528

                             ****ORCA TERMINATED NORMALLY****
TOTAL RUN TIME: 0 days 0 hours 0 minutes 34 seconds 221 msec
