                         Program Version 4.2.1 -  RELEASE  -
|  1> ! wB97X-D3 SP def2-SVP
|  2> %pal
|  3> nprocs 16
|  4> end
|  5>
|  6> * xyz 0 1
|  7> S 	 -12.3289 	 -10.2166 	 86.8248
|  8> C 	 -13.792 	 -11.1714 	 86.8179
|  9> C 	 -14.8492 	 -10.3443 	 86.5648
| 10> C 	 -14.4781 	 -8.96548 	 86.3253
| 11> C 	 -13.1221 	 -8.78637 	 86.2339
| 12> H 	 -15.1358 	 -8.12335 	 86.2369
| 13> C 	 -16.3048 	 -10.8397 	 86.465
| 14> H 	 -16.965 	 -10.0736 	 86.8863
| 15> H 	 -16.3992 	 -11.6055 	 87.2529
| 16> C 	 -16.7575 	 -11.2672 	 85.0629
| 17> H 	 -16.9151 	 -10.4275 	 84.3865
| 18> H 	 -15.8841 	 -11.7424 	 84.7095
| 19> C 	 -17.9178 	 -12.282 	 84.9612
| 20> H 	 -18.0276 	 -12.649 	 83.9577
| 21> H 	 -17.6911 	 -13.1023 	 85.6234
| 22> H 	 -18.857 	 -11.7214 	 85.242
| 23> S 	 -11.68 	 -6.78531 	 87.4189
| 24> C 	 -10.9585 	 -5.49464 	 86.3282
| 25> C 	 -11.2344 	 -5.80289 	 85.0178
| 26> C 	 -12.2767 	 -6.80312 	 84.8653
| 27> C 	 -12.3911 	 -7.50578 	 86.0493
| 28> H 	 -10.8278 	 -5.0745 	 84.345
| 29> C 	 -12.9619 	 -6.92709 	 83.5964
| 30> H 	 -13.5314 	 -7.83375 	 83.6201
| 31> H 	 -12.2762 	 -7.10749 	 82.7619
| 32> C 	 -13.9273 	 -5.78529 	 83.308
| 33> H 	 -13.3749 	 -4.90441 	 83.307
| 34> H 	 -14.6226 	 -5.61683 	 83.9939
| 35> C 	 -14.5346 	 -5.9683 	 81.8848
| 36> H 	 -15.1585 	 -5.06965 	 81.5387
| 37> H 	 -15.1163 	 -6.91607 	 81.8196
| 38> H 	 -13.7311 	 -6.15369 	 81.1231
| 39> H 	 -13.9962 	 -12.2196 	 86.8798
| 40> H 	 -10.313 	 -4.69752 	 86.6714
| 41> *
| 42>
| 43>                          ****END OF INPUT****

CARTESIAN COORDINATES (ANGSTROEM)
---------------------------------
  S    -12.328900  -10.216600   86.824800
  C    -13.792000  -11.171400   86.817900
  C    -14.849200  -10.344300   86.564800
  C    -14.478100   -8.965480   86.325300
  C    -13.122100   -8.786370   86.233900
  H    -15.135800   -8.123350   86.236900
  C    -16.304800  -10.839700   86.465000
  H    -16.965000  -10.073600   86.886300
  H    -16.399200  -11.605500   87.252900
  C    -16.757500  -11.267200   85.062900
  H    -16.915100  -10.427500   84.386500
  H    -15.884100  -11.742400   84.709500
  C    -17.917800  -12.282000   84.961200
  H    -18.027600  -12.649000   83.957700
  H    -17.691100  -13.102300   85.623400
  H    -18.857000  -11.721400   85.242000
  S    -11.680000   -6.785310   87.418900
  C    -10.958500   -5.494640   86.328200
  C    -11.234400   -5.802890   85.017800
  C    -12.276700   -6.803120   84.865300
  C    -12.391100   -7.505780   86.049300
  H    -10.827800   -5.074500   84.345000
  C    -12.961900   -6.927090   83.596400
  H    -13.531400   -7.833750   83.620100
  H    -12.276200   -7.107490   82.761900
  C    -13.927300   -5.785290   83.308000
  H    -13.374900   -4.904410   83.307000
  H    -14.622600   -5.616830   83.993900
  C    -14.534600   -5.968300   81.884800
  H    -15.158500   -5.069650   81.538700
  H    -15.116300   -6.916070   81.819600
  H    -13.731100   -6.153690   81.123100
  H    -13.996200  -12.219600   86.879800
  H    -10.313000   -4.697520   86.671400

 Total Charge           Charge          ....    0
 Multiplicity           Mult            ....    1
 Number of Electrons    NEL             ....  134
 Basis Dimension        Dim             ....  322

ORBITAL ENERGIES
----------------

  NO   OCC          E(Eh)            E(eV)
   0   2.0000     -88.964620     -2420.8504
   1   2.0000     -88.964272     -2420.8409
   2   2.0000     -10.327860      -281.0353
   3   2.0000     -10.326043      -280.9859
   4   2.0000     -10.321801      -280.8705
   5   2.0000     -10.310618      -280.5662
   6   2.0000     -10.302500      -280.3453
   7   2.0000     -10.299180      -280.2549
   8   2.0000     -10.294726      -280.1337
   9   2.0000     -10.293115      -280.0899
  10   2.0000     -10.292181      -280.0645
  11   2.0000     -10.290433      -280.0169
  12   2.0000     -10.284101      -279.8446
  13   2.0000     -10.281867      -279.7838
  14   2.0000     -10.281603      -279.7766
  15   2.0000     -10.274015      -279.5702
  16   2.0000      -8.079202      -219.8463
  17   2.0000      -8.079153      -219.8449
  18   2.0000      -6.037833      -164.2978
  19   2.0000      -6.037808      -164.2971
  20   2.0000      -6.033843      -164.1892
  21   2.0000      -6.033633      -164.1835
  22   2.0000      -6.029718      -164.0770
  23   2.0000      -6.029711      -164.0768
  24   2.0000      -1.008497       -27.4426
  25   2.0000      -0.985185       -26.8082
  26   2.0000      -0.918113       -24.9831
  27   2.0000      -0.907860       -24.7041
  28   2.0000      -0.870294       -23.6819
  29   2.0000      -0.849192       -23.1077
  30   2.0000      -0.843799       -22.9609
  31   2.0000      -0.820922       -22.3384
  32   2.0000      -0.779686       -21.2163
  33   2.0000      -0.768003       -20.8984
  34   2.0000      -0.715864       -19.4797
  35   2.0000      -0.702207       -19.1080
  36   2.0000      -0.698697       -19.0125
  37   2.0000      -0.661691       -18.0055
  38   2.0000      -0.640915       -17.4402
  39   2.0000      -0.617054       -16.7909
  40   2.0000      -0.598348       -16.2819
  41   2.0000      -0.575217       -15.6524
  42   2.0000      -0.568762       -15.4768
  43   2.0000      -0.558400       -15.1948
  44   2.0000      -0.530455       -14.4344
  45   2.0000      -0.523430       -14.2432
  46   2.0000      -0.520202       -14.1554
  47   2.0000      -0.515351       -14.0234
  48   2.0000      -0.507997       -13.8233
  49   2.0000      -0.498563       -13.5666
  50   2.0000      -0.495947       -13.4954
  51   2.0000      -0.473418       -12.8824
  52   2.0000      -0.468554       -12.7500
  53   2.0000      -0.462494       -12.5851
  54   2.0000      -0.458135       -12.4665
  55   2.0000      -0.447843       -12.1864
  56   2.0000      -0.445078       -12.1112
  57   2.0000      -0.441847       -12.0233
  58   2.0000      -0.431823       -11.7505
  59   2.0000      -0.427301       -11.6275
  60   2.0000      -0.421014       -11.4564
  61   2.0000      -0.419082       -11.4038
  62   2.0000      -0.408863       -11.1257
  63   2.0000      -0.344393        -9.3714
  64   2.0000      -0.327338        -8.9073
  65   2.0000      -0.325420        -8.8551
  66   2.0000      -0.300656        -8.1813
  67   0.0000       0.041199         1.1211
  68   0.0000       0.059204         1.6110
  69   0.0000       0.110989         3.0202
  70   0.0000       0.116014         3.1569
  71   0.0000       0.123082         3.3492

MULLIKEN ATOMIC CHARGES
-----------------------
   0 S :    0.110084
   1 C :   -0.082273
   2 C :   -0.134893
   3 C :    0.054408
   4 C :   -0.161656
   5 H :    0.008671
   6 C :    0.047916
   7 H :    0.019002
   8 H :    0.018142
   9 C :   -0.044308
  10 H :    0.028115
  11 H :    0.008383
  12 C :   -0.040197
  13 H :    0.035790
  14 H :    0.030876
  15 H :    0.040575
  16 S :    0.105100
  17 C :   -0.118381
  18 C :   -0.003172
  19 C :   -0.044033
  20 C :   -0.153351
  21 H :    0.021501
  22 C :    0.075702
  23 H :    0.006078
  24 H :    0.027617
  25 C :    0.022960
  26 H :    0.004009
  27 H :   -0.005796
  28 C :   -0.091132
  29 H :    0.053852
  30 H :    0.033800
  31 H :    0.029706
  32 H :    0.035914
  33 H :    0.060990
Sum of atomic charges:   -0.0000000

LOEWDIN ATOMIC CHARGES
----------------------
   0 S :    0.410286
   1 C :   -0.199703
   2 C :   -0.064218
   3 C :   -0.062646
   4 C :   -0.193969
   5 H :    0.028743
   6 C :   -0.036663
   7 H :    0.027636
   8 H :    0.029529
   9 C :   -0.042799
  10 H :    0.024903
  11 H :    0.016597
  12 C :   -0.059443
  13 H :    0.025042
  14 H :    0.022775
  15 H :    0.031317
  16 S :    0.384720
  17 C :   -0.159187
  18 C :   -0.059790
  19 C :   -0.052763
  20 C :   -0.211844
  21 H :    0.031485
  22 C :   -0.033015
  23 H :    0.026606
  24 H :    0.036373
  25 C :   -0.018189
  26 H :    0.017079
  27 H :    0.007241
  28 C :   -0.073445
  29 H :    0.034492
  30 H :    0.025956
  31 H :    0.026886
  32 H :    0.031574
  33 H :    0.028434

  Mayer bond orders larger than 0.100000
B(  0-S ,  1-C ) :   1.1240 B(  0-S ,  4-C ) :   1.1532 B(  1-C ,  2-C ) :   1.6380
B(  1-C , 32-H ) :   0.9677 B(  2-C ,  3-C ) :   1.2221 B(  2-C ,  6-C ) :   1.0302
B(  3-C ,  4-C ) :   1.5889 B(  3-C ,  5-H ) :   0.9994 B(  4-C , 20-C ) :   0.9948
B(  6-C ,  7-H ) :   0.9373 B(  6-C ,  8-H ) :   0.9436 B(  6-C ,  9-C ) :   1.0446
B(  9-C , 10-H ) :   0.9538 B(  9-C , 11-H ) :   0.9559 B(  9-C , 12-C ) :   1.0850
B( 12-C , 13-H ) :   0.9746 B( 12-C , 14-H ) :   0.9764 B( 12-C , 15-H ) :   0.9776
B( 16-S , 17-C ) :   1.1085 B( 16-S , 20-C ) :   1.1546 B( 17-C , 18-C ) :   1.6759
B( 17-C , 33-H ) :   0.9677 B( 18-C , 19-C ) :   1.1754 B( 18-C , 21-H ) :   0.9816
B( 19-C , 20-C ) :   1.6231 B( 19-C , 22-C ) :   1.0794 B( 22-C , 23-H ) :   0.9156
B( 22-C , 24-H ) :   0.9268 B( 22-C , 25-C ) :   1.0561 B( 25-C , 26-H ) :   0.9517
B( 25-C , 27-H ) :   0.9493 B( 25-C , 28-C ) :   1.0745 B( 28-C , 29-H ) :   0.9742
B( 28-C , 30-H ) :   0.9752 B( 28-C , 31-H ) :   0.9737

Dispersion correction           -0.013835096
FINAL SINGLE POINT ENERGY     -1339.853154043554

DIPOLE MOMENT
-------------
                                X             Y             Z
Electronic contribution:     23.31634       2.83305      20.00348
Nuclear contribution   :    -23.75668      -2.62302     -20.47068
                        -----------------------------------------
Total Dipole Moment    :     -0.44034       0.21004      -0.46720
                        -----------------------------------------
Magnitude (a.u.)       :      0.67549
Magnitude (Debye)      :      1.71697

Rotational constants in cm-1:     0.017805     0.008583     0.006247
Rotational constants in MHz :   533.789571   257.314151   187.277074

                             ****ORCA TERMINATED NORMALLY****
TOTAL RUN TIME: 0 days 0 hours 0 minutes 32 seconds 784 msec
