                         Program Version 4.2.1 -  RELEASE  -
|  1> ! wB97X-D3 SP def2-SVP
|  2> %pal
|  3> nprocs 16
|  4> end
|  5>
|  6> * xyz 0 1
|  7> S 	 -30.1216 	 70.4902 	 159.188
|  8> C 	 -28.7953 	 71.3766 	 159.984
|  9> C 	 -29.2758 	 72.4537 	 160.697
| 10> C 	 -30.6737 	 72.6667 	 160.541
| 11> C 	 -31.2657 	 71.7339 	 159.731
| 12> H 	 -31.2762 	 73.5192 	 160.962
| 13> C 	 -28.3145 	 73.3277 	 161.443
| 14> H 	 -28.4714 	 74.4424 	 161.264
| 15> H 	 -27.3028 	 73.2325 	 160.961
| 16> C 	 -28.094 	 72.8526 	 162.886
| 17> H 	 -29.0029 	 73.198 	 163.459
| 18> H 	 -28.0644 	 71.7982 	 162.916
| 19> C 	 -26.8047 	 73.2541 	 163.493
| 20> H 	 -26.7813 	 73.0879 	 164.523
| 21> H 	 -26.0117 	 72.6273 	 163.138
| 22> H 	 -26.5464 	 74.2765 	 163.376
| 23> S 	 -33.6994 	 70.4115 	 160.082
| 24> C 	 -35.0499 	 70.9078 	 159.138
| 25> C 	 -34.8051 	 72.1955 	 158.572
| 26> C 	 -33.4598 	 72.512 	 158.516
| 27> C 	 -32.7162 	 71.6392 	 159.284
| 28> H 	 -35.6371 	 72.7663 	 158.138
| 29> C 	 -32.9827 	 73.7998 	 157.839
| 30> H 	 -31.9316 	 73.8957 	 158.017
| 31> H 	 -33.3769 	 74.5302 	 158.543
| 32> C 	 -33.4278 	 74.1534 	 156.414
| 33> H 	 -33.1385 	 75.2117 	 156.234
| 34> H 	 -34.5193 	 74.119 	 156.346
| 35> C 	 -32.8079 	 73.1109 	 155.408
| 36> H 	 -31.7348 	 73.1703 	 155.278
| 37> H 	 -33.1765 	 73.2695 	 154.436
| 38> H 	 -33.0477 	 72.0627 	 155.699
| 39> H 	 -27.8075 	 71.2148 	 159.935
| 40> H 	 -36.0048 	 70.5044 	 159.238
| 41> *
| 42>
| 43>                          ****END OF INPUT****

CARTESIAN COORDINATES (ANGSTROEM)
---------------------------------
  S    -30.121600   70.490200  159.188000
  C    -28.795300   71.376600  159.984000
  C    -29.275800   72.453700  160.697000
  C    -30.673700   72.666700  160.541000
  C    -31.265700   71.733900  159.731000
  H    -31.276200   73.519200  160.962000
  C    -28.314500   73.327700  161.443000
  H    -28.471400   74.442400  161.264000
  H    -27.302800   73.232500  160.961000
  C    -28.094000   72.852600  162.886000
  H    -29.002900   73.198000  163.459000
  H    -28.064400   71.798200  162.916000
  C    -26.804700   73.254100  163.493000
  H    -26.781300   73.087900  164.523000
  H    -26.011700   72.627300  163.138000
  H    -26.546400   74.276500  163.376000
  S    -33.699400   70.411500  160.082000
  C    -35.049900   70.907800  159.138000
  C    -34.805100   72.195500  158.572000
  C    -33.459800   72.512000  158.516000
  C    -32.716200   71.639200  159.284000
  H    -35.637100   72.766300  158.138000
  C    -32.982700   73.799800  157.839000
  H    -31.931600   73.895700  158.017000
  H    -33.376900   74.530200  158.543000
  C    -33.427800   74.153400  156.414000
  H    -33.138500   75.211700  156.234000
  H    -34.519300   74.119000  156.346000
  C    -32.807900   73.110900  155.408000
  H    -31.734800   73.170300  155.278000
  H    -33.176500   73.269500  154.436000
  H    -33.047700   72.062700  155.699000
  H    -27.807500   71.214800  159.935000
  H    -36.004800   70.504400  159.238000

 Total Charge           Charge          ....    0
 Multiplicity           Mult            ....    1
 Number of Electrons    NEL             ....  134
 Basis Dimension        Dim             ....  322

ORBITAL ENERGIES
----------------

  NO   OCC          E(Eh)            E(eV)
   0   2.0000     -88.967023     -2420.9158
   1   2.0000     -88.964548     -2420.8484
   2   2.0000     -10.331742      -281.1410
   3   2.0000     -10.325465      -280.9702
   4   2.0000     -10.313090      -280.6335
   5   2.0000     -10.305620      -280.4302
   6   2.0000     -10.300235      -280.2836
   7   2.0000     -10.298274      -280.2303
   8   2.0000     -10.297676      -280.2140
   9   2.0000     -10.296219      -280.1744
  10   2.0000     -10.295624      -280.1582
  11   2.0000     -10.292887      -280.0837
  12   2.0000     -10.288209      -279.9564
  13   2.0000     -10.281943      -279.7859
  14   2.0000     -10.273355      -279.5522
  15   2.0000     -10.264829      -279.3202
  16   2.0000      -8.081856      -219.9185
  17   2.0000      -8.078328      -219.8225
  18   2.0000      -6.040116      -164.3599
  19   2.0000      -6.036891      -164.2721
  20   2.0000      -6.036463      -164.2605
  21   2.0000      -6.033033      -164.1672
  22   2.0000      -6.032764      -164.1598
  23   2.0000      -6.029028      -164.0582
  24   2.0000      -1.003131       -27.2966
  25   2.0000      -0.983490       -26.7621
  26   2.0000      -0.914918       -24.8962
  27   2.0000      -0.906180       -24.6584
  28   2.0000      -0.864831       -23.5332
  29   2.0000      -0.850000       -23.1297
  30   2.0000      -0.844618       -22.9832
  31   2.0000      -0.813365       -22.1328
  32   2.0000      -0.784852       -21.3569
  33   2.0000      -0.772409       -21.0183
  34   2.0000      -0.706659       -19.2292
  35   2.0000      -0.699339       -19.0300
  36   2.0000      -0.696924       -18.9643
  37   2.0000      -0.659019       -17.9328
  38   2.0000      -0.642213       -17.4755
  39   2.0000      -0.614072       -16.7097
  40   2.0000      -0.596525       -16.2323
  41   2.0000      -0.573472       -15.6050
  42   2.0000      -0.558115       -15.1871
  43   2.0000      -0.550727       -14.9860
  44   2.0000      -0.533751       -14.5241
  45   2.0000      -0.527197       -14.3458
  46   2.0000      -0.519241       -14.1293
  47   2.0000      -0.516856       -14.0644
  48   2.0000      -0.505893       -13.7660
  49   2.0000      -0.489852       -13.3296
  50   2.0000      -0.486612       -13.2414
  51   2.0000      -0.478964       -13.0333
  52   2.0000      -0.465410       -12.6644
  53   2.0000      -0.461459       -12.5569
  54   2.0000      -0.455761       -12.4019
  55   2.0000      -0.449184       -12.2229
  56   2.0000      -0.445750       -12.1295
  57   2.0000      -0.436611       -11.8808
  58   2.0000      -0.435164       -11.8414
  59   2.0000      -0.429642       -11.6912
  60   2.0000      -0.425372       -11.5750
  61   2.0000      -0.421259       -11.4630
  62   2.0000      -0.404511       -11.0073
  63   2.0000      -0.336552        -9.1580
  64   2.0000      -0.329765        -8.9734
  65   2.0000      -0.322954        -8.7880
  66   2.0000      -0.300572        -8.1790
  67   0.0000       0.038093         1.0366
  68   0.0000       0.055639         1.5140
  69   0.0000       0.113038         3.0759
  70   0.0000       0.118277         3.2185
  71   0.0000       0.133077         3.6212

MULLIKEN ATOMIC CHARGES
-----------------------
   0 S :    0.106896
   1 C :   -0.051910
   2 C :   -0.090905
   3 C :    0.044123
   4 C :   -0.178393
   5 H :    0.033724
   6 C :    0.000383
   7 H :    0.042912
   8 H :    0.013839
   9 C :   -0.048485
  10 H :    0.034263
  11 H :    0.018939
  12 C :    0.002365
  13 H :    0.014215
  14 H :    0.020948
  15 H :    0.019611
  16 S :    0.126472
  17 C :   -0.073962
  18 C :   -0.076386
  19 C :   -0.014197
  20 C :   -0.189470
  21 H :    0.029750
  22 C :    0.075749
  23 H :    0.016368
  24 H :    0.029916
  25 C :   -0.053297
  26 H :    0.038040
  27 H :    0.028739
  28 C :   -0.046634
  29 H :    0.030601
  30 H :    0.018185
  31 H :    0.049563
  32 H :   -0.009171
  33 H :    0.037209
Sum of atomic charges:   -0.0000000

LOEWDIN ATOMIC CHARGES
----------------------
   0 S :    0.383244
   1 C :   -0.165946
   2 C :   -0.062083
   3 C :   -0.069157
   4 C :   -0.184832
   5 H :    0.044279
   6 C :   -0.043084
   7 H :    0.036204
   8 H :    0.030273
   9 C :   -0.039665
  10 H :    0.028225
  11 H :    0.022392
  12 C :   -0.059350
  13 H :    0.022896
  14 H :    0.025357
  15 H :    0.019827
  16 S :    0.423641
  17 C :   -0.186794
  18 C :   -0.070287
  19 C :   -0.057732
  20 C :   -0.207133
  21 H :    0.032227
  22 C :   -0.032353
  23 H :    0.026562
  24 H :    0.036484
  25 C :   -0.034875
  26 H :    0.031534
  27 H :    0.022636
  28 C :   -0.064305
  29 H :    0.025582
  30 H :    0.016362
  31 H :    0.034686
  32 H :    0.002160
  33 H :    0.013028

  Mayer bond orders larger than 0.100000
B(  0-S ,  1-C ) :   1.1222 B(  0-S ,  4-C ) :   1.1529 B(  1-C ,  2-C ) :   1.6347
B(  1-C , 32-H ) :   0.9778 B(  2-C ,  3-C ) :   1.2199 B(  2-C ,  6-C ) :   1.0277
B(  3-C ,  4-C ) :   1.6055 B(  3-C ,  5-H ) :   0.9894 B(  4-C , 20-C ) :   0.9747
B(  6-C ,  7-H ) :   0.9414 B(  6-C ,  8-H ) :   0.9453 B(  6-C ,  9-C ) :   1.0474
B(  9-C , 10-H ) :   0.9528 B(  9-C , 11-H ) :   0.9559 B(  9-C , 12-C ) :   1.0968
B( 12-C , 13-H ) :   0.9656 B( 12-C , 14-H ) :   0.9698 B( 12-C , 15-H ) :   0.9721
B( 16-S , 17-C ) :   1.1818 B( 16-S , 20-C ) :   1.1714 B( 17-C , 18-C ) :   1.5637
B( 17-C , 20-C ) :   0.1147 B( 17-C , 33-H ) :   0.9759 B( 18-C , 19-C ) :   1.2726
B( 18-C , 21-H ) :   0.9840 B( 19-C , 20-C ) :   1.5746 B( 19-C , 22-C ) :   1.0229
B( 22-C , 23-H ) :   0.9308 B( 22-C , 24-H ) :   0.9295 B( 22-C , 25-C ) :   1.0744
B( 25-C , 26-H ) :   0.9526 B( 25-C , 27-H ) :   0.9554 B( 25-C , 28-C ) :   1.0662
B( 28-C , 29-H ) :   0.9769 B( 28-C , 30-H ) :   0.9764 B( 28-C , 31-H ) :   0.9760

Dispersion correction           -0.014093079
FINAL SINGLE POINT ENERGY     -1339.860894545838

DIPOLE MOMENT
-------------
                                X             Y             Z
Electronic contribution:    -11.15383     -17.85885       0.18868
Nuclear contribution   :     11.21503      18.53589      -0.07972
                        -----------------------------------------
Total Dipole Moment    :      0.06119       0.67704       0.10896
                        -----------------------------------------
Magnitude (a.u.)       :      0.68848
Magnitude (Debye)      :      1.74997

Rotational constants in cm-1:     0.021957     0.007104     0.006387
Rotational constants in MHz :   658.257646   212.968843   191.476418

                             ****ORCA TERMINATED NORMALLY****
TOTAL RUN TIME: 0 days 0 hours 0 minutes 34 seconds 46 msec
