                         Program Version 4.2.1 -  RELEASE  -
|  1> ! wB97X-D3 SP def2-SVP
|  2> %pal
|  3> nprocs 16
|  4> end
|  5>
|  6> * xyz 0 1
|  7> S 	 0.547754 	 -3.64405 	 88.4607
|  8> C 	 2.03751 	 -4.53659 	 88.2821
|  9> C 	 1.77884 	 -5.83778 	 87.8944
| 10> C 	 0.360793 	 -6.01723 	 87.5085
| 11> C 	 -0.427526 	 -4.90016 	 87.8162
| 12> H 	 -0.0752263 	 -6.82629 	 86.9666
| 13> C 	 2.70837 	 -7.05362 	 87.7587
| 14> H 	 3.58869 	 -6.73291 	 88.2928
| 15> H 	 2.97946 	 -6.97031 	 86.7208
| 16> C 	 2.29416 	 -8.33566 	 88.2445
| 17> H 	 3.21074 	 -8.83914 	 88.3902
| 18> H 	 1.89392 	 -8.23665 	 89.2796
| 19> C 	 1.32964 	 -9.114 	 87.3577
| 20> H 	 0.40273 	 -8.85821 	 87.8064
| 21> H 	 1.52063 	 -8.91869 	 86.2794
| 22> H 	 1.47647 	 -10.2355 	 87.653
| 23> S 	 -2.38194 	 -4.66208 	 85.8661
| 24> C 	 -4.04642 	 -4.5941 	 86.3153
| 25> C 	 -4.22711 	 -5.0137 	 87.6308
| 26> C 	 -2.96801 	 -5.08059 	 88.3843
| 27> C 	 -1.89193 	 -4.7956 	 87.5528
| 28> H 	 -5.14972 	 -5.29645 	 88.0531
| 29> C 	 -3.01681 	 -5.39674 	 89.8468
| 30> H 	 -4.01389 	 -5.43728 	 90.1266
| 31> H 	 -2.50471 	 -4.53514 	 90.4486
| 32> C 	 -2.22163 	 -6.66068 	 90.3249
| 33> H 	 -2.16039 	 -6.54961 	 91.3699
| 34> H 	 -1.13154 	 -6.6563 	 89.9138
| 35> C 	 -2.94786 	 -7.96244 	 89.9867
| 36> H 	 -2.74192 	 -8.15816 	 88.9588
| 37> H 	 -4.06585 	 -7.9852 	 90.1897
| 38> H 	 -2.51782 	 -8.82859 	 90.5063
| 39> H 	 3.04957 	 -4.12605 	 88.5352
| 40> H 	 -4.91221 	 -4.79739 	 85.6618
| 41> *
| 42>
| 43>                          ****END OF INPUT****

CARTESIAN COORDINATES (ANGSTROEM)
---------------------------------
  S      0.547754   -3.644050   88.460700
  C      2.037510   -4.536590   88.282100
  C      1.778840   -5.837780   87.894400
  C      0.360793   -6.017230   87.508500
  C     -0.427526   -4.900160   87.816200
  H     -0.075226   -6.826290   86.966600
  C      2.708370   -7.053620   87.758700
  H      3.588690   -6.732910   88.292800
  H      2.979460   -6.970310   86.720800
  C      2.294160   -8.335660   88.244500
  H      3.210740   -8.839140   88.390200
  H      1.893920   -8.236650   89.279600
  C      1.329640   -9.114000   87.357700
  H      0.402730   -8.858210   87.806400
  H      1.520630   -8.918690   86.279400
  H      1.476470  -10.235500   87.653000
  S     -2.381940   -4.662080   85.866100
  C     -4.046420   -4.594100   86.315300
  C     -4.227110   -5.013700   87.630800
  C     -2.968010   -5.080590   88.384300
  C     -1.891930   -4.795600   87.552800
  H     -5.149720   -5.296450   88.053100
  C     -3.016810   -5.396740   89.846800
  H     -4.013890   -5.437280   90.126600
  H     -2.504710   -4.535140   90.448600
  C     -2.221630   -6.660680   90.324900
  H     -2.160390   -6.549610   91.369900
  H     -1.131540   -6.656300   89.913800
  C     -2.947860   -7.962440   89.986700
  H     -2.741920   -8.158160   88.958800
  H     -4.065850   -7.985200   90.189700
  H     -2.517820   -8.828590   90.506300
  H      3.049570   -4.126050   88.535200
  H     -4.912210   -4.797390   85.661800

 Total Charge           Charge          ....    0
 Multiplicity           Mult            ....    1
 Number of Electrons    NEL             ....  134
 Basis Dimension        Dim             ....  322

ORBITAL ENERGIES
----------------

  NO   OCC          E(Eh)            E(eV)
   0   2.0000     -88.966678     -2420.9064
   1   2.0000     -88.964846     -2420.8565
   2   2.0000     -10.328897      -281.0636
   3   2.0000     -10.328225      -281.0453
   4   2.0000     -10.318299      -280.7752
   5   2.0000     -10.315087      -280.6878
   6   2.0000     -10.305301      -280.4215
   7   2.0000     -10.304430      -280.3978
   8   2.0000     -10.293959      -280.1129
   9   2.0000     -10.293645      -280.1043
  10   2.0000     -10.293396      -280.0975
  11   2.0000     -10.287808      -279.9455
  12   2.0000     -10.286904      -279.9209
  13   2.0000     -10.284564      -279.8572
  14   2.0000     -10.279409      -279.7169
  15   2.0000     -10.277030      -279.6522
  16   2.0000      -8.081358      -219.9049
  17   2.0000      -8.080008      -219.8682
  18   2.0000      -6.039957      -164.3556
  19   2.0000      -6.038592      -164.3184
  20   2.0000      -6.035998      -164.2478
  21   2.0000      -6.034322      -164.2022
  22   2.0000      -6.031890      -164.1361
  23   2.0000      -6.030791      -164.1062
  24   2.0000      -1.002765       -27.2866
  25   2.0000      -0.982399       -26.7324
  26   2.0000      -0.927616       -25.2417
  27   2.0000      -0.905356       -24.6360
  28   2.0000      -0.866558       -23.5803
  29   2.0000      -0.847294       -23.0561
  30   2.0000      -0.842336       -22.9211
  31   2.0000      -0.811470       -22.0812
  32   2.0000      -0.788455       -21.4550
  33   2.0000      -0.774045       -21.0628
  34   2.0000      -0.706177       -19.2161
  35   2.0000      -0.700041       -19.0491
  36   2.0000      -0.680868       -18.5274
  37   2.0000      -0.661262       -17.9939
  38   2.0000      -0.641557       -17.4577
  39   2.0000      -0.612511       -16.6673
  40   2.0000      -0.590432       -16.0665
  41   2.0000      -0.576767       -15.6946
  42   2.0000      -0.551545       -15.0083
  43   2.0000      -0.544266       -14.8102
  44   2.0000      -0.541061       -14.7230
  45   2.0000      -0.540312       -14.7026
  46   2.0000      -0.526095       -14.3158
  47   2.0000      -0.514808       -14.0086
  48   2.0000      -0.501095       -13.6355
  49   2.0000      -0.494366       -13.4524
  50   2.0000      -0.490788       -13.3550
  51   2.0000      -0.486386       -13.2352
  52   2.0000      -0.467936       -12.7332
  53   2.0000      -0.465443       -12.6654
  54   2.0000      -0.461984       -12.5712
  55   2.0000      -0.446331       -12.1453
  56   2.0000      -0.443521       -12.0688
  57   2.0000      -0.433318       -11.7912
  58   2.0000      -0.427206       -11.6249
  59   2.0000      -0.424497       -11.5511
  60   2.0000      -0.421423       -11.4675
  61   2.0000      -0.414175       -11.2703
  62   2.0000      -0.401851       -10.9349
  63   2.0000      -0.327792        -8.9197
  64   2.0000      -0.327036        -8.8991
  65   2.0000      -0.321991        -8.7618
  66   2.0000      -0.308359        -8.3909
  67   0.0000       0.041696         1.1346
  68   0.0000       0.054758         1.4901
  69   0.0000       0.105837         2.8800
  70   0.0000       0.119553         3.2532
  71   0.0000       0.123198         3.3524

MULLIKEN ATOMIC CHARGES
-----------------------
   0 S :    0.119999
   1 C :   -0.150245
   2 C :   -0.118832
   3 C :    0.018525
   4 C :   -0.175099
   5 H :    0.011816
   6 C :    0.086858
   7 H :    0.003399
   8 H :    0.036292
   9 C :   -0.052472
  10 H :    0.017548
  11 H :    0.030513
  12 C :   -0.058527
  13 H :    0.039677
  14 H :    0.055533
  15 H :    0.044923
  16 S :    0.118091
  17 C :   -0.070889
  18 C :   -0.053997
  19 C :   -0.013429
  20 C :   -0.183845
  21 H :    0.005411
  22 C :    0.061998
  23 H :   -0.002732
  24 H :    0.053205
  25 C :   -0.082791
  26 H :    0.018796
  27 H :    0.062638
  28 C :   -0.056220
  29 H :    0.028704
  30 H :    0.038692
  31 H :    0.029965
  32 H :    0.065844
  33 H :    0.070650
Sum of atomic charges:    0.0000000

LOEWDIN ATOMIC CHARGES
----------------------
   0 S :    0.422816
   1 C :   -0.216896
   2 C :   -0.057710
   3 C :   -0.069481
   4 C :   -0.212297
   5 H :    0.025393
   6 C :   -0.035220
   7 H :    0.029137
   8 H :    0.034526
   9 C :   -0.050078
  10 H :    0.022718
  11 H :    0.033804
  12 C :   -0.069255
  13 H :    0.022933
  14 H :    0.032389
  15 H :    0.040720
  16 S :    0.418871
  17 C :   -0.209708
  18 C :   -0.061437
  19 C :   -0.051351
  20 C :   -0.200589
  21 H :    0.020342
  22 C :   -0.030487
  23 H :    0.016543
  24 H :    0.049574
  25 C :   -0.041558
  26 H :    0.013798
  27 H :    0.040671
  28 C :   -0.074267
  29 H :    0.021282
  30 H :    0.030483
  31 H :    0.025988
  32 H :    0.039773
  33 H :    0.038574

  Mayer bond orders larger than 0.100000
B(  0-S ,  1-C ) :   1.1332 B(  0-S ,  4-C ) :   1.1730 B(  1-C ,  2-C ) :   1.6324
B(  1-C , 32-H ) :   0.9626 B(  2-C ,  3-C ) :   1.2133 B(  2-C ,  6-C ) :   1.0019
B(  3-C ,  4-C ) :   1.5827 B(  3-C ,  5-H ) :   0.9903 B(  4-C , 20-C ) :   0.9969
B(  6-C ,  7-H ) :   0.9310 B(  6-C ,  8-H ) :   0.9299 B(  6-C ,  9-C ) :   1.0936
B(  9-C , 10-H ) :   0.9481 B(  9-C , 11-H ) :   0.9493 B(  9-C , 12-C ) :   1.0576
B( 12-C , 13-H ) :   0.9720 B( 12-C , 14-H ) :   0.9739 B( 12-C , 15-H ) :   0.9689
B( 16-S , 17-C ) :   1.1548 B( 16-S , 20-C ) :   1.1471 B( 17-C , 18-C ) :   1.6159
B( 17-C , 33-H ) :   0.9541 B( 18-C , 19-C ) :   1.2432 B( 18-C , 21-H ) :   0.9873
B( 19-C , 20-C ) :   1.5951 B( 19-C , 22-C ) :   1.0502 B( 22-C , 23-H ) :   0.9326
B( 22-C , 24-H ) :   0.9335 B( 22-C , 25-C ) :   1.0661 B( 25-C , 26-H ) :   0.9559
B( 25-C , 27-H ) :   0.9520 B( 25-C , 28-C ) :   1.0679 B( 28-C , 29-H ) :   0.9771
B( 28-C , 30-H ) :   0.9741 B( 28-C , 31-H ) :   0.9733

Dispersion correction           -0.015832997
FINAL SINGLE POINT ENERGY     -1339.847507209258

DIPOLE MOMENT
-------------
                                X             Y             Z
Electronic contribution:     -3.21038      23.68269     -10.73518
Nuclear contribution   :      3.37000     -24.41535      11.01724
                        -----------------------------------------
Total Dipole Moment    :      0.15962      -0.73266       0.28205
                        -----------------------------------------
Magnitude (a.u.)       :      0.80114
Magnitude (Debye)      :      2.03633

Rotational constants in cm-1:     0.017498     0.009867     0.008500
Rotational constants in MHz :   524.586415   295.810598   254.815044

                             ****ORCA TERMINATED NORMALLY****
TOTAL RUN TIME: 0 days 0 hours 0 minutes 38 seconds 462 msec
