                         Program Version 4.2.1 -  RELEASE  -
|  1> ! wB97X-D3 SP def2-SVP
|  2> %pal
|  3> nprocs 16
|  4> end
|  5>
|  6> * xyz 0 1
|  7> S 	 -93.3192 	 55.189 	 130.505
|  8> C 	 -92.6954 	 53.7229 	 131.229
|  9> C 	 -91.3476 	 53.5791 	 130.959
| 10> C 	 -90.8514 	 54.5577 	 130.057
| 11> C 	 -91.8015 	 55.4511 	 129.619
| 12> H 	 -89.8306 	 54.6482 	 129.789
| 13> C 	 -90.4914 	 52.4925 	 131.527
| 14> H 	 -90.8097 	 52.1668 	 132.5
| 15> H 	 -89.4899 	 52.9453 	 131.676
| 16> C 	 -90.3781 	 51.211 	 130.717
| 17> H 	 -91.4159 	 50.8601 	 130.589
| 18> H 	 -90.0029 	 51.3891 	 129.654
| 19> C 	 -89.4549 	 50.1468 	 131.307
| 20> H 	 -89.0023 	 49.5817 	 130.492
| 21> H 	 -88.596 	 50.5813 	 131.831
| 22> H 	 -89.9593 	 49.5097 	 131.975
| 23> S 	 -92.0411 	 58.1111 	 129.476
| 24> C 	 -91.3772 	 59.0521 	 128.23
| 25> C 	 -90.9007 	 58.2633 	 127.202
| 26> C 	 -90.9983 	 56.8714 	 127.519
| 27> C 	 -91.5609 	 56.6277 	 128.757
| 28> H 	 -90.5749 	 58.8075 	 126.3
| 29> C 	 -90.4625 	 55.8457 	 126.625
| 30> H 	 -91.3615 	 55.5229 	 126.18
| 31> H 	 -90.0865 	 55.077 	 127.244
| 32> C 	 -89.3962 	 56.3032 	 125.626
| 33> H 	 -88.4763 	 56.5163 	 126.232
| 34> H 	 -89.5605 	 57.295 	 125.161
| 35> C 	 -89.0683 	 55.3778 	 124.494
| 36> H 	 -88.2928 	 55.8512 	 123.904
| 37> H 	 -89.8878 	 55.3968 	 123.801
| 38> H 	 -88.8367 	 54.2958 	 124.722
| 39> H 	 -93.264 	 53.176 	 131.963
| 40> H 	 -91.4869 	 60.1522 	 128.245
| 41> *
| 42>
| 43>                          ****END OF INPUT****

CARTESIAN COORDINATES (ANGSTROEM)
---------------------------------
  S    -93.319200   55.189000  130.505000
  C    -92.695400   53.722900  131.229000
  C    -91.347600   53.579100  130.959000
  C    -90.851400   54.557700  130.057000
  C    -91.801500   55.451100  129.619000
  H    -89.830600   54.648200  129.789000
  C    -90.491400   52.492500  131.527000
  H    -90.809700   52.166800  132.500000
  H    -89.489900   52.945300  131.676000
  C    -90.378100   51.211000  130.717000
  H    -91.415900   50.860100  130.589000
  H    -90.002900   51.389100  129.654000
  C    -89.454900   50.146800  131.307000
  H    -89.002300   49.581700  130.492000
  H    -88.596000   50.581300  131.831000
  H    -89.959300   49.509700  131.975000
  S    -92.041100   58.111100  129.476000
  C    -91.377200   59.052100  128.230000
  C    -90.900700   58.263300  127.202000
  C    -90.998300   56.871400  127.519000
  C    -91.560900   56.627700  128.757000
  H    -90.574900   58.807500  126.300000
  C    -90.462500   55.845700  126.625000
  H    -91.361500   55.522900  126.180000
  H    -90.086500   55.077000  127.244000
  C    -89.396200   56.303200  125.626000
  H    -88.476300   56.516300  126.232000
  H    -89.560500   57.295000  125.161000
  C    -89.068300   55.377800  124.494000
  H    -88.292800   55.851200  123.904000
  H    -89.887800   55.396800  123.801000
  H    -88.836700   54.295800  124.722000
  H    -93.264000   53.176000  131.963000
  H    -91.486900   60.152200  128.245000

 Total Charge           Charge          ....    0
 Multiplicity           Mult            ....    1
 Number of Electrons    NEL             ....  134
 Basis Dimension        Dim             ....  322

ORBITAL ENERGIES
----------------

  NO   OCC          E(Eh)            E(eV)
   0   2.0000     -88.965676     -2420.8791
   1   2.0000     -88.958733     -2420.6902
   2   2.0000     -10.333281      -281.1829
   3   2.0000     -10.320516      -280.8355
   4   2.0000     -10.313638      -280.6484
   5   2.0000     -10.312996      -280.6309
   6   2.0000     -10.301272      -280.3118
   7   2.0000     -10.299152      -280.2542
   8   2.0000     -10.293197      -280.0921
   9   2.0000     -10.290626      -280.0222
  10   2.0000     -10.289272      -279.9853
  11   2.0000     -10.289263      -279.9851
  12   2.0000     -10.289171      -279.9826
  13   2.0000     -10.278556      -279.6937
  14   2.0000     -10.277820      -279.6737
  15   2.0000     -10.275025      -279.5976
  16   2.0000      -8.080058      -219.8695
  17   2.0000      -8.075448      -219.7441
  18   2.0000      -6.038637      -164.3197
  19   2.0000      -6.034613      -164.2102
  20   2.0000      -6.033757      -164.1869
  21   2.0000      -6.030761      -164.1054
  22   2.0000      -6.029514      -164.0714
  23   2.0000      -6.026459      -163.9883
  24   2.0000      -1.012163       -27.5424
  25   2.0000      -0.988294       -26.8929
  26   2.0000      -0.918342       -24.9894
  27   2.0000      -0.912484       -24.8300
  28   2.0000      -0.869910       -23.6714
  29   2.0000      -0.858565       -23.3628
  30   2.0000      -0.849028       -23.1032
  31   2.0000      -0.818592       -22.2750
  32   2.0000      -0.784465       -21.3464
  33   2.0000      -0.772499       -21.0208
  34   2.0000      -0.707572       -19.2540
  35   2.0000      -0.696982       -18.9658
  36   2.0000      -0.696095       -18.9417
  37   2.0000      -0.655276       -17.8310
  38   2.0000      -0.641884       -17.4665
  39   2.0000      -0.625892       -17.0314
  40   2.0000      -0.600735       -16.3468
  41   2.0000      -0.570042       -15.5116
  42   2.0000      -0.567256       -15.4358
  43   2.0000      -0.563512       -15.3339
  44   2.0000      -0.534847       -14.5539
  45   2.0000      -0.521379       -14.1874
  46   2.0000      -0.517299       -14.0764
  47   2.0000      -0.515769       -14.0348
  48   2.0000      -0.511344       -13.9144
  49   2.0000      -0.498755       -13.5718
  50   2.0000      -0.494681       -13.4610
  51   2.0000      -0.482502       -13.1295
  52   2.0000      -0.474849       -12.9213
  53   2.0000      -0.468403       -12.7459
  54   2.0000      -0.460310       -12.5257
  55   2.0000      -0.453517       -12.3408
  56   2.0000      -0.449758       -12.2386
  57   2.0000      -0.432337       -11.7645
  58   2.0000      -0.429739       -11.6938
  59   2.0000      -0.424141       -11.5415
  60   2.0000      -0.419216       -11.4074
  61   2.0000      -0.413534       -11.2528
  62   2.0000      -0.411087       -11.1863
  63   2.0000      -0.348696        -9.4885
  64   2.0000      -0.330256        -8.9867
  65   2.0000      -0.325173        -8.8484
  66   2.0000      -0.292088        -7.9481
  67   0.0000       0.034232         0.9315
  68   0.0000       0.069621         1.8945
  69   0.0000       0.112400         3.0586
  70   0.0000       0.131370         3.5748
  71   0.0000       0.138375         3.7654

MULLIKEN ATOMIC CHARGES
-----------------------
   0 S :    0.101547
   1 C :   -0.119401
   2 C :   -0.072088
   3 C :    0.042187
   4 C :   -0.138733
   5 H :    0.004547
   6 C :    0.070694
   7 H :    0.010920
   8 H :    0.021152
   9 C :   -0.102143
  10 H :    0.028245
  11 H :    0.029717
  12 C :   -0.014421
  13 H :    0.032625
  14 H :    0.024588
  15 H :    0.028564
  16 S :    0.104971
  17 C :   -0.105362
  18 C :   -0.066298
  19 C :   -0.068992
  20 C :   -0.160803
  21 H :    0.032313
  22 C :    0.168793
  23 H :    0.025249
  24 H :    0.009061
  25 C :   -0.125628
  26 H :    0.029843
  27 H :    0.027687
  28 C :   -0.022478
  29 H :    0.025036
  30 H :    0.018003
  31 H :    0.044901
  32 H :    0.048506
  33 H :    0.067200
Sum of atomic charges:   -0.0000000

LOEWDIN ATOMIC CHARGES
----------------------
   0 S :    0.391647
   1 C :   -0.192580
   2 C :   -0.062106
   3 C :   -0.058558
   4 C :   -0.183069
   5 H :    0.027093
   6 C :   -0.035139
   7 H :    0.025709
   8 H :    0.031159
   9 C :   -0.046103
  10 H :    0.025064
  11 H :    0.026654
  12 C :   -0.063329
  13 H :    0.030884
  14 H :    0.026916
  15 H :    0.018609
  16 S :    0.440178
  17 C :   -0.201904
  18 C :   -0.086107
  19 C :   -0.052198
  20 C :   -0.216895
  21 H :    0.038458
  22 C :   -0.028605
  23 H :    0.035096
  24 H :    0.028867
  25 C :   -0.047461
  26 H :    0.028185
  27 H :    0.025936
  28 C :   -0.067615
  29 H :    0.028576
  30 H :    0.021599
  31 H :    0.030954
  32 H :    0.026502
  33 H :    0.033583

  Mayer bond orders larger than 0.100000
B(  0-S ,  1-C ) :   1.1332 B(  0-S ,  4-C ) :   1.1497 B(  1-C ,  2-C ) :   1.5986
B(  1-C , 32-H ) :   0.9723 B(  2-C ,  3-C ) :   1.2494 B(  2-C ,  6-C ) :   1.0373
B(  3-C ,  4-C ) :   1.5712 B(  3-C ,  5-H ) :   0.9969 B(  4-C , 20-C ) :   1.0194
B(  6-C ,  7-H ) :   0.9383 B(  6-C ,  8-H ) :   0.9320 B(  6-C ,  9-C ) :   1.0672
B(  9-C , 10-H ) :   0.9546 B(  9-C , 11-H ) :   0.9610 B(  9-C , 12-C ) :   1.0703
B( 12-C , 13-H ) :   0.9764 B( 12-C , 14-H ) :   0.9737 B( 12-C , 15-H ) :   0.9763
B( 16-S , 17-C ) :   1.1971 B( 16-S , 20-C ) :   1.1550 B( 17-C , 18-C ) :   1.5768
B( 17-C , 33-H ) :   0.9621 B( 18-C , 19-C ) :   1.2415 B( 18-C , 21-H ) :   0.9925
B( 19-C , 20-C ) :   1.5909 B( 19-C , 22-C ) :   1.0295 B( 22-C , 23-H ) :   0.9130
B( 22-C , 24-H ) :   0.9257 B( 22-C , 25-C ) :   1.0705 B( 25-C , 26-H ) :   0.9536
B( 25-C , 27-H ) :   0.9479 B( 25-C , 28-C ) :   1.0941 B( 28-C , 29-H ) :   0.9681
B( 28-C , 30-H ) :   0.9711 B( 28-C , 31-H ) :   0.9734

Dispersion correction           -0.013208070
FINAL SINGLE POINT ENERGY     -1339.881783445654

DIPOLE MOMENT
-------------
                                X             Y             Z
Electronic contribution:    -19.11120      20.68597      10.86753
Nuclear contribution   :     19.59610     -20.92876     -11.08441
                        -----------------------------------------
Total Dipole Moment    :      0.48490      -0.24279      -0.21688
                        -----------------------------------------
Magnitude (a.u.)       :      0.58404
Magnitude (Debye)      :      1.48452

Rotational constants in cm-1:     0.017094     0.008229     0.005933
Rotational constants in MHz :   512.480108   246.710608   177.872139

                             ****ORCA TERMINATED NORMALLY****
TOTAL RUN TIME: 0 days 0 hours 0 minutes 33 seconds 194 msec
