                         Program Version 4.2.1 -  RELEASE  -
|  1> ! wB97X-D3 SP def2-SVP
|  2> %pal
|  3> nprocs 16
|  4> end
|  5>
|  6> * xyz 0 1
|  7> S 	 -57.1196 	 26.4423 	 98.3524
|  8> C 	 -56.2432 	 27.9206 	 98.7244
|  9> C 	 -55.0127 	 28.0116 	 98.1806
| 10> C 	 -54.7315 	 26.8312 	 97.4384
| 11> C 	 -55.7688 	 25.9343 	 97.3342
| 12> H 	 -53.7901 	 26.5597 	 97.0049
| 13> C 	 -54.0134 	 29.1439 	 98.2255
| 14> H 	 -54.3919 	 29.9649 	 97.63
| 15> H 	 -53.1586 	 28.8257 	 97.5444
| 16> C 	 -53.4715 	 29.6318 	 99.6149
| 17> H 	 -54.3135 	 30.1511 	 100.176
| 18> H 	 -53.1946 	 28.7811 	 100.27
| 19> C 	 -52.3688 	 30.5991 	 99.6439
| 20> H 	 -52.0822 	 30.9642 	 100.674
| 21> H 	 -51.42 	 30.2538 	 99.2266
| 22> H 	 -52.5237 	 31.5492 	 99.0254
| 23> S 	 -55.8328 	 23.285 	 97.9493
| 24> C 	 -55.8417 	 21.9912 	 96.7026
| 25> C 	 -55.6431 	 22.6155 	 95.4832
| 26> C 	 -55.7897 	 24.0395 	 95.4299
| 27> C 	 -55.8491 	 24.5733 	 96.7437
| 28> H 	 -55.4521 	 22.0448 	 94.5944
| 29> C 	 -55.748 	 24.7202 	 94.1201
| 30> H 	 -55.4153 	 25.7289 	 94.1648
| 31> H 	 -56.7505 	 24.7773 	 93.7199
| 32> C 	 -54.7752 	 24.2355 	 93.0518
| 33> H 	 -55.0155 	 23.2481 	 92.7217
| 34> H 	 -53.89 	 24.0947 	 93.5712
| 35> C 	 -54.5853 	 25.1302 	 91.7873
| 36> H 	 -55.5846 	 25.5104 	 91.4751
| 37> H 	 -54.266 	 24.6318 	 90.8678
| 38> H 	 -53.8009 	 25.9803 	 92.1084
| 39> H 	 -56.6324 	 28.6808 	 99.3806
| 40> H 	 -55.8005 	 20.8917 	 96.8788
| 41> *
| 42>
| 43>                          ****END OF INPUT****

CARTESIAN COORDINATES (ANGSTROEM)
---------------------------------
  S    -57.119600   26.442300   98.352400
  C    -56.243200   27.920600   98.724400
  C    -55.012700   28.011600   98.180600
  C    -54.731500   26.831200   97.438400
  C    -55.768800   25.934300   97.334200
  H    -53.790100   26.559700   97.004900
  C    -54.013400   29.143900   98.225500
  H    -54.391900   29.964900   97.630000
  H    -53.158600   28.825700   97.544400
  C    -53.471500   29.631800   99.614900
  H    -54.313500   30.151100  100.176000
  H    -53.194600   28.781100  100.270000
  C    -52.368800   30.599100   99.643900
  H    -52.082200   30.964200  100.674000
  H    -51.420000   30.253800   99.226600
  H    -52.523700   31.549200   99.025400
  S    -55.832800   23.285000   97.949300
  C    -55.841700   21.991200   96.702600
  C    -55.643100   22.615500   95.483200
  C    -55.789700   24.039500   95.429900
  C    -55.849100   24.573300   96.743700
  H    -55.452100   22.044800   94.594400
  C    -55.748000   24.720200   94.120100
  H    -55.415300   25.728900   94.164800
  H    -56.750500   24.777300   93.719900
  C    -54.775200   24.235500   93.051800
  H    -55.015500   23.248100   92.721700
  H    -53.890000   24.094700   93.571200
  C    -54.585300   25.130200   91.787300
  H    -55.584600   25.510400   91.475100
  H    -54.266000   24.631800   90.867800
  H    -53.800900   25.980300   92.108400
  H    -56.632400   28.680800   99.380600
  H    -55.800500   20.891700   96.878800

 Total Charge           Charge          ....    0
 Multiplicity           Mult            ....    1
 Number of Electrons    NEL             ....  134
 Basis Dimension        Dim             ....  322

ORBITAL ENERGIES
----------------

  NO   OCC          E(Eh)            E(eV)
   0   2.0000     -88.964779     -2420.8547
   1   2.0000     -88.964034     -2420.8344
   2   2.0000     -10.334268      -281.2097
   3   2.0000     -10.329841      -281.0893
   4   2.0000     -10.324097      -280.9330
   5   2.0000     -10.310457      -280.5618
   6   2.0000     -10.307885      -280.4918
   7   2.0000     -10.302181      -280.3366
   8   2.0000     -10.298311      -280.2313
   9   2.0000     -10.297329      -280.2046
  10   2.0000     -10.296482      -280.1815
  11   2.0000     -10.292733      -280.0795
  12   2.0000     -10.292643      -280.0770
  13   2.0000     -10.285818      -279.8913
  14   2.0000     -10.284282      -279.8495
  15   2.0000     -10.280536      -279.7476
  16   2.0000      -8.079362      -219.8506
  17   2.0000      -8.077728      -219.8062
  18   2.0000      -6.037839      -164.2980
  19   2.0000      -6.036431      -164.2596
  20   2.0000      -6.033976      -164.1928
  21   2.0000      -6.032233      -164.1454
  22   2.0000      -6.030073      -164.0866
  23   2.0000      -6.028479      -164.0432
  24   2.0000      -1.003222       -27.2991
  25   2.0000      -0.980581       -26.6830
  26   2.0000      -0.914616       -24.8880
  27   2.0000      -0.908741       -24.7281
  28   2.0000      -0.869869       -23.6703
  29   2.0000      -0.849994       -23.1295
  30   2.0000      -0.845256       -23.0006
  31   2.0000      -0.814278       -22.1576
  32   2.0000      -0.782288       -21.2872
  33   2.0000      -0.771536       -20.9946
  34   2.0000      -0.708325       -19.2745
  35   2.0000      -0.702474       -19.1153
  36   2.0000      -0.694365       -18.8946
  37   2.0000      -0.654901       -17.8208
  38   2.0000      -0.643810       -17.5189
  39   2.0000      -0.618289       -16.8245
  40   2.0000      -0.602842       -16.4042
  41   2.0000      -0.571802       -15.5595
  42   2.0000      -0.564659       -15.3652
  43   2.0000      -0.555714       -15.1218
  44   2.0000      -0.527236       -14.3468
  45   2.0000      -0.522043       -14.2055
  46   2.0000      -0.517923       -14.0934
  47   2.0000      -0.509445       -13.8627
  48   2.0000      -0.507934       -13.8216
  49   2.0000      -0.498787       -13.5727
  50   2.0000      -0.488488       -13.2924
  51   2.0000      -0.476575       -12.9683
  52   2.0000      -0.472030       -12.8446
  53   2.0000      -0.465434       -12.6651
  54   2.0000      -0.457602       -12.4520
  55   2.0000      -0.450710       -12.2644
  56   2.0000      -0.448829       -12.2133
  57   2.0000      -0.432801       -11.7771
  58   2.0000      -0.428768       -11.6674
  59   2.0000      -0.427872       -11.6430
  60   2.0000      -0.422603       -11.4996
  61   2.0000      -0.409349       -11.1389
  62   2.0000      -0.406431       -11.0596
  63   2.0000      -0.339413        -9.2359
  64   2.0000      -0.329760        -8.9732
  65   2.0000      -0.324962        -8.8427
  66   2.0000      -0.301910        -8.2154
  67   0.0000       0.035060         0.9540
  68   0.0000       0.058898         1.6027
  69   0.0000       0.110555         3.0084
  70   0.0000       0.116836         3.1793
  71   0.0000       0.131358         3.5744

MULLIKEN ATOMIC CHARGES
-----------------------
   0 S :    0.109223
   1 C :   -0.122610
   2 C :   -0.056929
   3 C :    0.049103
   4 C :   -0.175982
   5 H :    0.002833
   6 C :    0.060852
   7 H :    0.037628
   8 H :    0.022433
   9 C :   -0.067420
  10 H :    0.035431
  11 H :    0.042070
  12 C :   -0.079564
  13 H :    0.042905
  14 H :    0.022956
  15 H :    0.030537
  16 S :    0.097818
  17 C :   -0.101116
  18 C :   -0.044492
  19 C :   -0.016882
  20 C :   -0.166077
  21 H :    0.015514
  22 C :    0.102724
  23 H :    0.006596
  24 H :    0.033906
  25 C :   -0.079254
  26 H :    0.015744
  27 H :    0.013405
  28 C :   -0.083554
  29 H :    0.036554
  30 H :    0.041285
  31 H :    0.058652
  32 H :    0.037663
  33 H :    0.078049
Sum of atomic charges:   -0.0000000

LOEWDIN ATOMIC CHARGES
----------------------
   0 S :    0.396940
   1 C :   -0.180811
   2 C :   -0.071567
   3 C :   -0.052944
   4 C :   -0.195011
   5 H :    0.028817
   6 C :   -0.034549
   7 H :    0.034582
   8 H :    0.036294
   9 C :   -0.052209
  10 H :    0.031693
  11 H :    0.032286
  12 C :   -0.080828
  13 H :    0.035238
  14 H :    0.020001
  15 H :    0.029497
  16 S :    0.388590
  17 C :   -0.183352
  18 C :   -0.069315
  19 C :   -0.054888
  20 C :   -0.195998
  21 H :    0.026169
  22 C :   -0.033307
  23 H :    0.028755
  24 H :    0.034460
  25 C :   -0.040012
  26 H :    0.012923
  27 H :    0.015428
  28 C :   -0.073862
  29 H :    0.028831
  30 H :    0.028584
  31 H :    0.042943
  32 H :    0.024009
  33 H :    0.042612

  Mayer bond orders larger than 0.100000
B(  0-S ,  1-C ) :   1.1388 B(  0-S ,  4-C ) :   1.1450 B(  1-C ,  2-C ) :   1.6440
B(  1-C , 32-H ) :   0.9667 B(  2-C ,  3-C ) :   1.2255 B(  2-C ,  6-C ) :   1.0129
B(  3-C ,  4-C ) :   1.6162 B(  3-C ,  5-H ) :   0.9957 B(  4-C , 20-C ) :   0.9934
B(  6-C ,  7-H ) :   0.9320 B(  6-C ,  8-H ) :   0.9438 B(  6-C ,  9-C ) :   1.0475
B(  9-C , 10-H ) :   0.9492 B(  9-C , 11-H ) :   0.9563 B(  9-C , 12-C ) :   1.0985
B( 12-C , 13-H ) :   0.9708 B( 12-C , 14-H ) :   0.9710 B( 12-C , 15-H ) :   0.9693
B( 16-S , 17-C ) :   1.1360 B( 16-S , 20-C ) :   1.1621 B( 17-C , 18-C ) :   1.6044
B( 17-C , 20-C ) :   0.1048 B( 17-C , 33-H ) :   0.9639 B( 18-C , 19-C ) :   1.2520
B( 18-C , 21-H ) :   0.9838 B( 19-C , 20-C ) :   1.5753 B( 19-C , 22-C ) :   1.0602
B( 22-C , 23-H ) :   0.9332 B( 22-C , 24-H ) :   0.9129 B( 22-C , 25-C ) :   1.0609
B( 25-C , 26-H ) :   0.9440 B( 25-C , 27-H ) :   0.9624 B( 25-C , 28-C ) :   1.0764
B( 28-C , 29-H ) :   0.9740 B( 28-C , 30-H ) :   0.9757 B( 28-C , 31-H ) :   0.9735

Dispersion correction           -0.012953537
FINAL SINGLE POINT ENERGY     -1339.860005927258

DIPOLE MOMENT
-------------
                                X             Y             Z
Electronic contribution:    -16.72004     -16.36424      13.19224
Nuclear contribution   :     17.21487      16.59213     -13.59744
                        -----------------------------------------
Total Dipole Moment    :      0.49483       0.22789      -0.40519
                        -----------------------------------------
Magnitude (a.u.)       :      0.67895
Magnitude (Debye)      :      1.72576

Rotational constants in cm-1:     0.018377     0.007107     0.005802
Rotational constants in MHz :   550.930420   213.070725   173.940697

                             ****ORCA TERMINATED NORMALLY****
TOTAL RUN TIME: 0 days 0 hours 0 minutes 27 seconds 833 msec
