                         Program Version 4.2.1 -  RELEASE  -
|  1> ! wB97X-D3 SP def2-SVP
|  2> %pal
|  3> nprocs 16
|  4> end
|  5>
|  6> * xyz 0 1
|  7> S 	 -109.24 	 43.2721 	 135.278
|  8> C 	 -108.691 	 43.0513 	 136.915
|  9> C 	 -109.64 	 43.4993 	 137.844
| 10> C 	 -110.863 	 43.9152 	 137.186
| 11> C 	 -110.842 	 43.6405 	 135.804
| 12> H 	 -111.749 	 44.4176 	 137.592
| 13> C 	 -109.284 	 43.742 	 139.352
| 14> H 	 -110.191 	 44.0738 	 139.927
| 15> H 	 -108.587 	 44.5725 	 139.488
| 16> C 	 -108.629 	 42.6295 	 140.1
| 17> H 	 -108.668 	 42.8877 	 141.163
| 18> H 	 -109.168 	 41.6929 	 139.937
| 19> C 	 -107.238 	 42.2015 	 139.674
| 20> H 	 -106.776 	 41.4547 	 140.404
| 21> H 	 -107.287 	 41.6064 	 138.733
| 22> H 	 -106.509 	 43.0889 	 139.575
| 23> S 	 -111.396 	 43.7642 	 133.148
| 24> C 	 -112.791 	 44.6461 	 132.58
| 25> C 	 -113.665 	 44.8715 	 133.631
| 26> C 	 -113.117 	 44.5754 	 134.878
| 27> C 	 -111.857 	 44.0508 	 134.801
| 28> H 	 -114.56 	 45.3547 	 133.335
| 29> C 	 -113.829 	 44.8006 	 136.184
| 30> H 	 -113.404 	 45.6389 	 136.78
| 31> H 	 -113.799 	 43.9497 	 136.822
| 32> C 	 -115.301 	 45.3302 	 136.052
| 33> H 	 -115.858 	 44.6183 	 135.361
| 34> H 	 -115.341 	 46.346 	 135.592
| 35> C 	 -116.019 	 45.5392 	 137.315
| 36> H 	 -117.07 	 45.9021 	 137.108
| 37> H 	 -115.478 	 46.1381 	 138.033
| 38> H 	 -116.186 	 44.5955 	 137.747
| 39> H 	 -107.636 	 42.8154 	 137.218
| 40> H 	 -113.005 	 44.739 	 131.543
| 41> *
| 42>
| 43>                          ****END OF INPUT****

CARTESIAN COORDINATES (ANGSTROEM)
---------------------------------
  S    -109.240000   43.272100  135.278000
  C    -108.691000   43.051300  136.915000
  C    -109.640000   43.499300  137.844000
  C    -110.863000   43.915200  137.186000
  C    -110.842000   43.640500  135.804000
  H    -111.749000   44.417600  137.592000
  C    -109.284000   43.742000  139.352000
  H    -110.191000   44.073800  139.927000
  H    -108.587000   44.572500  139.488000
  C    -108.629000   42.629500  140.100000
  H    -108.668000   42.887700  141.163000
  H    -109.168000   41.692900  139.937000
  C    -107.238000   42.201500  139.674000
  H    -106.776000   41.454700  140.404000
  H    -107.287000   41.606400  138.733000
  H    -106.509000   43.088900  139.575000
  S    -111.396000   43.764200  133.148000
  C    -112.791000   44.646100  132.580000
  C    -113.665000   44.871500  133.631000
  C    -113.117000   44.575400  134.878000
  C    -111.857000   44.050800  134.801000
  H    -114.560000   45.354700  133.335000
  C    -113.829000   44.800600  136.184000
  H    -113.404000   45.638900  136.780000
  H    -113.799000   43.949700  136.822000
  C    -115.301000   45.330200  136.052000
  H    -115.858000   44.618300  135.361000
  H    -115.341000   46.346000  135.592000
  C    -116.019000   45.539200  137.315000
  H    -117.070000   45.902100  137.108000
  H    -115.478000   46.138100  138.033000
  H    -116.186000   44.595500  137.747000
  H    -107.636000   42.815400  137.218000
  H    -113.005000   44.739000  131.543000

 Total Charge           Charge          ....    0
 Multiplicity           Mult            ....    1
 Number of Electrons    NEL             ....  134
 Basis Dimension        Dim             ....  322

ORBITAL ENERGIES
----------------

  NO   OCC          E(Eh)            E(eV)
   0   2.0000     -88.968433     -2420.9541
   1   2.0000     -88.962915     -2420.8040
   2   2.0000     -10.332702      -281.1671
   3   2.0000     -10.326488      -280.9980
   4   2.0000     -10.316951      -280.7385
   5   2.0000     -10.313737      -280.6510
   6   2.0000     -10.310317      -280.5580
   7   2.0000     -10.301063      -280.3062
   8   2.0000     -10.300386      -280.2877
   9   2.0000     -10.298219      -280.2288
  10   2.0000     -10.295804      -280.1631
  11   2.0000     -10.292144      -280.0635
  12   2.0000     -10.291499      -280.0459
  13   2.0000     -10.290877      -280.0290
  14   2.0000     -10.284308      -279.8502
  15   2.0000     -10.275788      -279.6184
  16   2.0000      -8.083480      -219.9627
  17   2.0000      -8.078399      -219.8244
  18   2.0000      -6.041994      -164.4110
  19   2.0000      -6.038061      -164.3040
  20   2.0000      -6.036772      -164.2689
  21   2.0000      -6.034099      -164.1962
  22   2.0000      -6.032886      -164.1632
  23   2.0000      -6.029198      -164.0628
  24   2.0000      -1.012631       -27.5551
  25   2.0000      -0.986566       -26.8458
  26   2.0000      -0.916645       -24.9432
  27   2.0000      -0.914208       -24.8769
  28   2.0000      -0.867915       -23.6172
  29   2.0000      -0.863007       -23.4836
  30   2.0000      -0.843128       -22.9427
  31   2.0000      -0.811376       -22.0787
  32   2.0000      -0.786486       -21.4014
  33   2.0000      -0.778822       -21.1928
  34   2.0000      -0.702879       -19.1263
  35   2.0000      -0.697715       -18.9858
  36   2.0000      -0.686088       -18.6694
  37   2.0000      -0.657408       -17.8890
  38   2.0000      -0.635971       -17.3056
  39   2.0000      -0.618707       -16.8359
  40   2.0000      -0.603717       -16.4280
  41   2.0000      -0.580165       -15.7871
  42   2.0000      -0.576515       -15.6878
  43   2.0000      -0.547481       -14.8977
  44   2.0000      -0.541657       -14.7392
  45   2.0000      -0.527435       -14.3522
  46   2.0000      -0.519035       -14.1237
  47   2.0000      -0.510884       -13.9019
  48   2.0000      -0.500101       -13.6084
  49   2.0000      -0.498538       -13.5659
  50   2.0000      -0.491646       -13.3784
  51   2.0000      -0.484570       -13.1858
  52   2.0000      -0.478307       -13.0154
  53   2.0000      -0.471378       -12.8268
  54   2.0000      -0.462471       -12.5845
  55   2.0000      -0.456699       -12.4274
  56   2.0000      -0.449784       -12.2392
  57   2.0000      -0.436687       -11.8829
  58   2.0000      -0.422544       -11.4980
  59   2.0000      -0.418087       -11.3767
  60   2.0000      -0.416728       -11.3397
  61   2.0000      -0.412236       -11.2175
  62   2.0000      -0.408664       -11.1203
  63   2.0000      -0.359999        -9.7961
  64   2.0000      -0.336891        -9.1673
  65   2.0000      -0.328063        -8.9270
  66   2.0000      -0.280724        -7.6389
  67   0.0000       0.016877         0.4592
  68   0.0000       0.086114         2.3433
  69   0.0000       0.089986         2.4487
  70   0.0000       0.115167         3.1339
  71   0.0000       0.135863         3.6970

MULLIKEN ATOMIC CHARGES
-----------------------
   0 S :    0.103929
   1 C :   -0.135864
   2 C :   -0.067796
   3 C :   -0.038731
   4 C :   -0.088203
   5 H :    0.014185
   6 C :    0.058920
   7 H :    0.029439
   8 H :    0.034611
   9 C :   -0.065335
  10 H :    0.035227
  11 H :    0.030129
  12 C :   -0.129426
  13 H :    0.046431
  14 H :    0.051900
  15 H :    0.042074
  16 S :    0.081374
  17 C :   -0.076657
  18 C :   -0.045282
  19 C :   -0.012424
  20 C :   -0.120314
  21 H :    0.010834
  22 C :    0.009296
  23 H :    0.048406
  24 H :    0.036872
  25 C :   -0.130666
  26 H :    0.037621
  27 H :    0.036229
  28 C :    0.002787
  29 H :    0.040854
  30 H :    0.028985
  31 H :    0.008914
  32 H :    0.074063
  33 H :    0.047618
Sum of atomic charges:    0.0000000

LOEWDIN ATOMIC CHARGES
----------------------
   0 S :    0.420511
   1 C :   -0.214543
   2 C :   -0.059676
   3 C :   -0.072698
   4 C :   -0.194121
   5 H :    0.032867
   6 C :   -0.034567
   7 H :    0.035575
   8 H :    0.031609
   9 C :   -0.052159
  10 H :    0.028320
  11 H :    0.028451
  12 C :   -0.083440
  13 H :    0.036014
  14 H :    0.027756
  15 H :    0.026445
  16 S :    0.402840
  17 C :   -0.176508
  18 C :   -0.065955
  19 C :   -0.067086
  20 C :   -0.185500
  21 H :    0.030003
  22 C :   -0.034463
  23 H :    0.037143
  24 H :    0.025750
  25 C :   -0.050571
  26 H :    0.026683
  27 H :    0.026552
  28 C :   -0.064494
  29 H :    0.038557
  30 H :    0.023421
  31 H :    0.016353
  32 H :    0.038961
  33 H :    0.021970

  Mayer bond orders larger than 0.100000
B(  0-S ,  1-C ) :   1.1435 B(  0-S ,  4-C ) :   1.1656 B(  1-C ,  2-C ) :   1.5969
B(  1-C , 32-H ) :   0.9499 B(  2-C ,  3-C ) :   1.2554 B(  2-C ,  6-C ) :   1.0059
B(  3-C ,  4-C ) :   1.5423 B(  3-C ,  5-H ) :   0.9862 B(  4-C , 20-C ) :   1.0698
B(  6-C ,  7-H ) :   0.9434 B(  6-C ,  8-H ) :   0.9406 B(  6-C ,  9-C ) :   1.0789
B(  9-C , 10-H ) :   0.9542 B(  9-C , 11-H ) :   0.9525 B(  9-C , 12-C ) :   1.0774
B( 12-C , 13-H ) :   0.9668 B( 12-C , 14-H ) :   0.9635 B( 12-C , 15-H ) :   0.9716
B( 16-S , 17-C ) :   1.1619 B( 16-S , 20-C ) :   1.1456 B( 17-C , 18-C ) :   1.5843
B( 17-C , 20-C ) :   0.1021 B( 17-C , 33-H ) :   0.9690 B( 18-C , 19-C ) :   1.2550
B( 18-C , 21-H ) :   0.9999 B( 19-C , 20-C ) :   1.5952 B( 19-C , 22-C ) :   1.0357
B( 22-C , 23-H ) :   0.9213 B( 22-C , 24-H ) :   0.9329 B( 22-C , 25-C ) :   1.0758
B( 25-C , 26-H ) :   0.9463 B( 25-C , 27-H ) :   0.9506 B( 25-C , 28-C ) :   1.0965
B( 28-C , 29-H ) :   0.9656 B( 28-C , 30-H ) :   0.9686 B( 28-C , 31-H ) :   0.9675

Dispersion correction           -0.013312038
FINAL SINGLE POINT ENERGY     -1339.864943382534

DIPOLE MOMENT
-------------
                                X             Y             Z
Electronic contribution:      7.92479      -3.05751     -25.26029
Nuclear contribution   :     -8.26205       3.35328      25.77507
                        -----------------------------------------
Total Dipole Moment    :     -0.33727       0.29576       0.51478
                        -----------------------------------------
Magnitude (a.u.)       :      0.68281
Magnitude (Debye)      :      1.73556

Rotational constants in cm-1:     0.020174     0.007859     0.005729
Rotational constants in MHz :   604.812543   235.613492   171.765008

                             ****ORCA TERMINATED NORMALLY****
TOTAL RUN TIME: 0 days 0 hours 0 minutes 32 seconds 302 msec
