                         Program Version 4.2.1 -  RELEASE  -
|  1> ! wB97X-D3 SP def2-SVP
|  2> %pal
|  3> nprocs 16
|  4> end
|  5>
|  6> * xyz 0 1
|  7> S 	 -73.907 	 52.4102 	 139.001
|  8> C 	 -72.9053 	 52.419 	 140.482
|  9> C 	 -73.6406 	 52.6963 	 141.611
| 10> C 	 -74.9782 	 53.0305 	 141.249
| 11> C 	 -75.3177 	 52.9917 	 139.924
| 12> H 	 -75.7367 	 53.4207 	 141.903
| 13> C 	 -73.1528 	 52.741 	 143.021
| 14> H 	 -72.4642 	 51.9622 	 143.085
| 15> H 	 -73.9383 	 52.4828 	 143.69
| 16> C 	 -72.6117 	 54.0732 	 143.443
| 17> H 	 -71.7979 	 54.4375 	 142.793
| 18> H 	 -73.3596 	 54.8195 	 143.248
| 19> C 	 -72.1209 	 54.1354 	 144.946
| 20> H 	 -72.9579 	 53.94 	 145.59
| 21> H 	 -71.3381 	 53.4573 	 145.228
| 22> H 	 -71.7489 	 55.0983 	 145.168
| 23> S 	 -76.639 	 54.7783 	 138.23
| 24> C 	 -78.1779 	 54.1599 	 137.605
| 25> C 	 -78.6131 	 52.9857 	 138.177
| 26> C 	 -77.7314 	 52.5102 	 139.206
| 27> C 	 -76.5988 	 53.3228 	 139.351
| 28> H 	 -79.5167 	 52.5767 	 137.726
| 29> C 	 -77.8777 	 51.0889 	 139.78
| 30> H 	 -78.6144 	 51.1724 	 140.558
| 31> H 	 -76.8985 	 50.7989 	 140.221
| 32> C 	 -78.2033 	 49.9731 	 138.763
| 33> H 	 -77.7394 	 50.1517 	 137.792
| 34> H 	 -79.2545 	 49.9959 	 138.508
| 35> C 	 -77.7914 	 48.5904 	 139.308
| 36> H 	 -76.7269 	 48.4438 	 139.583
| 37> H 	 -78.1237 	 47.8982 	 138.448
| 38> H 	 -78.3619 	 48.365 	 140.214
| 39> H 	 -71.8809 	 52.0987 	 140.592
| 40> H 	 -78.7249 	 54.6308 	 136.753
| 41> *
| 42>
| 43>                          ****END OF INPUT****

CARTESIAN COORDINATES (ANGSTROEM)
---------------------------------
  S    -73.907000   52.410200  139.001000
  C    -72.905300   52.419000  140.482000
  C    -73.640600   52.696300  141.611000
  C    -74.978200   53.030500  141.249000
  C    -75.317700   52.991700  139.924000
  H    -75.736700   53.420700  141.903000
  C    -73.152800   52.741000  143.021000
  H    -72.464200   51.962200  143.085000
  H    -73.938300   52.482800  143.690000
  C    -72.611700   54.073200  143.443000
  H    -71.797900   54.437500  142.793000
  H    -73.359600   54.819500  143.248000
  C    -72.120900   54.135400  144.946000
  H    -72.957900   53.940000  145.590000
  H    -71.338100   53.457300  145.228000
  H    -71.748900   55.098300  145.168000
  S    -76.639000   54.778300  138.230000
  C    -78.177900   54.159900  137.605000
  C    -78.613100   52.985700  138.177000
  C    -77.731400   52.510200  139.206000
  C    -76.598800   53.322800  139.351000
  H    -79.516700   52.576700  137.726000
  C    -77.877700   51.088900  139.780000
  H    -78.614400   51.172400  140.558000
  H    -76.898500   50.798900  140.221000
  C    -78.203300   49.973100  138.763000
  H    -77.739400   50.151700  137.792000
  H    -79.254500   49.995900  138.508000
  C    -77.791400   48.590400  139.308000
  H    -76.726900   48.443800  139.583000
  H    -78.123700   47.898200  138.448000
  H    -78.361900   48.365000  140.214000
  H    -71.880900   52.098700  140.592000
  H    -78.724900   54.630800  136.753000

 Total Charge           Charge          ....    0
 Multiplicity           Mult            ....    1
 Number of Electrons    NEL             ....  134
 Basis Dimension        Dim             ....  322

ORBITAL ENERGIES
----------------

  NO   OCC          E(Eh)            E(eV)
   0   2.0000     -88.965202     -2420.8662
   1   2.0000     -88.964320     -2420.8422
   2   2.0000     -10.329426      -281.0780
   3   2.0000     -10.324577      -280.9460
   4   2.0000     -10.323084      -280.9054
   5   2.0000     -10.314681      -280.6767
   6   2.0000     -10.312091      -280.6063
   7   2.0000     -10.296483      -280.1815
   8   2.0000     -10.295885      -280.1653
   9   2.0000     -10.292557      -280.0747
  10   2.0000     -10.287480      -279.9366
  11   2.0000     -10.287291      -279.9314
  12   2.0000     -10.287041      -279.9246
  13   2.0000     -10.286467      -279.9090
  14   2.0000     -10.281820      -279.7826
  15   2.0000     -10.274692      -279.5886
  16   2.0000      -8.078530      -219.8280
  17   2.0000      -8.077820      -219.8087
  18   2.0000      -6.037030      -164.2759
  19   2.0000      -6.036522      -164.2621
  20   2.0000      -6.033424      -164.1778
  21   2.0000      -6.032573      -164.1547
  22   2.0000      -6.029177      -164.0622
  23   2.0000      -6.028356      -164.0399
  24   2.0000      -0.997185       -27.1348
  25   2.0000      -0.975043       -26.5323
  26   2.0000      -0.915121       -24.9017
  27   2.0000      -0.904188       -24.6042
  28   2.0000      -0.867081       -23.5945
  29   2.0000      -0.846492       -23.0342
  30   2.0000      -0.841857       -22.9081
  31   2.0000      -0.812792       -22.1172
  32   2.0000      -0.784930       -21.3590
  33   2.0000      -0.768818       -20.9206
  34   2.0000      -0.709912       -19.3177
  35   2.0000      -0.704525       -19.1711
  36   2.0000      -0.697192       -18.9716
  37   2.0000      -0.649333       -17.6692
  38   2.0000      -0.641337       -17.4517
  39   2.0000      -0.615939       -16.7605
  40   2.0000      -0.590751       -16.0752
  41   2.0000      -0.574157       -15.6236
  42   2.0000      -0.565441       -15.3864
  43   2.0000      -0.555839       -15.1252
  44   2.0000      -0.528234       -14.3740
  45   2.0000      -0.522815       -14.2265
  46   2.0000      -0.514668       -14.0048
  47   2.0000      -0.511032       -13.9059
  48   2.0000      -0.503522       -13.7015
  49   2.0000      -0.491967       -13.3871
  50   2.0000      -0.485010       -13.1978
  51   2.0000      -0.483643       -13.1606
  52   2.0000      -0.467129       -12.7112
  53   2.0000      -0.461892       -12.5687
  54   2.0000      -0.458774       -12.4839
  55   2.0000      -0.445473       -12.1219
  56   2.0000      -0.443296       -12.0627
  57   2.0000      -0.437650       -11.9091
  58   2.0000      -0.432213       -11.7611
  59   2.0000      -0.427503       -11.6329
  60   2.0000      -0.422681       -11.5017
  61   2.0000      -0.417287       -11.3550
  62   2.0000      -0.412417       -11.2224
  63   2.0000      -0.336270        -9.1504
  64   2.0000      -0.330098        -8.9824
  65   2.0000      -0.324136        -8.8202
  66   2.0000      -0.302728        -8.2376
  67   0.0000       0.033593         0.9141
  68   0.0000       0.055850         1.5198
  69   0.0000       0.108966         2.9651
  70   0.0000       0.115219         3.1353
  71   0.0000       0.128020         3.4836

MULLIKEN ATOMIC CHARGES
-----------------------
   0 S :    0.108236
   1 C :   -0.117005
   2 C :   -0.100362
   3 C :    0.034920
   4 C :   -0.159282
   5 H :    0.002747
   6 C :    0.143565
   7 H :    0.000404
   8 H :    0.007790
   9 C :   -0.078138
  10 H :    0.023704
  11 H :    0.018799
  12 C :   -0.012859
  13 H :    0.023059
  14 H :    0.027581
  15 H :    0.023383
  16 S :    0.093455
  17 C :   -0.111864
  18 C :   -0.043082
  19 C :   -0.006442
  20 C :   -0.193197
  21 H :    0.026100
  22 C :    0.078058
  23 H :    0.034991
  24 H :    0.036023
  25 C :   -0.085069
  26 H :    0.037009
  27 H :    0.025380
  28 C :   -0.084765
  29 H :    0.053642
  30 H :    0.048458
  31 H :    0.034673
  32 H :    0.039632
  33 H :    0.070457
Sum of atomic charges:   -0.0000000

LOEWDIN ATOMIC CHARGES
----------------------
   0 S :    0.373208
   1 C :   -0.180697
   2 C :   -0.062247
   3 C :   -0.058360
   4 C :   -0.193171
   5 H :    0.028454
   6 C :   -0.026392
   7 H :    0.022160
   8 H :    0.029108
   9 C :   -0.035039
  10 H :    0.024961
  11 H :    0.023121
  12 C :   -0.057881
  13 H :    0.022065
  14 H :    0.023222
  15 H :    0.022025
  16 S :    0.357739
  17 C :   -0.172189
  18 C :   -0.081457
  19 C :   -0.036324
  20 C :   -0.184555
  21 H :    0.036588
  22 C :   -0.029341
  23 H :    0.030958
  24 H :    0.034618
  25 C :   -0.044587
  26 H :    0.026169
  27 H :    0.021057
  28 C :   -0.070233
  29 H :    0.029989
  30 H :    0.038783
  31 H :    0.024163
  32 H :    0.027611
  33 H :    0.036475

  Mayer bond orders larger than 0.100000
B(  0-S ,  1-C ) :   1.1283 B(  0-S ,  4-C ) :   1.1107 B(  1-C ,  2-C ) :   1.6392
B(  1-C , 32-H ) :   0.9619 B(  2-C ,  3-C ) :   1.2160 B(  2-C ,  6-C ) :   1.0275
B(  3-C ,  4-C ) :   1.6173 B(  3-C ,  5-H ) :   0.9938 B(  4-C , 20-C ) :   1.0494
B(  6-C ,  7-H ) :   0.9255 B(  6-C ,  8-H ) :   0.9312 B(  6-C ,  9-C ) :   1.0692
B(  9-C , 10-H ) :   0.9549 B(  9-C , 11-H ) :   0.9535 B(  9-C , 12-C ) :   1.0757
B( 12-C , 13-H ) :   0.9755 B( 12-C , 14-H ) :   0.9777 B( 12-C , 15-H ) :   0.9746
B( 16-S , 17-C ) :   1.1454 B( 16-S , 20-C ) :   1.1075 B( 17-C , 18-C ) :   1.6617
B( 17-C , 33-H ) :   0.9564 B( 18-C , 19-C ) :   1.1914 B( 18-C , 21-H ) :   0.9881
B( 19-C , 20-C ) :   1.6266 B( 19-C , 22-C ) :   1.0328 B( 22-C , 23-H ) :   0.9249
B( 22-C , 24-H ) :   0.9433 B( 22-C , 25-C ) :   1.0610 B( 25-C , 26-H ) :   0.9610
B( 25-C , 27-H ) :   0.9448 B( 25-C , 28-C ) :   1.0837 B( 28-C , 29-H ) :   0.9754
B( 28-C , 30-H ) :   0.9738 B( 28-C , 31-H ) :   0.9748

Dispersion correction           -0.013872547
FINAL SINGLE POINT ENERGY     -1339.874308663803

DIPOLE MOMENT
-------------
                                X             Y             Z
Electronic contribution:     -1.26412      12.23680     -18.52409
Nuclear contribution   :      1.04526     -12.60228      18.87015
                        -----------------------------------------
Total Dipole Moment    :     -0.21886      -0.36548       0.34606
                        -----------------------------------------
Magnitude (a.u.)       :      0.54885
Magnitude (Debye)      :      1.39507

Rotational constants in cm-1:     0.019460     0.007446     0.006387
Rotational constants in MHz :   583.385753   223.231710   191.489545

                             ****ORCA TERMINATED NORMALLY****
TOTAL RUN TIME: 0 days 0 hours 0 minutes 33 seconds 488 msec
