                         Program Version 4.2.1 -  RELEASE  -
|  1> ! wB97X-D3 SP def2-SVP
|  2> %pal
|  3> nprocs 16
|  4> end
|  5>
|  6> * xyz 0 1
|  7> S 	 8.59498 	 26.8826 	 68.4612
|  8> C 	 7.26324 	 25.7547 	 68.0779
|  9> C 	 6.36094 	 26.3274 	 67.1836
| 10> C 	 6.79073 	 27.5766 	 66.7054
| 11> C 	 7.92671 	 28.0627 	 67.2638
| 12> H 	 6.39027 	 28.1423 	 65.8576
| 13> C 	 5.18973 	 25.551 	 66.6654
| 14> H 	 5.14028 	 24.5523 	 67.2333
| 15> H 	 5.29162 	 25.4137 	 65.6155
| 16> C 	 3.87497 	 26.1837 	 67.0193
| 17> H 	 3.7842 	 26.1143 	 68.1281
| 18> H 	 3.90908 	 27.2459 	 66.8932
| 19> C 	 2.70077 	 25.5278 	 66.2668
| 20> H 	 2.40164 	 25.9897 	 65.2947
| 21> H 	 2.90744 	 24.4823 	 66.0524
| 22> H 	 1.8077 	 25.7191 	 66.8412
| 23> S 	 10.2427 	 29.1608 	 66.1495
| 24> C 	 10.2244 	 30.8103 	 65.5725
| 25> C 	 9.01535 	 31.3577 	 65.9275
| 26> C 	 8.1187 	 30.5882 	 66.7468
| 27> C 	 8.6723 	 29.3006 	 66.8721
| 28> H 	 8.74889 	 32.3827 	 65.7115
| 29> C 	 6.79161 	 31.1731 	 67.1317
| 30> H 	 6.08597 	 30.8297 	 66.4515
| 31> H 	 6.86806 	 32.2838 	 67.0779
| 32> C 	 6.33124 	 30.9317 	 68.6023
| 33> H 	 7.23245 	 31.1727 	 69.2914
| 34> H 	 6.22398 	 29.94 	 68.8199
| 35> C 	 5.13081 	 31.771 	 69.0979
| 36> H 	 4.2048 	 31.2714 	 68.6682
| 37> H 	 4.9306 	 32.7561 	 68.6794
| 38> H 	 5.15321 	 31.9734 	 70.1406
| 39> H 	 7.12086 	 24.7962 	 68.521
| 40> H 	 11.0487 	 31.338 	 65.1591
| 41> *
| 42>
| 43>                          ****END OF INPUT****

CARTESIAN COORDINATES (ANGSTROEM)
---------------------------------
  S      8.594980   26.882600   68.461200
  C      7.263240   25.754700   68.077900
  C      6.360940   26.327400   67.183600
  C      6.790730   27.576600   66.705400
  C      7.926710   28.062700   67.263800
  H      6.390270   28.142300   65.857600
  C      5.189730   25.551000   66.665400
  H      5.140280   24.552300   67.233300
  H      5.291620   25.413700   65.615500
  C      3.874970   26.183700   67.019300
  H      3.784200   26.114300   68.128100
  H      3.909080   27.245900   66.893200
  C      2.700770   25.527800   66.266800
  H      2.401640   25.989700   65.294700
  H      2.907440   24.482300   66.052400
  H      1.807700   25.719100   66.841200
  S     10.242700   29.160800   66.149500
  C     10.224400   30.810300   65.572500
  C      9.015350   31.357700   65.927500
  C      8.118700   30.588200   66.746800
  C      8.672300   29.300600   66.872100
  H      8.748890   32.382700   65.711500
  C      6.791610   31.173100   67.131700
  H      6.085970   30.829700   66.451500
  H      6.868060   32.283800   67.077900
  C      6.331240   30.931700   68.602300
  H      7.232450   31.172700   69.291400
  H      6.223980   29.940000   68.819900
  C      5.130810   31.771000   69.097900
  H      4.204800   31.271400   68.668200
  H      4.930600   32.756100   68.679400
  H      5.153210   31.973400   70.140600
  H      7.120860   24.796200   68.521000
  H     11.048700   31.338000   65.159100

 Total Charge           Charge          ....    0
 Multiplicity           Mult            ....    1
 Number of Electrons    NEL             ....  134
 Basis Dimension        Dim             ....  322

ORBITAL ENERGIES
----------------

  NO   OCC          E(Eh)            E(eV)
   0   2.0000     -88.967053     -2420.9166
   1   2.0000     -88.964775     -2420.8546
   2   2.0000     -10.333279      -281.1828
   3   2.0000     -10.330752      -281.1140
   4   2.0000     -10.316260      -280.7197
   5   2.0000     -10.316198      -280.7180
   6   2.0000     -10.305634      -280.4306
   7   2.0000     -10.299326      -280.2589
   8   2.0000     -10.294488      -280.1273
   9   2.0000     -10.293922      -280.1118
  10   2.0000     -10.291647      -280.0499
  11   2.0000     -10.291388      -280.0429
  12   2.0000     -10.285514      -279.8831
  13   2.0000     -10.284189      -279.8470
  14   2.0000     -10.280830      -279.7556
  15   2.0000     -10.280351      -279.7426
  16   2.0000      -8.081954      -219.9211
  17   2.0000      -8.078080      -219.8157
  18   2.0000      -6.040480      -164.3698
  19   2.0000      -6.036624      -164.2649
  20   2.0000      -6.036337      -164.2571
  21   2.0000      -6.032876      -164.1629
  22   2.0000      -6.032771      -164.1601
  23   2.0000      -6.028816      -164.0524
  24   2.0000      -1.003748       -27.3134
  25   2.0000      -0.982769       -26.7425
  26   2.0000      -0.915725       -24.9181
  27   2.0000      -0.907169       -24.6853
  28   2.0000      -0.865207       -23.5435
  29   2.0000      -0.851596       -23.1731
  30   2.0000      -0.844679       -22.9849
  31   2.0000      -0.817032       -22.2326
  32   2.0000      -0.783696       -21.3255
  33   2.0000      -0.771001       -20.9800
  34   2.0000      -0.713051       -19.4031
  35   2.0000      -0.700387       -19.0585
  36   2.0000      -0.692391       -18.8409
  37   2.0000      -0.659970       -17.9587
  38   2.0000      -0.645305       -17.5596
  39   2.0000      -0.620151       -16.8752
  40   2.0000      -0.599740       -16.3197
  41   2.0000      -0.571034       -15.5386
  42   2.0000      -0.564560       -15.3625
  43   2.0000      -0.559690       -15.2299
  44   2.0000      -0.532099       -14.4791
  45   2.0000      -0.526719       -14.3327
  46   2.0000      -0.518599       -14.1118
  47   2.0000      -0.513992       -13.9864
  48   2.0000      -0.507150       -13.8002
  49   2.0000      -0.496644       -13.5144
  50   2.0000      -0.490893       -13.3579
  51   2.0000      -0.481698       -13.1077
  52   2.0000      -0.470113       -12.7924
  53   2.0000      -0.464333       -12.6351
  54   2.0000      -0.458952       -12.4887
  55   2.0000      -0.452645       -12.3171
  56   2.0000      -0.446810       -12.1583
  57   2.0000      -0.437613       -11.9081
  58   2.0000      -0.430209       -11.7066
  59   2.0000      -0.425397       -11.5757
  60   2.0000      -0.416666       -11.3381
  61   2.0000      -0.410317       -11.1653
  62   2.0000      -0.402561       -10.9542
  63   2.0000      -0.344284        -9.3684
  64   2.0000      -0.331173        -9.0117
  65   2.0000      -0.327784        -8.9195
  66   2.0000      -0.299219        -8.1422
  67   0.0000       0.029704         0.8083
  68   0.0000       0.068168         1.8549
  69   0.0000       0.113382         3.0853
  70   0.0000       0.122512         3.3337
  71   0.0000       0.130891         3.5617

MULLIKEN ATOMIC CHARGES
-----------------------
   0 S :    0.087195
   1 C :   -0.110552
   2 C :   -0.087728
   3 C :    0.041042
   4 C :   -0.172737
   5 H :    0.023540
   6 C :    0.064176
   7 H :    0.030098
   8 H :    0.033014
   9 C :   -0.096537
  10 H :    0.028752
  11 H :    0.017298
  12 C :   -0.031558
  13 H :    0.033548
  14 H :    0.035592
  15 H :    0.030400
  16 S :    0.117521
  17 C :   -0.081156
  18 C :   -0.037919
  19 C :   -0.048306
  20 C :   -0.147724
  21 H :    0.010047
  22 C :    0.101650
  23 H :    0.026035
  24 H :    0.028314
  25 C :   -0.088066
  26 H :    0.031939
  27 H :    0.024116
  28 C :   -0.045157
  29 H :    0.031696
  30 H :    0.015738
  31 H :    0.040896
  32 H :    0.040266
  33 H :    0.054567
Sum of atomic charges:   -0.0000000

LOEWDIN ATOMIC CHARGES
----------------------
   0 S :    0.357945
   1 C :   -0.175492
   2 C :   -0.065659
   3 C :   -0.064398
   4 C :   -0.171060
   5 H :    0.038317
   6 C :   -0.030958
   7 H :    0.039572
   8 H :    0.026015
   9 C :   -0.046878
  10 H :    0.028976
  11 H :    0.016115
  12 C :   -0.068411
  13 H :    0.030982
  14 H :    0.025324
  15 H :    0.027362
  16 S :    0.421779
  17 C :   -0.187917
  18 C :   -0.068311
  19 C :   -0.053692
  20 C :   -0.208805
  21 H :    0.024509
  22 C :   -0.024132
  23 H :    0.023118
  24 H :    0.038386
  25 C :   -0.037932
  26 H :    0.033756
  27 H :    0.010407
  28 C :   -0.074129
  29 H :    0.033871
  30 H :    0.023636
  31 H :    0.026038
  32 H :    0.022719
  33 H :    0.028951

  Mayer bond orders larger than 0.100000
B(  0-S ,  1-C ) :   1.1282 B(  0-S ,  4-C ) :   1.1266 B(  1-C ,  2-C ) :   1.6260
B(  1-C , 32-H ) :   0.9692 B(  2-C ,  3-C ) :   1.2147 B(  2-C ,  6-C ) :   1.0340
B(  3-C ,  4-C ) :   1.6251 B(  3-C ,  5-H ) :   0.9857 B(  4-C , 20-C ) :   1.0028
B(  6-C ,  7-H ) :   0.9377 B(  6-C ,  8-H ) :   0.9437 B(  6-C ,  9-C ) :   1.0564
B(  9-C , 10-H ) :   0.9557 B(  9-C , 11-H ) :   0.9610 B(  9-C , 12-C ) :   1.0672
B( 12-C , 13-H ) :   0.9739 B( 12-C , 14-H ) :   0.9747 B( 12-C , 15-H ) :   0.9736
B( 16-S , 17-C ) :   1.1470 B( 16-S , 20-C ) :   1.1688 B( 17-C , 18-C ) :   1.5840
B( 17-C , 33-H ) :   0.9761 B( 18-C , 19-C ) :   1.2850 B( 18-C , 21-H ) :   0.9822
B( 19-C , 20-C ) :   1.5463 B( 19-C , 22-C ) :   1.0416 B( 22-C , 23-H ) :   0.9256
B( 22-C , 24-H ) :   0.9374 B( 22-C , 25-C ) :   1.0510 B( 25-C , 26-H ) :   0.9614
B( 25-C , 27-H ) :   0.9582 B( 25-C , 28-C ) :   1.0737 B( 28-C , 29-H ) :   0.9723
B( 28-C , 30-H ) :   0.9745 B( 28-C , 31-H ) :   0.9778

Dispersion correction           -0.014154022
FINAL SINGLE POINT ENERGY     -1339.863379789923

DIPOLE MOMENT
-------------
                                X             Y             Z
Electronic contribution:     30.27465      -3.25691      -1.86718
Nuclear contribution   :    -30.93480       3.50439       1.61364
                        -----------------------------------------
Total Dipole Moment    :     -0.66014       0.24748      -0.25354
                        -----------------------------------------
Magnitude (a.u.)       :      0.74921
Magnitude (Debye)      :      1.90434

Rotational constants in cm-1:     0.016835     0.008802     0.006980
Rotational constants in MHz :   504.693609   263.870622   209.267126

                             ****ORCA TERMINATED NORMALLY****
TOTAL RUN TIME: 0 days 0 hours 0 minutes 31 seconds 834 msec
