                         Program Version 4.2.1 -  RELEASE  -
|  1> ! wB97X-D3 SP def2-SVP
|  2> %pal
|  3> nprocs 16
|  4> end
|  5>
|  6> * xyz 0 1
|  7> S 	 -9.63903 	 -10.4011 	 87.5471
|  8> C 	 -10.3175 	 -9.74802 	 86.0449
|  9> C 	 -11.7566 	 -9.70201 	 86.0379
| 10> C 	 -12.2119 	 -9.97114 	 87.4047
| 11> C 	 -11.2946 	 -10.4671 	 88.2727
| 12> H 	 -13.2599 	 -9.86945 	 87.7759
| 13> C 	 -12.6386 	 -9.39641 	 84.8798
| 14> H 	 -12.9824 	 -10.3239 	 84.3742
| 15> H 	 -12.0137 	 -9.03181 	 84.0286
| 16> C 	 -13.8904 	 -8.58752 	 85.2098
| 17> H 	 -14.6357 	 -9.12536 	 85.7157
| 18> H 	 -13.6553 	 -7.68278 	 85.7836
| 19> C 	 -14.6093 	 -8.09014 	 83.918
| 20> H 	 -15.0852 	 -8.90213 	 83.41
| 21> H 	 -15.3392 	 -7.3102 	 84.1529
| 22> H 	 -13.8913 	 -7.70276 	 83.2314
| 23> S 	 -10.9692 	 -9.64133 	 90.8745
| 24> C 	 -11.3839 	 -10.7277 	 92.1975
| 25> C 	 -11.8639 	 -11.8996 	 91.7183
| 26> C 	 -11.9614 	 -11.9818 	 90.2526
| 27> C 	 -11.4199 	 -10.8379 	 89.6887
| 28> H 	 -12.2057 	 -12.6833 	 92.4696
| 29> C 	 -12.6269 	 -13.1406 	 89.4765
| 30> H 	 -13.0799 	 -12.6641 	 88.5969
| 31> H 	 -13.4224 	 -13.4178 	 90.0517
| 32> C 	 -11.727 	 -14.3406 	 89.1093
| 33> H 	 -11.0051 	 -14.1329 	 88.2943
| 34> H 	 -12.3362 	 -15.0915 	 88.6873
| 35> C 	 -10.9389 	 -14.751 	 90.2874
| 36> H 	 -11.6137 	 -14.7732 	 91.1803
| 37> H 	 -10.0815 	 -13.9915 	 90.3815
| 38> H 	 -10.4648 	 -15.7 	 90.1378
| 39> H 	 -9.71483 	 -9.58436 	 85.1452
| 40> H 	 -11.2203 	 -10.5326 	 93.2746
| 41> *
| 42>
| 43>                          ****END OF INPUT****

CARTESIAN COORDINATES (ANGSTROEM)
---------------------------------
  S     -9.639030  -10.401100   87.547100
  C    -10.317500   -9.748020   86.044900
  C    -11.756600   -9.702010   86.037900
  C    -12.211900   -9.971140   87.404700
  C    -11.294600  -10.467100   88.272700
  H    -13.259900   -9.869450   87.775900
  C    -12.638600   -9.396410   84.879800
  H    -12.982400  -10.323900   84.374200
  H    -12.013700   -9.031810   84.028600
  C    -13.890400   -8.587520   85.209800
  H    -14.635700   -9.125360   85.715700
  H    -13.655300   -7.682780   85.783600
  C    -14.609300   -8.090140   83.918000
  H    -15.085200   -8.902130   83.410000
  H    -15.339200   -7.310200   84.152900
  H    -13.891300   -7.702760   83.231400
  S    -10.969200   -9.641330   90.874500
  C    -11.383900  -10.727700   92.197500
  C    -11.863900  -11.899600   91.718300
  C    -11.961400  -11.981800   90.252600
  C    -11.419900  -10.837900   89.688700
  H    -12.205700  -12.683300   92.469600
  C    -12.626900  -13.140600   89.476500
  H    -13.079900  -12.664100   88.596900
  H    -13.422400  -13.417800   90.051700
  C    -11.727000  -14.340600   89.109300
  H    -11.005100  -14.132900   88.294300
  H    -12.336200  -15.091500   88.687300
  C    -10.938900  -14.751000   90.287400
  H    -11.613700  -14.773200   91.180300
  H    -10.081500  -13.991500   90.381500
  H    -10.464800  -15.700000   90.137800
  H     -9.714830   -9.584360   85.145200
  H    -11.220300  -10.532600   93.274600

 Total Charge           Charge          ....    0
 Multiplicity           Mult            ....    1
 Number of Electrons    NEL             ....  134
 Basis Dimension        Dim             ....  322

ORBITAL ENERGIES
----------------

  NO   OCC          E(Eh)            E(eV)
   0   2.0000     -88.964229     -2420.8398
   1   2.0000     -88.961694     -2420.7708
   2   2.0000     -10.329239      -281.0729
   3   2.0000     -10.324449      -280.9425
   4   2.0000     -10.322494      -280.8893
   5   2.0000     -10.316303      -280.7209
   6   2.0000     -10.311772      -280.5976
   7   2.0000     -10.307482      -280.4808
   8   2.0000     -10.300043      -280.2784
   9   2.0000     -10.299887      -280.2742
  10   2.0000     -10.298126      -280.2262
  11   2.0000     -10.286841      -279.9192
  12   2.0000     -10.285953      -279.8950
  13   2.0000     -10.277276      -279.6589
  14   2.0000     -10.275385      -279.6074
  15   2.0000     -10.275323      -279.6058
  16   2.0000      -8.077707      -219.8056
  17   2.0000      -8.076591      -219.7752
  18   2.0000      -6.036286      -164.2557
  19   2.0000      -6.035272      -164.2281
  20   2.0000      -6.032503      -164.1528
  21   2.0000      -6.031076      -164.1139
  22   2.0000      -6.028350      -164.0398
  23   2.0000      -6.027134      -164.0066
  24   2.0000      -0.999025       -27.1848
  25   2.0000      -0.973498       -26.4902
  26   2.0000      -0.912827       -24.8393
  27   2.0000      -0.911926       -24.8148
  28   2.0000      -0.866160       -23.5694
  29   2.0000      -0.845362       -23.0035
  30   2.0000      -0.841862       -22.9082
  31   2.0000      -0.815951       -22.2032
  32   2.0000      -0.781979       -21.2787
  33   2.0000      -0.767997       -20.8982
  34   2.0000      -0.712585       -19.3904
  35   2.0000      -0.697369       -18.9764
  36   2.0000      -0.683323       -18.5942
  37   2.0000      -0.651780       -17.7358
  38   2.0000      -0.644282       -17.5318
  39   2.0000      -0.612653       -16.6711
  40   2.0000      -0.586339       -15.9551
  41   2.0000      -0.571931       -15.5630
  42   2.0000      -0.560827       -15.2609
  43   2.0000      -0.556132       -15.1331
  44   2.0000      -0.549395       -14.9498
  45   2.0000      -0.528995       -14.3947
  46   2.0000      -0.516108       -14.0440
  47   2.0000      -0.505166       -13.7463
  48   2.0000      -0.500579       -13.6215
  49   2.0000      -0.497645       -13.5416
  50   2.0000      -0.478243       -13.0137
  51   2.0000      -0.476841       -12.9755
  52   2.0000      -0.468867       -12.7585
  53   2.0000      -0.462300       -12.5798
  54   2.0000      -0.453406       -12.3378
  55   2.0000      -0.443965       -12.0809
  56   2.0000      -0.440567       -11.9884
  57   2.0000      -0.436376       -11.8744
  58   2.0000      -0.432935       -11.7807
  59   2.0000      -0.426920       -11.6171
  60   2.0000      -0.424295       -11.5457
  61   2.0000      -0.421364       -11.4659
  62   2.0000      -0.408591       -11.1183
  63   2.0000      -0.338953        -9.2234
  64   2.0000      -0.326075        -8.8730
  65   2.0000      -0.319683        -8.6990
  66   2.0000      -0.304552        -8.2873
  67   0.0000       0.042592         1.1590
  68   0.0000       0.058030         1.5791
  69   0.0000       0.112586         3.0636
  70   0.0000       0.120738         3.2855
  71   0.0000       0.122665         3.3379

MULLIKEN ATOMIC CHARGES
-----------------------
   0 S :    0.096885
   1 C :   -0.122437
   2 C :   -0.089483
   3 C :    0.036466
   4 C :   -0.173822
   5 H :    0.033044
   6 C :    0.051375
   7 H :    0.038371
   8 H :    0.018400
   9 C :   -0.083910
  10 H :    0.030512
  11 H :    0.041409
  12 C :   -0.035048
  13 H :    0.022545
  14 H :    0.039326
  15 H :    0.019055
  16 S :    0.112659
  17 C :   -0.104141
  18 C :   -0.058812
  19 C :   -0.066935
  20 C :   -0.181651
  21 H :    0.043306
  22 C :    0.126810
  23 H :    0.020070
  24 H :    0.002351
  25 C :   -0.038822
  26 H :    0.030638
  27 H :    0.016935
  28 C :   -0.063819
  29 H :    0.028881
  30 H :    0.057433
  31 H :    0.027897
  32 H :    0.056399
  33 H :    0.068113
Sum of atomic charges:    0.0000000

LOEWDIN ATOMIC CHARGES
----------------------
   0 S :    0.368840
   1 C :   -0.191608
   2 C :   -0.058599
   3 C :   -0.061524
   4 C :   -0.181741
   5 H :    0.040136
   6 C :   -0.044800
   7 H :    0.040321
   8 H :    0.036185
   9 C :   -0.035732
  10 H :    0.019169
  11 H :    0.028216
  12 C :   -0.057356
  13 H :    0.019669
  14 H :    0.029133
  15 H :    0.018609
  16 S :    0.399951
  17 C :   -0.189992
  18 C :   -0.083291
  19 C :   -0.048385
  20 C :   -0.209926
  21 H :    0.040979
  22 C :   -0.020413
  23 H :    0.034271
  24 H :    0.017418
  25 C :   -0.040513
  26 H :    0.029720
  27 H :    0.016359
  28 C :   -0.067252
  29 H :    0.024064
  30 H :    0.040676
  31 H :    0.020435
  32 H :    0.027575
  33 H :    0.039407

  Mayer bond orders larger than 0.100000
B(  0-S ,  1-C ) :   1.1417 B(  0-S ,  4-C ) :   1.1144 B(  1-C ,  2-C ) :   1.6194
B(  1-C , 32-H ) :   0.9616 B(  2-C ,  3-C ) :   1.1941 B(  2-C ,  6-C ) :   1.0479
B(  3-C ,  4-C ) :   1.6611 B(  3-C ,  5-H ) :   0.9765 B(  4-C , 20-C ) :   1.0014
B(  6-C ,  7-H ) :   0.9229 B(  6-C ,  8-H ) :   0.9375 B(  6-C ,  9-C ) :   1.0608
B(  9-C , 10-H ) :   0.9466 B(  9-C , 11-H ) :   0.9652 B(  9-C , 12-C ) :   1.0849
B( 12-C , 13-H ) :   0.9754 B( 12-C , 14-H ) :   0.9757 B( 12-C , 15-H ) :   0.9772
B( 16-S , 17-C ) :   1.1303 B( 16-S , 20-C ) :   1.1496 B( 17-C , 18-C ) :   1.6678
B( 17-C , 33-H ) :   0.9615 B( 18-C , 19-C ) :   1.1992 B( 18-C , 21-H ) :   0.9721
B( 19-C , 20-C ) :   1.6309 B( 19-C , 22-C ) :   1.0275 B( 22-C , 23-H ) :   0.9270
B( 22-C , 24-H ) :   0.9297 B( 22-C , 25-C ) :   1.0725 B( 25-C , 26-H ) :   0.9524
B( 25-C , 27-H ) :   0.9539 B( 25-C , 28-C ) :   1.0911 B( 28-C , 29-H ) :   0.9751
B( 28-C , 30-H ) :   0.9636 B( 28-C , 31-H ) :   0.9688

Dispersion correction           -0.014405170
FINAL SINGLE POINT ENERGY     -1339.874116510815

DIPOLE MOMENT
-------------
                                X             Y             Z
Electronic contribution:     15.00792       8.19505      13.35435
Nuclear contribution   :    -15.59934      -8.49782     -13.66567
                        -----------------------------------------
Total Dipole Moment    :     -0.59142      -0.30277      -0.31132
                        -----------------------------------------
Magnitude (a.u.)       :      0.73374
Magnitude (Debye)      :      1.86501

Rotational constants in cm-1:     0.020495     0.007413     0.006972
Rotational constants in MHz :   614.415026   222.231800   209.029879

                             ****ORCA TERMINATED NORMALLY****
TOTAL RUN TIME: 0 days 0 hours 0 minutes 31 seconds 266 msec
