                         Program Version 4.2.1 -  RELEASE  -
|  1> ! wB97X-D3 SP def2-SVP
|  2> %pal
|  3> nprocs 16
|  4> end
|  5>
|  6> * xyz 0 1
|  7> S 	 -43.3298 	 14.2182 	 73.8684
|  8> C 	 -41.7025 	 14.8233 	 74.1409
|  9> C 	 -40.9899 	 13.9065 	 74.9115
| 10> C 	 -41.7452 	 12.7505 	 75.3275
| 11> C 	 -43.0245 	 12.7676 	 74.8866
| 12> H 	 -41.4367 	 11.9705 	 75.9234
| 13> C 	 -39.5444 	 14.034 	 75.3418
| 14> H 	 -39.5553 	 13.6978 	 76.3646
| 15> H 	 -39.0983 	 15.0578 	 75.3238
| 16> C 	 -38.6405 	 13.1001 	 74.5344
| 17> H 	 -37.7756 	 12.8642 	 75.1731
| 18> H 	 -39.046 	 12.0911 	 74.4429
| 19> C 	 -38.1868 	 13.6245 	 73.1923
| 20> H 	 -37.3589 	 13.0874 	 72.7978
| 21> H 	 -38.9049 	 13.6573 	 72.3586
| 22> H 	 -37.9183 	 14.6717 	 73.3313
| 23> S 	 -45.3909 	 11.8232 	 73.778
| 24> C 	 -46.2598 	 10.4824 	 74.6338
| 25> C 	 -45.4478 	 9.83554 	 75.5046
| 26> C 	 -44.2574 	 10.5935 	 75.7666
| 27> C 	 -44.0823 	 11.7349 	 74.9477
| 28> H 	 -45.856 	 8.91488 	 75.9986
| 29> C 	 -43.288 	 10.0479 	 76.768
| 30> H 	 -43.9177 	 9.59446 	 77.6203
| 31> H 	 -42.5155 	 10.7699 	 77.2032
| 32> C 	 -42.5814 	 8.80942 	 76.2327
| 33> H 	 -43.1543 	 8.21258 	 75.5506
| 34> H 	 -42.3906 	 8.11161 	 77.0071
| 35> C 	 -41.2844 	 9.05069 	 75.4296
| 36> H 	 -40.5827 	 9.67098 	 75.9861
| 37> H 	 -41.4893 	 9.46915 	 74.3897
| 38> H 	 -40.926 	 8.07263 	 75.1217
| 39> H 	 -41.4618 	 15.9173 	 73.9775
| 40> H 	 -47.2286 	 10.0008 	 74.3932
| 41> *
| 42>
| 43>                          ****END OF INPUT****

CARTESIAN COORDINATES (ANGSTROEM)
---------------------------------
  S    -43.329800   14.218200   73.868400
  C    -41.702500   14.823300   74.140900
  C    -40.989900   13.906500   74.911500
  C    -41.745200   12.750500   75.327500
  C    -43.024500   12.767600   74.886600
  H    -41.436700   11.970500   75.923400
  C    -39.544400   14.034000   75.341800
  H    -39.555300   13.697800   76.364600
  H    -39.098300   15.057800   75.323800
  C    -38.640500   13.100100   74.534400
  H    -37.775600   12.864200   75.173100
  H    -39.046000   12.091100   74.442900
  C    -38.186800   13.624500   73.192300
  H    -37.358900   13.087400   72.797800
  H    -38.904900   13.657300   72.358600
  H    -37.918300   14.671700   73.331300
  S    -45.390900   11.823200   73.778000
  C    -46.259800   10.482400   74.633800
  C    -45.447800    9.835540   75.504600
  C    -44.257400   10.593500   75.766600
  C    -44.082300   11.734900   74.947700
  H    -45.856000    8.914880   75.998600
  C    -43.288000   10.047900   76.768000
  H    -43.917700    9.594460   77.620300
  H    -42.515500   10.769900   77.203200
  C    -42.581400    8.809420   76.232700
  H    -43.154300    8.212580   75.550600
  H    -42.390600    8.111610   77.007100
  C    -41.284400    9.050690   75.429600
  H    -40.582700    9.670980   75.986100
  H    -41.489300    9.469150   74.389700
  H    -40.926000    8.072630   75.121700
  H    -41.461800   15.917300   73.977500
  H    -47.228600   10.000800   74.393200

 Total Charge           Charge          ....    0
 Multiplicity           Mult            ....    1
 Number of Electrons    NEL             ....  134
 Basis Dimension        Dim             ....  322

ORBITAL ENERGIES
----------------

  NO   OCC          E(Eh)            E(eV)
   0   2.0000     -88.967244     -2420.9218
   1   2.0000     -88.961374     -2420.7621
   2   2.0000     -10.335698      -281.2486
   3   2.0000     -10.334991      -281.2294
   4   2.0000     -10.322006      -280.8761
   5   2.0000     -10.319851      -280.8174
   6   2.0000     -10.309255      -280.5291
   7   2.0000     -10.305950      -280.4392
   8   2.0000     -10.304223      -280.3922
   9   2.0000     -10.299303      -280.2583
  10   2.0000     -10.292962      -280.0857
  11   2.0000     -10.289876      -280.0018
  12   2.0000     -10.284783      -279.8632
  13   2.0000     -10.282524      -279.8017
  14   2.0000     -10.281956      -279.7862
  15   2.0000     -10.271935      -279.5136
  16   2.0000      -8.080796      -219.8896
  17   2.0000      -8.075576      -219.7476
  18   2.0000      -6.039617      -164.3463
  19   2.0000      -6.035622      -164.2376
  20   2.0000      -6.034312      -164.2020
  21   2.0000      -6.031125      -164.1153
  22   2.0000      -6.030169      -164.0892
  23   2.0000      -6.026126      -163.9792
  24   2.0000      -1.002606       -27.2823
  25   2.0000      -0.980353       -26.6768
  26   2.0000      -0.914111       -24.8742
  27   2.0000      -0.910460       -24.7749
  28   2.0000      -0.870321       -23.6826
  29   2.0000      -0.851511       -23.1708
  30   2.0000      -0.842221       -22.9180
  31   2.0000      -0.820494       -22.3268
  32   2.0000      -0.780242       -21.2315
  33   2.0000      -0.770254       -20.9597
  34   2.0000      -0.709513       -19.3068
  35   2.0000      -0.695373       -18.9221
  36   2.0000      -0.691551       -18.8181
  37   2.0000      -0.658742       -17.9253
  38   2.0000      -0.640360       -17.4251
  39   2.0000      -0.628391       -17.0994
  40   2.0000      -0.598083       -16.2747
  41   2.0000      -0.565004       -15.3746
  42   2.0000      -0.559770       -15.2321
  43   2.0000      -0.549323       -14.9478
  44   2.0000      -0.536287       -14.5931
  45   2.0000      -0.533290       -14.5116
  46   2.0000      -0.524992       -14.2858
  47   2.0000      -0.511062       -13.9067
  48   2.0000      -0.504440       -13.7265
  49   2.0000      -0.493175       -13.4200
  50   2.0000      -0.489626       -13.3234
  51   2.0000      -0.477244       -12.9865
  52   2.0000      -0.470917       -12.8143
  53   2.0000      -0.466219       -12.6865
  54   2.0000      -0.453681       -12.3453
  55   2.0000      -0.448743       -12.2109
  56   2.0000      -0.445944       -12.1348
  57   2.0000      -0.438999       -11.9458
  58   2.0000      -0.436879       -11.8881
  59   2.0000      -0.425639       -11.5822
  60   2.0000      -0.419067       -11.4034
  61   2.0000      -0.410802       -11.1785
  62   2.0000      -0.401899       -10.9362
  63   2.0000      -0.363793        -9.8993
  64   2.0000      -0.334449        -9.1008
  65   2.0000      -0.322651        -8.7798
  66   2.0000      -0.282618        -7.6904
  67   0.0000       0.018271         0.4972
  68   0.0000       0.081391         2.2148
  69   0.0000       0.087387         2.3779
  70   0.0000       0.113167         3.0794
  71   0.0000       0.129733         3.5302

MULLIKEN ATOMIC CHARGES
-----------------------
   0 S :    0.068532
   1 C :   -0.139401
   2 C :   -0.072444
   3 C :    0.040623
   4 C :   -0.078784
   5 H :   -0.061777
   6 C :    0.063751
   7 H :    0.019552
   8 H :    0.031589
   9 C :   -0.080317
  10 H :    0.021373
  11 H :    0.022720
  12 C :   -0.020731
  13 H :    0.027313
  14 H :    0.036664
  15 H :    0.013022
  16 S :    0.086787
  17 C :   -0.094526
  18 C :   -0.050595
  19 C :   -0.048650
  20 C :   -0.096973
  21 H :    0.045944
  22 C :    0.006529
  23 H :    0.037980
  24 H :    0.051364
  25 C :   -0.053172
  26 H :    0.015935
  27 H :    0.016646
  28 C :   -0.070881
  29 H :    0.041252
  30 H :    0.045756
  31 H :    0.027571
  32 H :    0.084092
  33 H :    0.063256
Sum of atomic charges:   -0.0000000

LOEWDIN ATOMIC CHARGES
----------------------
   0 S :    0.365838
   1 C :   -0.209532
   2 C :   -0.054043
   3 C :   -0.058380
   4 C :   -0.155147
   5 H :    0.012522
   6 C :   -0.031577
   7 H :    0.029659
   8 H :    0.033000
   9 C :   -0.045211
  10 H :    0.026004
  11 H :    0.023488
  12 C :   -0.064828
  13 H :    0.023589
  14 H :    0.029145
  15 H :    0.022678
  16 S :    0.371199
  17 C :   -0.169635
  18 C :   -0.074725
  19 C :   -0.059525
  20 C :   -0.191791
  21 H :    0.046031
  22 C :   -0.042774
  23 H :    0.042928
  24 H :    0.036395
  25 C :   -0.041658
  26 H :    0.024215
  27 H :    0.017562
  28 C :   -0.070107
  29 H :    0.017068
  30 H :    0.035864
  31 H :    0.027031
  32 H :    0.046038
  33 H :    0.038678

  Mayer bond orders larger than 0.100000
B(  0-S ,  1-C ) :   1.1156 B(  0-S ,  4-C ) :   1.1288 B(  1-C ,  2-C ) :   1.6268
B(  1-C , 32-H ) :   0.9603 B(  2-C ,  3-C ) :   1.2067 B(  2-C ,  6-C ) :   1.0288
B(  3-C ,  4-C ) :   1.6065 B(  3-C ,  5-H ) :   0.9954 B(  4-C , 20-C ) :   1.0624
B(  6-C ,  7-H ) :   0.9330 B(  6-C ,  8-H ) :   0.9487 B(  6-C ,  9-C ) :   1.0784
B(  9-C , 10-H ) :   0.9512 B(  9-C , 11-H ) :   0.9514 B(  9-C , 12-C ) :   1.0752
B( 12-C , 13-H ) :   0.9725 B( 12-C , 14-H ) :   0.9741 B( 12-C , 15-H ) :   0.9725
B( 16-S , 17-C ) :   1.1209 B( 16-S , 20-C ) :   1.1140 B( 17-C , 18-C ) :   1.6750
B( 17-C , 33-H ) :   0.9586 B( 18-C , 19-C ) :   1.2095 B( 18-C , 21-H ) :   0.9751
B( 19-C , 20-C ) :   1.6045 B( 19-C , 22-C ) :   1.0568 B( 22-C , 23-H ) :   0.9279
B( 22-C , 24-H ) :   0.9404 B( 22-C , 25-C ) :   1.0610 B( 25-C , 26-H ) :   0.9499
B( 25-C , 27-H ) :   0.9556 B( 25-C , 28-C ) :   1.0890 B( 28-C , 29-H ) :   0.9714
B( 28-C , 30-H ) :   0.9724 B( 28-C , 31-H ) :   0.9682

Dispersion correction           -0.015085015
FINAL SINGLE POINT ENERGY     -1339.863605874521

DIPOLE MOMENT
-------------
                                X             Y             Z
Electronic contribution:    -25.70285      10.75127      -5.98894
Nuclear contribution   :     26.14789     -11.33909       6.41265
                        -----------------------------------------
Total Dipole Moment    :      0.44503      -0.58782       0.42371
                        -----------------------------------------
Magnitude (a.u.)       :      0.85036
Magnitude (Debye)      :      2.16145

Rotational constants in cm-1:     0.020007     0.009479     0.007057
Rotational constants in MHz :   599.802545   284.167413   211.549317

                             ****ORCA TERMINATED NORMALLY****
TOTAL RUN TIME: 0 days 0 hours 0 minutes 31 seconds 461 msec
