                         Program Version 4.2.1 -  RELEASE  -
|  1> ! wB97X-D3 SP def2-SVP
|  2> %pal
|  3> nprocs 16
|  4> end
|  5>
|  6> * xyz 0 1
|  7> S 	 -5.3024 	 -6.90596 	 78.8718
|  8> C 	 -4.87027 	 -8.2915 	 79.8551
|  9> C 	 -5.98275 	 -8.86782 	 80.5518
| 10> C 	 -7.18289 	 -8.12161 	 80.3202
| 11> C 	 -7.02124 	 -7.08692 	 79.3797
| 12> H 	 -8.18334 	 -8.24488 	 80.7831
| 13> C 	 -5.7802 	 -9.99698 	 81.5034
| 14> H 	 -5.93336 	 -9.53103 	 82.4631
| 15> H 	 -4.75336 	 -10.2569 	 81.3791
| 16> C 	 -6.70759 	 -11.2386 	 81.3284
| 17> H 	 -7.74697 	 -10.9668 	 81.6148
| 18> H 	 -6.80477 	 -11.4947 	 80.2234
| 19> C 	 -6.21152 	 -12.4743 	 82.0925
| 20> H 	 -6.62576 	 -13.3684 	 81.6267
| 21> H 	 -5.15282 	 -12.7867 	 82.0962
| 22> H 	 -6.6509 	 -12.3617 	 83.0994
| 23> S 	 -7.82111 	 -4.41991 	 78.8806
| 24> C 	 -9.39234 	 -4.16533 	 78.2002
| 25> C 	 -10.1599 	 -5.29092 	 78.2392
| 26> C 	 -9.36669 	 -6.45487 	 78.553
| 27> C 	 -8.03294 	 -6.1866 	 78.8917
| 28> H 	 -11.2584 	 -5.23015 	 78.0354
| 29> C 	 -9.94637 	 -7.87171 	 78.4768
| 30> H 	 -9.1512 	 -8.57064 	 78.2888
| 31> H 	 -10.4884 	 -7.95704 	 77.5459
| 32> C 	 -11.0255 	 -8.26445 	 79.5071
| 33> H 	 -11.7626 	 -7.54199 	 79.4436
| 34> H 	 -10.5256 	 -8.16043 	 80.4663
| 35> C 	 -11.5581 	 -9.65961 	 79.3028
| 36> H 	 -10.7499 	 -10.401 	 79.3148
| 37> H 	 -12.0487 	 -9.89589 	 78.3349
| 38> H 	 -12.2343 	 -9.81101 	 80.1529
| 39> H 	 -3.78962 	 -8.49867 	 80.0132
| 40> H 	 -9.81424 	 -3.20074 	 78.0993
| 41> *
| 42>
| 43>                          ****END OF INPUT****

CARTESIAN COORDINATES (ANGSTROEM)
---------------------------------
  S     -5.302400   -6.905960   78.871800
  C     -4.870270   -8.291500   79.855100
  C     -5.982750   -8.867820   80.551800
  C     -7.182890   -8.121610   80.320200
  C     -7.021240   -7.086920   79.379700
  H     -8.183340   -8.244880   80.783100
  C     -5.780200   -9.996980   81.503400
  H     -5.933360   -9.531030   82.463100
  H     -4.753360  -10.256900   81.379100
  C     -6.707590  -11.238600   81.328400
  H     -7.746970  -10.966800   81.614800
  H     -6.804770  -11.494700   80.223400
  C     -6.211520  -12.474300   82.092500
  H     -6.625760  -13.368400   81.626700
  H     -5.152820  -12.786700   82.096200
  H     -6.650900  -12.361700   83.099400
  S     -7.821110   -4.419910   78.880600
  C     -9.392340   -4.165330   78.200200
  C    -10.159900   -5.290920   78.239200
  C     -9.366690   -6.454870   78.553000
  C     -8.032940   -6.186600   78.891700
  H    -11.258400   -5.230150   78.035400
  C     -9.946370   -7.871710   78.476800
  H     -9.151200   -8.570640   78.288800
  H    -10.488400   -7.957040   77.545900
  C    -11.025500   -8.264450   79.507100
  H    -11.762600   -7.541990   79.443600
  H    -10.525600   -8.160430   80.466300
  C    -11.558100   -9.659610   79.302800
  H    -10.749900  -10.401000   79.314800
  H    -12.048700   -9.895890   78.334900
  H    -12.234300   -9.811010   80.152900
  H     -3.789620   -8.498670   80.013200
  H     -9.814240   -3.200740   78.099300

 Total Charge           Charge          ....    0
 Multiplicity           Mult            ....    1
 Number of Electrons    NEL             ....  134
 Basis Dimension        Dim             ....  322

ORBITAL ENERGIES
----------------

  NO   OCC          E(Eh)            E(eV)
   0   2.0000     -88.967376     -2420.9254
   1   2.0000     -88.963067     -2420.8081
   2   2.0000     -10.333956      -281.2012
   3   2.0000     -10.327185      -281.0170
   4   2.0000     -10.320691      -280.8403
   5   2.0000     -10.312613      -280.6205
   6   2.0000     -10.307910      -280.4925
   7   2.0000     -10.305908      -280.4380
   8   2.0000     -10.303465      -280.3715
   9   2.0000     -10.298425      -280.2344
  10   2.0000     -10.297464      -280.2082
  11   2.0000     -10.289141      -279.9818
  12   2.0000     -10.283185      -279.8197
  13   2.0000     -10.282868      -279.8111
  14   2.0000     -10.282775      -279.8085
  15   2.0000     -10.282308      -279.7958
  16   2.0000      -8.081162      -219.8996
  17   2.0000      -8.077867      -219.8099
  18   2.0000      -6.039573      -164.3451
  19   2.0000      -6.036380      -164.2582
  20   2.0000      -6.035827      -164.2432
  21   2.0000      -6.032477      -164.1520
  22   2.0000      -6.032079      -164.1412
  23   2.0000      -6.028491      -164.0436
  24   2.0000      -1.000441       -27.2234
  25   2.0000      -0.976881       -26.5823
  26   2.0000      -0.911608       -24.8061
  27   2.0000      -0.909442       -24.7472
  28   2.0000      -0.869171       -23.6513
  29   2.0000      -0.852311       -23.1926
  30   2.0000      -0.845398       -23.0044
  31   2.0000      -0.815633       -22.1945
  32   2.0000      -0.782136       -21.2830
  33   2.0000      -0.765833       -20.8394
  34   2.0000      -0.710507       -19.3339
  35   2.0000      -0.703011       -19.1299
  36   2.0000      -0.690203       -18.7814
  37   2.0000      -0.655648       -17.8411
  38   2.0000      -0.639164       -17.3925
  39   2.0000      -0.616494       -16.7757
  40   2.0000      -0.595399       -16.2016
  41   2.0000      -0.571914       -15.5626
  42   2.0000      -0.566776       -15.4228
  43   2.0000      -0.556656       -15.1474
  44   2.0000      -0.533378       -14.5140
  45   2.0000      -0.521504       -14.1909
  46   2.0000      -0.520212       -14.1557
  47   2.0000      -0.511990       -13.9320
  48   2.0000      -0.505874       -13.7655
  49   2.0000      -0.493113       -13.4183
  50   2.0000      -0.491575       -13.3764
  51   2.0000      -0.480554       -13.0765
  52   2.0000      -0.476150       -12.9567
  53   2.0000      -0.459624       -12.5070
  54   2.0000      -0.456676       -12.4268
  55   2.0000      -0.449830       -12.2405
  56   2.0000      -0.444610       -12.0984
  57   2.0000      -0.439697       -11.9648
  58   2.0000      -0.437843       -11.9143
  59   2.0000      -0.425435       -11.5767
  60   2.0000      -0.417316       -11.3557
  61   2.0000      -0.414898       -11.2899
  62   2.0000      -0.411658       -11.2018
  63   2.0000      -0.348545        -9.4844
  64   2.0000      -0.329878        -8.9764
  65   2.0000      -0.326717        -8.8904
  66   2.0000      -0.285005        -7.7554
  67   0.0000       0.021184         0.5765
  68   0.0000       0.072697         1.9782
  69   0.0000       0.106286         2.8922
  70   0.0000       0.120834         3.2881
  71   0.0000       0.124141         3.3780

MULLIKEN ATOMIC CHARGES
-----------------------
   0 S :    0.108123
   1 C :   -0.144440
   2 C :   -0.106570
   3 C :    0.027503
   4 C :   -0.183845
   5 H :    0.024361
   6 C :    0.118600
   7 H :    0.039239
   8 H :    0.006443
   9 C :   -0.121575
  10 H :    0.035593
  11 H :    0.041627
  12 C :   -0.052425
  13 H :    0.027463
  14 H :    0.041927
  15 H :    0.042342
  16 S :    0.096941
  17 C :   -0.070059
  18 C :   -0.050161
  19 C :   -0.042270
  20 C :   -0.122003
  21 H :    0.041887
  22 C :    0.026236
  23 H :    0.025030
  24 H :    0.006921
  25 C :   -0.019017
  26 H :    0.007793
  27 H :    0.017783
  28 C :   -0.048136
  29 H :    0.026469
  30 H :    0.036843
  31 H :    0.042989
  32 H :    0.071142
  33 H :    0.047249
Sum of atomic charges:    0.0000000

LOEWDIN ATOMIC CHARGES
----------------------
   0 S :    0.388262
   1 C :   -0.208104
   2 C :   -0.058179
   3 C :   -0.059725
   4 C :   -0.178724
   5 H :    0.038952
   6 C :   -0.030639
   7 H :    0.035130
   8 H :    0.026842
   9 C :   -0.045665
  10 H :    0.026285
  11 H :    0.029214
  12 C :   -0.076093
  13 H :    0.028203
  14 H :    0.030638
  15 H :    0.031379
  16 S :    0.395287
  17 C :   -0.180599
  18 C :   -0.076977
  19 C :   -0.050293
  20 C :   -0.200246
  21 H :    0.041797
  22 C :   -0.039573
  23 H :    0.026298
  24 H :    0.026710
  25 C :   -0.030199
  26 H :    0.013819
  27 H :    0.019761
  28 C :   -0.066305
  29 H :    0.026250
  30 H :    0.029223
  31 H :    0.031791
  32 H :    0.032739
  33 H :    0.022740

  Mayer bond orders larger than 0.100000
B(  0-S ,  1-C ) :   1.1490 B(  0-S ,  4-C ) :   1.1459 B(  1-C ,  2-C ) :   1.5781
B(  1-C ,  4-C ) :   0.1066 B(  1-C , 32-H ) :   0.9598 B(  2-C ,  3-C ) :   1.2422
B(  2-C ,  6-C ) :   1.0347 B(  3-C ,  4-C ) :   1.5537 B(  3-C ,  5-H ) :   0.9841
B(  4-C , 20-C ) :   1.0865 B(  6-C ,  7-H ) :   0.9307 B(  6-C ,  8-H ) :   0.9377
B(  6-C ,  9-C ) :   1.0493 B(  9-C , 10-H ) :   0.9536 B(  9-C , 11-H ) :   0.9656
B(  9-C , 12-C ) :   1.0767 B( 12-C , 13-H ) :   0.9745 B( 12-C , 14-H ) :   0.9766
B( 12-C , 15-H ) :   0.9767 B( 16-S , 17-C ) :   1.1584 B( 16-S , 20-C ) :   1.1196
B( 17-C , 18-C ) :   1.6201 B( 17-C , 33-H ) :   0.9662 B( 18-C , 19-C ) :   1.2343
B( 18-C , 21-H ) :   0.9825 B( 19-C , 20-C ) :   1.5834 B( 19-C , 22-C ) :   1.0482
B( 22-C , 23-H ) :   0.9381 B( 22-C , 24-H ) :   0.9311 B( 22-C , 25-C ) :   1.0534
B( 25-C , 26-H ) :   0.9488 B( 25-C , 27-H ) :   0.9511 B( 25-C , 28-C ) :   1.0879
B( 28-C , 29-H ) :   0.9727 B( 28-C , 30-H ) :   0.9730 B( 28-C , 31-H ) :   0.9731

Dispersion correction           -0.014072372
FINAL SINGLE POINT ENERGY     -1339.874672745438

DIPOLE MOMENT
-------------
                                X             Y             Z
Electronic contribution:     13.22482      29.21686     -10.21611
Nuclear contribution   :    -13.70215     -29.74794      10.56820
                        -----------------------------------------
Total Dipole Moment    :     -0.47732      -0.53108       0.35209
                        -----------------------------------------
Magnitude (a.u.)       :      0.79615
Magnitude (Debye)      :      2.02365

Rotational constants in cm-1:     0.017258     0.009149     0.006269
Rotational constants in MHz :   517.374713   274.265492   187.926488

                             ****ORCA TERMINATED NORMALLY****
TOTAL RUN TIME: 0 days 0 hours 0 minutes 33 seconds 589 msec
