                         Program Version 4.2.1 -  RELEASE  -
|  1> ! wB97X-D3 SP def2-SVP
|  2> %pal
|  3> nprocs 16
|  4> end
|  5>
|  6> * xyz 0 1
|  7> S 	 -37.2857 	 2.12395 	 99.1863
|  8> C 	 -36.4299 	 3.09826 	 97.9825
|  9> C 	 -36.5465 	 2.47491 	 96.7431
| 10> C 	 -37.4836 	 1.40368 	 96.7234
| 11> C 	 -37.8811 	 0.981053 	 97.964
| 12> H 	 -37.8966 	 1.0534 	 95.7635
| 13> C 	 -36.0548 	 3.11167 	 95.4458
| 14> H 	 -36.3523 	 4.15032 	 95.512
| 15> H 	 -36.6354 	 2.68341 	 94.6204
| 16> C 	 -34.5769 	 2.88066 	 95.2814
| 17> H 	 -34.0885 	 3.34511 	 96.1364
| 18> H 	 -34.2895 	 1.85362 	 95.3642
| 19> C 	 -34.3015 	 3.60226 	 93.9172
| 20> H 	 -34.5132 	 4.67665 	 93.8876
| 21> H 	 -33.2295 	 3.48732 	 93.7674
| 22> H 	 -34.835 	 3.12939 	 93.068
| 23> S 	 -40.2228 	 0.264974 	 99.3497
| 24> C 	 -40.8879 	 -1.27977 	 99.0718
| 25> C 	 -40.1284 	 -2.05849 	 98.2412
| 26> C 	 -38.883 	 -1.41234 	 97.8542
| 27> C 	 -38.8278 	 -0.0829527 	 98.3393
| 28> H 	 -40.4368 	 -3.05107 	 97.8695
| 29> C 	 -37.8338 	 -2.11554 	 97.0372
| 30> H 	 -36.8313 	 -1.62104 	 97.1691
| 31> H 	 -38.0716 	 -2.01077 	 95.9427
| 32> C 	 -37.5055 	 -3.52001 	 97.4314
| 33> H 	 -36.6974 	 -3.89344 	 96.8482
| 34> H 	 -38.4123 	 -4.11843 	 97.2995
| 35> C 	 -37.0515 	 -3.64738 	 98.9054
| 36> H 	 -36.783 	 -4.64468 	 99.3466
| 37> H 	 -37.9766 	 -3.25019 	 99.4562
| 38> H 	 -36.133 	 -3.04259 	 99.147
| 39> H 	 -35.8809 	 4.02246 	 98.0172
| 40> H 	 -41.84 	 -1.452 	 99.431
| 41> *
| 42>
| 43>                          ****END OF INPUT****

CARTESIAN COORDINATES (ANGSTROEM)
---------------------------------
  S    -37.285700    2.123950   99.186300
  C    -36.429900    3.098260   97.982500
  C    -36.546500    2.474910   96.743100
  C    -37.483600    1.403680   96.723400
  C    -37.881100    0.981053   97.964000
  H    -37.896600    1.053400   95.763500
  C    -36.054800    3.111670   95.445800
  H    -36.352300    4.150320   95.512000
  H    -36.635400    2.683410   94.620400
  C    -34.576900    2.880660   95.281400
  H    -34.088500    3.345110   96.136400
  H    -34.289500    1.853620   95.364200
  C    -34.301500    3.602260   93.917200
  H    -34.513200    4.676650   93.887600
  H    -33.229500    3.487320   93.767400
  H    -34.835000    3.129390   93.068000
  S    -40.222800    0.264974   99.349700
  C    -40.887900   -1.279770   99.071800
  C    -40.128400   -2.058490   98.241200
  C    -38.883000   -1.412340   97.854200
  C    -38.827800   -0.082953   98.339300
  H    -40.436800   -3.051070   97.869500
  C    -37.833800   -2.115540   97.037200
  H    -36.831300   -1.621040   97.169100
  H    -38.071600   -2.010770   95.942700
  C    -37.505500   -3.520010   97.431400
  H    -36.697400   -3.893440   96.848200
  H    -38.412300   -4.118430   97.299500
  C    -37.051500   -3.647380   98.905400
  H    -36.783000   -4.644680   99.346600
  H    -37.976600   -3.250190   99.456200
  H    -36.133000   -3.042590   99.147000
  H    -35.880900    4.022460   98.017200
  H    -41.840000   -1.452000   99.431000

 Total Charge           Charge          ....    0
 Multiplicity           Mult            ....    1
 Number of Electrons    NEL             ....  134
 Basis Dimension        Dim             ....  322

ORBITAL ENERGIES
----------------

  NO   OCC          E(Eh)            E(eV)
   0   2.0000     -88.966182     -2420.8929
   1   2.0000     -88.965304     -2420.8690
   2   2.0000     -10.331228      -281.1270
   3   2.0000     -10.330351      -281.1031
   4   2.0000     -10.313375      -280.6412
   5   2.0000     -10.313007      -280.6312
   6   2.0000     -10.309581      -280.5380
   7   2.0000     -10.299873      -280.2738
   8   2.0000     -10.294651      -280.1317
   9   2.0000     -10.293336      -280.0959
  10   2.0000     -10.293027      -280.0875
  11   2.0000     -10.286203      -279.9018
  12   2.0000     -10.285815      -279.8913
  13   2.0000     -10.283624      -279.8316
  14   2.0000     -10.283459      -279.8271
  15   2.0000     -10.282563      -279.8028
  16   2.0000      -8.081853      -219.9184
  17   2.0000      -8.079036      -219.8417
  18   2.0000      -6.040256      -164.3637
  19   2.0000      -6.037724      -164.2948
  20   2.0000      -6.036153      -164.2521
  21   2.0000      -6.033629      -164.1834
  22   2.0000      -6.032747      -164.1594
  23   2.0000      -6.029707      -164.0767
  24   2.0000      -1.004723       -27.3399
  25   2.0000      -0.983670       -26.7670
  26   2.0000      -0.916076       -24.9277
  27   2.0000      -0.915722       -24.9181
  28   2.0000      -0.866903       -23.5896
  29   2.0000      -0.846721       -23.0405
  30   2.0000      -0.839702       -22.8494
  31   2.0000      -0.813204       -22.1284
  32   2.0000      -0.778072       -21.1724
  33   2.0000      -0.766022       -20.8445
  34   2.0000      -0.709416       -19.3042
  35   2.0000      -0.704264       -19.1640
  36   2.0000      -0.694946       -18.9105
  37   2.0000      -0.653495       -17.7825
  38   2.0000      -0.634733       -17.2720
  39   2.0000      -0.619618       -16.8607
  40   2.0000      -0.607821       -16.5397
  41   2.0000      -0.569811       -15.5053
  42   2.0000      -0.559590       -15.2272
  43   2.0000      -0.554456       -15.0875
  44   2.0000      -0.546834       -14.8801
  45   2.0000      -0.523304       -14.2398
  46   2.0000      -0.517434       -14.0801
  47   2.0000      -0.505192       -13.7470
  48   2.0000      -0.503543       -13.7021
  49   2.0000      -0.495053       -13.4711
  50   2.0000      -0.488142       -13.2830
  51   2.0000      -0.475881       -12.9494
  52   2.0000      -0.471009       -12.8168
  53   2.0000      -0.465515       -12.6673
  54   2.0000      -0.457360       -12.4454
  55   2.0000      -0.457172       -12.4403
  56   2.0000      -0.448717       -12.2102
  57   2.0000      -0.443148       -12.0587
  58   2.0000      -0.434523       -11.8240
  59   2.0000      -0.422253       -11.4901
  60   2.0000      -0.414327       -11.2744
  61   2.0000      -0.406607       -11.0644
  62   2.0000      -0.397849       -10.8260
  63   2.0000      -0.347407        -9.4534
  64   2.0000      -0.329696        -8.9715
  65   2.0000      -0.327604        -8.9146
  66   2.0000      -0.291041        -7.9196
  67   0.0000       0.026850         0.7306
  68   0.0000       0.073354         1.9961
  69   0.0000       0.110704         3.0124
  70   0.0000       0.122055         3.3213
  71   0.0000       0.129652         3.5280

MULLIKEN ATOMIC CHARGES
-----------------------
   0 S :    0.099824
   1 C :   -0.092587
   2 C :   -0.130269
   3 C :    0.023228
   4 C :   -0.140683
   5 H :    0.024474
   6 C :    0.033710
   7 H :    0.033081
   8 H :    0.014882
   9 C :   -0.058714
  10 H :    0.023626
  11 H :    0.031401
  12 C :   -0.040396
  13 H :    0.036691
  14 H :    0.028668
  15 H :    0.037754
  16 S :    0.115074
  17 C :   -0.060531
  18 C :   -0.036508
  19 C :   -0.064515
  20 C :   -0.141605
  21 H :    0.032291
  22 C :    0.039188
  23 H :    0.035428
  24 H :    0.053189
  25 C :   -0.044357
  26 H :    0.028127
  27 H :    0.025256
  28 C :   -0.121756
  29 H :    0.044837
  30 H :    0.056862
  31 H :    0.039193
  32 H :    0.040262
  33 H :    0.034875
Sum of atomic charges:    0.0000000

LOEWDIN ATOMIC CHARGES
----------------------
   0 S :    0.386664
   1 C :   -0.197818
   2 C :   -0.067081
   3 C :   -0.066150
   4 C :   -0.183888
   5 H :    0.035851
   6 C :   -0.031191
   7 H :    0.030140
   8 H :    0.025595
   9 C :   -0.033683
  10 H :    0.024255
  11 H :    0.025119
  12 C :   -0.065418
  13 H :    0.027877
  14 H :    0.022213
  15 H :    0.028807
  16 S :    0.424835
  17 C :   -0.179530
  18 C :   -0.075740
  19 C :   -0.050719
  20 C :   -0.204572
  21 H :    0.035900
  22 C :   -0.043742
  23 H :    0.039024
  24 H :    0.040174
  25 C :   -0.042524
  26 H :    0.022179
  27 H :    0.019445
  28 C :   -0.082934
  29 H :    0.028792
  30 H :    0.036504
  31 H :    0.028313
  32 H :    0.029900
  33 H :    0.013404

  Mayer bond orders larger than 0.100000
B(  0-S ,  1-C ) :   1.1251 B(  0-S ,  4-C ) :   1.1405 B(  1-C ,  2-C ) :   1.6152
B(  1-C , 32-H ) :   0.9650 B(  2-C ,  3-C ) :   1.2586 B(  2-C ,  6-C ) :   1.0079
B(  3-C ,  4-C ) :   1.5745 B(  3-C ,  5-H ) :   0.9866 B(  4-C , 20-C ) :   1.0374
B(  6-C ,  7-H ) :   0.9507 B(  6-C ,  8-H ) :   0.9506 B(  6-C ,  9-C ) :   1.0503
B(  9-C , 10-H ) :   0.9562 B(  9-C , 11-H ) :   0.9586 B(  9-C , 12-C ) :   1.0669
B( 12-C , 13-H ) :   0.9750 B( 12-C , 14-H ) :   0.9746 B( 12-C , 15-H ) :   0.9752
B( 16-S , 17-C ) :   1.1767 B( 16-S , 20-C ) :   1.1477 B( 17-C , 18-C ) :   1.5804
B( 17-C , 33-H ) :   0.9789 B( 18-C , 19-C ) :   1.2400 B( 18-C , 21-H ) :   0.9879
B( 19-C , 20-C ) :   1.5806 B( 19-C , 22-C ) :   1.0402 B( 22-C , 23-H ) :   0.9354
B( 22-C , 24-H ) :   0.9309 B( 22-C , 25-C ) :   1.0755 B( 25-C , 26-H ) :   0.9543
B( 25-C , 27-H ) :   0.9508 B( 25-C , 28-C ) :   1.0658 B( 28-C , 29-H ) :   0.9765
B( 28-C , 30-H ) :   0.9706 B( 28-C , 31-H ) :   0.9731

Dispersion correction           -0.014002839
FINAL SINGLE POINT ENERGY     -1339.871689653878

DIPOLE MOMENT
-------------
                                X             Y             Z
Electronic contribution:    -17.17027       6.70997      17.99910
Nuclear contribution   :     17.25738      -6.84306     -18.67671
                        -----------------------------------------
Total Dipole Moment    :      0.08711      -0.13309      -0.67761
                        -----------------------------------------
Magnitude (a.u.)       :      0.69603
Magnitude (Debye)      :      1.76916

Rotational constants in cm-1:     0.020937     0.007628     0.006349
Rotational constants in MHz :   627.671577   228.669206   190.327782

                             ****ORCA TERMINATED NORMALLY****
TOTAL RUN TIME: 0 days 0 hours 0 minutes 29 seconds 496 msec
