                         Program Version 4.2.1 -  RELEASE  -
|  1> ! wB97X-D3 SP def2-SVP
|  2> %pal
|  3> nprocs 16
|  4> end
|  5>
|  6> * xyz 0 1
|  7> S 	 -72.3204 	 39.8049 	 121.656
|  8> C 	 -73.6898 	 39.7867 	 122.761
|  9> C 	 -74.2884 	 41.0271 	 122.723
| 10> C 	 -73.6702 	 41.9311 	 121.767
| 11> C 	 -72.64 	 41.404 	 121.021
| 12> H 	 -73.9246 	 42.962 	 121.721
| 13> C 	 -75.5427 	 41.3584 	 123.499
| 14> H 	 -75.2086 	 42.0106 	 124.297
| 15> H 	 -75.9856 	 40.6092 	 124.132
| 16> C 	 -76.7187 	 41.9948 	 122.648
| 17> H 	 -76.3538 	 42.971 	 122.119
| 18> H 	 -77.1561 	 41.2426 	 121.952
| 19> C 	 -77.897 	 42.3801 	 123.478
| 20> H 	 -78.2906 	 41.5165 	 124.094
| 21> H 	 -77.5351 	 43.0746 	 124.177
| 22> H 	 -78.7224 	 42.8266 	 122.856
| 23> S 	 -70.3547 	 41.3058 	 119.426
| 24> C 	 -70.3795 	 42.075 	 117.875
| 25> C 	 -71.4299 	 43.0054 	 117.788
| 26> C 	 -72.3037 	 42.9435 	 118.947
| 27> C 	 -71.9707 	 41.8896 	 119.824
| 28> H 	 -71.6165 	 43.6439 	 116.899
| 29> C 	 -73.4151 	 43.9503 	 119.064
| 30> H 	 -74.4179 	 43.5212 	 119.278
| 31> H 	 -73.6509 	 44.4272 	 118.033
| 32> C 	 -73.0071 	 45.0303 	 120.021
| 33> H 	 -72.2144 	 45.6117 	 119.643
| 34> H 	 -72.664 	 44.7448 	 120.995
| 35> C 	 -74.2927 	 45.8971 	 120.385
| 36> H 	 -74.7971 	 46.299 	 119.535
| 37> H 	 -74.1761 	 46.7932 	 121.062
| 38> H 	 -75.1505 	 45.3648 	 120.86
| 39> H 	 -74.0873 	 38.8902 	 123.308
| 40> H 	 -69.681 	 42.0123 	 117.134
| 41> *
| 42>
| 43>                          ****END OF INPUT****

CARTESIAN COORDINATES (ANGSTROEM)
---------------------------------
  S    -72.320400   39.804900  121.656000
  C    -73.689800   39.786700  122.761000
  C    -74.288400   41.027100  122.723000
  C    -73.670200   41.931100  121.767000
  C    -72.640000   41.404000  121.021000
  H    -73.924600   42.962000  121.721000
  C    -75.542700   41.358400  123.499000
  H    -75.208600   42.010600  124.297000
  H    -75.985600   40.609200  124.132000
  C    -76.718700   41.994800  122.648000
  H    -76.353800   42.971000  122.119000
  H    -77.156100   41.242600  121.952000
  C    -77.897000   42.380100  123.478000
  H    -78.290600   41.516500  124.094000
  H    -77.535100   43.074600  124.177000
  H    -78.722400   42.826600  122.856000
  S    -70.354700   41.305800  119.426000
  C    -70.379500   42.075000  117.875000
  C    -71.429900   43.005400  117.788000
  C    -72.303700   42.943500  118.947000
  C    -71.970700   41.889600  119.824000
  H    -71.616500   43.643900  116.899000
  C    -73.415100   43.950300  119.064000
  H    -74.417900   43.521200  119.278000
  H    -73.650900   44.427200  118.033000
  C    -73.007100   45.030300  120.021000
  H    -72.214400   45.611700  119.643000
  H    -72.664000   44.744800  120.995000
  C    -74.292700   45.897100  120.385000
  H    -74.797100   46.299000  119.535000
  H    -74.176100   46.793200  121.062000
  H    -75.150500   45.364800  120.860000
  H    -74.087300   38.890200  123.308000
  H    -69.681000   42.012300  117.134000

 Total Charge           Charge          ....    0
 Multiplicity           Mult            ....    1
 Number of Electrons    NEL             ....  134
 Basis Dimension        Dim             ....  322

ORBITAL ENERGIES
----------------

  NO   OCC          E(Eh)            E(eV)
   0   2.0000     -88.969789     -2420.9910
   1   2.0000     -88.960061     -2420.7263
   2   2.0000     -10.334987      -281.2293
   3   2.0000     -10.333671      -281.1935
   4   2.0000     -10.317893      -280.7642
   5   2.0000     -10.315967      -280.7117
   6   2.0000     -10.310276      -280.5569
   7   2.0000     -10.304239      -280.3926
   8   2.0000     -10.302696      -280.3506
   9   2.0000     -10.302331      -280.3407
  10   2.0000     -10.298004      -280.2229
  11   2.0000     -10.294597      -280.1302
  12   2.0000     -10.293687      -280.1055
  13   2.0000     -10.289365      -279.9878
  14   2.0000     -10.285106      -279.8720
  15   2.0000     -10.279642      -279.7233
  16   2.0000      -8.084363      -219.9867
  17   2.0000      -8.074963      -219.7309
  18   2.0000      -6.042967      -164.4375
  19   2.0000      -6.038993      -164.3293
  20   2.0000      -6.034937      -164.2190
  21   2.0000      -6.033647      -164.1839
  22   2.0000      -6.029346      -164.0669
  23   2.0000      -6.025605      -163.9651
  24   2.0000      -1.006096       -27.3773
  25   2.0000      -0.983196       -26.7541
  26   2.0000      -0.914970       -24.8976
  27   2.0000      -0.910186       -24.7674
  28   2.0000      -0.872601       -23.7447
  29   2.0000      -0.848745       -23.0955
  30   2.0000      -0.842460       -22.9245
  31   2.0000      -0.816890       -22.2287
  32   2.0000      -0.780192       -21.2301
  33   2.0000      -0.770265       -20.9600
  34   2.0000      -0.715782       -19.4774
  35   2.0000      -0.702795       -19.1240
  36   2.0000      -0.688341       -18.7307
  37   2.0000      -0.664642       -18.0858
  38   2.0000      -0.640718       -17.4348
  39   2.0000      -0.624482       -16.9930
  40   2.0000      -0.601024       -16.3547
  41   2.0000      -0.566731       -15.4215
  42   2.0000      -0.564903       -15.3718
  43   2.0000      -0.559320       -15.2199
  44   2.0000      -0.532548       -14.4914
  45   2.0000      -0.526985       -14.3400
  46   2.0000      -0.519335       -14.1318
  47   2.0000      -0.514479       -13.9997
  48   2.0000      -0.506050       -13.7703
  49   2.0000      -0.499748       -13.5988
  50   2.0000      -0.491900       -13.3853
  51   2.0000      -0.487231       -13.2582
  52   2.0000      -0.466350       -12.6900
  53   2.0000      -0.464491       -12.6394
  54   2.0000      -0.453958       -12.3528
  55   2.0000      -0.452378       -12.3098
  56   2.0000      -0.451393       -12.2830
  57   2.0000      -0.439510       -11.9597
  58   2.0000      -0.427475       -11.6322
  59   2.0000      -0.423723       -11.5301
  60   2.0000      -0.419087       -11.4039
  61   2.0000      -0.414237       -11.2720
  62   2.0000      -0.403861       -10.9896
  63   2.0000      -0.360615        -9.8128
  64   2.0000      -0.331030        -9.0078
  65   2.0000      -0.323721        -8.8089
  66   2.0000      -0.283873        -7.7246
  67   0.0000       0.015075         0.4102
  68   0.0000       0.084223         2.2918
  69   0.0000       0.097656         2.6573
  70   0.0000       0.118723         3.2306
  71   0.0000       0.124171         3.3789

MULLIKEN ATOMIC CHARGES
-----------------------
   0 S :    0.082157
   1 C :   -0.140518
   2 C :   -0.059275
   3 C :    0.003106
   4 C :   -0.094401
   5 H :   -0.013303
   6 C :    0.058565
   7 H :    0.027220
   8 H :    0.003169
   9 C :   -0.118990
  10 H :    0.050121
  11 H :    0.047710
  12 C :   -0.055023
  13 H :    0.033106
  14 H :    0.013517
  15 H :    0.051295
  16 S :    0.110867
  17 C :   -0.038941
  18 C :   -0.048966
  19 C :   -0.053824
  20 C :   -0.104974
  21 H :    0.036256
  22 C :    0.000182
  23 H :    0.042672
  24 H :    0.034336
  25 C :   -0.011683
  26 H :    0.021429
  27 H :    0.035483
  28 C :   -0.086687
  29 H :    0.013325
  30 H :    0.039305
  31 H :    0.026877
  32 H :    0.074142
  33 H :    0.021745
Sum of atomic charges:    0.0000000

LOEWDIN ATOMIC CHARGES
----------------------
   0 S :    0.390362
   1 C :   -0.202042
   2 C :   -0.061878
   3 C :   -0.068249
   4 C :   -0.182811
   5 H :    0.022158
   6 C :   -0.038333
   7 H :    0.033699
   8 H :    0.026983
   9 C :   -0.047892
  10 H :    0.032081
  11 H :    0.030560
  12 C :   -0.072757
  13 H :    0.028022
  14 H :    0.013704
  15 H :    0.034882
  16 S :    0.411945
  17 C :   -0.175138
  18 C :   -0.070427
  19 C :   -0.049705
  20 C :   -0.192367
  21 H :    0.038235
  22 C :   -0.041108
  23 H :    0.033954
  24 H :    0.040489
  25 C :   -0.029399
  26 H :    0.023970
  27 H :    0.023480
  28 C :   -0.080793
  29 H :    0.016001
  30 H :    0.030193
  31 H :    0.025397
  32 H :    0.045537
  33 H :    0.011244

  Mayer bond orders larger than 0.100000
B(  0-S ,  1-C ) :   1.1238 B(  0-S ,  4-C ) :   1.1420 B(  1-C ,  2-C ) :   1.6157
B(  1-C , 32-H ) :   0.9640 B(  2-C ,  3-C ) :   1.2356 B(  2-C ,  6-C ) :   1.0263
B(  3-C ,  4-C ) :   1.5629 B(  3-C ,  5-H ) :   0.9976 B(  4-C , 20-C ) :   1.0829
B(  6-C ,  7-H ) :   0.9306 B(  6-C ,  8-H ) :   0.9458 B(  6-C ,  9-C ) :   1.0517
B(  9-C , 10-H ) :   0.9482 B(  9-C , 11-H ) :   0.9593 B(  9-C , 12-C ) :   1.0869
B( 12-C , 13-H ) :   0.9702 B( 12-C , 14-H ) :   0.9737 B( 12-C , 15-H ) :   0.9717
B( 16-S , 17-C ) :   1.1588 B( 16-S , 20-C ) :   1.1344 B( 17-C , 18-C ) :   1.5864
B( 17-C , 20-C ) :   0.1008 B( 17-C , 33-H ) :   0.9798 B( 18-C , 19-C ) :   1.2647
B( 18-C , 21-H ) :   0.9816 B( 19-C , 20-C ) :   1.5602 B( 19-C , 22-C ) :   1.0453
B( 22-C , 23-H ) :   0.9462 B( 22-C , 24-H ) :   0.9343 B( 22-C , 25-C ) :   1.0432
B( 25-C , 26-H ) :   0.9493 B( 25-C , 27-H ) :   0.9650 B( 25-C , 28-C ) :   1.0546
B( 28-C , 29-H ) :   0.9721 B( 28-C , 30-H ) :   0.9765 B( 28-C , 31-H ) :   0.9766

Dispersion correction           -0.014478414
FINAL SINGLE POINT ENERGY     -1339.856777233880

DIPOLE MOMENT
-------------
                                X             Y             Z
Electronic contribution:     26.76889     -19.97034      -7.36819
Nuclear contribution   :    -27.33110      20.52553       7.34394
                        -----------------------------------------
Total Dipole Moment    :     -0.56221       0.55519      -0.02425
                        -----------------------------------------
Magnitude (a.u.)       :      0.79051
Magnitude (Debye)      :      2.00931

Rotational constants in cm-1:     0.018173     0.009525     0.006578
Rotational constants in MHz :   544.811350   285.547385   197.197516

                             ****ORCA TERMINATED NORMALLY****
TOTAL RUN TIME: 0 days 0 hours 0 minutes 35 seconds 398 msec
