                         Program Version 4.2.1 -  RELEASE  -
|  1> ! wB97X-D3 SP def2-SVP
|  2> %pal
|  3> nprocs 16
|  4> end
|  5>
|  6> * xyz 0 1
|  7> S 	 9.31847 	 21.7826 	 53.6961
|  8> C 	 11.0005 	 21.9161 	 53.4939
|  9> C 	 11.5778 	 22.5855 	 54.52
| 10> C 	 10.6388 	 22.9641 	 55.5233
| 11> C 	 9.3468 	 22.4912 	 55.2624
| 12> H 	 10.8158 	 23.5504 	 56.4274
| 13> C 	 13.0859 	 22.856 	 54.5793
| 14> H 	 13.5635 	 21.7856 	 54.6794
| 15> H 	 13.3075 	 23.471 	 55.4679
| 16> C 	 13.7713 	 23.6538 	 53.4457
| 17> H 	 14.8178 	 23.9465 	 53.6881
| 18> H 	 13.9237 	 23.1315 	 52.4707
| 19> C 	 13.0788 	 24.9775 	 53.2459
| 20> H 	 12.1308 	 24.8169 	 52.7042
| 21> H 	 12.885 	 25.4001 	 54.2707
| 22> H 	 13.821 	 25.6165 	 52.7249
| 23> S 	 6.63677 	 22.9523 	 55.3142
| 24> C 	 5.74908 	 22.7791 	 56.8311
| 25> C 	 6.66242 	 22.6141 	 57.8689
| 26> C 	 8.0179 	 22.5665 	 57.4595
| 27> C 	 8.1544 	 22.5998 	 56.1083
| 28> H 	 6.20774 	 22.768 	 58.8419
| 29> C 	 9.19591 	 22.379 	 58.4586
| 30> H 	 10.078 	 22.1111 	 57.8314
| 31> H 	 9.05865 	 21.4607 	 59.0756
| 32> C 	 9.53343 	 23.6097 	 59.3946
| 33> H 	 8.74882 	 24.0491 	 59.9223
| 34> H 	 9.8459 	 24.4137 	 58.6606
| 35> C 	 10.4995 	 23.3521 	 60.5323
| 36> H 	 10.007 	 22.9634 	 61.4182
| 37> H 	 11.2007 	 24.2533 	 60.6102
| 38> H 	 11.2293 	 22.6096 	 60.266
| 39> H 	 11.6272 	 21.459 	 52.6976
| 40> H 	 4.72972 	 23.0303 	 56.9594
| 41> *
| 42>
| 43>                          ****END OF INPUT****

CARTESIAN COORDINATES (ANGSTROEM)
---------------------------------
  S      9.318470   21.782600   53.696100
  C     11.000500   21.916100   53.493900
  C     11.577800   22.585500   54.520000
  C     10.638800   22.964100   55.523300
  C      9.346800   22.491200   55.262400
  H     10.815800   23.550400   56.427400
  C     13.085900   22.856000   54.579300
  H     13.563500   21.785600   54.679400
  H     13.307500   23.471000   55.467900
  C     13.771300   23.653800   53.445700
  H     14.817800   23.946500   53.688100
  H     13.923700   23.131500   52.470700
  C     13.078800   24.977500   53.245900
  H     12.130800   24.816900   52.704200
  H     12.885000   25.400100   54.270700
  H     13.821000   25.616500   52.724900
  S      6.636770   22.952300   55.314200
  C      5.749080   22.779100   56.831100
  C      6.662420   22.614100   57.868900
  C      8.017900   22.566500   57.459500
  C      8.154400   22.599800   56.108300
  H      6.207740   22.768000   58.841900
  C      9.195910   22.379000   58.458600
  H     10.078000   22.111100   57.831400
  H      9.058650   21.460700   59.075600
  C      9.533430   23.609700   59.394600
  H      8.748820   24.049100   59.922300
  H      9.845900   24.413700   58.660600
  C     10.499500   23.352100   60.532300
  H     10.007000   22.963400   61.418200
  H     11.200700   24.253300   60.610200
  H     11.229300   22.609600   60.266000
  H     11.627200   21.459000   52.697600
  H      4.729720   23.030300   56.959400

 Total Charge           Charge          ....    0
 Multiplicity           Mult            ....    1
 Number of Electrons    NEL             ....  134
 Basis Dimension        Dim             ....  322

ORBITAL ENERGIES
----------------

  NO   OCC          E(Eh)            E(eV)
   0   2.0000     -88.968488     -2420.9557
   1   2.0000     -88.964932     -2420.8589
   2   2.0000     -10.330644      -281.1111
   3   2.0000     -10.328465      -281.0518
   4   2.0000     -10.317169      -280.7444
   5   2.0000     -10.309688      -280.5409
   6   2.0000     -10.304742      -280.4063
   7   2.0000     -10.304336      -280.3952
   8   2.0000     -10.300647      -280.2949
   9   2.0000     -10.299835      -280.2728
  10   2.0000     -10.297205      -280.2012
  11   2.0000     -10.294926      -280.1392
  12   2.0000     -10.289742      -279.9981
  13   2.0000     -10.288784      -279.9720
  14   2.0000     -10.282168      -279.7920
  15   2.0000     -10.279390      -279.7164
  16   2.0000      -8.084468      -219.9895
  17   2.0000      -8.079666      -219.8589
  18   2.0000      -6.042871      -164.4349
  19   2.0000      -6.038697      -164.3213
  20   2.0000      -6.038199      -164.3078
  21   2.0000      -6.035350      -164.2302
  22   2.0000      -6.034240      -164.2000
  23   2.0000      -6.030333      -164.0937
  24   2.0000      -1.015426       -27.6312
  25   2.0000      -0.991150       -26.9706
  26   2.0000      -0.912160       -24.8211
  27   2.0000      -0.901766       -24.5383
  28   2.0000      -0.872828       -23.7509
  29   2.0000      -0.856664       -23.3110
  30   2.0000      -0.846759       -23.0415
  31   2.0000      -0.815908       -22.2020
  32   2.0000      -0.778983       -21.1972
  33   2.0000      -0.770703       -20.9719
  34   2.0000      -0.704881       -19.1808
  35   2.0000      -0.699778       -19.0419
  36   2.0000      -0.692411       -18.8415
  37   2.0000      -0.664546       -18.0832
  38   2.0000      -0.638102       -17.3636
  39   2.0000      -0.612181       -16.6583
  40   2.0000      -0.590813       -16.0768
  41   2.0000      -0.577411       -15.7121
  42   2.0000      -0.565300       -15.3826
  43   2.0000      -0.553607       -15.0644
  44   2.0000      -0.545763       -14.8510
  45   2.0000      -0.527189       -14.3456
  46   2.0000      -0.517488       -14.0816
  47   2.0000      -0.506612       -13.7856
  48   2.0000      -0.504893       -13.7388
  49   2.0000      -0.499639       -13.5959
  50   2.0000      -0.495020       -13.4702
  51   2.0000      -0.477139       -12.9836
  52   2.0000      -0.471670       -12.8348
  53   2.0000      -0.467438       -12.7196
  54   2.0000      -0.459537       -12.5046
  55   2.0000      -0.446144       -12.1402
  56   2.0000      -0.438779       -11.9398
  57   2.0000      -0.434146       -11.8137
  58   2.0000      -0.428911       -11.6713
  59   2.0000      -0.426404       -11.6030
  60   2.0000      -0.420360       -11.4386
  61   2.0000      -0.410346       -11.1661
  62   2.0000      -0.408842       -11.1252
  63   2.0000      -0.356682        -9.7058
  64   2.0000      -0.332952        -9.0601
  65   2.0000      -0.331967        -9.0333
  66   2.0000      -0.290182        -7.8962
  67   0.0000       0.025780         0.7015
  68   0.0000       0.075272         2.0483
  69   0.0000       0.105744         2.8775
  70   0.0000       0.120087         3.2677
  71   0.0000       0.130141         3.5413

MULLIKEN ATOMIC CHARGES
-----------------------
   0 S :    0.131433
   1 C :   -0.125903
   2 C :   -0.088603
   3 C :    0.015221
   4 C :   -0.160922
   5 H :    0.013392
   6 C :    0.028834
   7 H :    0.060562
   8 H :    0.025856
   9 C :   -0.093502
  10 H :    0.029637
  11 H :    0.028861
  12 C :   -0.065161
  13 H :    0.055511
  14 H :    0.027952
  15 H :    0.039498
  16 S :    0.094377
  17 C :   -0.093032
  18 C :   -0.035352
  19 C :   -0.023365
  20 C :   -0.127481
  21 H :    0.024144
  22 C :    0.022954
  23 H :    0.031647
  24 H :    0.034938
  25 C :   -0.070943
  26 H :    0.019106
  27 H :    0.031625
  28 C :   -0.047046
  29 H :    0.046674
  30 H :    0.045973
  31 H :    0.012394
  32 H :    0.059765
  33 H :    0.050956
Sum of atomic charges:   -0.0000000

LOEWDIN ATOMIC CHARGES
----------------------
   0 S :    0.446418
   1 C :   -0.220366
   2 C :   -0.075035
   3 C :   -0.069249
   4 C :   -0.201904
   5 H :    0.031893
   6 C :   -0.039661
   7 H :    0.046220
   8 H :    0.030160
   9 C :   -0.056316
  10 H :    0.027607
  11 H :    0.021590
  12 C :   -0.068498
  13 H :    0.029626
  14 H :    0.027094
  15 H :    0.028955
  16 S :    0.393394
  17 C :   -0.174410
  18 C :   -0.066972
  19 C :   -0.064278
  20 C :   -0.190194
  21 H :    0.034190
  22 C :   -0.034926
  23 H :    0.032556
  24 H :    0.031111
  25 C :   -0.047074
  26 H :    0.016830
  27 H :    0.027575
  28 C :   -0.072118
  29 H :    0.028955
  30 H :    0.043633
  31 H :    0.018890
  32 H :    0.041109
  33 H :    0.023198

  Mayer bond orders larger than 0.100000
B(  0-S ,  1-C ) :   1.1512 B(  0-S ,  4-C ) :   1.1812 B(  1-C ,  2-C ) :   1.5969
B(  1-C , 32-H ) :   0.9644 B(  2-C ,  3-C ) :   1.2696 B(  2-C ,  6-C ) :   1.0092
B(  3-C ,  4-C ) :   1.5270 B(  3-C ,  5-H ) :   0.9919 B(  4-C , 20-C ) :   1.0384
B(  6-C ,  7-H ) :   0.9401 B(  6-C ,  8-H ) :   0.9452 B(  6-C ,  9-C ) :   1.0699
B(  9-C , 10-H ) :   0.9607 B(  9-C , 11-H ) :   0.9520 B(  9-C , 12-C ) :   1.0708
B( 12-C , 13-H ) :   0.9710 B( 12-C , 14-H ) :   0.9748 B( 12-C , 15-H ) :   0.9753
B( 16-S , 17-C ) :   1.1409 B( 16-S , 20-C ) :   1.1438 B( 17-C , 18-C ) :   1.6225
B( 17-C , 20-C ) :   0.1009 B( 17-C , 33-H ) :   0.9724 B( 18-C , 19-C ) :   1.2282
B( 18-C , 21-H ) :   0.9887 B( 19-C , 20-C ) :   1.6150 B( 19-C , 22-C ) :   1.0288
B( 22-C , 23-H ) :   0.9327 B( 22-C , 24-H ) :   0.9441 B( 22-C , 25-C ) :   1.0465
B( 25-C , 26-H ) :   0.9619 B( 25-C , 27-H ) :   0.9550 B( 25-C , 28-C ) :   1.0723
B( 28-C , 29-H ) :   0.9764 B( 28-C , 30-H ) :   0.9705 B( 28-C , 31-H ) :   0.9735

Dispersion correction           -0.014107974
FINAL SINGLE POINT ENERGY     -1339.868508223633

DIPOLE MOMENT
-------------
                                X             Y             Z
Electronic contribution:    -23.78345      -9.05244     -13.22143
Nuclear contribution   :     24.24577       9.24240      13.65747
                        -----------------------------------------
Total Dipole Moment    :      0.46232       0.18996       0.43605
                        -----------------------------------------
Magnitude (a.u.)       :      0.66330
Magnitude (Debye)      :      1.68598

Rotational constants in cm-1:     0.017699     0.008920     0.006500
Rotational constants in MHz :   530.610344   267.428614   194.867366

                             ****ORCA TERMINATED NORMALLY****
TOTAL RUN TIME: 0 days 0 hours 0 minutes 35 seconds 110 msec
