                         Program Version 4.2.1 -  RELEASE  -
|  1> ! wB97X-D3 SP def2-SVP
|  2> %pal
|  3> nprocs 16
|  4> end
|  5>
|  6> * xyz 0 1
|  7> S 	 22.7302 	 7.34006 	 64.994
|  8> C 	 23.4295 	 7.81677 	 63.4451
|  9> C 	 24.3483 	 8.81852 	 63.6352
| 10> C 	 24.3318 	 9.34741 	 64.9939
| 11> C 	 23.5311 	 8.66558 	 65.8682
| 12> H 	 24.9713 	 10.1887 	 65.2778
| 13> C 	 25.38 	 9.27081 	 62.5437
| 14> H 	 25.0174 	 9.10246 	 61.5376
| 15> H 	 26.165 	 8.61303 	 62.7151
| 16> C 	 26.0114 	 10.6361 	 62.761
| 17> H 	 26.3455 	 10.7598 	 63.7564
| 18> H 	 26.9474 	 10.7564 	 62.1648
| 19> C 	 25.0957 	 11.886 	 62.6476
| 20> H 	 25.6618 	 12.7989 	 62.8087
| 21> H 	 24.7506 	 11.9771 	 61.6148
| 22> H 	 24.3825 	 11.7176 	 63.4045
| 23> S 	 21.5145 	 8.99072 	 67.7001
| 24> C 	 21.9162 	 9.23742 	 69.3913
| 25> C 	 23.2542 	 9.56143 	 69.4865
| 26> C 	 23.9941 	 9.56705 	 68.3131
| 27> C 	 23.2164 	 9.0564 	 67.2527
| 28> H 	 23.5584 	 9.70425 	 70.4789
| 29> C 	 25.5131 	 9.96181 	 68.3129
| 30> H 	 25.4841 	 11.0229 	 67.8573
| 31> H 	 25.9639 	 9.28715 	 67.5594
| 32> C 	 26.4183 	 10.148 	 69.5378
| 33> H 	 26.3172 	 9.2588 	 70.2022
| 34> H 	 25.9882 	 10.9414 	 70.1908
| 35> C 	 27.8846 	 10.4842 	 69.2827
| 36> H 	 28.4488 	 9.73346 	 68.6591
| 37> H 	 28.3382 	 10.6742 	 70.2231
| 38> H 	 28.0068 	 11.3756 	 68.6916
| 39> H 	 23.2193 	 7.56804 	 62.4509
| 40> H 	 21.2476 	 9.13116 	 70.2313
| 41> *
| 42>
| 43>                          ****END OF INPUT****

CARTESIAN COORDINATES (ANGSTROEM)
---------------------------------
  S     22.730200    7.340060   64.994000
  C     23.429500    7.816770   63.445100
  C     24.348300    8.818520   63.635200
  C     24.331800    9.347410   64.993900
  C     23.531100    8.665580   65.868200
  H     24.971300   10.188700   65.277800
  C     25.380000    9.270810   62.543700
  H     25.017400    9.102460   61.537600
  H     26.165000    8.613030   62.715100
  C     26.011400   10.636100   62.761000
  H     26.345500   10.759800   63.756400
  H     26.947400   10.756400   62.164800
  C     25.095700   11.886000   62.647600
  H     25.661800   12.798900   62.808700
  H     24.750600   11.977100   61.614800
  H     24.382500   11.717600   63.404500
  S     21.514500    8.990720   67.700100
  C     21.916200    9.237420   69.391300
  C     23.254200    9.561430   69.486500
  C     23.994100    9.567050   68.313100
  C     23.216400    9.056400   67.252700
  H     23.558400    9.704250   70.478900
  C     25.513100    9.961810   68.312900
  H     25.484100   11.022900   67.857300
  H     25.963900    9.287150   67.559400
  C     26.418300   10.148000   69.537800
  H     26.317200    9.258800   70.202200
  H     25.988200   10.941400   70.190800
  C     27.884600   10.484200   69.282700
  H     28.448800    9.733460   68.659100
  H     28.338200   10.674200   70.223100
  H     28.006800   11.375600   68.691600
  H     23.219300    7.568040   62.450900
  H     21.247600    9.131160   70.231300

 Total Charge           Charge          ....    0
 Multiplicity           Mult            ....    1
 Number of Electrons    NEL             ....  134
 Basis Dimension        Dim             ....  322

ORBITAL ENERGIES
----------------

  NO   OCC          E(Eh)            E(eV)
   0   2.0000     -88.967513     -2420.9291
   1   2.0000     -88.965666     -2420.8789
   2   2.0000     -10.334035      -281.2034
   3   2.0000     -10.333362      -281.1851
   4   2.0000     -10.314524      -280.6725
   5   2.0000     -10.311877      -280.6004
   6   2.0000     -10.309985      -280.5490
   7   2.0000     -10.307256      -280.4747
   8   2.0000     -10.304034      -280.3870
   9   2.0000     -10.298320      -280.2315
  10   2.0000     -10.295994      -280.1682
  11   2.0000     -10.292617      -280.0763
  12   2.0000     -10.285852      -279.8923
  13   2.0000     -10.284812      -279.8640
  14   2.0000     -10.284460      -279.8544
  15   2.0000     -10.272479      -279.5284
  16   2.0000      -8.081165      -219.8997
  17   2.0000      -8.080075      -219.8700
  18   2.0000      -6.040035      -164.3577
  19   2.0000      -6.038542      -164.3171
  20   2.0000      -6.035766      -164.2415
  21   2.0000      -6.034621      -164.2104
  22   2.0000      -6.031625      -164.1289
  23   2.0000      -6.030889      -164.1088
  24   2.0000      -1.004331       -27.3292
  25   2.0000      -0.982626       -26.7386
  26   2.0000      -0.911570       -24.8051
  27   2.0000      -0.905663       -24.6444
  28   2.0000      -0.870796       -23.6956
  29   2.0000      -0.854855       -23.2618
  30   2.0000      -0.838427       -22.8148
  31   2.0000      -0.818362       -22.2688
  32   2.0000      -0.787947       -21.4411
  33   2.0000      -0.779096       -21.2003
  34   2.0000      -0.712501       -19.3881
  35   2.0000      -0.700450       -19.0602
  36   2.0000      -0.691728       -18.8229
  37   2.0000      -0.653881       -17.7930
  38   2.0000      -0.636246       -17.3131
  39   2.0000      -0.624859       -17.0033
  40   2.0000      -0.596286       -16.2258
  41   2.0000      -0.571630       -15.5548
  42   2.0000      -0.563346       -15.3294
  43   2.0000      -0.555642       -15.1198
  44   2.0000      -0.543385       -14.7862
  45   2.0000      -0.535306       -14.5664
  46   2.0000      -0.517180       -14.0732
  47   2.0000      -0.511205       -13.9106
  48   2.0000      -0.508001       -13.8234
  49   2.0000      -0.501136       -13.6366
  50   2.0000      -0.491214       -13.3666
  51   2.0000      -0.481336       -13.0978
  52   2.0000      -0.475651       -12.9431
  53   2.0000      -0.471713       -12.8360
  54   2.0000      -0.456313       -12.4169
  55   2.0000      -0.450734       -12.2651
  56   2.0000      -0.446283       -12.1440
  57   2.0000      -0.436465       -11.8768
  58   2.0000      -0.429815       -11.6959
  59   2.0000      -0.423749       -11.5308
  60   2.0000      -0.417005       -11.3473
  61   2.0000      -0.412993       -11.2381
  62   2.0000      -0.411360       -11.1937
  63   2.0000      -0.349789        -9.5183
  64   2.0000      -0.333194        -9.0667
  65   2.0000      -0.325596        -8.8599
  66   2.0000      -0.288744        -7.8571
  67   0.0000       0.019132         0.5206
  68   0.0000       0.078820         2.1448
  69   0.0000       0.110972         3.0197
  70   0.0000       0.120803         3.2872
  71   0.0000       0.133587         3.6351

MULLIKEN ATOMIC CHARGES
-----------------------
   0 S :    0.111286
   1 C :   -0.091890
   2 C :   -0.137628
   3 C :    0.007427
   4 C :   -0.122621
   5 H :    0.013647
   6 C :    0.142427
   7 H :    0.023959
   8 H :    0.030836
   9 C :   -0.123223
  10 H :    0.010754
  11 H :    0.029212
  12 C :   -0.027086
  13 H :    0.029477
  14 H :    0.030025
  15 H :    0.031716
  16 S :    0.109819
  17 C :   -0.092785
  18 C :   -0.051477
  19 C :    0.028797
  20 C :   -0.180895
  21 H :   -0.002616
  22 C :   -0.002042
  23 H :    0.052608
  24 H :    0.041455
  25 C :   -0.075090
  26 H :    0.033035
  27 H :    0.031363
  28 C :   -0.023947
  29 H :    0.041165
  30 H :    0.034982
  31 H :    0.020337
  32 H :    0.022832
  33 H :    0.054143
Sum of atomic charges:   -0.0000000

LOEWDIN ATOMIC CHARGES
----------------------
   0 S :    0.387844
   1 C :   -0.191319
   2 C :   -0.055855
   3 C :   -0.071696
   4 C :   -0.186642
   5 H :    0.029721
   6 C :   -0.020390
   7 H :    0.028740
   8 H :    0.032942
   9 C :   -0.047281
  10 H :    0.015209
  11 H :    0.027134
  12 C :   -0.057425
  13 H :    0.026202
  14 H :    0.023642
  15 H :    0.019351
  16 S :    0.405815
  17 C :   -0.184403
  18 C :   -0.073166
  19 C :   -0.052160
  20 C :   -0.191143
  21 H :    0.023488
  22 C :   -0.042478
  23 H :    0.043114
  24 H :    0.032602
  25 C :   -0.051448
  26 H :    0.025362
  27 H :    0.028176
  28 C :   -0.060243
  29 H :    0.032998
  30 H :    0.027516
  31 H :    0.022816
  32 H :    0.023312
  33 H :    0.029666

  Mayer bond orders larger than 0.100000
B(  0-S ,  1-C ) :   1.1155 B(  0-S ,  4-C ) :   1.1297 B(  1-C ,  2-C ) :   1.6514
B(  1-C , 32-H ) :   0.9702 B(  2-C ,  3-C ) :   1.2302 B(  2-C ,  6-C ) :   0.9933
B(  3-C ,  4-C ) :   1.5773 B(  3-C ,  5-H ) :   0.9823 B(  4-C , 20-C ) :   1.0607
B(  6-C ,  7-H ) :   0.9456 B(  6-C ,  8-H ) :   0.9287 B(  6-C ,  9-C ) :   1.0838
B(  9-C , 10-H ) :   0.9490 B(  9-C , 11-H ) :   0.9524 B(  9-C , 12-C ) :   1.0738
B( 12-C , 13-H ) :   0.9748 B( 12-C , 14-H ) :   0.9777 B( 12-C , 15-H ) :   0.9766
B( 16-S , 17-C ) :   1.1469 B( 16-S , 20-C ) :   1.1644 B( 17-C , 18-C ) :   1.5952
B( 17-C , 20-C ) :   0.1109 B( 17-C , 33-H ) :   0.9682 B( 18-C , 19-C ) :   1.2572
B( 18-C , 21-H ) :   0.9997 B( 19-C , 20-C ) :   1.5465 B( 19-C , 22-C ) :   1.0182
B( 22-C , 23-H ) :   0.9292 B( 22-C , 24-H ) :   0.9393 B( 22-C , 25-C ) :   1.0701
B( 25-C , 26-H ) :   0.9509 B( 25-C , 27-H ) :   0.9440 B( 25-C , 28-C ) :   1.0857
B( 28-C , 29-H ) :   0.9743 B( 28-C , 30-H ) :   0.9704 B( 28-C , 31-H ) :   0.9726

Dispersion correction           -0.013678999
FINAL SINGLE POINT ENERGY     -1339.854257142136

DIPOLE MOMENT
-------------
                                X             Y             Z
Electronic contribution:    -25.82738     -16.08909       2.81500
Nuclear contribution   :     26.56084      16.49928      -2.73000
                        -----------------------------------------
Total Dipole Moment    :      0.73346       0.41019       0.08500
                        -----------------------------------------
Magnitude (a.u.)       :      0.84466
Magnitude (Debye)      :      2.14695

Rotational constants in cm-1:     0.014982     0.009483     0.006597
Rotational constants in MHz :   449.151636   284.302120   197.760240

                             ****ORCA TERMINATED NORMALLY****
TOTAL RUN TIME: 0 days 0 hours 0 minutes 30 seconds 12 msec
