                         Program Version 4.2.1 -  RELEASE  -
|  1> ! wB97X-D3 SP def2-SVP
|  2> %pal
|  3> nprocs 16
|  4> end
|  5>
|  6> * xyz 0 1
|  7> S 	 1.17576 	 5.52101 	 81.6796
|  8> C 	 2.66219 	 6.1427 	 80.9223
|  9> C 	 2.49797 	 6.05523 	 79.5393
| 10> C 	 1.19923 	 5.5777 	 79.1249
| 11> C 	 0.427358 	 5.11995 	 80.1902
| 12> H 	 0.884036 	 5.41224 	 78.107
| 13> C 	 3.48018 	 6.46762 	 78.4167
| 14> H 	 3.38809 	 5.65477 	 77.6832
| 15> H 	 4.44395 	 6.32535 	 78.7491
| 16> C 	 3.39711 	 7.95035 	 77.9686
| 17> H 	 2.34284 	 8.27404 	 77.8888
| 18> H 	 3.83734 	 8.56011 	 78.7853
| 19> C 	 4.03906 	 8.25724 	 76.5975
| 20> H 	 3.87212 	 9.28096 	 76.2894
| 21> H 	 5.07064 	 8.20593 	 76.695
| 22> H 	 3.72441 	 7.59788 	 75.8311
| 23> S 	 -1.30239 	 3.01014 	 80.1469
| 24> C 	 -3.04766 	 3.41419 	 80.177
| 25> C 	 -3.2555 	 4.7705 	 80.1392
| 26> C 	 -2.0368 	 5.50298 	 80.2428
| 27> C 	 -0.879133 	 4.70975 	 80.0883
| 28> H 	 -4.27727 	 5.18435 	 79.9725
| 29> C 	 -2.063 	 6.99277 	 80.3048
| 30> H 	 -1.26087 	 7.26893 	 81.0321
| 31> H 	 -2.97977 	 7.30651 	 80.9235
| 32> C 	 -1.96742 	 7.69105 	 79.018
| 33> H 	 -2.82646 	 7.37682 	 78.3993
| 34> H 	 -1.06971 	 7.38938 	 78.4648
| 35> C 	 -1.85164 	 9.18116 	 79.2507
| 36> H 	 -1.64653 	 9.8009 	 78.413
| 37> H 	 -1.1738 	 9.32762 	 80.0522
| 38> H 	 -2.77982 	 9.53611 	 79.6348
| 39> H 	 3.53006 	 6.35673 	 81.4942
| 40> H 	 -3.80819 	 2.72766 	 79.9761
| 41> *
| 42>
| 43>                          ****END OF INPUT****

CARTESIAN COORDINATES (ANGSTROEM)
---------------------------------
  S      1.175760    5.521010   81.679600
  C      2.662190    6.142700   80.922300
  C      2.497970    6.055230   79.539300
  C      1.199230    5.577700   79.124900
  C      0.427358    5.119950   80.190200
  H      0.884036    5.412240   78.107000
  C      3.480180    6.467620   78.416700
  H      3.388090    5.654770   77.683200
  H      4.443950    6.325350   78.749100
  C      3.397110    7.950350   77.968600
  H      2.342840    8.274040   77.888800
  H      3.837340    8.560110   78.785300
  C      4.039060    8.257240   76.597500
  H      3.872120    9.280960   76.289400
  H      5.070640    8.205930   76.695000
  H      3.724410    7.597880   75.831100
  S     -1.302390    3.010140   80.146900
  C     -3.047660    3.414190   80.177000
  C     -3.255500    4.770500   80.139200
  C     -2.036800    5.502980   80.242800
  C     -0.879133    4.709750   80.088300
  H     -4.277270    5.184350   79.972500
  C     -2.063000    6.992770   80.304800
  H     -1.260870    7.268930   81.032100
  H     -2.979770    7.306510   80.923500
  C     -1.967420    7.691050   79.018000
  H     -2.826460    7.376820   78.399300
  H     -1.069710    7.389380   78.464800
  C     -1.851640    9.181160   79.250700
  H     -1.646530    9.800900   78.413000
  H     -1.173800    9.327620   80.052200
  H     -2.779820    9.536110   79.634800
  H      3.530060    6.356730   81.494200
  H     -3.808190    2.727660   79.976100

 Total Charge           Charge          ....    0
 Multiplicity           Mult            ....    1
 Number of Electrons    NEL             ....  134
 Basis Dimension        Dim             ....  322

ORBITAL ENERGIES
----------------

  NO   OCC          E(Eh)            E(eV)
   0   2.0000     -88.965098     -2420.8634
   1   2.0000     -88.964758     -2420.8541
   2   2.0000     -10.320020      -280.8220
   3   2.0000     -10.319116      -280.7974
   4   2.0000     -10.318774      -280.7881
   5   2.0000     -10.314524      -280.6725
   6   2.0000     -10.307373      -280.4779
   7   2.0000     -10.300923      -280.3024
   8   2.0000     -10.295762      -280.1619
   9   2.0000     -10.294119      -280.1172
  10   2.0000     -10.293125      -280.0902
  11   2.0000     -10.288984      -279.9775
  12   2.0000     -10.288105      -279.9536
  13   2.0000     -10.279779      -279.7270
  14   2.0000     -10.271011      -279.4884
  15   2.0000     -10.264145      -279.3016
  16   2.0000      -8.079461      -219.8533
  17   2.0000      -8.079133      -219.8444
  18   2.0000      -6.037955      -164.3011
  19   2.0000      -6.037728      -164.2949
  20   2.0000      -6.033772      -164.1873
  21   2.0000      -6.033738      -164.1864
  22   2.0000      -6.030410      -164.0958
  23   2.0000      -6.029843      -164.0804
  24   2.0000      -1.009223       -27.4624
  25   2.0000      -0.979066       -26.6418
  26   2.0000      -0.917569       -24.9683
  27   2.0000      -0.908573       -24.7235
  28   2.0000      -0.876717       -23.8567
  29   2.0000      -0.850221       -23.1357
  30   2.0000      -0.847020       -23.0486
  31   2.0000      -0.814282       -22.1578
  32   2.0000      -0.786003       -21.3882
  33   2.0000      -0.768412       -20.9096
  34   2.0000      -0.712685       -19.3931
  35   2.0000      -0.704703       -19.1760
  36   2.0000      -0.695119       -18.9151
  37   2.0000      -0.660292       -17.9675
  38   2.0000      -0.648873       -17.6567
  39   2.0000      -0.617950       -16.8153
  40   2.0000      -0.596813       -16.2401
  41   2.0000      -0.566198       -15.4070
  42   2.0000      -0.562631       -15.3100
  43   2.0000      -0.559683       -15.2298
  44   2.0000      -0.531783       -14.4705
  45   2.0000      -0.525863       -14.3095
  46   2.0000      -0.521334       -14.1862
  47   2.0000      -0.516334       -14.0502
  48   2.0000      -0.507852       -13.8193
  49   2.0000      -0.505409       -13.7529
  50   2.0000      -0.500703       -13.6248
  51   2.0000      -0.475814       -12.9476
  52   2.0000      -0.466913       -12.7054
  53   2.0000      -0.464993       -12.6531
  54   2.0000      -0.454957       -12.3800
  55   2.0000      -0.450657       -12.2630
  56   2.0000      -0.443061       -12.0563
  57   2.0000      -0.440361       -11.9828
  58   2.0000      -0.436945       -11.8899
  59   2.0000      -0.419933       -11.4270
  60   2.0000      -0.417419       -11.3586
  61   2.0000      -0.413547       -11.2532
  62   2.0000      -0.407410       -11.0862
  63   2.0000      -0.335807        -9.1378
  64   2.0000      -0.329196        -8.9579
  65   2.0000      -0.318156        -8.6575
  66   2.0000      -0.309217        -8.4142
  67   0.0000       0.043410         1.1812
  68   0.0000       0.045038         1.2255
  69   0.0000       0.116482         3.1696
  70   0.0000       0.119421         3.2496
  71   0.0000       0.122788         3.3412

MULLIKEN ATOMIC CHARGES
-----------------------
   0 S :    0.112300
   1 C :   -0.125009
   2 C :   -0.091011
   3 C :    0.028499
   4 C :   -0.151422
   5 H :    0.018663
   6 C :    0.097781
   7 H :    0.025811
   8 H :   -0.008014
   9 C :   -0.087752
  10 H :    0.033281
  11 H :    0.035174
  12 C :   -0.005073
  13 H :    0.028795
  14 H :    0.012162
  15 H :    0.029147
  16 S :    0.103141
  17 C :   -0.070816
  18 C :   -0.040114
  19 C :   -0.043139
  20 C :   -0.173627
  21 H :    0.039992
  22 C :    0.019121
  23 H :    0.021966
  24 H :    0.027587
  25 C :   -0.044665
  26 H :    0.022804
  27 H :    0.026452
  28 C :    0.029315
  29 H :    0.026559
  30 H :    0.014661
  31 H :    0.002899
  32 H :    0.045879
  33 H :    0.038653
Sum of atomic charges:   -0.0000000

LOEWDIN ATOMIC CHARGES
----------------------
   0 S :    0.417965
   1 C :   -0.188091
   2 C :   -0.054894
   3 C :   -0.055128
   4 C :   -0.214557
   5 H :    0.030969
   6 C :   -0.030806
   7 H :    0.032712
   8 H :    0.016401
   9 C :   -0.036387
  10 H :    0.023366
  11 H :    0.029556
  12 C :   -0.057061
  13 H :    0.028563
  14 H :    0.015687
  15 H :    0.022236
  16 S :    0.393125
  17 C :   -0.164970
  18 C :   -0.070592
  19 C :   -0.046588
  20 C :   -0.213657
  21 H :    0.041858
  22 C :   -0.046801
  23 H :    0.029163
  24 H :    0.036393
  25 C :   -0.041373
  26 H :    0.025510
  27 H :    0.026139
  28 C :   -0.054024
  29 H :    0.021370
  30 H :    0.023376
  31 H :    0.019965
  32 H :    0.023654
  33 H :    0.016920

  Mayer bond orders larger than 0.100000
B(  0-S ,  1-C ) :   1.1342 B(  0-S ,  4-C ) :   1.1633 B(  1-C ,  2-C ) :   1.5882
B(  1-C ,  4-C ) :   0.1002 B(  1-C , 32-H ) :   0.9822 B(  2-C ,  3-C ) :   1.2451
B(  2-C ,  6-C ) :   1.0213 B(  3-C ,  4-C ) :   1.5559 B(  3-C ,  5-H ) :   0.9908
B(  4-C , 20-C ) :   1.0678 B(  6-C ,  7-H ) :   0.9474 B(  6-C ,  8-H ) :   0.9335
B(  6-C ,  9-C ) :   1.0434 B(  9-C , 10-H ) :   0.9662 B(  9-C , 11-H ) :   0.9548
B(  9-C , 12-C ) :   1.0789 B( 12-C , 13-H ) :   0.9727 B( 12-C , 14-H ) :   0.9744
B( 12-C , 15-H ) :   0.9771 B( 16-S , 17-C ) :   1.1497 B( 16-S , 20-C ) :   1.1299
B( 17-C , 18-C ) :   1.6247 B( 17-C , 20-C ) :   0.1056 B( 17-C , 33-H ) :   0.9676
B( 18-C , 19-C ) :   1.2424 B( 18-C , 21-H ) :   0.9793 B( 19-C , 20-C ) :   1.5785
B( 19-C , 22-C ) :   1.0539 B( 22-C , 23-H ) :   0.9088 B( 22-C , 24-H ) :   0.9307
B( 22-C , 25-C ) :   1.0810 B( 25-C , 26-H ) :   0.9487 B( 25-C , 27-H ) :   0.9451
B( 25-C , 28-C ) :   1.0814 B( 28-C , 29-H ) :   0.9729 B( 28-C , 30-H ) :   0.9694
B( 28-C , 31-H ) :   0.9679

Dispersion correction           -0.014873957
FINAL SINGLE POINT ENERGY     -1339.865917852826

DIPOLE MOMENT
-------------
                                X             Y             Z
Electronic contribution:     -6.17000     -24.51943      15.88654
Nuclear contribution   :      6.24607      25.01052     -16.32361
                        -----------------------------------------
Total Dipole Moment    :      0.07607       0.49109      -0.43708
                        -----------------------------------------
Magnitude (a.u.)       :      0.66181
Magnitude (Debye)      :      1.68219

Rotational constants in cm-1:     0.019012     0.008746     0.007249
Rotational constants in MHz :   569.978010   262.197821   217.332978

                             ****ORCA TERMINATED NORMALLY****
TOTAL RUN TIME: 0 days 0 hours 0 minutes 36 seconds 243 msec
