                         Program Version 4.2.1 -  RELEASE  -
|  1> ! wB97X-D3 SP def2-SVP
|  2> %pal
|  3> nprocs 16
|  4> end
|  5>
|  6> * xyz 0 1
|  7> S 	 -21.7917 	 45.1182 	 56.6501
|  8> C 	 -21.0819 	 46.4517 	 57.5017
|  9> C 	 -21.088 	 46.2312 	 58.8766
| 10> C 	 -21.5097 	 44.9302 	 59.2696
| 11> C 	 -21.8414 	 44.1591 	 58.111
| 12> H 	 -21.661 	 44.5785 	 60.2211
| 13> C 	 -20.9054 	 47.3238 	 59.8789
| 14> H 	 -20.2888 	 48.1223 	 59.4339
| 15> H 	 -20.3448 	 46.8991 	 60.7335
| 16> C 	 -22.2433 	 47.9341 	 60.3611
| 17> H 	 -21.9681 	 48.6185 	 61.1812
| 18> H 	 -22.7475 	 48.4069 	 59.4897
| 19> C 	 -23.1751 	 46.8906 	 61.0481
| 20> H 	 -22.9073 	 46.3222 	 61.9575
| 21> H 	 -24.0122 	 47.4774 	 61.3434
| 22> H 	 -23.591 	 46.1566 	 60.2658
| 23> S 	 -22.03 	 41.6233 	 59.2137
| 24> C 	 -23.4605 	 40.7164 	 59.0309
| 25> C 	 -24.2336 	 41.2131 	 58.0284
| 26> C 	 -23.7588 	 42.4692 	 57.5133
| 27> C 	 -22.593 	 42.8997 	 58.177
| 28> H 	 -25.1328 	 40.7083 	 57.5556
| 29> C 	 -24.5203 	 43.2713 	 56.4622
| 30> H 	 -25.2097 	 42.6054 	 55.9953
| 31> H 	 -23.678 	 43.5491 	 55.8522
| 32> C 	 -25.2903 	 44.4234 	 57.0909
| 33> H 	 -25.7966 	 44.9486 	 56.2659
| 34> H 	 -24.5611 	 45.064 	 57.6235
| 35> C 	 -26.227 	 44.0417 	 58.2538
| 36> H 	 -26.7119 	 44.9062 	 58.5989
| 37> H 	 -25.7113 	 43.6032 	 59.0907
| 38> H 	 -26.9818 	 43.3615 	 57.98
| 39> H 	 -20.7404 	 47.3966 	 57.0491
| 40> H 	 -23.7289 	 39.7495 	 59.4854
| 41> *
| 42>
| 43>                          ****END OF INPUT****

CARTESIAN COORDINATES (ANGSTROEM)
---------------------------------
  S    -21.791700   45.118200   56.650100
  C    -21.081900   46.451700   57.501700
  C    -21.088000   46.231200   58.876600
  C    -21.509700   44.930200   59.269600
  C    -21.841400   44.159100   58.111000
  H    -21.661000   44.578500   60.221100
  C    -20.905400   47.323800   59.878900
  H    -20.288800   48.122300   59.433900
  H    -20.344800   46.899100   60.733500
  C    -22.243300   47.934100   60.361100
  H    -21.968100   48.618500   61.181200
  H    -22.747500   48.406900   59.489700
  C    -23.175100   46.890600   61.048100
  H    -22.907300   46.322200   61.957500
  H    -24.012200   47.477400   61.343400
  H    -23.591000   46.156600   60.265800
  S    -22.030000   41.623300   59.213700
  C    -23.460500   40.716400   59.030900
  C    -24.233600   41.213100   58.028400
  C    -23.758800   42.469200   57.513300
  C    -22.593000   42.899700   58.177000
  H    -25.132800   40.708300   57.555600
  C    -24.520300   43.271300   56.462200
  H    -25.209700   42.605400   55.995300
  H    -23.678000   43.549100   55.852200
  C    -25.290300   44.423400   57.090900
  H    -25.796600   44.948600   56.265900
  H    -24.561100   45.064000   57.623500
  C    -26.227000   44.041700   58.253800
  H    -26.711900   44.906200   58.598900
  H    -25.711300   43.603200   59.090700
  H    -26.981800   43.361500   57.980000
  H    -20.740400   47.396600   57.049100
  H    -23.728900   39.749500   59.485400

 Total Charge           Charge          ....    0
 Multiplicity           Mult            ....    1
 Number of Electrons    NEL             ....  134
 Basis Dimension        Dim             ....  322

ORBITAL ENERGIES
----------------

  NO   OCC          E(Eh)            E(eV)
   0   2.0000     -88.972867     -2421.0748
   1   2.0000     -88.965093     -2420.8633
   2   2.0000     -10.335439      -281.2416
   3   2.0000     -10.324604      -280.9468
   4   2.0000     -10.316166      -280.7171
   5   2.0000     -10.311346      -280.5860
   6   2.0000     -10.299033      -280.2509
   7   2.0000     -10.297941      -280.2212
   8   2.0000     -10.296794      -280.1900
   9   2.0000     -10.294943      -280.1396
  10   2.0000     -10.292818      -280.0818
  11   2.0000     -10.291139      -280.0361
  12   2.0000     -10.283809      -279.8367
  13   2.0000     -10.283653      -279.8324
  14   2.0000     -10.282130      -279.7910
  15   2.0000     -10.262562      -279.2585
  16   2.0000      -8.086880      -220.0552
  17   2.0000      -8.080483      -219.8811
  18   2.0000      -6.045353      -164.5024
  19   2.0000      -6.041465      -164.3966
  20   2.0000      -6.038962      -164.3285
  21   2.0000      -6.037753      -164.2956
  22   2.0000      -6.034918      -164.2185
  23   2.0000      -6.031223      -164.1179
  24   2.0000      -1.008396       -27.4399
  25   2.0000      -0.987379       -26.8679
  26   2.0000      -0.913676       -24.8624
  27   2.0000      -0.908713       -24.7273
  28   2.0000      -0.866866       -23.5886
  29   2.0000      -0.849004       -23.1026
  30   2.0000      -0.841773       -22.9058
  31   2.0000      -0.813738       -22.1429
  32   2.0000      -0.786013       -21.3885
  33   2.0000      -0.771991       -21.0070
  34   2.0000      -0.705844       -19.2070
  35   2.0000      -0.696921       -18.9642
  36   2.0000      -0.686201       -18.6725
  37   2.0000      -0.660587       -17.9755
  38   2.0000      -0.643900       -17.5214
  39   2.0000      -0.608545       -16.5594
  40   2.0000      -0.588804       -16.0222
  41   2.0000      -0.574122       -15.6227
  42   2.0000      -0.559692       -15.2300
  43   2.0000      -0.550209       -14.9719
  44   2.0000      -0.543601       -14.7921
  45   2.0000      -0.537511       -14.6264
  46   2.0000      -0.520052       -14.1513
  47   2.0000      -0.511782       -13.9263
  48   2.0000      -0.501171       -13.6375
  49   2.0000      -0.489220       -13.3124
  50   2.0000      -0.486994       -13.2518
  51   2.0000      -0.482139       -13.1197
  52   2.0000      -0.472713       -12.8632
  53   2.0000      -0.470052       -12.7908
  54   2.0000      -0.458519       -12.4769
  55   2.0000      -0.451672       -12.2906
  56   2.0000      -0.442367       -12.0374
  57   2.0000      -0.438152       -11.9227
  58   2.0000      -0.433388       -11.7931
  59   2.0000      -0.423315       -11.5190
  60   2.0000      -0.415599       -11.3090
  61   2.0000      -0.411514       -11.1979
  62   2.0000      -0.408737       -11.1223
  63   2.0000      -0.351304        -9.5595
  64   2.0000      -0.330826        -9.0022
  65   2.0000      -0.327454        -8.9105
  66   2.0000      -0.282956        -7.6996
  67   0.0000       0.022837         0.6214
  68   0.0000       0.080320         2.1856
  69   0.0000       0.107910         2.9364
  70   0.0000       0.117844         3.2067
  71   0.0000       0.127160         3.4602

MULLIKEN ATOMIC CHARGES
-----------------------
   0 S :    0.099970
   1 C :   -0.115593
   2 C :   -0.098380
   3 C :    0.054692
   4 C :   -0.131953
   5 H :   -0.011733
   6 C :    0.052144
   7 H :    0.022741
   8 H :    0.028902
   9 C :   -0.057417
  10 H :    0.042372
  11 H :    0.042392
  12 C :   -0.108668
  13 H :    0.046096
  14 H :    0.024812
  15 H :    0.060973
  16 S :    0.121672
  17 C :   -0.090379
  18 C :   -0.056263
  19 C :   -0.124480
  20 C :   -0.170141
  21 H :    0.036260
  22 C :    0.116431
  23 H :    0.006968
  24 H :    0.038653
  25 C :   -0.077671
  26 H :    0.037969
  27 H :    0.037727
  28 C :   -0.013901
  29 H :    0.018843
  30 H :    0.040194
  31 H :    0.008056
  32 H :    0.056184
  33 H :    0.062530
Sum of atomic charges:   -0.0000000

LOEWDIN ATOMIC CHARGES
----------------------
   0 S :    0.436936
   1 C :   -0.212450
   2 C :   -0.064642
   3 C :   -0.041356
   4 C :   -0.192704
   5 H :    0.015683
   6 C :   -0.039919
   7 H :    0.029117
   8 H :    0.030863
   9 C :   -0.033077
  10 H :    0.029725
  11 H :    0.032563
  12 C :   -0.082852
  13 H :    0.028766
  14 H :    0.022428
  15 H :    0.035965
  16 S :    0.433037
  17 C :   -0.213175
  18 C :   -0.084331
  19 C :   -0.061816
  20 C :   -0.211385
  21 H :    0.040258
  22 C :   -0.033114
  23 H :    0.024285
  24 H :    0.019930
  25 C :   -0.037701
  26 H :    0.025829
  27 H :    0.024313
  28 C :   -0.056552
  29 H :    0.021428
  30 H :    0.027867
  31 H :    0.013456
  32 H :    0.034197
  33 H :    0.038428

  Mayer bond orders larger than 0.100000
B(  0-S ,  1-C ) :   1.1384 B(  0-S ,  4-C ) :   1.1776 B(  1-C ,  2-C ) :   1.5815
B(  1-C , 32-H ) :   0.9655 B(  2-C ,  3-C ) :   1.2737 B(  2-C ,  6-C ) :   1.0396
B(  3-C ,  4-C ) :   1.4963 B(  3-C ,  5-H ) :   1.0034 B(  4-C , 20-C ) :   1.0465
B(  6-C ,  7-H ) :   0.9394 B(  6-C ,  8-H ) :   0.9383 B(  6-C ,  9-C ) :   1.0690
B(  9-C , 10-H ) :   0.9558 B(  9-C , 11-H ) :   0.9509 B(  9-C , 12-C ) :   1.0797
B( 12-C , 13-H ) :   0.9740 B( 12-C , 14-H ) :   0.9694 B( 12-C , 15-H ) :   0.9634
B( 16-S , 17-C ) :   1.1600 B( 16-S , 20-C ) :   1.1553 B( 17-C , 18-C ) :   1.5910
B( 17-C , 33-H ) :   0.9616 B( 18-C , 19-C ) :   1.2837 B( 18-C , 21-H ) :   0.9763
B( 19-C , 20-C ) :   1.5498 B( 19-C , 22-C ) :   1.0156 B( 22-C , 23-H ) :   0.9254
B( 22-C , 24-H ) :   0.9329 B( 22-C , 25-C ) :   1.0746 B( 25-C , 26-H ) :   0.9575
B( 25-C , 27-H ) :   0.9547 B( 25-C , 28-C ) :   1.0794 B( 28-C , 29-H ) :   0.9711
B( 28-C , 30-H ) :   0.9679 B( 28-C , 31-H ) :   0.9746

Dispersion correction           -0.016755344
FINAL SINGLE POINT ENERGY     -1339.873484582868

DIPOLE MOMENT
-------------
                                X             Y             Z
Electronic contribution:     14.62293     -14.55600      -7.99347
Nuclear contribution   :    -15.06206      14.95470       8.19363
                        -----------------------------------------
Total Dipole Moment    :     -0.43913       0.39871       0.20016
                        -----------------------------------------
Magnitude (a.u.)       :      0.62599
Magnitude (Debye)      :      1.59114

Rotational constants in cm-1:     0.019734     0.009742     0.009236
Rotational constants in MHz :   591.613682   292.062683   276.902363

                             ****ORCA TERMINATED NORMALLY****
TOTAL RUN TIME: 0 days 0 hours 0 minutes 38 seconds 588 msec
