                         Program Version 4.2.1 -  RELEASE  -
|  1> ! wB97X-D3 SP def2-SVP
|  2> %pal
|  3> nprocs 16
|  4> end
|  5>
|  6> * xyz 0 1
|  7> S 	 -51.0961 	 32.4563 	 96.8573
|  8> C 	 -51.7388 	 34.1077 	 96.6431
|  9> C 	 -50.9654 	 35.0839 	 97.2064
| 10> C 	 -49.8692 	 34.5942 	 97.9199
| 11> C 	 -49.8315 	 33.1981 	 97.8169
| 12> H 	 -49.011 	 35.1428 	 98.3878
| 13> C 	 -51.219 	 36.5376 	 97.0653
| 14> H 	 -51.5826 	 36.7735 	 96.0189
| 15> H 	 -50.3139 	 37.075 	 97.1004
| 16> C 	 -52.1775 	 37.1013 	 98.1837
| 17> H 	 -52.4117 	 38.1078 	 97.8534
| 18> H 	 -53.0759 	 36.545 	 98.1851
| 19> C 	 -51.5477 	 37.1335 	 99.6126
| 20> H 	 -51.1509 	 36.1016 	 99.9295
| 21> H 	 -50.6601 	 37.7693 	 99.5194
| 22> H 	 -52.2394 	 37.558 	 100.346
| 23> S 	 -47.9969 	 31.0918 	 97.6713
| 24> C 	 -47.2884 	 30.5036 	 99.1602
| 25> C 	 -47.5938 	 31.3248 	 100.226
| 26> C 	 -48.4924 	 32.3793 	 99.884
| 27> C 	 -48.844 	 32.4119 	 98.5484
| 28> H 	 -47.1538 	 31.1554 	 101.214
| 29> C 	 -49.1651 	 33.2979 	 100.838
| 30> H 	 -49.6738 	 32.6852 	 101.531
| 31> H 	 -49.9291 	 33.8382 	 100.304
| 32> C 	 -48.2907 	 34.1623 	 101.774
| 33> H 	 -47.4909 	 33.6748 	 102.3
| 34> H 	 -48.8477 	 34.7016 	 102.514
| 35> C 	 -47.6555 	 35.2332 	 100.945
| 36> H 	 -46.996 	 35.8047 	 101.628
| 37> H 	 -48.4196 	 35.8295 	 100.429
| 38> H 	 -46.9717 	 34.7431 	 100.199
| 39> H 	 -52.5553 	 34.4184 	 96.0153
| 40> H 	 -46.7613 	 29.5567 	 99.1909
| 41> *
| 42>
| 43>                          ****END OF INPUT****

CARTESIAN COORDINATES (ANGSTROEM)
---------------------------------
  S    -51.096100   32.456300   96.857300
  C    -51.738800   34.107700   96.643100
  C    -50.965400   35.083900   97.206400
  C    -49.869200   34.594200   97.919900
  C    -49.831500   33.198100   97.816900
  H    -49.011000   35.142800   98.387800
  C    -51.219000   36.537600   97.065300
  H    -51.582600   36.773500   96.018900
  H    -50.313900   37.075000   97.100400
  C    -52.177500   37.101300   98.183700
  H    -52.411700   38.107800   97.853400
  H    -53.075900   36.545000   98.185100
  C    -51.547700   37.133500   99.612600
  H    -51.150900   36.101600   99.929500
  H    -50.660100   37.769300   99.519400
  H    -52.239400   37.558000  100.346000
  S    -47.996900   31.091800   97.671300
  C    -47.288400   30.503600   99.160200
  C    -47.593800   31.324800  100.226000
  C    -48.492400   32.379300   99.884000
  C    -48.844000   32.411900   98.548400
  H    -47.153800   31.155400  101.214000
  C    -49.165100   33.297900  100.838000
  H    -49.673800   32.685200  101.531000
  H    -49.929100   33.838200  100.304000
  C    -48.290700   34.162300  101.774000
  H    -47.490900   33.674800  102.300000
  H    -48.847700   34.701600  102.514000
  C    -47.655500   35.233200  100.945000
  H    -46.996000   35.804700  101.628000
  H    -48.419600   35.829500  100.429000
  H    -46.971700   34.743100  100.199000
  H    -52.555300   34.418400   96.015300
  H    -46.761300   29.556700   99.190900

 Total Charge           Charge          ....    0
 Multiplicity           Mult            ....    1
 Number of Electrons    NEL             ....  134
 Basis Dimension        Dim             ....  322

ORBITAL ENERGIES
----------------

  NO   OCC          E(Eh)            E(eV)
   0   2.0000     -88.975385     -2421.1433
   1   2.0000     -88.960150     -2420.7287
   2   2.0000     -10.330351      -281.1031
   3   2.0000     -10.323615      -280.9198
   4   2.0000     -10.319794      -280.8159
   5   2.0000     -10.310934      -280.5748
   6   2.0000     -10.301075      -280.3065
   7   2.0000     -10.296600      -280.1847
   8   2.0000     -10.296266      -280.1756
   9   2.0000     -10.294311      -280.1224
  10   2.0000     -10.291871      -280.0560
  11   2.0000     -10.289232      -279.9842
  12   2.0000     -10.288228      -279.9569
  13   2.0000     -10.280403      -279.7440
  14   2.0000     -10.279807      -279.7278
  15   2.0000     -10.276181      -279.6291
  16   2.0000      -8.089013      -220.1132
  17   2.0000      -8.074630      -219.7219
  18   2.0000      -6.047452      -164.5595
  19   2.0000      -6.043898      -164.4628
  20   2.0000      -6.039683      -164.3481
  21   2.0000      -6.033107      -164.1692
  22   2.0000      -6.029192      -164.0627
  23   2.0000      -6.025442      -163.9606
  24   2.0000      -1.005549       -27.3624
  25   2.0000      -0.982754       -26.7421
  26   2.0000      -0.915631       -24.9156
  27   2.0000      -0.911041       -24.7907
  28   2.0000      -0.866331       -23.5741
  29   2.0000      -0.854468       -23.2513
  30   2.0000      -0.846672       -23.0391
  31   2.0000      -0.812439       -22.1076
  32   2.0000      -0.782445       -21.2914
  33   2.0000      -0.769903       -20.9501
  34   2.0000      -0.707858       -19.2618
  35   2.0000      -0.702424       -19.1139
  36   2.0000      -0.696327       -18.9480
  37   2.0000      -0.656010       -17.8509
  38   2.0000      -0.637051       -17.3350
  39   2.0000      -0.615500       -16.7486
  40   2.0000      -0.599146       -16.3036
  41   2.0000      -0.573048       -15.5934
  42   2.0000      -0.555003       -15.1024
  43   2.0000      -0.550859       -14.9896
  44   2.0000      -0.544977       -14.8296
  45   2.0000      -0.539336       -14.6761
  46   2.0000      -0.523709       -14.2509
  47   2.0000      -0.511058       -13.9066
  48   2.0000      -0.496077       -13.4989
  49   2.0000      -0.492658       -13.4059
  50   2.0000      -0.486964       -13.2510
  51   2.0000      -0.477579       -12.9956
  52   2.0000      -0.471202       -12.8221
  53   2.0000      -0.466314       -12.6890
  54   2.0000      -0.462214       -12.5775
  55   2.0000      -0.451878       -12.2962
  56   2.0000      -0.441482       -12.0133
  57   2.0000      -0.439906       -11.9704
  58   2.0000      -0.433663       -11.8006
  59   2.0000      -0.427067       -11.6211
  60   2.0000      -0.422541       -11.4979
  61   2.0000      -0.417872       -11.3709
  62   2.0000      -0.412140       -11.2149
  63   2.0000      -0.340925        -9.2770
  64   2.0000      -0.338677        -9.2159
  65   2.0000      -0.327956        -8.9241
  66   2.0000      -0.288776        -7.8580
  67   0.0000       0.024788         0.6745
  68   0.0000       0.069028         1.8783
  69   0.0000       0.103710         2.8221
  70   0.0000       0.122576         3.3355
  71   0.0000       0.128694         3.5019

MULLIKEN ATOMIC CHARGES
-----------------------
   0 S :    0.137401
   1 C :   -0.109132
   2 C :   -0.059332
   3 C :   -0.029432
   4 C :   -0.140908
   5 H :    0.040675
   6 C :    0.048681
   7 H :    0.032803
   8 H :    0.007382
   9 C :   -0.034461
  10 H :    0.027522
  11 H :    0.020166
  12 C :   -0.091033
  13 H :    0.056335
  14 H :    0.029817
  15 H :    0.050749
  16 S :    0.079872
  17 C :   -0.097608
  18 C :   -0.028012
  19 C :   -0.027057
  20 C :   -0.184671
  21 H :    0.024609
  22 C :    0.091892
  23 H :    0.015355
  24 H :    0.023273
  25 C :   -0.045209
  26 H :    0.021244
  27 H :    0.020454
  28 C :   -0.084240
  29 H :    0.031187
  30 H :    0.030821
  31 H :    0.045088
  32 H :    0.030184
  33 H :    0.065585
Sum of atomic charges:    0.0000000

LOEWDIN ATOMIC CHARGES
----------------------
   0 S :    0.405206
   1 C :   -0.190485
   2 C :   -0.066265
   3 C :   -0.067055
   4 C :   -0.189002
   5 H :    0.045327
   6 C :   -0.030869
   7 H :    0.037233
   8 H :    0.021405
   9 C :   -0.028089
  10 H :    0.022515
  11 H :    0.015614
  12 C :   -0.071671
  13 H :    0.032511
  14 H :    0.023306
  15 H :    0.029901
  16 S :    0.370609
  17 C :   -0.174313
  18 C :   -0.074861
  19 C :   -0.053899
  20 C :   -0.187841
  21 H :    0.034990
  22 C :   -0.027702
  23 H :    0.028870
  24 H :    0.029783
  25 C :   -0.036514
  26 H :    0.021249
  27 H :    0.022180
  28 C :   -0.069345
  29 H :    0.025191
  30 H :    0.018919
  31 H :    0.027959
  32 H :    0.024482
  33 H :    0.030660

  Mayer bond orders larger than 0.100000
B(  0-S ,  1-C ) :   1.1140 B(  0-S ,  4-C ) :   1.1631 B(  1-C ,  2-C ) :   1.6348
B(  1-C , 32-H ) :   0.9606 B(  2-C ,  3-C ) :   1.2317 B(  2-C ,  6-C ) :   1.0313
B(  3-C ,  4-C ) :   1.5463 B(  3-C ,  5-H ) :   0.9848 B(  4-C , 20-C ) :   1.0516
B(  6-C ,  7-H ) :   0.9396 B(  6-C ,  8-H ) :   0.9392 B(  6-C ,  9-C ) :   1.0606
B(  9-C , 10-H ) :   0.9566 B(  9-C , 11-H ) :   0.9583 B(  9-C , 12-C ) :   1.0718
B( 12-C , 13-H ) :   0.9715 B( 12-C , 14-H ) :   0.9741 B( 12-C , 15-H ) :   0.9715
B( 16-S , 17-C ) :   1.1566 B( 16-S , 20-C ) :   1.1152 B( 17-C , 18-C ) :   1.6068
B( 17-C , 33-H ) :   0.9681 B( 18-C , 19-C ) :   1.2237 B( 18-C , 21-H ) :   0.9915
B( 19-C , 20-C ) :   1.5956 B( 19-C , 22-C ) :   1.0457 B( 22-C , 23-H ) :   0.9161
B( 22-C , 24-H ) :   0.9372 B( 22-C , 25-C ) :   1.0689 B( 25-C , 26-H ) :   0.9559
B( 25-C , 27-H ) :   0.9533 B( 25-C , 28-C ) :   1.0817 B( 28-C , 29-H ) :   0.9703
B( 28-C , 30-H ) :   0.9662 B( 28-C , 31-H ) :   0.9742

Dispersion correction           -0.016344920
FINAL SINGLE POINT ENERGY     -1339.880259576666

DIPOLE MOMENT
-------------
                                X             Y             Z
Electronic contribution:      2.06793     -25.34295     -16.56320
Nuclear contribution   :     -2.13638      25.81431      17.00618
                        -----------------------------------------
Total Dipole Moment    :     -0.06845       0.47136       0.44297
                        -----------------------------------------
Magnitude (a.u.)       :      0.65045
Magnitude (Debye)      :      1.65332

Rotational constants in cm-1:     0.018910     0.010685     0.007386
Rotational constants in MHz :   566.894520   320.333123   221.436977

                             ****ORCA TERMINATED NORMALLY****
TOTAL RUN TIME: 0 days 0 hours 0 minutes 33 seconds 400 msec
