                         Program Version 4.2.1 -  RELEASE  -
|  1> ! wB97X-D3 SP def2-SVP
|  2> %pal
|  3> nprocs 16
|  4> end
|  5>
|  6> * xyz 0 1
|  7> S 	 5.09589 	 -18.2831 	 83.1788
|  8> C 	 4.4727 	 -19.7437 	 84.0493
|  9> C 	 5.11787 	 -19.847 	 85.2435
| 10> C 	 5.99096 	 -18.7669 	 85.5166
| 11> C 	 6.07728 	 -17.8232 	 84.5265
| 12> H 	 6.60363 	 -18.6509 	 86.3936
| 13> C 	 4.94905 	 -20.9783 	 86.1827
| 14> H 	 3.88866 	 -21.1795 	 86.3334
| 15> H 	 5.17982 	 -20.6569 	 87.1867
| 16> C 	 5.62843 	 -22.2826 	 85.8223
| 17> H 	 5.2885 	 -22.7538 	 84.933
| 18> H 	 6.72967 	 -22.1366 	 85.6647
| 19> C 	 5.29296 	 -23.2997 	 86.843
| 20> H 	 5.82891 	 -24.2244 	 86.5351
| 21> H 	 5.61084 	 -23.0489 	 87.8163
| 22> H 	 4.19575 	 -23.5244 	 86.8763
| 23> S 	 6.63462 	 -15.1407 	 84.0277
| 24> C 	 8.25033 	 -14.4724 	 84.1175
| 25> C 	 9.09345 	 -15.5112 	 84.2725
| 26> C 	 8.48108 	 -16.8152 	 84.5186
| 27> C 	 7.08977 	 -16.7564 	 84.4132
| 28> H 	 10.1472 	 -15.3543 	 84.3054
| 29> C 	 9.23873 	 -18.0575 	 84.8524
| 30> H 	 9.88342 	 -18.2839 	 83.9729
| 31> H 	 8.62388 	 -18.9644 	 84.8961
| 32> C 	 10.198 	 -17.9494 	 86.0898
| 33> H 	 9.79294 	 -17.6398 	 87.0321
| 34> H 	 10.8789 	 -17.14 	 85.9085
| 35> C 	 11.1043 	 -19.1252 	 86.3028
| 36> H 	 11.6393 	 -19.4135 	 85.3773
| 37> H 	 10.5423 	 -20.044 	 86.6915
| 38> H 	 11.932 	 -18.983 	 86.9747
| 39> H 	 3.83615 	 -20.5652 	 83.6056
| 40> H 	 8.46326 	 -13.463 	 83.859
| 41> *
| 42>
| 43>                          ****END OF INPUT****

CARTESIAN COORDINATES (ANGSTROEM)
---------------------------------
  S      5.095890  -18.283100   83.178800
  C      4.472700  -19.743700   84.049300
  C      5.117870  -19.847000   85.243500
  C      5.990960  -18.766900   85.516600
  C      6.077280  -17.823200   84.526500
  H      6.603630  -18.650900   86.393600
  C      4.949050  -20.978300   86.182700
  H      3.888660  -21.179500   86.333400
  H      5.179820  -20.656900   87.186700
  C      5.628430  -22.282600   85.822300
  H      5.288500  -22.753800   84.933000
  H      6.729670  -22.136600   85.664700
  C      5.292960  -23.299700   86.843000
  H      5.828910  -24.224400   86.535100
  H      5.610840  -23.048900   87.816300
  H      4.195750  -23.524400   86.876300
  S      6.634620  -15.140700   84.027700
  C      8.250330  -14.472400   84.117500
  C      9.093450  -15.511200   84.272500
  C      8.481080  -16.815200   84.518600
  C      7.089770  -16.756400   84.413200
  H     10.147200  -15.354300   84.305400
  C      9.238730  -18.057500   84.852400
  H      9.883420  -18.283900   83.972900
  H      8.623880  -18.964400   84.896100
  C     10.198000  -17.949400   86.089800
  H      9.792940  -17.639800   87.032100
  H     10.878900  -17.140000   85.908500
  C     11.104300  -19.125200   86.302800
  H     11.639300  -19.413500   85.377300
  H     10.542300  -20.044000   86.691500
  H     11.932000  -18.983000   86.974700
  H      3.836150  -20.565200   83.605600
  H      8.463260  -13.463000   83.859000

 Total Charge           Charge          ....    0
 Multiplicity           Mult            ....    1
 Number of Electrons    NEL             ....  134
 Basis Dimension        Dim             ....  322

ORBITAL ENERGIES
----------------

  NO   OCC          E(Eh)            E(eV)
   0   2.0000     -88.965198     -2420.8661
   1   2.0000     -88.958592     -2420.6864
   2   2.0000     -10.329000      -281.0664
   3   2.0000     -10.328084      -281.0414
   4   2.0000     -10.319481      -280.8073
   5   2.0000     -10.316177      -280.7175
   6   2.0000     -10.306547      -280.4554
   7   2.0000     -10.295836      -280.1640
   8   2.0000     -10.295812      -280.1633
   9   2.0000     -10.294150      -280.1181
  10   2.0000     -10.289853      -280.0011
  11   2.0000     -10.285994      -279.8961
  12   2.0000     -10.284236      -279.8483
  13   2.0000     -10.283684      -279.8333
  14   2.0000     -10.281434      -279.7720
  15   2.0000     -10.276953      -279.6501
  16   2.0000      -8.079403      -219.8517
  17   2.0000      -8.074325      -219.7136
  18   2.0000      -6.037993      -164.3022
  19   2.0000      -6.033968      -164.1926
  20   2.0000      -6.032873      -164.1628
  21   2.0000      -6.030094      -164.0872
  22   2.0000      -6.028551      -164.0452
  23   2.0000      -6.025109      -163.9516
  24   2.0000      -1.009098       -27.4590
  25   2.0000      -0.987685       -26.8763
  26   2.0000      -0.923954       -25.1421
  27   2.0000      -0.908667       -24.7261
  28   2.0000      -0.876885       -23.8612
  29   2.0000      -0.853780       -23.2325
  30   2.0000      -0.846274       -23.0283
  31   2.0000      -0.820320       -22.3220
  32   2.0000      -0.781704       -21.2712
  33   2.0000      -0.770254       -20.9597
  34   2.0000      -0.706183       -19.2162
  35   2.0000      -0.704772       -19.1778
  36   2.0000      -0.700533       -19.0625
  37   2.0000      -0.660053       -17.9610
  38   2.0000      -0.640931       -17.4406
  39   2.0000      -0.621882       -16.9223
  40   2.0000      -0.603528       -16.4228
  41   2.0000      -0.577207       -15.7066
  42   2.0000      -0.567434       -15.4407
  43   2.0000      -0.558666       -15.2021
  44   2.0000      -0.534077       -14.5330
  45   2.0000      -0.528846       -14.3906
  46   2.0000      -0.521242       -14.1837
  47   2.0000      -0.519384       -14.1332
  48   2.0000      -0.506332       -13.7780
  49   2.0000      -0.504884       -13.7386
  50   2.0000      -0.492192       -13.3932
  51   2.0000      -0.476186       -12.9577
  52   2.0000      -0.472646       -12.8613
  53   2.0000      -0.463763       -12.6196
  54   2.0000      -0.457456       -12.4480
  55   2.0000      -0.452605       -12.3160
  56   2.0000      -0.451074       -12.2743
  57   2.0000      -0.435968       -11.8633
  58   2.0000      -0.434646       -11.8273
  59   2.0000      -0.424754       -11.5582
  60   2.0000      -0.414657       -11.2834
  61   2.0000      -0.412943       -11.2368
  62   2.0000      -0.409853       -11.1527
  63   2.0000      -0.347891        -9.4666
  64   2.0000      -0.331830        -9.0296
  65   2.0000      -0.323702        -8.8084
  66   2.0000      -0.300733        -8.1834
  67   0.0000       0.034349         0.9347
  68   0.0000       0.069365         1.8875
  69   0.0000       0.111764         3.0413
  70   0.0000       0.122729         3.3396
  71   0.0000       0.132270         3.5992

MULLIKEN ATOMIC CHARGES
-----------------------
   0 S :    0.100824
   1 C :   -0.144233
   2 C :   -0.059854
   3 C :    0.015486
   4 C :   -0.110531
   5 H :    0.008277
   6 C :    0.059067
   7 H :    0.015981
   8 H :    0.006043
   9 C :   -0.049468
  10 H :    0.014365
  11 H :    0.034641
  12 C :   -0.040251
  13 H :    0.033217
  14 H :    0.016849
  15 H :    0.035870
  16 S :    0.085385
  17 C :   -0.074604
  18 C :   -0.014200
  19 C :   -0.024856
  20 C :   -0.167948
  21 H :    0.011115
  22 C :    0.054725
  23 H :    0.030003
  24 H :    0.030817
  25 C :   -0.044323
  26 H :    0.022352
  27 H :    0.010505
  28 C :   -0.073797
  29 H :    0.024250
  30 H :    0.036828
  31 H :    0.029591
  32 H :    0.070805
  33 H :    0.057068
Sum of atomic charges:   -0.0000000

LOEWDIN ATOMIC CHARGES
----------------------
   0 S :    0.394058
   1 C :   -0.186631
   2 C :   -0.068118
   3 C :   -0.063985
   4 C :   -0.194849
   5 H :    0.030663
   6 C :   -0.037280
   7 H :    0.033394
   8 H :    0.028211
   9 C :   -0.040851
  10 H :    0.020917
  11 H :    0.029270
  12 C :   -0.060751
  13 H :    0.031054
  14 H :    0.013206
  15 H :    0.030354
  16 S :    0.407999
  17 C :   -0.174525
  18 C :   -0.067412
  19 C :   -0.056240
  20 C :   -0.208344
  21 H :    0.025223
  22 C :   -0.034437
  23 H :    0.039273
  24 H :    0.031041
  25 C :   -0.043581
  26 H :    0.022090
  27 H :    0.021699
  28 C :   -0.072899
  29 H :    0.025423
  30 H :    0.028642
  31 H :    0.024019
  32 H :    0.044360
  33 H :    0.029007

  Mayer bond orders larger than 0.100000
B(  0-S ,  1-C ) :   1.1172 B(  0-S ,  4-C ) :   1.1677 B(  1-C ,  2-C ) :   1.6199
B(  1-C , 32-H ) :   0.9631 B(  2-C ,  3-C ) :   1.2347 B(  2-C ,  6-C ) :   1.0237
B(  3-C ,  4-C ) :   1.5682 B(  3-C ,  5-H ) :   1.0082 B(  4-C , 20-C ) :   1.0078
B(  6-C ,  7-H ) :   0.9324 B(  6-C ,  8-H ) :   0.9392 B(  6-C ,  9-C ) :   1.0684
B(  9-C , 10-H ) :   0.9509 B(  9-C , 11-H ) :   0.9506 B(  9-C , 12-C ) :   1.0891
B( 12-C , 13-H ) :   0.9715 B( 12-C , 14-H ) :   0.9739 B( 12-C , 15-H ) :   0.9712
B( 16-S , 17-C ) :   1.1483 B( 16-S , 20-C ) :   1.1498 B( 17-C , 18-C ) :   1.6048
B( 17-C , 33-H ) :   0.9760 B( 18-C , 19-C ) :   1.2333 B( 18-C , 21-H ) :   0.9931
B( 19-C , 20-C ) :   1.5831 B( 19-C , 22-C ) :   1.0585 B( 22-C , 23-H ) :   0.9240
B( 22-C , 24-H ) :   0.9397 B( 22-C , 25-C ) :   1.0451 B( 25-C , 26-H ) :   0.9563
B( 25-C , 27-H ) :   0.9483 B( 25-C , 28-C ) :   1.0948 B( 28-C , 29-H ) :   0.9706
B( 28-C , 30-H ) :   0.9738 B( 28-C , 31-H ) :   0.9732

Dispersion correction           -0.013793528
FINAL SINGLE POINT ENERGY     -1339.881513607973

DIPOLE MOMENT
-------------
                                X             Y             Z
Electronic contribution:    -13.37192      25.36261     -16.05920
Nuclear contribution   :     13.91843     -25.89136      16.38069
                        -----------------------------------------
Total Dipole Moment    :      0.54652      -0.52875       0.32149
                        -----------------------------------------
Magnitude (a.u.)       :      0.82560
Magnitude (Debye)      :      2.09851

Rotational constants in cm-1:     0.017770     0.008840     0.006264
Rotational constants in MHz :   532.721009   265.015105   187.790358

                             ****ORCA TERMINATED NORMALLY****
TOTAL RUN TIME: 0 days 0 hours 0 minutes 34 seconds 296 msec
