                         Program Version 4.2.1 -  RELEASE  -
|  1> ! wB97X-D3 SP def2-SVP
|  2> %pal
|  3> nprocs 16
|  4> end
|  5>
|  6> * xyz 0 1
|  7> S 	 -32.7569 	 2.79097 	 100.918
|  8> C 	 -33.2079 	 1.09897 	 100.755
|  9> C 	 -32.0227 	 0.38229 	 100.534
| 10> C 	 -30.8455 	 1.2229 	 100.433
| 11> C 	 -31.0858 	 2.53874 	 100.602
| 12> H 	 -29.8248 	 0.979213 	 100.206
| 13> C 	 -31.9733 	 -1.10424 	 100.446
| 14> H 	 -30.9735 	 -1.32823 	 100.091
| 15> H 	 -32.5703 	 -1.46016 	 99.6084
| 16> C 	 -32.2715 	 -1.61434 	 101.828
| 17> H 	 -33.2935 	 -1.76005 	 102.069
| 18> H 	 -31.9832 	 -2.665 	 101.84
| 19> C 	 -31.612 	 -0.947552 	 103.129
| 20> H 	 -30.6968 	 -0.401229 	 102.922
| 21> H 	 -32.2725 	 -0.152399 	 103.311
| 22> H 	 -31.5302 	 -1.59502 	 103.986
| 23> S 	 -30.2086 	 4.96167 	 99.4311
| 24> C 	 -28.5992 	 5.53148 	 99.7209
| 25> C 	 -28.0015 	 4.76244 	 100.749
| 26> C 	 -28.8824 	 3.70753 	 101.234
| 27> C 	 -30.1056 	 3.61402 	 100.601
| 28> H 	 -27.0725 	 5.10371 	 101.126
| 29> C 	 -28.3405 	 2.83385 	 102.357
| 30> H 	 -27.6959 	 2.15892 	 101.832
| 31> H 	 -29.1057 	 2.26302 	 102.91
| 32> C 	 -27.4997 	 3.55715 	 103.482
| 33> H 	 -28.0403 	 4.40126 	 103.917
| 34> H 	 -26.6512 	 4.0621 	 103.076
| 35> C 	 -27.2452 	 2.70353 	 104.67
| 36> H 	 -26.835 	 1.75746 	 104.4
| 37> H 	 -28.2072 	 2.44986 	 105.183
| 38> H 	 -26.5436 	 3.14953 	 105.416
| 39> H 	 -34.1764 	 0.592682 	 100.861
| 40> H 	 -28.2151 	 6.39311 	 99.2663
| 41> *
| 42>
| 43>                          ****END OF INPUT****

CARTESIAN COORDINATES (ANGSTROEM)
---------------------------------
  S    -32.756900    2.790970  100.918000
  C    -33.207900    1.098970  100.755000
  C    -32.022700    0.382290  100.534000
  C    -30.845500    1.222900  100.433000
  C    -31.085800    2.538740  100.602000
  H    -29.824800    0.979213  100.206000
  C    -31.973300   -1.104240  100.446000
  H    -30.973500   -1.328230  100.091000
  H    -32.570300   -1.460160   99.608400
  C    -32.271500   -1.614340  101.828000
  H    -33.293500   -1.760050  102.069000
  H    -31.983200   -2.665000  101.840000
  C    -31.612000   -0.947552  103.129000
  H    -30.696800   -0.401229  102.922000
  H    -32.272500   -0.152399  103.311000
  H    -31.530200   -1.595020  103.986000
  S    -30.208600    4.961670   99.431100
  C    -28.599200    5.531480   99.720900
  C    -28.001500    4.762440  100.749000
  C    -28.882400    3.707530  101.234000
  C    -30.105600    3.614020  100.601000
  H    -27.072500    5.103710  101.126000
  C    -28.340500    2.833850  102.357000
  H    -27.695900    2.158920  101.832000
  H    -29.105700    2.263020  102.910000
  C    -27.499700    3.557150  103.482000
  H    -28.040300    4.401260  103.917000
  H    -26.651200    4.062100  103.076000
  C    -27.245200    2.703530  104.670000
  H    -26.835000    1.757460  104.400000
  H    -28.207200    2.449860  105.183000
  H    -26.543600    3.149530  105.416000
  H    -34.176400    0.592682  100.861000
  H    -28.215100    6.393110   99.266300

 Total Charge           Charge          ....    0
 Multiplicity           Mult            ....    1
 Number of Electrons    NEL             ....  134
 Basis Dimension        Dim             ....  322

ORBITAL ENERGIES
----------------

  NO   OCC          E(Eh)            E(eV)
   0   2.0000     -88.963114     -2420.8094
   1   2.0000     -88.963049     -2420.8076
   2   2.0000     -10.329962      -281.0925
   3   2.0000     -10.324956      -280.9563
   4   2.0000     -10.321576      -280.8644
   5   2.0000     -10.316643      -280.7301
   6   2.0000     -10.311013      -280.5769
   7   2.0000     -10.301180      -280.3093
   8   2.0000     -10.298481      -280.2359
   9   2.0000     -10.295451      -280.1535
  10   2.0000     -10.290305      -280.0134
  11   2.0000     -10.289371      -279.9880
  12   2.0000     -10.284678      -279.8603
  13   2.0000     -10.284118      -279.8451
  14   2.0000     -10.279559      -279.7210
  15   2.0000     -10.273534      -279.5571
  16   2.0000      -8.078080      -219.8157
  17   2.0000      -8.077814      -219.8085
  18   2.0000      -6.036701      -164.2670
  19   2.0000      -6.036380      -164.2582
  20   2.0000      -6.032348      -164.1485
  21   2.0000      -6.032113      -164.1421
  22   2.0000      -6.028878      -164.0541
  23   2.0000      -6.028717      -164.0497
  24   2.0000      -1.007485       -27.4151
  25   2.0000      -0.983150       -26.7529
  26   2.0000      -0.916759       -24.9463
  27   2.0000      -0.909622       -24.7521
  28   2.0000      -0.869556       -23.6618
  29   2.0000      -0.851416       -23.1682
  30   2.0000      -0.839919       -22.8553
  31   2.0000      -0.816561       -22.2197
  32   2.0000      -0.785609       -21.3775
  33   2.0000      -0.773883       -21.0584
  34   2.0000      -0.711031       -19.3481
  35   2.0000      -0.706766       -19.2321
  36   2.0000      -0.700827       -19.0705
  37   2.0000      -0.660395       -17.9703
  38   2.0000      -0.643185       -17.5020
  39   2.0000      -0.612611       -16.6700
  40   2.0000      -0.598075       -16.2745
  41   2.0000      -0.576347       -15.6832
  42   2.0000      -0.566747       -15.4220
  43   2.0000      -0.556529       -15.1439
  44   2.0000      -0.544200       -14.8084
  45   2.0000      -0.528541       -14.3823
  46   2.0000      -0.522109       -14.2073
  47   2.0000      -0.513926       -13.9846
  48   2.0000      -0.506448       -13.7811
  49   2.0000      -0.501742       -13.6531
  50   2.0000      -0.489125       -13.3098
  51   2.0000      -0.479687       -13.0529
  52   2.0000      -0.474380       -12.9085
  53   2.0000      -0.470226       -12.7955
  54   2.0000      -0.457659       -12.4535
  55   2.0000      -0.455109       -12.3841
  56   2.0000      -0.451073       -12.2743
  57   2.0000      -0.429983       -11.7004
  58   2.0000      -0.427626       -11.6363
  59   2.0000      -0.421811       -11.4781
  60   2.0000      -0.418737       -11.3944
  61   2.0000      -0.410165       -11.1612
  62   2.0000      -0.399755       -10.8779
  63   2.0000      -0.345593        -9.4041
  64   2.0000      -0.328070        -8.9273
  65   2.0000      -0.325807        -8.8657
  66   2.0000      -0.298887        -8.1331
  67   0.0000       0.032383         0.8812
  68   0.0000       0.066725         1.8157
  69   0.0000       0.118689         3.2297
  70   0.0000       0.129111         3.5133
  71   0.0000       0.130504         3.5512

MULLIKEN ATOMIC CHARGES
-----------------------
   0 S :    0.106804
   1 C :   -0.110729
   2 C :   -0.173279
   3 C :    0.036070
   4 C :   -0.148026
   5 H :    0.002827
   6 C :    0.154074
   7 H :    0.005805
   8 H :    0.038871
   9 C :   -0.106948
  10 H :    0.017842
  11 H :    0.014998
  12 C :   -0.004796
  13 H :    0.022653
  14 H :    0.018908
  15 H :    0.042261
  16 S :    0.097255
  17 C :   -0.076843
  18 C :   -0.037138
  19 C :   -0.036002
  20 C :   -0.133648
  21 H :    0.014215
  22 C :    0.058963
  23 H :    0.035558
  24 H :    0.036467
  25 C :   -0.075704
  26 H :    0.028088
  27 H :    0.019787
  28 C :   -0.049311
  29 H :    0.014720
  30 H :    0.036413
  31 H :    0.043352
  32 H :    0.058062
  33 H :    0.048432
Sum of atomic charges:   -0.0000000

LOEWDIN ATOMIC CHARGES
----------------------
   0 S :    0.415264
   1 C :   -0.206067
   2 C :   -0.058186
   3 C :   -0.068640
   4 C :   -0.202446
   5 H :    0.030691
   6 C :   -0.033542
   7 H :    0.029531
   8 H :    0.038331
   9 C :   -0.041744
  10 H :    0.018732
  11 H :    0.021072
  12 C :   -0.058400
  13 H :    0.025052
  14 H :    0.021105
  15 H :    0.027212
  16 S :    0.399766
  17 C :   -0.170758
  18 C :   -0.071961
  19 C :   -0.047053
  20 C :   -0.199756
  21 H :    0.024477
  22 C :   -0.027750
  23 H :    0.031450
  24 H :    0.032174
  25 C :   -0.045632
  26 H :    0.028621
  27 H :    0.015202
  28 C :   -0.066916
  29 H :    0.015489
  30 H :    0.031230
  31 H :    0.034074
  32 H :    0.038884
  33 H :    0.020495

  Mayer bond orders larger than 0.100000
B(  0-S ,  1-C ) :   1.1315 B(  0-S ,  4-C ) :   1.1591 B(  1-C ,  2-C ) :   1.5940
B(  1-C , 32-H ) :   0.9729 B(  2-C ,  3-C ) :   1.2235 B(  2-C ,  6-C ) :   1.0235
B(  3-C ,  4-C ) :   1.5935 B(  3-C ,  5-H ) :   1.0013 B(  4-C , 20-C ) :   1.0139
B(  6-C ,  7-H ) :   0.9311 B(  6-C ,  8-H ) :   0.9377 B(  6-C ,  9-C ) :   1.0573
B(  9-C , 10-H ) :   0.9601 B(  9-C , 11-H ) :   0.9572 B(  9-C , 12-C ) :   1.0563
B( 12-C , 13-H ) :   0.9752 B( 12-C , 14-H ) :   0.9714 B( 12-C , 15-H ) :   0.9762
B( 16-S , 17-C ) :   1.1842 B( 16-S , 20-C ) :   1.1145 B( 17-C , 18-C ) :   1.5799
B( 17-C , 33-H ) :   0.9753 B( 18-C , 19-C ) :   1.2280 B( 18-C , 21-H ) :   0.9977
B( 19-C , 20-C ) :   1.6099 B( 19-C , 22-C ) :   1.0329 B( 22-C , 23-H ) :   0.9254
B( 22-C , 24-H ) :   0.9491 B( 22-C , 25-C ) :   1.0558 B( 25-C , 26-H ) :   0.9569
B( 25-C , 27-H ) :   0.9477 B( 25-C , 28-C ) :   1.0967 B( 28-C , 29-H ) :   0.9728
B( 28-C , 30-H ) :   0.9705 B( 28-C , 31-H ) :   0.9705

Dispersion correction           -0.014880800
FINAL SINGLE POINT ENERGY     -1339.861213349470

DIPOLE MOMENT
-------------
                                X             Y             Z
Electronic contribution:    -11.11983      18.48152     -18.95097
Nuclear contribution   :     11.59526     -18.91529      19.23344
                        -----------------------------------------
Total Dipole Moment    :      0.47543      -0.43377       0.28247
                        -----------------------------------------
Magnitude (a.u.)       :      0.70283
Magnitude (Debye)      :      1.78646

Rotational constants in cm-1:     0.017470     0.009518     0.006837
Rotational constants in MHz :   523.741586   285.344969   204.982969

                             ****ORCA TERMINATED NORMALLY****
TOTAL RUN TIME: 0 days 0 hours 0 minutes 30 seconds 589 msec
