                         Program Version 4.2.1 -  RELEASE  -
|  1> ! wB97X-D3 SP def2-SVP
|  2> %pal
|  3> nprocs 16
|  4> end
|  5>
|  6> * xyz 0 1
|  7> S 	 -3.82918 	 74.4787 	 58.2192
|  8> C 	 -3.5197 	 72.9788 	 58.9796
|  9> C 	 -2.96857 	 72.0622 	 58.0975
| 10> C 	 -2.65795 	 72.6597 	 56.8484
| 11> C 	 -3.03121 	 74.01 	 56.7305
| 12> H 	 -2.14196 	 72.2747 	 55.9529
| 13> C 	 -2.64567 	 70.6153 	 58.4624
| 14> H 	 -3.11406 	 70.0423 	 57.7122
| 15> H 	 -3.20038 	 70.3203 	 59.3157
| 16> C 	 -1.21106 	 70.3978 	 58.8126
| 17> H 	 -0.49394 	 70.5639 	 58.0402
| 18> H 	 -1.02942 	 71.0912 	 59.6058
| 19> C 	 -0.95488 	 68.8735 	 59.291
| 20> H 	 0.0517629 	 68.484 	 59.0584
| 21> H 	 -1.18118 	 68.6841 	 60.3505
| 22> H 	 -1.69973 	 68.1783 	 58.8688
| 23> S 	 -4.80105 	 75.3719 	 55.2547
| 24> C 	 -4.55985 	 75.7251 	 53.5517
| 25> C 	 -3.18562 	 75.6461 	 53.2773
| 26> C 	 -2.46791 	 74.9763 	 54.3014
| 27> C 	 -3.23078 	 74.7308 	 55.4684
| 28> H 	 -2.91763 	 75.9702 	 52.2709
| 29> C 	 -0.989018 	 74.8042 	 54.0575
| 30> H 	 -0.891961 	 74.1061 	 53.2259
| 31> H 	 -0.610924 	 74.2539 	 54.8916
| 32> C 	 -0.181425 	 76.0929 	 53.8469
| 33> H 	 -0.582408 	 76.6815 	 53.0434
| 34> H 	 0.822998 	 75.7265 	 53.6388
| 35> C 	 -0.252226 	 76.9889 	 55.0268
| 36> H 	 -0.0582158 	 76.4937 	 55.9675
| 37> H 	 -1.21773 	 77.3781 	 55.0938
| 38> H 	 0.485734 	 77.8219 	 54.9017
| 39> H 	 -3.98015 	 72.5973 	 59.898
| 40> H 	 -5.30596 	 76.0876 	 52.8544
| 41> *
| 42>
| 43>                          ****END OF INPUT****

CARTESIAN COORDINATES (ANGSTROEM)
---------------------------------
  S     -3.829180   74.478700   58.219200
  C     -3.519700   72.978800   58.979600
  C     -2.968570   72.062200   58.097500
  C     -2.657950   72.659700   56.848400
  C     -3.031210   74.010000   56.730500
  H     -2.141960   72.274700   55.952900
  C     -2.645670   70.615300   58.462400
  H     -3.114060   70.042300   57.712200
  H     -3.200380   70.320300   59.315700
  C     -1.211060   70.397800   58.812600
  H     -0.493940   70.563900   58.040200
  H     -1.029420   71.091200   59.605800
  C     -0.954880   68.873500   59.291000
  H      0.051763   68.484000   59.058400
  H     -1.181180   68.684100   60.350500
  H     -1.699730   68.178300   58.868800
  S     -4.801050   75.371900   55.254700
  C     -4.559850   75.725100   53.551700
  C     -3.185620   75.646100   53.277300
  C     -2.467910   74.976300   54.301400
  C     -3.230780   74.730800   55.468400
  H     -2.917630   75.970200   52.270900
  C     -0.989018   74.804200   54.057500
  H     -0.891961   74.106100   53.225900
  H     -0.610924   74.253900   54.891600
  C     -0.181425   76.092900   53.846900
  H     -0.582408   76.681500   53.043400
  H      0.822998   75.726500   53.638800
  C     -0.252226   76.988900   55.026800
  H     -0.058216   76.493700   55.967500
  H     -1.217730   77.378100   55.093800
  H      0.485734   77.821900   54.901700
  H     -3.980150   72.597300   59.898000
  H     -5.305960   76.087600   52.854400

 Total Charge           Charge          ....    0
 Multiplicity           Mult            ....    1
 Number of Electrons    NEL             ....  134
 Basis Dimension        Dim             ....  322

ORBITAL ENERGIES
----------------

  NO   OCC          E(Eh)            E(eV)
   0   2.0000     -88.968882     -2420.9664
   1   2.0000     -88.964269     -2420.8408
   2   2.0000     -10.333308      -281.1836
   3   2.0000     -10.331253      -281.1277
   4   2.0000     -10.318630      -280.7842
   5   2.0000     -10.312543      -280.6186
   6   2.0000     -10.304784      -280.4074
   7   2.0000     -10.301789      -280.3259
   8   2.0000     -10.297515      -280.2096
   9   2.0000     -10.295484      -280.1544
  10   2.0000     -10.287445      -279.9356
  11   2.0000     -10.285199      -279.8745
  12   2.0000     -10.284761      -279.8626
  13   2.0000     -10.284489      -279.8552
  14   2.0000     -10.280236      -279.7394
  15   2.0000     -10.264556      -279.3128
  16   2.0000      -8.083950      -219.9755
  17   2.0000      -8.079657      -219.8586
  18   2.0000      -6.042431      -164.4229
  19   2.0000      -6.038263      -164.3095
  20   2.0000      -6.038128      -164.3058
  21   2.0000      -6.034872      -164.2172
  22   2.0000      -6.033979      -164.1929
  23   2.0000      -6.030474      -164.0975
  24   2.0000      -1.011199       -27.5161
  25   2.0000      -0.988089       -26.8873
  26   2.0000      -0.917542       -24.9676
  27   2.0000      -0.913376       -24.8542
  28   2.0000      -0.870342       -23.6832
  29   2.0000      -0.850987       -23.1565
  30   2.0000      -0.843049       -22.9405
  31   2.0000      -0.814512       -22.1640
  32   2.0000      -0.781046       -21.2533
  33   2.0000      -0.772605       -21.0237
  34   2.0000      -0.713194       -19.4070
  35   2.0000      -0.702936       -19.1279
  36   2.0000      -0.694204       -18.8902
  37   2.0000      -0.660590       -17.9756
  38   2.0000      -0.642237       -17.4762
  39   2.0000      -0.618923       -16.8418
  40   2.0000      -0.599081       -16.3018
  41   2.0000      -0.570496       -15.5240
  42   2.0000      -0.565564       -15.3898
  43   2.0000      -0.552138       -15.0244
  44   2.0000      -0.542491       -14.7619
  45   2.0000      -0.526524       -14.3275
  46   2.0000      -0.520675       -14.1683
  47   2.0000      -0.508619       -13.8402
  48   2.0000      -0.504888       -13.7387
  49   2.0000      -0.498627       -13.5683
  50   2.0000      -0.495181       -13.4746
  51   2.0000      -0.481470       -13.1015
  52   2.0000      -0.471304       -12.8248
  53   2.0000      -0.464800       -12.6478
  54   2.0000      -0.456309       -12.4168
  55   2.0000      -0.443723       -12.0743
  56   2.0000      -0.440414       -11.9843
  57   2.0000      -0.437407       -11.9024
  58   2.0000      -0.433970       -11.8089
  59   2.0000      -0.423958       -11.5365
  60   2.0000      -0.423524       -11.5247
  61   2.0000      -0.417870       -11.3708
  62   2.0000      -0.410861       -11.1801
  63   2.0000      -0.354492        -9.6462
  64   2.0000      -0.333428        -9.0730
  65   2.0000      -0.325453        -8.8560
  66   2.0000      -0.286355        -7.7921
  67   0.0000       0.026149         0.7115
  68   0.0000       0.065319         1.7774
  69   0.0000       0.113027         3.0756
  70   0.0000       0.122995         3.3469
  71   0.0000       0.132944         3.6176

MULLIKEN ATOMIC CHARGES
-----------------------
   0 S :    0.107872
   1 C :   -0.097380
   2 C :   -0.141053
   3 C :    0.023895
   4 C :   -0.143448
   5 H :    0.024234
   6 C :    0.113852
   7 H :    0.018940
   8 H :   -0.005108
   9 C :   -0.029843
  10 H :    0.029510
  11 H :    0.029053
  12 C :   -0.083388
  13 H :    0.045010
  14 H :    0.030917
  15 H :    0.026023
  16 S :    0.103127
  17 C :   -0.112453
  18 C :   -0.049119
  19 C :   -0.080395
  20 C :   -0.135783
  21 H :    0.029760
  22 C :    0.080264
  23 H :    0.027400
  24 H :    0.002017
  25 C :   -0.045851
  26 H :    0.024640
  27 H :    0.029922
  28 C :   -0.027386
  29 H :    0.023047
  30 H :    0.027178
  31 H :    0.036001
  32 H :    0.057107
  33 H :    0.061437
Sum of atomic charges:   -0.0000000

LOEWDIN ATOMIC CHARGES
----------------------
   0 S :    0.423268
   1 C :   -0.218433
   2 C :   -0.062487
   3 C :   -0.063271
   4 C :   -0.200051
   5 H :    0.035740
   6 C :   -0.028148
   7 H :    0.025902
   8 H :    0.025324
   9 C :   -0.026356
  10 H :    0.020732
  11 H :    0.026344
  12 C :   -0.077018
  13 H :    0.028099
  14 H :    0.025594
  15 H :    0.025884
  16 S :    0.424711
  17 C :   -0.187054
  18 C :   -0.072714
  19 C :   -0.065772
  20 C :   -0.211017
  21 H :    0.034607
  22 C :   -0.032473
  23 H :    0.030628
  24 H :    0.021176
  25 C :   -0.033778
  26 H :    0.021913
  27 H :    0.025902
  28 C :   -0.057671
  29 H :    0.022805
  30 H :    0.019950
  31 H :    0.031529
  32 H :    0.035698
  33 H :    0.030437

  Mayer bond orders larger than 0.100000
B(  0-S ,  1-C ) :   1.1534 B(  0-S ,  4-C ) :   1.1588 B(  1-C ,  2-C ) :   1.5915
B(  1-C , 32-H ) :   0.9584 B(  2-C ,  3-C ) :   1.2697 B(  2-C ,  6-C ) :   1.0273
B(  3-C ,  4-C ) :   1.5432 B(  3-C ,  5-H ) :   0.9901 B(  4-C , 20-C ) :   1.0438
B(  6-C ,  7-H ) :   0.9314 B(  6-C ,  8-H ) :   0.9345 B(  6-C ,  9-C ) :   1.0592
B(  9-C , 10-H ) :   0.9668 B(  9-C , 11-H ) :   0.9561 B(  9-C , 12-C ) :   1.0560
B( 12-C , 13-H ) :   0.9809 B( 12-C , 14-H ) :   0.9765 B( 12-C , 15-H ) :   0.9775
B( 16-S , 17-C ) :   1.1704 B( 16-S , 20-C ) :   1.1599 B( 17-C , 18-C ) :   1.5809
B( 17-C , 20-C ) :   0.1036 B( 17-C , 33-H ) :   0.9699 B( 18-C , 19-C ) :   1.2530
B( 18-C , 21-H ) :   0.9909 B( 19-C , 20-C ) :   1.5447 B( 19-C , 22-C ) :   1.0449
B( 22-C , 23-H ) :   0.9301 B( 22-C , 24-H ) :   0.9318 B( 22-C , 25-C ) :   1.0765
B( 25-C , 26-H ) :   0.9530 B( 25-C , 27-H ) :   0.9524 B( 25-C , 28-C ) :   1.0798
B( 28-C , 29-H ) :   0.9754 B( 28-C , 30-H ) :   0.9710 B( 28-C , 31-H ) :   0.9714

Dispersion correction           -0.014004004
FINAL SINGLE POINT ENERGY     -1339.861549554366

DIPOLE MOMENT
-------------
                                X             Y             Z
Electronic contribution:    -20.77526      12.52711      -0.66402
Nuclear contribution   :     20.99990     -12.92024       0.38393
                        -----------------------------------------
Total Dipole Moment    :      0.22464      -0.39312      -0.28010
                        -----------------------------------------
Magnitude (a.u.)       :      0.53241
Magnitude (Debye)      :      1.35328

Rotational constants in cm-1:     0.021140     0.007519     0.006438
Rotational constants in MHz :   633.753121   225.408572   193.005663

                             ****ORCA TERMINATED NORMALLY****
TOTAL RUN TIME: 0 days 0 hours 0 minutes 32 seconds 971 msec
