                         Program Version 4.2.1 -  RELEASE  -
|  1> ! wB97X-D3 SP def2-SVP
|  2> %pal
|  3> nprocs 16
|  4> end
|  5>
|  6> * xyz 0 1
|  7> S 	 48.8125 	 5.12338 	 87.4864
|  8> C 	 47.7772 	 6.63847 	 87.254
|  9> C 	 47.9856 	 7.21147 	 86.0409
| 10> C 	 48.7775 	 6.39516 	 85.1904
| 11> C 	 49.32 	 5.27316 	 85.7999
| 12> H 	 49.0932 	 6.68429 	 84.14
| 13> C 	 47.6073 	 8.64511 	 85.6083
| 14> H 	 47.2315 	 9.09377 	 86.5369
| 15> H 	 46.6902 	 8.43494 	 85.1109
| 16> C 	 48.6739 	 9.58154 	 85.0384
| 17> H 	 49.5291 	 9.68155 	 85.7395
| 18> H 	 49.1519 	 9.15888 	 84.1192
| 19> C 	 48.2348 	 10.9707 	 84.7143
| 20> H 	 48.0737 	 11.573 	 85.5244
| 21> H 	 48.9746 	 11.5399 	 84.2023
| 22> H 	 47.3492 	 11.0104 	 84.0135
| 23> S 	 49.9711 	 4.07235 	 83.4812
| 24> C 	 51.1786 	 2.75774 	 83.4077
| 25> C 	 51.7105 	 2.55887 	 84.6534
| 26> C 	 51.2175 	 3.46294 	 85.6249
| 27> C 	 50.1627 	 4.25764 	 85.1515
| 28> H 	 52.4917 	 1.88954 	 84.8301
| 29> C 	 51.7864 	 3.39952 	 87.0786
| 30> H 	 51.3008 	 2.64162 	 87.5494
| 31> H 	 51.5042 	 4.35309 	 87.517
| 32> C 	 53.2948 	 3.37018 	 87.3244
| 33> H 	 53.6834 	 4.18639 	 86.7541
| 34> H 	 53.7379 	 2.46515 	 87.0189
| 35> C 	 53.7126 	 3.61369 	 88.7262
| 36> H 	 53.2913 	 2.90825 	 89.4203
| 37> H 	 53.5655 	 4.61824 	 89.1826
| 38> H 	 54.7708 	 3.50136 	 88.8909
| 39> H 	 47.4284 	 7.20308 	 88.1275
| 40> H 	 51.3353 	 2.24705 	 82.4328
| 41> *
| 42>
| 43>                          ****END OF INPUT****

CARTESIAN COORDINATES (ANGSTROEM)
---------------------------------
  S     48.812500    5.123380   87.486400
  C     47.777200    6.638470   87.254000
  C     47.985600    7.211470   86.040900
  C     48.777500    6.395160   85.190400
  C     49.320000    5.273160   85.799900
  H     49.093200    6.684290   84.140000
  C     47.607300    8.645110   85.608300
  H     47.231500    9.093770   86.536900
  H     46.690200    8.434940   85.110900
  C     48.673900    9.581540   85.038400
  H     49.529100    9.681550   85.739500
  H     49.151900    9.158880   84.119200
  C     48.234800   10.970700   84.714300
  H     48.073700   11.573000   85.524400
  H     48.974600   11.539900   84.202300
  H     47.349200   11.010400   84.013500
  S     49.971100    4.072350   83.481200
  C     51.178600    2.757740   83.407700
  C     51.710500    2.558870   84.653400
  C     51.217500    3.462940   85.624900
  C     50.162700    4.257640   85.151500
  H     52.491700    1.889540   84.830100
  C     51.786400    3.399520   87.078600
  H     51.300800    2.641620   87.549400
  H     51.504200    4.353090   87.517000
  C     53.294800    3.370180   87.324400
  H     53.683400    4.186390   86.754100
  H     53.737900    2.465150   87.018900
  C     53.712600    3.613690   88.726200
  H     53.291300    2.908250   89.420300
  H     53.565500    4.618240   89.182600
  H     54.770800    3.501360   88.890900
  H     47.428400    7.203080   88.127500
  H     51.335300    2.247050   82.432800

 Total Charge           Charge          ....    0
 Multiplicity           Mult            ....    1
 Number of Electrons    NEL             ....  134
 Basis Dimension        Dim             ....  322

ORBITAL ENERGIES
----------------

  NO   OCC          E(Eh)            E(eV)
   0   2.0000     -88.966534     -2420.9025
   1   2.0000     -88.963094     -2420.8089
   2   2.0000     -10.334840      -281.2253
   3   2.0000     -10.325917      -280.9825
   4   2.0000     -10.322155      -280.8801
   5   2.0000     -10.315379      -280.6957
   6   2.0000     -10.303478      -280.3719
   7   2.0000     -10.302383      -280.3421
   8   2.0000     -10.296029      -280.1692
   9   2.0000     -10.295313      -280.1497
  10   2.0000     -10.295288      -280.1490
  11   2.0000     -10.290105      -280.0080
  12   2.0000     -10.282587      -279.8034
  13   2.0000     -10.278483      -279.6917
  14   2.0000     -10.272935      -279.5408
  15   2.0000     -10.272869      -279.5390
  16   2.0000      -8.079224      -219.8469
  17   2.0000      -8.078534      -219.8281
  18   2.0000      -6.037959      -164.3012
  19   2.0000      -6.036946      -164.2737
  20   2.0000      -6.034251      -164.2003
  21   2.0000      -6.032890      -164.1633
  22   2.0000      -6.029633      -164.0746
  23   2.0000      -6.029414      -164.0687
  24   2.0000      -1.006444       -27.3867
  25   2.0000      -0.979174       -26.6447
  26   2.0000      -0.913943       -24.8696
  27   2.0000      -0.912680       -24.8353
  28   2.0000      -0.874374       -23.7929
  29   2.0000      -0.857025       -23.3208
  30   2.0000      -0.841684       -22.9034
  31   2.0000      -0.812935       -22.1211
  32   2.0000      -0.788737       -21.4626
  33   2.0000      -0.774826       -21.0841
  34   2.0000      -0.711278       -19.3549
  35   2.0000      -0.705830       -19.2066
  36   2.0000      -0.692041       -18.8314
  37   2.0000      -0.668435       -18.1890
  38   2.0000      -0.625227       -17.0133
  39   2.0000      -0.616642       -16.7797
  40   2.0000      -0.599174       -16.3043
  41   2.0000      -0.581948       -15.8356
  42   2.0000      -0.567380       -15.4392
  43   2.0000      -0.560857       -15.2617
  44   2.0000      -0.530083       -14.4243
  45   2.0000      -0.524082       -14.2610
  46   2.0000      -0.518651       -14.1132
  47   2.0000      -0.512593       -13.9484
  48   2.0000      -0.509948       -13.8764
  49   2.0000      -0.504982       -13.7412
  50   2.0000      -0.484483       -13.1835
  51   2.0000      -0.481557       -13.1038
  52   2.0000      -0.474039       -12.8993
  53   2.0000      -0.470229       -12.7956
  54   2.0000      -0.455402       -12.3921
  55   2.0000      -0.448660       -12.2087
  56   2.0000      -0.448211       -12.1964
  57   2.0000      -0.434209       -11.8154
  58   2.0000      -0.428358       -11.6562
  59   2.0000      -0.425141       -11.5687
  60   2.0000      -0.418781       -11.3956
  61   2.0000      -0.415718       -11.3123
  62   2.0000      -0.409213       -11.1352
  63   2.0000      -0.356963        -9.7135
  64   2.0000      -0.332793        -9.0558
  65   2.0000      -0.329434        -8.9644
  66   2.0000      -0.285555        -7.7703
  67   0.0000       0.021435         0.5833
  68   0.0000       0.080567         2.1923
  69   0.0000       0.096055         2.6138
  70   0.0000       0.121930         3.3179
  71   0.0000       0.140355         3.8192

MULLIKEN ATOMIC CHARGES
-----------------------
   0 S :    0.082972
   1 C :   -0.140748
   2 C :   -0.096795
   3 C :   -0.037974
   4 C :   -0.117592
   5 H :    0.039656
   6 C :    0.104819
   7 H :    0.004301
   8 H :    0.035669
   9 C :   -0.070994
  10 H :    0.038034
  11 H :    0.034713
  12 C :   -0.015668
  13 H :    0.010900
  14 H :    0.018015
  15 H :    0.033475
  16 S :    0.085571
  17 C :   -0.113796
  18 C :    0.020528
  19 C :   -0.083983
  20 C :   -0.114808
  21 H :   -0.000534
  22 C :    0.082982
  23 H :    0.020416
  24 H :    0.016619
  25 C :   -0.026069
  26 H :    0.024990
  27 H :    0.017119
  28 C :   -0.057608
  29 H :    0.018936
  30 H :    0.032004
  31 H :    0.021356
  32 H :    0.057181
  33 H :    0.076313
Sum of atomic charges:   -0.0000000

LOEWDIN ATOMIC CHARGES
----------------------
   0 S :    0.363096
   1 C :   -0.182507
   2 C :   -0.056786
   3 C :   -0.086562
   4 C :   -0.172337
   5 H :    0.035510
   6 C :   -0.029768
   7 H :    0.030838
   8 H :    0.034743
   9 C :   -0.043306
  10 H :    0.034606
  11 H :    0.027572
  12 C :   -0.061674
  13 H :    0.012577
  14 H :    0.027263
  15 H :    0.032453
  16 S :    0.421609
  17 C :   -0.175678
  18 C :   -0.062554
  19 C :   -0.058236
  20 C :   -0.213950
  21 H :    0.023832
  22 C :   -0.024035
  23 H :    0.015848
  24 H :    0.024141
  25 C :   -0.035384
  26 H :    0.028100
  27 H :    0.016202
  28 C :   -0.068031
  29 H :    0.021323
  30 H :    0.029265
  31 H :    0.026845
  32 H :    0.028703
  33 H :    0.036283

  Mayer bond orders larger than 0.100000
B(  0-S ,  1-C ) :   1.0924 B(  0-S ,  4-C ) :   1.1357 B(  1-C ,  2-C ) :   1.6767
B(  1-C , 32-H ) :   0.9531 B(  2-C ,  3-C ) :   1.2235 B(  2-C ,  6-C ) :   0.9988
B(  3-C ,  4-C ) :   1.5975 B(  3-C ,  5-H ) :   0.9706 B(  4-C , 20-C ) :   1.0461
B(  6-C ,  7-H ) :   0.9379 B(  6-C ,  8-H ) :   0.9318 B(  6-C ,  9-C ) :   1.0522
B(  9-C , 10-H ) :   0.9521 B(  9-C , 11-H ) :   0.9519 B(  9-C , 12-C ) :   1.1017
B( 12-C , 13-H ) :   0.9722 B( 12-C , 14-H ) :   0.9671 B( 12-C , 15-H ) :   0.9720
B( 16-S , 17-C ) :   1.1539 B( 16-S , 20-C ) :   1.1657 B( 17-C , 18-C ) :   1.5687
B( 17-C , 33-H ) :   0.9688 B( 18-C , 19-C ) :   1.2719 B( 18-C , 21-H ) :   1.0015
B( 19-C , 20-C ) :   1.5498 B( 19-C , 22-C ) :   1.0216 B( 22-C , 23-H ) :   0.9399
B( 22-C , 24-H ) :   0.9324 B( 22-C , 25-C ) :   1.0719 B( 25-C , 26-H ) :   0.9530
B( 25-C , 27-H ) :   0.9464 B( 25-C , 28-C ) :   1.1067 B( 28-C , 29-H ) :   0.9703
B( 28-C , 30-H ) :   0.9712 B( 28-C , 31-H ) :   0.9694

Dispersion correction           -0.013319662
FINAL SINGLE POINT ENERGY     -1339.858311219394

DIPOLE MOMENT
-------------
                                X             Y             Z
Electronic contribution:     -9.06647     -14.97720      -6.88442
Nuclear contribution   :      9.50452      15.37445       6.88845
                        -----------------------------------------
Total Dipole Moment    :      0.43804       0.39725       0.00403
                        -----------------------------------------
Magnitude (a.u.)       :      0.59136
Magnitude (Debye)      :      1.50312

Rotational constants in cm-1:     0.018915     0.007457     0.006374
Rotational constants in MHz :   567.067878   223.550694   191.073206

                             ****ORCA TERMINATED NORMALLY****
TOTAL RUN TIME: 0 days 0 hours 0 minutes 28 seconds 776 msec
