                         Program Version 4.2.1 -  RELEASE  -
|  1> ! wB97X-D3 SP def2-SVP
|  2> %pal
|  3> nprocs 16
|  4> end
|  5>
|  6> * xyz 0 1
|  7> S 	 56.5967 	 5.931 	 60.5643
|  8> C 	 57.287 	 6.4335 	 62.0604
|  9> C 	 56.6107 	 7.5103 	 62.6616
| 10> C 	 55.5718 	 7.88057 	 61.7947
| 11> C 	 55.324 	 7.1556 	 60.6356
| 12> H 	 54.912 	 8.70817 	 61.8937
| 13> C 	 56.9766 	 8.2218 	 63.9517
| 14> H 	 57.7536 	 8.8844 	 63.6094
| 15> H 	 57.4498 	 7.6046 	 64.6831
| 16> C 	 55.8921 	 9.16317 	 64.519
| 17> H 	 55.5743 	 9.76797 	 63.7289
| 18> H 	 55.1803 	 8.37369 	 64.8205
| 19> C 	 56.394 	 9.95276 	 65.7279
| 20> H 	 57.0309 	 9.25913 	 66.3539
| 21> H 	 57.0023 	 10.8264 	 65.4436
| 22> H 	 55.4944 	 10.3457 	 66.2106
| 23> S 	 52.8207 	 8.24626 	 60.2381
| 24> C 	 52.4188 	 8.61931 	 58.5663
| 25> C 	 53.1641 	 7.91202 	 57.6454
| 26> C 	 54.1989 	 7.24599 	 58.2925
| 27> C 	 54.254 	 7.42654 	 59.6991
| 28> H 	 52.9183 	 8.0087 	 56.5628
| 29> C 	 55.2433 	 6.50172 	 57.4584
| 30> H 	 56.262 	 6.53743 	 57.9668
| 31> H 	 55.2878 	 7.16427 	 56.5686
| 32> C 	 54.962 	 5.08359 	 57.0526
| 33> H 	 54.7033 	 4.51268 	 57.9366
| 34> H 	 55.753 	 4.63967 	 56.5218
| 35> C 	 53.8075 	 4.95906 	 56.1271
| 36> H 	 52.8371 	 5.41047 	 56.4533
| 37> H 	 53.5434 	 3.86109 	 55.9148
| 38> H 	 54.1719 	 5.35135 	 55.1504
| 39> H 	 58.0084 	 5.88975 	 62.664
| 40> H 	 51.4791 	 9.20899 	 58.2244
| 41> *
| 42>
| 43>                          ****END OF INPUT****

CARTESIAN COORDINATES (ANGSTROEM)
---------------------------------
  S     56.596700    5.931000   60.564300
  C     57.287000    6.433500   62.060400
  C     56.610700    7.510300   62.661600
  C     55.571800    7.880570   61.794700
  C     55.324000    7.155600   60.635600
  H     54.912000    8.708170   61.893700
  C     56.976600    8.221800   63.951700
  H     57.753600    8.884400   63.609400
  H     57.449800    7.604600   64.683100
  C     55.892100    9.163170   64.519000
  H     55.574300    9.767970   63.728900
  H     55.180300    8.373690   64.820500
  C     56.394000    9.952760   65.727900
  H     57.030900    9.259130   66.353900
  H     57.002300   10.826400   65.443600
  H     55.494400   10.345700   66.210600
  S     52.820700    8.246260   60.238100
  C     52.418800    8.619310   58.566300
  C     53.164100    7.912020   57.645400
  C     54.198900    7.245990   58.292500
  C     54.254000    7.426540   59.699100
  H     52.918300    8.008700   56.562800
  C     55.243300    6.501720   57.458400
  H     56.262000    6.537430   57.966800
  H     55.287800    7.164270   56.568600
  C     54.962000    5.083590   57.052600
  H     54.703300    4.512680   57.936600
  H     55.753000    4.639670   56.521800
  C     53.807500    4.959060   56.127100
  H     52.837100    5.410470   56.453300
  H     53.543400    3.861090   55.914800
  H     54.171900    5.351350   55.150400
  H     58.008400    5.889750   62.664000
  H     51.479100    9.208990   58.224400

 Total Charge           Charge          ....    0
 Multiplicity           Mult            ....    1
 Number of Electrons    NEL             ....  134
 Basis Dimension        Dim             ....  322

ORBITAL ENERGIES
----------------

  NO   OCC          E(Eh)            E(eV)
   0   2.0000     -88.972355     -2421.0609
   1   2.0000     -88.970255     -2421.0037
   2   2.0000     -10.330785      -281.1150
   3   2.0000     -10.330361      -281.1034
   4   2.0000     -10.324270      -280.9377
   5   2.0000     -10.311993      -280.6036
   6   2.0000     -10.302914      -280.3565
   7   2.0000     -10.302276      -280.3392
   8   2.0000     -10.296427      -280.1800
   9   2.0000     -10.291480      -280.0454
  10   2.0000     -10.289236      -279.9843
  11   2.0000     -10.286874      -279.9201
  12   2.0000     -10.285868      -279.8927
  13   2.0000     -10.284360      -279.8517
  14   2.0000     -10.280159      -279.7373
  15   2.0000     -10.274089      -279.5722
  16   2.0000      -8.086681      -220.0498
  17   2.0000      -8.084042      -219.9780
  18   2.0000      -6.045145      -164.4968
  19   2.0000      -6.042611      -164.4278
  20   2.0000      -6.041365      -164.3939
  21   2.0000      -6.038466      -164.3150
  22   2.0000      -6.037393      -164.2858
  23   2.0000      -6.035024      -164.2213
  24   2.0000      -1.009380       -27.4666
  25   2.0000      -0.987826       -26.8801
  26   2.0000      -0.916305       -24.9339
  27   2.0000      -0.915899       -24.9229
  28   2.0000      -0.874871       -23.8064
  29   2.0000      -0.855616       -23.2825
  30   2.0000      -0.845560       -23.0089
  31   2.0000      -0.813367       -22.1329
  32   2.0000      -0.781782       -21.2734
  33   2.0000      -0.767640       -20.8886
  34   2.0000      -0.712761       -19.3952
  35   2.0000      -0.694243       -18.8913
  36   2.0000      -0.682241       -18.5647
  37   2.0000      -0.666810       -18.1448
  38   2.0000      -0.629221       -17.1220
  39   2.0000      -0.620899       -16.8955
  40   2.0000      -0.592124       -16.1125
  41   2.0000      -0.580641       -15.8000
  42   2.0000      -0.570470       -15.5233
  43   2.0000      -0.558053       -15.1854
  44   2.0000      -0.544939       -14.8285
  45   2.0000      -0.525956       -14.3120
  46   2.0000      -0.520587       -14.1659
  47   2.0000      -0.508957       -13.8494
  48   2.0000      -0.496577       -13.5126
  49   2.0000      -0.492962       -13.4142
  50   2.0000      -0.488367       -13.2892
  51   2.0000      -0.484394       -13.1810
  52   2.0000      -0.477302       -12.9880
  53   2.0000      -0.465030       -12.6541
  54   2.0000      -0.459086       -12.4924
  55   2.0000      -0.451064       -12.2741
  56   2.0000      -0.443425       -12.0662
  57   2.0000      -0.436829       -11.8867
  58   2.0000      -0.429717       -11.6932
  59   2.0000      -0.420303       -11.4370
  60   2.0000      -0.417008       -11.3474
  61   2.0000      -0.413132       -11.2419
  62   2.0000      -0.409065       -11.1312
  63   2.0000      -0.358705        -9.7608
  64   2.0000      -0.337577        -9.1859
  65   2.0000      -0.328702        -8.9444
  66   2.0000      -0.275926        -7.5083
  67   0.0000       0.016736         0.4554
  68   0.0000       0.079668         2.1679
  69   0.0000       0.107782         2.9329
  70   0.0000       0.117048         3.1850
  71   0.0000       0.135627         3.6906

MULLIKEN ATOMIC CHARGES
-----------------------
   0 S :    0.118456
   1 C :   -0.121130
   2 C :   -0.067149
   3 C :   -0.042191
   4 C :   -0.109657
   5 H :   -0.007896
   6 C :    0.061564
   7 H :    0.030827
   8 H :    0.017633
   9 C :   -0.096432
  10 H :    0.037766
  11 H :    0.042434
  12 C :   -0.039343
  13 H :    0.040115
  14 H :    0.037736
  15 H :    0.043622
  16 S :    0.119263
  17 C :   -0.138715
  18 C :   -0.043992
  19 C :   -0.061359
  20 C :   -0.129076
  21 H :    0.045562
  22 C :    0.011607
  23 H :    0.039154
  24 H :    0.020476
  25 C :    0.027173
  26 H :    0.022901
  27 H :    0.022740
  28 C :   -0.121066
  29 H :    0.049100
  30 H :    0.038121
  31 H :    0.024041
  32 H :    0.045780
  33 H :    0.081938
Sum of atomic charges:   -0.0000000

LOEWDIN ATOMIC CHARGES
----------------------
   0 S :    0.425603
   1 C :   -0.213407
   2 C :   -0.059316
   3 C :   -0.075427
   4 C :   -0.188682
   5 H :    0.011949
   6 C :   -0.031781
   7 H :    0.034396
   8 H :    0.023794
   9 C :   -0.037417
  10 H :    0.017701
  11 H :    0.031473
  12 C :   -0.064914
  13 H :    0.032508
  14 H :    0.027430
  15 H :    0.031003
  16 S :    0.420899
  17 C :   -0.197810
  18 C :   -0.079363
  19 C :   -0.059824
  20 C :   -0.197811
  21 H :    0.046202
  22 C :   -0.041478
  23 H :    0.026568
  24 H :    0.030311
  25 C :   -0.042352
  26 H :    0.024573
  27 H :    0.024020
  28 C :   -0.075600
  29 H :    0.026391
  30 H :    0.031886
  31 H :    0.023065
  32 H :    0.029165
  33 H :    0.046245

  Mayer bond orders larger than 0.100000
B(  0-S ,  1-C ) :   1.1640 B(  0-S ,  4-C ) :   1.1312 B(  1-C ,  2-C ) :   1.5724
B(  1-C ,  4-C ) :   0.1006 B(  1-C , 32-H ) :   0.9624 B(  2-C ,  3-C ) :   1.2801
B(  2-C ,  6-C ) :   1.0081 B(  3-C ,  4-C ) :   1.5396 B(  3-C ,  5-H ) :   0.9845
B(  4-C , 20-C ) :   1.0965 B(  6-C ,  7-H ) :   0.9284 B(  6-C ,  8-H ) :   0.9416
B(  6-C ,  9-C ) :   1.0682 B(  9-C , 10-H ) :   0.9435 B(  9-C , 11-H ) :   0.9650
B(  9-C , 12-C ) :   1.0863 B( 12-C , 13-H ) :   0.9731 B( 12-C , 14-H ) :   0.9738
B( 12-C , 15-H ) :   0.9718 B( 16-S , 17-C ) :   1.1598 B( 16-S , 20-C ) :   1.1426
B( 17-C , 18-C ) :   1.5920 B( 17-C , 33-H ) :   0.9512 B( 18-C , 19-C ) :   1.2808
B( 18-C , 21-H ) :   0.9825 B( 19-C , 20-C ) :   1.5272 B( 19-C , 22-C ) :   1.0264
B( 22-C , 23-H ) :   0.9287 B( 22-C , 24-H ) :   0.9359 B( 22-C , 25-C ) :   1.0787
B( 25-C , 26-H ) :   0.9457 B( 25-C , 27-H ) :   0.9501 B( 25-C , 28-C ) :   1.0865
B( 28-C , 29-H ) :   0.9702 B( 28-C , 30-H ) :   0.9715 B( 28-C , 31-H ) :   0.9743

Dispersion correction           -0.013911182
FINAL SINGLE POINT ENERGY     -1339.861250948815

DIPOLE MOMENT
-------------
                                X             Y             Z
Electronic contribution:     -4.17486      -1.76341      -2.52273
Nuclear contribution   :      4.24032       1.98856       2.56944
                        -----------------------------------------
Total Dipole Moment    :      0.06546       0.22515       0.04671
                        -----------------------------------------
Magnitude (a.u.)       :      0.23908
Magnitude (Debye)      :      0.60769

Rotational constants in cm-1:     0.025127     0.007579     0.006003
Rotational constants in MHz :   753.280971   227.224249   179.975876

                             ****ORCA TERMINATED NORMALLY****
TOTAL RUN TIME: 0 days 0 hours 0 minutes 32 seconds 576 msec
