                         Program Version 4.2.1 -  RELEASE  -
|  1> ! wB97X-D3 SP def2-SVP
|  2> %pal
|  3> nprocs 16
|  4> end
|  5>
|  6> * xyz 0 1
|  7> S 	 -39.7045 	 36.0927 	 84.5262
|  8> C 	 -41.2126 	 36.2441 	 83.7307
|  9> C 	 -42.1418 	 35.4229 	 84.435
| 10> C 	 -41.5329 	 34.6317 	 85.4069
| 11> C 	 -40.1591 	 34.7211 	 85.4367
| 12> H 	 -42.0734 	 34.064 	 86.1561
| 13> C 	 -43.6439 	 35.6796 	 84.3459
| 14> H 	 -43.789 	 36.7557 	 84.1638
| 15> H 	 -44.0692 	 35.5961 	 85.3407
| 16> C 	 -44.3082 	 34.8472 	 83.3464
| 17> H 	 -45.3103 	 35.261 	 83.1409
| 18> H 	 -43.7625 	 35.0993 	 82.4622
| 19> C 	 -44.2881 	 33.3224 	 83.7697
| 20> H 	 -45.1027 	 32.7616 	 83.2745
| 21> H 	 -43.3204 	 32.9349 	 83.4177
| 22> H 	 -44.2266 	 33.1593 	 84.8171
| 23> S 	 -38.3455 	 34.9963 	 87.3867
| 24> C 	 -37.6173 	 33.6488 	 88.1921
| 25> C 	 -38.1069 	 32.4257 	 87.7617
| 26> C 	 -39.121 	 32.6277 	 86.6708
| 27> C 	 -39.2418 	 33.9588 	 86.3192
| 28> H 	 -37.6733 	 31.4639 	 88.0479
| 29> C 	 -39.6982 	 31.481 	 85.9808
| 30> H 	 -38.9005 	 31.1214 	 85.3088
| 31> H 	 -40.4667 	 31.9125 	 85.3854
| 32> C 	 -40.3498 	 30.3591 	 86.7928
| 33> H 	 -41.0357 	 30.782 	 87.4639
| 34> H 	 -39.6791 	 30.1142 	 87.5814
| 35> C 	 -40.8694 	 29.1057 	 86.057
| 36> H 	 -40.1538 	 28.5556 	 85.4413
| 37> H 	 -41.7182 	 29.3243 	 85.42
| 38> H 	 -41.3688 	 28.5599 	 86.8752
| 39> H 	 -41.4656 	 37.096 	 83.1477
| 40> H 	 -36.8167 	 33.8306 	 88.9199
| 41> *
| 42>
| 43>                          ****END OF INPUT****

CARTESIAN COORDINATES (ANGSTROEM)
---------------------------------
  S    -39.704500   36.092700   84.526200
  C    -41.212600   36.244100   83.730700
  C    -42.141800   35.422900   84.435000
  C    -41.532900   34.631700   85.406900
  C    -40.159100   34.721100   85.436700
  H    -42.073400   34.064000   86.156100
  C    -43.643900   35.679600   84.345900
  H    -43.789000   36.755700   84.163800
  H    -44.069200   35.596100   85.340700
  C    -44.308200   34.847200   83.346400
  H    -45.310300   35.261000   83.140900
  H    -43.762500   35.099300   82.462200
  C    -44.288100   33.322400   83.769700
  H    -45.102700   32.761600   83.274500
  H    -43.320400   32.934900   83.417700
  H    -44.226600   33.159300   84.817100
  S    -38.345500   34.996300   87.386700
  C    -37.617300   33.648800   88.192100
  C    -38.106900   32.425700   87.761700
  C    -39.121000   32.627700   86.670800
  C    -39.241800   33.958800   86.319200
  H    -37.673300   31.463900   88.047900
  C    -39.698200   31.481000   85.980800
  H    -38.900500   31.121400   85.308800
  H    -40.466700   31.912500   85.385400
  C    -40.349800   30.359100   86.792800
  H    -41.035700   30.782000   87.463900
  H    -39.679100   30.114200   87.581400
  C    -40.869400   29.105700   86.057000
  H    -40.153800   28.555600   85.441300
  H    -41.718200   29.324300   85.420000
  H    -41.368800   28.559900   86.875200
  H    -41.465600   37.096000   83.147700
  H    -36.816700   33.830600   88.919900

 Total Charge           Charge          ....    0
 Multiplicity           Mult            ....    1
 Number of Electrons    NEL             ....  134
 Basis Dimension        Dim             ....  322

ORBITAL ENERGIES
----------------

  NO   OCC          E(Eh)            E(eV)
   0   2.0000     -88.967379     -2420.9255
   1   2.0000     -88.961037     -2420.7529
   2   2.0000     -10.327431      -281.0237
   3   2.0000     -10.327061      -281.0136
   4   2.0000     -10.320283      -280.8292
   5   2.0000     -10.312736      -280.6238
   6   2.0000     -10.307485      -280.4809
   7   2.0000     -10.301737      -280.3245
   8   2.0000     -10.299634      -280.2673
   9   2.0000     -10.289759      -279.9986
  10   2.0000     -10.284623      -279.8588
  11   2.0000     -10.283960      -279.8408
  12   2.0000     -10.281996      -279.7873
  13   2.0000     -10.281143      -279.7641
  14   2.0000     -10.280871      -279.7567
  15   2.0000     -10.279669      -279.7240
  16   2.0000      -8.083218      -219.9555
  17   2.0000      -8.076922      -219.7842
  18   2.0000      -6.041489      -164.3973
  19   2.0000      -6.037521      -164.2893
  20   2.0000      -6.035465      -164.2334
  21   2.0000      -6.034202      -164.1990
  22   2.0000      -6.031249      -164.1186
  23   2.0000      -6.027598      -164.0193
  24   2.0000      -1.014285       -27.6001
  25   2.0000      -0.988248       -26.8916
  26   2.0000      -0.919282       -25.0149
  27   2.0000      -0.913825       -24.8664
  28   2.0000      -0.867729       -23.6121
  29   2.0000      -0.853372       -23.2214
  30   2.0000      -0.844646       -22.9840
  31   2.0000      -0.814965       -22.1763
  32   2.0000      -0.784291       -21.3416
  33   2.0000      -0.774096       -21.0642
  34   2.0000      -0.716456       -19.4958
  35   2.0000      -0.703765       -19.1504
  36   2.0000      -0.692366       -18.8402
  37   2.0000      -0.661487       -18.0000
  38   2.0000      -0.644799       -17.5459
  39   2.0000      -0.618410       -16.8278
  40   2.0000      -0.597430       -16.2569
  41   2.0000      -0.574013       -15.6197
  42   2.0000      -0.562658       -15.3107
  43   2.0000      -0.551111       -14.9965
  44   2.0000      -0.540490       -14.7075
  45   2.0000      -0.531133       -14.4529
  46   2.0000      -0.514902       -14.0112
  47   2.0000      -0.509983       -13.8773
  48   2.0000      -0.507427       -13.8078
  49   2.0000      -0.502073       -13.6621
  50   2.0000      -0.498549       -13.5662
  51   2.0000      -0.478685       -13.0257
  52   2.0000      -0.475561       -12.9407
  53   2.0000      -0.469355       -12.7718
  54   2.0000      -0.459448       -12.5022
  55   2.0000      -0.453448       -12.3389
  56   2.0000      -0.441999       -12.0274
  57   2.0000      -0.439196       -11.9511
  58   2.0000      -0.438051       -11.9200
  59   2.0000      -0.423574       -11.5260
  60   2.0000      -0.417174       -11.3519
  61   2.0000      -0.408451       -11.1145
  62   2.0000      -0.405987       -11.0475
  63   2.0000      -0.346855        -9.4384
  64   2.0000      -0.330439        -8.9917
  65   2.0000      -0.323318        -8.7979
  66   2.0000      -0.294106        -8.0030
  67   0.0000       0.028919         0.7869
  68   0.0000       0.068766         1.8712
  69   0.0000       0.105306         2.8655
  70   0.0000       0.117392         3.1944
  71   0.0000       0.128763         3.5038

MULLIKEN ATOMIC CHARGES
-----------------------
   0 S :    0.121986
   1 C :   -0.095169
   2 C :   -0.130605
   3 C :    0.038020
   4 C :   -0.167177
   5 H :    0.016237
   6 C :    0.027480
   7 H :    0.020382
   8 H :    0.020415
   9 C :   -0.023227
  10 H :    0.024347
  11 H :    0.014317
  12 C :   -0.049808
  13 H :    0.048520
  14 H :    0.039176
  15 H :    0.023904
  16 S :    0.088889
  17 C :   -0.095061
  18 C :   -0.029495
  19 C :   -0.092387
  20 C :   -0.117094
  21 H :    0.036445
  22 C :    0.092785
  23 H :    0.044384
  24 H :    0.005341
  25 C :   -0.064875
  26 H :   -0.001569
  27 H :   -0.000946
  28 C :   -0.020268
  29 H :    0.046385
  30 H :    0.025319
  31 H :    0.035737
  32 H :    0.049433
  33 H :    0.068180
Sum of atomic charges:   -0.0000000

LOEWDIN ATOMIC CHARGES
----------------------
   0 S :    0.452218
   1 C :   -0.212167
   2 C :   -0.061208
   3 C :   -0.070266
   4 C :   -0.216065
   5 H :    0.031556
   6 C :   -0.035225
   7 H :    0.030053
   8 H :    0.025052
   9 C :   -0.041067
  10 H :    0.022745
  11 H :    0.022014
  12 C :   -0.062927
  13 H :    0.031386
  14 H :    0.032276
  15 H :    0.017561
  16 S :    0.407239
  17 C :   -0.185163
  18 C :   -0.074372
  19 C :   -0.051318
  20 C :   -0.200322
  21 H :    0.034515
  22 C :   -0.039155
  23 H :    0.040555
  24 H :    0.025191
  25 C :   -0.044669
  26 H :    0.021774
  27 H :    0.017778
  28 C :   -0.061629
  29 H :    0.028920
  30 H :    0.024523
  31 H :    0.036711
  32 H :    0.022581
  33 H :    0.030906

  Mayer bond orders larger than 0.100000
B(  0-S ,  1-C ) :   1.1817 B(  0-S ,  4-C ) :   1.2020 B(  1-C ,  2-C ) :   1.5208
B(  1-C ,  4-C ) :   0.1193 B(  1-C , 32-H ) :   0.9734 B(  2-C ,  3-C ) :   1.3324
B(  2-C ,  6-C ) :   1.0048 B(  3-C ,  4-C ) :   1.4880 B(  3-C ,  5-H ) :   0.9972
B(  4-C , 20-C ) :   0.9969 B(  6-C ,  7-H ) :   0.9444 B(  6-C ,  8-H ) :   0.9487
B(  6-C ,  9-C ) :   1.0794 B(  9-C , 10-H ) :   0.9558 B(  9-C , 11-H ) :   0.9552
B(  9-C , 12-C ) :   1.0509 B( 12-C , 13-H ) :   0.9776 B( 12-C , 14-H ) :   0.9716
B( 12-C , 15-H ) :   0.9801 B( 16-S , 17-C ) :   1.1602 B( 16-S , 20-C ) :   1.1340
B( 17-C , 18-C ) :   1.6269 B( 17-C , 33-H ) :   0.9656 B( 18-C , 19-C ) :   1.1794
B( 18-C , 21-H ) :   0.9866 B( 19-C , 20-C ) :   1.6436 B( 19-C , 22-C ) :   1.0727
B( 22-C , 23-H ) :   0.9286 B( 22-C , 24-H ) :   0.9244 B( 22-C , 25-C ) :   1.0563
B( 25-C , 26-H ) :   0.9431 B( 25-C , 27-H ) :   0.9493 B( 25-C , 28-C ) :   1.0802
B( 28-C , 29-H ) :   0.9759 B( 28-C , 30-H ) :   0.9740 B( 28-C , 31-H ) :   0.9701

Dispersion correction           -0.014194358
FINAL SINGLE POINT ENERGY     -1339.855610310250

DIPOLE MOMENT
-------------
                                X             Y             Z
Electronic contribution:     20.86475      20.90992       5.44238
Nuclear contribution   :    -21.26134     -21.22037      -5.29290
                        -----------------------------------------
Total Dipole Moment    :     -0.39659      -0.31046       0.14948
                        -----------------------------------------
Magnitude (a.u.)       :      0.52537
Magnitude (Debye)      :      1.33539

Rotational constants in cm-1:     0.016254     0.009965     0.006600
Rotational constants in MHz :   487.292994   298.751521   197.865946

                             ****ORCA TERMINATED NORMALLY****
TOTAL RUN TIME: 0 days 0 hours 0 minutes 30 seconds 114 msec
