                         Program Version 4.2.1 -  RELEASE  -
|  1> ! wB97X-D3 SP def2-SVP
|  2> %pal
|  3> nprocs 16
|  4> end
|  5>
|  6> * xyz 0 1
|  7> S 	 -32.1821 	 66.3254 	 118.623
|  8> C 	 -33.4466 	 65.3098 	 119.383
|  9> C 	 -33.0152 	 64.0411 	 119.497
| 10> C 	 -31.6044 	 63.888 	 119.225
| 11> C 	 -30.9888 	 64.9995 	 118.634
| 12> H 	 -31.0433 	 62.9515 	 119.364
| 13> C 	 -33.8429 	 62.9558 	 120.154
| 14> H 	 -34.0918 	 62.2348 	 119.467
| 15> H 	 -34.7236 	 63.4428 	 120.516
| 16> C 	 -33.1946 	 62.2868 	 121.417
| 17> H 	 -33.7553 	 61.3792 	 121.704
| 18> H 	 -32.1132 	 61.9685 	 121.283
| 19> C 	 -33.1168 	 63.1737 	 122.722
| 20> H 	 -33.9446 	 63.4701 	 123.315
| 21> H 	 -32.4892 	 62.858 	 123.519
| 22> H 	 -32.6064 	 64.1112 	 122.48
| 23> S 	 -28.8337 	 66.6419 	 118.461
| 24> C 	 -27.1975 	 66.0291 	 118.283
| 25> C 	 -27.2189 	 64.7823 	 117.853
| 26> C 	 -28.6069 	 64.2151 	 117.876
| 27> C 	 -29.5587 	 65.1078 	 118.286
| 28> H 	 -26.2329 	 64.3588 	 117.738
| 29> C 	 -28.9116 	 62.8346 	 117.381
| 30> H 	 -28.6131 	 62.613 	 116.3
| 31> H 	 -29.9988 	 62.7761 	 117.304
| 32> C 	 -28.3505 	 61.7303 	 118.301
| 33> H 	 -28.4409 	 62.1302 	 119.331
| 34> H 	 -27.2057 	 61.7543 	 118.171
| 35> C 	 -29.0227 	 60.3759 	 118.211
| 36> H 	 -29.0369 	 60.0374 	 117.188
| 37> H 	 -30.115 	 60.4177 	 118.642
| 38> H 	 -28.4251 	 59.6664 	 118.749
| 39> H 	 -34.4337 	 65.5711 	 119.456
| 40> H 	 -26.2663 	 66.5916 	 118.261
| 41> *
| 42>
| 43>                          ****END OF INPUT****

CARTESIAN COORDINATES (ANGSTROEM)
---------------------------------
  S    -32.182100   66.325400  118.623000
  C    -33.446600   65.309800  119.383000
  C    -33.015200   64.041100  119.497000
  C    -31.604400   63.888000  119.225000
  C    -30.988800   64.999500  118.634000
  H    -31.043300   62.951500  119.364000
  C    -33.842900   62.955800  120.154000
  H    -34.091800   62.234800  119.467000
  H    -34.723600   63.442800  120.516000
  C    -33.194600   62.286800  121.417000
  H    -33.755300   61.379200  121.704000
  H    -32.113200   61.968500  121.283000
  C    -33.116800   63.173700  122.722000
  H    -33.944600   63.470100  123.315000
  H    -32.489200   62.858000  123.519000
  H    -32.606400   64.111200  122.480000
  S    -28.833700   66.641900  118.461000
  C    -27.197500   66.029100  118.283000
  C    -27.218900   64.782300  117.853000
  C    -28.606900   64.215100  117.876000
  C    -29.558700   65.107800  118.286000
  H    -26.232900   64.358800  117.738000
  C    -28.911600   62.834600  117.381000
  H    -28.613100   62.613000  116.300000
  H    -29.998800   62.776100  117.304000
  C    -28.350500   61.730300  118.301000
  H    -28.440900   62.130200  119.331000
  H    -27.205700   61.754300  118.171000
  C    -29.022700   60.375900  118.211000
  H    -29.036900   60.037400  117.188000
  H    -30.115000   60.417700  118.642000
  H    -28.425100   59.666400  118.749000
  H    -34.433700   65.571100  119.456000
  H    -26.266300   66.591600  118.261000

 Total Charge           Charge          ....    0
 Multiplicity           Mult            ....    1
 Number of Electrons    NEL             ....  134
 Basis Dimension        Dim             ....  322

ORBITAL ENERGIES
----------------

  NO   OCC          E(Eh)            E(eV)
   0   2.0000     -88.967588     -2420.9311
   1   2.0000     -88.957913     -2420.6679
   2   2.0000     -10.342589      -281.4362
   3   2.0000     -10.329918      -281.0914
   4   2.0000     -10.312824      -280.6262
   5   2.0000     -10.311566      -280.5920
   6   2.0000     -10.309025      -280.5228
   7   2.0000     -10.303154      -280.3631
   8   2.0000     -10.301270      -280.3118
   9   2.0000     -10.300757      -280.2978
  10   2.0000     -10.293816      -280.1090
  11   2.0000     -10.292646      -280.0771
  12   2.0000     -10.291801      -280.0542
  13   2.0000     -10.291266      -280.0396
  14   2.0000     -10.286878      -279.9202
  15   2.0000     -10.270344      -279.4703
  16   2.0000      -8.081100      -219.8979
  17   2.0000      -8.074195      -219.7100
  18   2.0000      -6.039953      -164.3555
  19   2.0000      -6.035761      -164.2414
  20   2.0000      -6.032947      -164.1648
  21   2.0000      -6.031575      -164.1275
  22   2.0000      -6.028585      -164.0462
  23   2.0000      -6.024469      -163.9341
  24   2.0000      -1.011139       -27.5145
  25   2.0000      -0.986420       -26.8419
  26   2.0000      -0.908918       -24.7329
  27   2.0000      -0.907952       -24.7066
  28   2.0000      -0.876483       -23.8503
  29   2.0000      -0.847497       -23.0616
  30   2.0000      -0.839078       -22.8325
  31   2.0000      -0.827227       -22.5100
  32   2.0000      -0.787953       -21.4413
  33   2.0000      -0.771906       -21.0046
  34   2.0000      -0.716871       -19.5071
  35   2.0000      -0.701483       -19.0883
  36   2.0000      -0.693502       -18.8712
  37   2.0000      -0.658204       -17.9106
  38   2.0000      -0.639993       -17.4151
  39   2.0000      -0.625042       -17.0083
  40   2.0000      -0.594914       -16.1884
  41   2.0000      -0.575480       -15.6596
  42   2.0000      -0.560851       -15.2615
  43   2.0000      -0.554967       -15.1014
  44   2.0000      -0.531603       -14.4657
  45   2.0000      -0.527155       -14.3446
  46   2.0000      -0.522067       -14.2062
  47   2.0000      -0.518051       -14.0969
  48   2.0000      -0.505049       -13.7431
  49   2.0000      -0.500519       -13.6198
  50   2.0000      -0.490291       -13.3415
  51   2.0000      -0.480071       -13.0634
  52   2.0000      -0.471957       -12.8426
  53   2.0000      -0.469913       -12.7870
  54   2.0000      -0.457436       -12.4475
  55   2.0000      -0.450829       -12.2677
  56   2.0000      -0.441313       -12.0087
  57   2.0000      -0.435468       -11.8497
  58   2.0000      -0.431992       -11.7551
  59   2.0000      -0.420968       -11.4551
  60   2.0000      -0.418767       -11.3952
  61   2.0000      -0.411247       -11.1906
  62   2.0000      -0.405538       -11.0352
  63   2.0000      -0.368016       -10.0142
  64   2.0000      -0.332219        -9.0401
  65   2.0000      -0.323202        -8.7948
  66   2.0000      -0.295621        -8.0443
  67   0.0000       0.023575         0.6415
  68   0.0000       0.085046         2.3142
  69   0.0000       0.102679         2.7940
  70   0.0000       0.114467         3.1148
  71   0.0000       0.125671         3.4197

MULLIKEN ATOMIC CHARGES
-----------------------
   0 S :    0.091887
   1 C :   -0.083877
   2 C :   -0.096441
   3 C :   -0.004995
   4 C :   -0.103133
   5 H :    0.014856
   6 C :    0.147964
   7 H :    0.021763
   8 H :    0.012531
   9 C :   -0.103858
  10 H :    0.039657
  11 H :    0.043592
  12 C :   -0.061874
  13 H :    0.019029
  14 H :    0.015466
  15 H :    0.027766
  16 S :    0.077971
  17 C :   -0.083416
  18 C :   -0.017821
  19 C :   -0.079349
  20 C :   -0.103534
  21 H :    0.024130
  22 C :    0.035015
  23 H :    0.043720
  24 H :    0.013443
  25 C :   -0.133694
  26 H :    0.034095
  27 H :    0.038260
  28 C :   -0.026060
  29 H :    0.029979
  30 H :    0.050660
  31 H :    0.033712
  32 H :    0.023897
  33 H :    0.058656
Sum of atomic charges:   -0.0000000

LOEWDIN ATOMIC CHARGES
----------------------
   0 S :    0.370003
   1 C :   -0.164572
   2 C :   -0.061609
   3 C :   -0.065136
   4 C :   -0.172814
   5 H :    0.030842
   6 C :   -0.015752
   7 H :    0.022722
   8 H :    0.030621
   9 C :   -0.036657
  10 H :    0.026935
  11 H :    0.031439
  12 C :   -0.083377
  13 H :    0.018760
  14 H :    0.024734
  15 H :    0.029397
  16 S :    0.400204
  17 C :   -0.176090
  18 C :   -0.072887
  19 C :   -0.055592
  20 C :   -0.200682
  21 H :    0.035779
  22 C :   -0.045982
  23 H :    0.037816
  24 H :    0.024228
  25 C :   -0.056979
  26 H :    0.023122
  27 H :    0.029856
  28 C :   -0.066800
  29 H :    0.022968
  30 H :    0.038625
  31 H :    0.025808
  32 H :    0.014262
  33 H :    0.036807

  Mayer bond orders larger than 0.100000
B(  0-S ,  1-C ) :   1.1111 B(  0-S ,  4-C ) :   1.1339 B(  1-C ,  2-C ) :   1.6523
B(  1-C , 32-H ) :   0.9700 B(  2-C ,  3-C ) :   1.2124 B(  2-C ,  6-C ) :   1.0272
B(  3-C ,  4-C ) :   1.5899 B(  3-C ,  5-H ) :   0.9815 B(  4-C , 20-C ) :   1.0514
B(  6-C ,  7-H ) :   0.9284 B(  6-C ,  8-H ) :   0.9446 B(  6-C ,  9-C ) :   1.0616
B(  9-C , 10-H ) :   0.9598 B(  9-C , 11-H ) :   0.9583 B(  9-C , 12-C ) :   1.0567
B( 12-C , 13-H ) :   0.9781 B( 12-C , 14-H ) :   0.9742 B( 12-C , 15-H ) :   0.9752
B( 16-S , 17-C ) :   1.1271 B( 16-S , 20-C ) :   1.1165 B( 17-C , 18-C ) :   1.7013
B( 17-C , 33-H ) :   0.9600 B( 18-C , 19-C ) :   1.1556 B( 18-C , 21-H ) :   0.9908
B( 19-C , 20-C ) :   1.6437 B( 19-C , 22-C ) :   1.0594 B( 22-C , 23-H ) :   0.9334
B( 22-C , 24-H ) :   0.9408 B( 22-C , 25-C ) :   1.0340 B( 25-C , 26-H ) :   0.9584
B( 25-C , 27-H ) :   0.9522 B( 25-C , 28-C ) :   1.0847 B( 28-C , 29-H ) :   0.9716
B( 28-C , 30-H ) :   0.9697 B( 28-C , 31-H ) :   0.9709

Dispersion correction           -0.014600489
FINAL SINGLE POINT ENERGY     -1339.851879986483

DIPOLE MOMENT
-------------
                                X             Y             Z
Electronic contribution:      3.14452      27.26182     -10.29072
Nuclear contribution   :     -3.04499     -28.00020      10.40316
                        -----------------------------------------
Total Dipole Moment    :      0.09953      -0.73838       0.11244
                        -----------------------------------------
Magnitude (a.u.)       :      0.75349
Magnitude (Debye)      :      1.91522

Rotational constants in cm-1:     0.016638     0.009877     0.007104
Rotational constants in MHz :   498.782299   296.116613   212.968873

                             ****ORCA TERMINATED NORMALLY****
TOTAL RUN TIME: 0 days 0 hours 0 minutes 31 seconds 36 msec
