                         Program Version 4.2.1 -  RELEASE  -
|  1> ! wB97X-D3 SP def2-SVP
|  2> %pal
|  3> nprocs 16
|  4> end
|  5>
|  6> * xyz 0 1
|  7> S 	 2.59856 	 -11.0907 	 90.0512
|  8> C 	 2.09668 	 -10.9908 	 91.68
|  9> C 	 1.28343 	 -12.0403 	 92.0068
| 10> C 	 1.25165 	 -13.0398 	 90.9766
| 11> C 	 2.00187 	 -12.7411 	 89.8713
| 12> H 	 0.658876 	 -13.9908 	 91.1002
| 13> C 	 0.552174 	 -12.3277 	 93.3195
| 14> H 	 0.974105 	 -11.6811 	 94.105
| 15> H 	 0.803801 	 -13.396 	 93.5867
| 16> C 	 -1.00597 	 -12.127 	 93.2879
| 17> H 	 -1.05575 	 -11.116 	 92.9776
| 18> H 	 -1.35108 	 -12.8474 	 92.59
| 19> C 	 -1.5994 	 -12.3245 	 94.6409
| 20> H 	 -1.33767 	 -13.3612 	 95.0672
| 21> H 	 -1.21509 	 -11.5882 	 95.3412
| 22> H 	 -2.68857 	 -12.1444 	 94.61
| 23> S 	 2.51195 	 -12.886 	 87.1626
| 24> C 	 2.65113 	 -14.434 	 86.3301
| 25> C 	 2.35803 	 -15.51 	 87.1604
| 26> C 	 2.05044 	 -15.1068 	 88.4479
| 27> C 	 2.14063 	 -13.6841 	 88.6996
| 28> H 	 2.39948 	 -16.5221 	 86.7445
| 29> C 	 1.75667 	 -16.2325 	 89.4511
| 30> H 	 1.69442 	 -15.7921 	 90.4278
| 31> H 	 2.66496 	 -16.8552 	 89.6499
| 32> C 	 0.548323 	 -17.1451 	 89.1457
| 33> H 	 0.776647 	 -17.9155 	 88.3715
| 34> H 	 -0.118768 	 -16.4746 	 88.6598
| 35> C 	 -0.136144 	 -17.7982 	 90.401
| 36> H 	 -1.06908 	 -18.2944 	 90.2264
| 37> H 	 -0.299296 	 -17.1091 	 91.2248
| 38> H 	 0.552104 	 -18.4963 	 90.8895
| 39> H 	 2.26238 	 -10.1325 	 92.3558
| 40> H 	 2.95616 	 -14.5774 	 85.2953
| 41> *
| 42>
| 43>                          ****END OF INPUT****

CARTESIAN COORDINATES (ANGSTROEM)
---------------------------------
  S      2.598560  -11.090700   90.051200
  C      2.096680  -10.990800   91.680000
  C      1.283430  -12.040300   92.006800
  C      1.251650  -13.039800   90.976600
  C      2.001870  -12.741100   89.871300
  H      0.658876  -13.990800   91.100200
  C      0.552174  -12.327700   93.319500
  H      0.974105  -11.681100   94.105000
  H      0.803801  -13.396000   93.586700
  C     -1.005970  -12.127000   93.287900
  H     -1.055750  -11.116000   92.977600
  H     -1.351080  -12.847400   92.590000
  C     -1.599400  -12.324500   94.640900
  H     -1.337670  -13.361200   95.067200
  H     -1.215090  -11.588200   95.341200
  H     -2.688570  -12.144400   94.610000
  S      2.511950  -12.886000   87.162600
  C      2.651130  -14.434000   86.330100
  C      2.358030  -15.510000   87.160400
  C      2.050440  -15.106800   88.447900
  C      2.140630  -13.684100   88.699600
  H      2.399480  -16.522100   86.744500
  C      1.756670  -16.232500   89.451100
  H      1.694420  -15.792100   90.427800
  H      2.664960  -16.855200   89.649900
  C      0.548323  -17.145100   89.145700
  H      0.776647  -17.915500   88.371500
  H     -0.118768  -16.474600   88.659800
  C     -0.136144  -17.798200   90.401000
  H     -1.069080  -18.294400   90.226400
  H     -0.299296  -17.109100   91.224800
  H      0.552104  -18.496300   90.889500
  H      2.262380  -10.132500   92.355800
  H      2.956160  -14.577400   85.295300

 Total Charge           Charge          ....    0
 Multiplicity           Mult            ....    1
 Number of Electrons    NEL             ....  134
 Basis Dimension        Dim             ....  322

ORBITAL ENERGIES
----------------

  NO   OCC          E(Eh)            E(eV)
   0   2.0000     -88.969714     -2420.9890
   1   2.0000     -88.969331     -2420.9786
   2   2.0000     -10.343579      -281.4631
   3   2.0000     -10.337277      -281.2916
   4   2.0000     -10.319396      -280.8050
   5   2.0000     -10.315082      -280.6876
   6   2.0000     -10.310921      -280.5744
   7   2.0000     -10.298944      -280.2485
   8   2.0000     -10.297026      -280.1963
   9   2.0000     -10.294703      -280.1331
  10   2.0000     -10.293510      -280.1006
  11   2.0000     -10.292465      -280.0722
  12   2.0000     -10.292196      -280.0649
  13   2.0000     -10.285029      -279.8699
  14   2.0000     -10.282252      -279.7943
  15   2.0000     -10.281859      -279.7836
  16   2.0000      -8.084718      -219.9964
  17   2.0000      -8.083298      -219.9577
  18   2.0000      -6.043434      -164.4502
  19   2.0000      -6.041751      -164.4044
  20   2.0000      -6.039289      -164.3374
  21   2.0000      -6.037848      -164.2982
  22   2.0000      -6.035112      -164.2237
  23   2.0000      -6.034258      -164.2005
  24   2.0000      -1.007104       -27.4047
  25   2.0000      -0.985842       -26.8261
  26   2.0000      -0.912699       -24.8358
  27   2.0000      -0.903553       -24.5869
  28   2.0000      -0.869910       -23.6715
  29   2.0000      -0.852620       -23.2010
  30   2.0000      -0.846973       -23.0473
  31   2.0000      -0.813723       -22.1425
  32   2.0000      -0.778406       -21.1815
  33   2.0000      -0.769723       -20.9452
  34   2.0000      -0.710111       -19.3231
  35   2.0000      -0.698113       -18.9966
  36   2.0000      -0.696482       -18.9522
  37   2.0000      -0.659248       -17.9391
  38   2.0000      -0.635172       -17.2839
  39   2.0000      -0.624815       -17.0021
  40   2.0000      -0.595048       -16.1921
  41   2.0000      -0.577440       -15.7129
  42   2.0000      -0.566084       -15.4039
  43   2.0000      -0.555370       -15.1124
  44   2.0000      -0.525400       -14.2969
  45   2.0000      -0.521961       -14.2033
  46   2.0000      -0.513445       -13.9715
  47   2.0000      -0.508607       -13.8399
  48   2.0000      -0.505215       -13.7476
  49   2.0000      -0.501147       -13.6369
  50   2.0000      -0.490070       -13.3355
  51   2.0000      -0.481433       -13.1005
  52   2.0000      -0.469459       -12.7746
  53   2.0000      -0.467194       -12.7130
  54   2.0000      -0.464884       -12.6502
  55   2.0000      -0.450087       -12.2475
  56   2.0000      -0.445610       -12.1257
  57   2.0000      -0.433283       -11.7902
  58   2.0000      -0.432819       -11.7776
  59   2.0000      -0.426468       -11.6048
  60   2.0000      -0.423208       -11.5161
  61   2.0000      -0.417359       -11.3569
  62   2.0000      -0.412715       -11.2306
  63   2.0000      -0.361835        -9.8460
  64   2.0000      -0.337752        -9.1907
  65   2.0000      -0.326302        -8.8791
  66   2.0000      -0.283453        -7.7131
  67   0.0000       0.019517         0.5311
  68   0.0000       0.081090         2.2066
  69   0.0000       0.099618         2.7107
  70   0.0000       0.119180         3.2430
  71   0.0000       0.123703         3.3661

MULLIKEN ATOMIC CHARGES
-----------------------
   0 S :    0.117936
   1 C :   -0.128617
   2 C :   -0.068432
   3 C :   -0.036867
   4 C :   -0.079512
   5 H :    0.036804
   6 C :   -0.009044
   7 H :    0.015109
   8 H :    0.033788
   9 C :   -0.021860
  10 H :    0.025265
  11 H :    0.025696
  12 C :   -0.054341
  13 H :    0.040005
  14 H :    0.025225
  15 H :    0.044437
  16 S :    0.092450
  17 C :   -0.096609
  18 C :   -0.038258
  19 C :   -0.044768
  20 C :   -0.152689
  21 H :    0.032377
  22 C :    0.057038
  23 H :   -0.011090
  24 H :    0.037246
  25 C :   -0.067891
  26 H :    0.039587
  27 H :    0.028300
  28 C :   -0.045340
  29 H :    0.039807
  30 H :    0.019328
  31 H :    0.026723
  32 H :    0.058777
  33 H :    0.059420
Sum of atomic charges:   -0.0000000

LOEWDIN ATOMIC CHARGES
----------------------
   0 S :    0.413358
   1 C :   -0.212784
   2 C :   -0.071878
   3 C :   -0.071771
   4 C :   -0.192814
   5 H :    0.037827
   6 C :   -0.033212
   7 H :    0.024382
   8 H :    0.030626
   9 C :   -0.032910
  10 H :    0.023408
  11 H :    0.020148
  12 C :   -0.070138
  13 H :    0.033796
  14 H :    0.023345
  15 H :    0.030414
  16 S :    0.399350
  17 C :   -0.182269
  18 C :   -0.072840
  19 C :   -0.059890
  20 C :   -0.182034
  21 H :    0.040785
  22 C :   -0.038724
  23 H :    0.019757
  24 H :    0.036415
  25 C :   -0.039743
  26 H :    0.028092
  27 H :    0.020842
  28 C :   -0.066161
  29 H :    0.025528
  30 H :    0.022964
  31 H :    0.026628
  32 H :    0.038920
  33 H :    0.030584

  Mayer bond orders larger than 0.100000
B(  0-S ,  1-C ) :   1.1339 B(  0-S ,  4-C ) :   1.1379 B(  1-C ,  2-C ) :   1.6178
B(  1-C , 32-H ) :   0.9621 B(  2-C ,  3-C ) :   1.2485 B(  2-C ,  6-C ) :   1.0216
B(  3-C ,  4-C ) :   1.5711 B(  3-C ,  5-H ) :   0.9808 B(  4-C , 20-C ) :   1.0586
B(  6-C ,  7-H ) :   0.9469 B(  6-C ,  8-H ) :   0.9452 B(  6-C ,  9-C ) :   1.0516
B(  9-C , 10-H ) :   0.9527 B(  9-C , 11-H ) :   0.9548 B(  9-C , 12-C ) :   1.0984
B( 12-C , 13-H ) :   0.9707 B( 12-C , 14-H ) :   0.9707 B( 12-C , 15-H ) :   0.9716
B( 16-S , 17-C ) :   1.1685 B( 16-S , 20-C ) :   1.1511 B( 17-C , 18-C ) :   1.5798
B( 17-C , 20-C ) :   0.1128 B( 17-C , 33-H ) :   0.9645 B( 18-C , 19-C ) :   1.2873
B( 18-C , 21-H ) :   0.9905 B( 19-C , 20-C ) :   1.5339 B( 19-C , 22-C ) :   1.0441
B( 22-C , 23-H ) :   0.9380 B( 22-C , 24-H ) :   0.9322 B( 22-C , 25-C ) :   1.0384
B( 25-C , 26-H ) :   0.9526 B( 25-C , 27-H ) :   0.9633 B( 25-C , 28-C ) :   1.0784
B( 28-C , 29-H ) :   0.9775 B( 28-C , 30-H ) :   0.9753 B( 28-C , 31-H ) :   0.9754

Dispersion correction           -0.013422026
FINAL SINGLE POINT ENERGY     -1339.869960683498

DIPOLE MOMENT
-------------
                                X             Y             Z
Electronic contribution:     17.95316      17.69959     -21.52371
Nuclear contribution   :    -18.28185     -18.14758      21.92399
                        -----------------------------------------
Total Dipole Moment    :     -0.32868      -0.44799       0.40028
                        -----------------------------------------
Magnitude (a.u.)       :      0.68480
Magnitude (Debye)      :      1.74063

Rotational constants in cm-1:     0.016141     0.008946     0.006038
Rotational constants in MHz :   483.880779   268.198709   181.008281

                             ****ORCA TERMINATED NORMALLY****
TOTAL RUN TIME: 0 days 0 hours 0 minutes 33 seconds 743 msec
