                         Program Version 4.2.1 -  RELEASE  -
|  1> ! wB97X-D3 SP def2-SVP
|  2> %pal
|  3> nprocs 16
|  4> end
|  5>
|  6> * xyz 0 1
|  7> S 	 7.1273 	 -26.6611 	 82.8169
|  8> C 	 8.4449 	 -27.4482 	 83.7729
|  9> C 	 9.4856 	 -26.5832 	 84.003
| 10> C 	 9.30591 	 -25.3024 	 83.3055
| 11> C 	 8.0469 	 -25.153 	 82.8398
| 12> H 	 9.9794 	 -24.5254 	 83.1833
| 13> C 	 10.7529 	 -26.976 	 84.7182
| 14> H 	 11.6036 	 -26.8452 	 84.0248
| 15> H 	 10.6899 	 -28.0819 	 84.9237
| 16> C 	 11.0747 	 -26.1062 	 85.9521
| 17> H 	 11.6377 	 -25.1432 	 85.6593
| 18> H 	 10.1492 	 -25.7726 	 86.5032
| 19> C 	 11.9888 	 -26.8565 	 86.9104
| 20> H 	 12.8583 	 -27.2509 	 86.364
| 21> H 	 12.4686 	 -26.1857 	 87.6417
| 22> H 	 11.4656 	 -27.7387 	 87.329
| 23> S 	 7.48705 	 -24.6482 	 80.265
| 24> C 	 7.05117 	 -23.038 	 79.6863
| 25> C 	 7.17627 	 -22.0891 	 80.7009
| 26> C 	 7.58676 	 -22.7127 	 81.9323
| 27> C 	 7.64391 	 -24.1164 	 81.8694
| 28> H 	 6.83116 	 -21.0454 	 80.4189
| 29> C 	 7.63194 	 -21.8637 	 83.1379
| 30> H 	 6.9967 	 -21.0182 	 82.9907
| 31> H 	 8.64344 	 -21.3711 	 83.115
| 32> C 	 7.40824 	 -22.503 	 84.4468
| 33> H 	 7.70857 	 -21.8014 	 85.2685
| 34> H 	 8.03504 	 -23.4213 	 84.5206
| 35> C 	 5.96528 	 -23.0371 	 84.6562
| 36> H 	 5.7594 	 -23.2602 	 85.7095
| 37> H 	 5.76647 	 -23.9057 	 83.994
| 38> H 	 5.13708 	 -22.3226 	 84.3697
| 39> H 	 8.46687 	 -28.4251 	 84.1407
| 40> H 	 6.56788 	 -22.8211 	 78.7608
| 41> *
| 42>
| 43>                          ****END OF INPUT****

CARTESIAN COORDINATES (ANGSTROEM)
---------------------------------
  S      7.127300  -26.661100   82.816900
  C      8.444900  -27.448200   83.772900
  C      9.485600  -26.583200   84.003000
  C      9.305910  -25.302400   83.305500
  C      8.046900  -25.153000   82.839800
  H      9.979400  -24.525400   83.183300
  C     10.752900  -26.976000   84.718200
  H     11.603600  -26.845200   84.024800
  H     10.689900  -28.081900   84.923700
  C     11.074700  -26.106200   85.952100
  H     11.637700  -25.143200   85.659300
  H     10.149200  -25.772600   86.503200
  C     11.988800  -26.856500   86.910400
  H     12.858300  -27.250900   86.364000
  H     12.468600  -26.185700   87.641700
  H     11.465600  -27.738700   87.329000
  S      7.487050  -24.648200   80.265000
  C      7.051170  -23.038000   79.686300
  C      7.176270  -22.089100   80.700900
  C      7.586760  -22.712700   81.932300
  C      7.643910  -24.116400   81.869400
  H      6.831160  -21.045400   80.418900
  C      7.631940  -21.863700   83.137900
  H      6.996700  -21.018200   82.990700
  H      8.643440  -21.371100   83.115000
  C      7.408240  -22.503000   84.446800
  H      7.708570  -21.801400   85.268500
  H      8.035040  -23.421300   84.520600
  C      5.965280  -23.037100   84.656200
  H      5.759400  -23.260200   85.709500
  H      5.766470  -23.905700   83.994000
  H      5.137080  -22.322600   84.369700
  H      8.466870  -28.425100   84.140700
  H      6.567880  -22.821100   78.760800

 Total Charge           Charge          ....    0
 Multiplicity           Mult            ....    1
 Number of Electrons    NEL             ....  134
 Basis Dimension        Dim             ....  322

ORBITAL ENERGIES
----------------

  NO   OCC          E(Eh)            E(eV)
   0   2.0000     -88.967997     -2420.9423
   1   2.0000     -88.962474     -2420.7920
   2   2.0000     -10.330997      -281.1207
   3   2.0000     -10.323178      -280.9080
   4   2.0000     -10.316418      -280.7240
   5   2.0000     -10.313480      -280.6441
   6   2.0000     -10.306666      -280.4586
   7   2.0000     -10.302736      -280.3517
   8   2.0000     -10.301548      -280.3194
   9   2.0000     -10.299865      -280.2736
  10   2.0000     -10.298825      -280.2453
  11   2.0000     -10.294555      -280.1291
  12   2.0000     -10.283263      -279.8218
  13   2.0000     -10.281651      -279.7779
  14   2.0000     -10.280360      -279.7428
  15   2.0000     -10.273828      -279.5651
  16   2.0000      -8.081495      -219.9087
  17   2.0000      -8.077791      -219.8079
  18   2.0000      -6.040244      -164.3634
  19   2.0000      -6.036345      -164.2573
  20   2.0000      -6.036307      -164.2563
  21   2.0000      -6.032115      -164.1422
  22   2.0000      -6.031877      -164.1357
  23   2.0000      -6.028589      -164.0462
  24   2.0000      -1.009106       -27.4592
  25   2.0000      -0.981311       -26.7028
  26   2.0000      -0.913657       -24.8619
  27   2.0000      -0.911618       -24.8064
  28   2.0000      -0.872255       -23.7353
  29   2.0000      -0.846899       -23.0453
  30   2.0000      -0.840050       -22.8589
  31   2.0000      -0.818023       -22.2595
  32   2.0000      -0.778951       -21.1963
  33   2.0000      -0.769603       -20.9420
  34   2.0000      -0.709871       -19.3166
  35   2.0000      -0.693736       -18.8775
  36   2.0000      -0.681260       -18.5380
  37   2.0000      -0.660135       -17.9632
  38   2.0000      -0.648885       -17.6571
  39   2.0000      -0.619337       -16.8530
  40   2.0000      -0.588569       -16.0158
  41   2.0000      -0.573170       -15.5968
  42   2.0000      -0.560958       -15.2644
  43   2.0000      -0.548845       -14.9348
  44   2.0000      -0.541540       -14.7360
  45   2.0000      -0.526059       -14.3148
  46   2.0000      -0.519401       -14.1336
  47   2.0000      -0.508616       -13.8401
  48   2.0000      -0.501943       -13.6586
  49   2.0000      -0.495739       -13.4897
  50   2.0000      -0.492839       -13.4108
  51   2.0000      -0.476653       -12.9704
  52   2.0000      -0.469539       -12.7768
  53   2.0000      -0.465252       -12.6601
  54   2.0000      -0.457911       -12.4604
  55   2.0000      -0.447436       -12.1753
  56   2.0000      -0.437852       -11.9145
  57   2.0000      -0.433413       -11.7938
  58   2.0000      -0.429515       -11.6877
  59   2.0000      -0.422283       -11.4909
  60   2.0000      -0.416786       -11.3413
  61   2.0000      -0.414649       -11.2832
  62   2.0000      -0.410196       -11.1620
  63   2.0000      -0.345859        -9.4113
  64   2.0000      -0.327686        -8.9168
  65   2.0000      -0.321770        -8.7558
  66   2.0000      -0.298415        -8.1203
  67   0.0000       0.031479         0.8566
  68   0.0000       0.068775         1.8715
  69   0.0000       0.104554         2.8451
  70   0.0000       0.118408         3.2220
  71   0.0000       0.122681         3.3383

MULLIKEN ATOMIC CHARGES
-----------------------
   0 S :    0.092765
   1 C :   -0.090941
   2 C :   -0.087292
   3 C :    0.093304
   4 C :   -0.165315
   5 H :   -0.002152
   6 C :    0.049450
   7 H :    0.041727
   8 H :    0.028593
   9 C :   -0.116656
  10 H :    0.042048
  11 H :    0.051622
  12 C :   -0.057207
  13 H :    0.021250
  14 H :    0.039484
  15 H :    0.043695
  16 S :    0.114461
  17 C :   -0.096774
  18 C :   -0.069128
  19 C :   -0.045555
  20 C :   -0.158325
  21 H :    0.050481
  22 C :    0.077017
  23 H :    0.010646
  24 H :    0.033078
  25 C :   -0.072358
  26 H :    0.030623
  27 H :    0.041318
  28 C :   -0.072060
  29 H :    0.037609
  30 H :    0.039202
  31 H :    0.022864
  32 H :    0.023950
  33 H :    0.048577
Sum of atomic charges:    0.0000000

LOEWDIN ATOMIC CHARGES
----------------------
   0 S :    0.371336
   1 C :   -0.167598
   2 C :   -0.055544
   3 C :   -0.038215
   4 C :   -0.185756
   5 H :    0.022573
   6 C :   -0.038212
   7 H :    0.038546
   8 H :    0.034019
   9 C :   -0.052144
  10 H :    0.032126
  11 H :    0.029328
  12 C :   -0.071992
  13 H :    0.023912
  14 H :    0.028769
  15 H :    0.028024
  16 S :    0.423622
  17 C :   -0.184508
  18 C :   -0.074849
  19 C :   -0.061649
  20 C :   -0.224451
  21 H :    0.047786
  22 C :   -0.042310
  23 H :    0.026211
  24 H :    0.041672
  25 C :   -0.053724
  26 H :    0.029131
  27 H :    0.031212
  28 C :   -0.073455
  29 H :    0.026128
  30 H :    0.025148
  31 H :    0.024126
  32 H :    0.017255
  33 H :    0.023484

  Mayer bond orders larger than 0.100000
B(  0-S ,  1-C ) :   1.1012 B(  0-S ,  4-C ) :   1.1207 B(  1-C ,  2-C ) :   1.6729
B(  1-C , 32-H ) :   0.9707 B(  2-C ,  3-C ) :   1.1638 B(  2-C ,  6-C ) :   1.0389
B(  3-C ,  4-C ) :   1.6304 B(  3-C ,  5-H ) :   0.9960 B(  4-C , 20-C ) :   0.9935
B(  6-C ,  7-H ) :   0.9302 B(  6-C ,  8-H ) :   0.9507 B(  6-C ,  9-C ) :   1.0339
B(  9-C , 10-H ) :   0.9501 B(  9-C , 11-H ) :   0.9642 B(  9-C , 12-C ) :   1.0867
B( 12-C , 13-H ) :   0.9693 B( 12-C , 14-H ) :   0.9735 B( 12-C , 15-H ) :   0.9769
B( 16-S , 17-C ) :   1.1555 B( 16-S , 20-C ) :   1.1584 B( 17-C , 18-C ) :   1.6229
B( 17-C , 33-H ) :   0.9684 B( 18-C , 19-C ) :   1.2273 B( 18-C , 21-H ) :   0.9811
B( 19-C , 20-C ) :   1.5904 B( 19-C , 22-C ) :   1.0469 B( 22-C , 23-H ) :   0.9387
B( 22-C , 24-H ) :   0.9077 B( 22-C , 25-C ) :   1.0961 B( 25-C , 26-H ) :   0.9461
B( 25-C , 27-H ) :   0.9381 B( 25-C , 28-C ) :   1.0701 B( 28-C , 29-H ) :   0.9764
B( 28-C , 30-H ) :   0.9714 B( 28-C , 31-H ) :   0.9753

Dispersion correction           -0.015222143
FINAL SINGLE POINT ENERGY     -1339.868919635997

DIPOLE MOMENT
-------------
                                X             Y             Z
Electronic contribution:    -11.01591      -5.52315     -22.98530
Nuclear contribution   :     11.51331       5.73245      23.27268
                        -----------------------------------------
Total Dipole Moment    :      0.49740       0.20930       0.28737
                        -----------------------------------------
Magnitude (a.u.)       :      0.61139
Magnitude (Debye)      :      1.55404

Rotational constants in cm-1:     0.021698     0.008529     0.007401
Rotational constants in MHz :   650.476358   255.689901   221.876078

                             ****ORCA TERMINATED NORMALLY****
TOTAL RUN TIME: 0 days 0 hours 0 minutes 35 seconds 910 msec
