                         Program Version 4.2.1 -  RELEASE  -
|  1> ! wB97X-D3 SP def2-SVP
|  2> %pal
|  3> nprocs 16
|  4> end
|  5>
|  6> * xyz 0 1
|  7> S 	 -65.9417 	 60.5611 	 121.261
|  8> C 	 -64.6698 	 59.7928 	 120.29
|  9> C 	 -64.4238 	 58.5308 	 120.748
| 10> C 	 -65.2382 	 58.158 	 121.831
| 11> C 	 -66.13 	 59.1108 	 122.254
| 12> H 	 -65.1226 	 57.2274 	 122.35
| 13> C 	 -63.2865 	 57.6941 	 120.254
| 14> H 	 -62.8011 	 57.2416 	 121.056
| 15> H 	 -62.5177 	 58.3738 	 119.916
| 16> C 	 -63.575 	 56.685 	 119.22
| 17> H 	 -64.4698 	 56.0917 	 119.592
| 18> H 	 -63.975 	 57.088 	 118.318
| 19> C 	 -62.3614 	 55.7196 	 118.932
| 20> H 	 -62.1308 	 55.1142 	 119.757
| 21> H 	 -62.7293 	 55.0386 	 118.158
| 22> H 	 -61.5055 	 56.3399 	 118.653
| 23> S 	 -68.4827 	 59.9252 	 123.287
| 24> C 	 -69.0408 	 59.5256 	 124.853
| 25> C 	 -68.1196 	 58.704 	 125.537
| 26> C 	 -66.9351 	 58.427 	 124.725
| 27> C 	 -66.9955 	 59.1019 	 123.447
| 28> H 	 -68.4182 	 58.3704 	 126.509
| 29> C 	 -65.8376 	 57.6164 	 125.334
| 30> H 	 -65.5967 	 57.8761 	 126.347
| 31> H 	 -65.022 	 57.9833 	 124.737
| 32> C 	 -66.0605 	 56.1629 	 125.272
| 33> H 	 -66.2549 	 55.9193 	 124.25
| 34> H 	 -66.8956 	 56.0172 	 125.997
| 35> C 	 -64.9614 	 55.3205 	 125.838
| 36> H 	 -63.9997 	 55.5021 	 125.419
| 37> H 	 -65.0985 	 54.293 	 125.546
| 38> H 	 -64.837 	 55.1838 	 126.953
| 39> H 	 -64.2319 	 60.2665 	 119.446
| 40> H 	 -69.9381 	 59.7445 	 125.282
| 41> *
| 42>
| 43>                          ****END OF INPUT****

CARTESIAN COORDINATES (ANGSTROEM)
---------------------------------
  S    -65.941700   60.561100  121.261000
  C    -64.669800   59.792800  120.290000
  C    -64.423800   58.530800  120.748000
  C    -65.238200   58.158000  121.831000
  C    -66.130000   59.110800  122.254000
  H    -65.122600   57.227400  122.350000
  C    -63.286500   57.694100  120.254000
  H    -62.801100   57.241600  121.056000
  H    -62.517700   58.373800  119.916000
  C    -63.575000   56.685000  119.220000
  H    -64.469800   56.091700  119.592000
  H    -63.975000   57.088000  118.318000
  C    -62.361400   55.719600  118.932000
  H    -62.130800   55.114200  119.757000
  H    -62.729300   55.038600  118.158000
  H    -61.505500   56.339900  118.653000
  S    -68.482700   59.925200  123.287000
  C    -69.040800   59.525600  124.853000
  C    -68.119600   58.704000  125.537000
  C    -66.935100   58.427000  124.725000
  C    -66.995500   59.101900  123.447000
  H    -68.418200   58.370400  126.509000
  C    -65.837600   57.616400  125.334000
  H    -65.596700   57.876100  126.347000
  H    -65.022000   57.983300  124.737000
  C    -66.060500   56.162900  125.272000
  H    -66.254900   55.919300  124.250000
  H    -66.895600   56.017200  125.997000
  C    -64.961400   55.320500  125.838000
  H    -63.999700   55.502100  125.419000
  H    -65.098500   54.293000  125.546000
  H    -64.837000   55.183800  126.953000
  H    -64.231900   60.266500  119.446000
  H    -69.938100   59.744500  125.282000

 Total Charge           Charge          ....    0
 Multiplicity           Mult            ....    1
 Number of Electrons    NEL             ....  134
 Basis Dimension        Dim             ....  322

ORBITAL ENERGIES
----------------

  NO   OCC          E(Eh)            E(eV)
   0   2.0000     -88.968285     -2420.9501
   1   2.0000     -88.965485     -2420.8739
   2   2.0000     -10.334605      -281.2189
   3   2.0000     -10.333701      -281.1943
   4   2.0000     -10.313290      -280.6389
   5   2.0000     -10.311810      -280.5986
   6   2.0000     -10.310160      -280.5537
   7   2.0000     -10.296374      -280.1786
   8   2.0000     -10.296185      -280.1734
   9   2.0000     -10.290757      -280.0257
  10   2.0000     -10.285141      -279.8729
  11   2.0000     -10.283272      -279.8221
  12   2.0000     -10.279783      -279.7271
  13   2.0000     -10.279464      -279.7184
  14   2.0000     -10.279310      -279.7143
  15   2.0000     -10.275446      -279.6091
  16   2.0000      -8.084095      -219.9794
  17   2.0000      -8.079709      -219.8600
  18   2.0000      -6.042493      -164.4246
  19   2.0000      -6.038342      -164.3116
  20   2.0000      -6.038170      -164.3070
  21   2.0000      -6.035206      -164.2263
  22   2.0000      -6.034259      -164.2005
  23   2.0000      -6.030390      -164.0953
  24   2.0000      -1.008491       -27.4424
  25   2.0000      -0.986734       -26.8504
  26   2.0000      -0.925751       -25.1910
  27   2.0000      -0.918461       -24.9926
  28   2.0000      -0.870326       -23.6828
  29   2.0000      -0.855179       -23.2706
  30   2.0000      -0.845899       -23.0181
  31   2.0000      -0.820221       -22.3194
  32   2.0000      -0.786722       -21.4078
  33   2.0000      -0.775925       -21.1140
  34   2.0000      -0.710029       -19.3209
  35   2.0000      -0.704245       -19.1635
  36   2.0000      -0.697543       -18.9811
  37   2.0000      -0.665859       -18.1189
  38   2.0000      -0.644426       -17.5357
  39   2.0000      -0.629158       -17.1203
  40   2.0000      -0.597123       -16.2485
  41   2.0000      -0.584286       -15.8992
  42   2.0000      -0.574754       -15.6399
  43   2.0000      -0.560352       -15.2479
  44   2.0000      -0.532968       -14.5028
  45   2.0000      -0.526472       -14.3260
  46   2.0000      -0.522592       -14.2205
  47   2.0000      -0.515848       -14.0369
  48   2.0000      -0.511600       -13.9213
  49   2.0000      -0.506327       -13.7778
  50   2.0000      -0.497158       -13.5284
  51   2.0000      -0.482567       -13.1313
  52   2.0000      -0.470665       -12.8075
  53   2.0000      -0.467771       -12.7287
  54   2.0000      -0.464366       -12.6360
  55   2.0000      -0.450559       -12.2603
  56   2.0000      -0.448967       -12.2170
  57   2.0000      -0.444174       -12.0866
  58   2.0000      -0.429276       -11.6812
  59   2.0000      -0.426264       -11.5992
  60   2.0000      -0.414897       -11.2899
  61   2.0000      -0.411723       -11.2036
  62   2.0000      -0.407456       -11.0875
  63   2.0000      -0.354787        -9.6542
  64   2.0000      -0.334539        -9.1033
  65   2.0000      -0.328676        -8.9437
  66   2.0000      -0.287321        -7.8184
  67   0.0000       0.024340         0.6623
  68   0.0000       0.078740         2.1426
  69   0.0000       0.107634         2.9289
  70   0.0000       0.118422         3.2224
  71   0.0000       0.126882         3.4526

MULLIKEN ATOMIC CHARGES
-----------------------
   0 S :    0.092187
   1 C :   -0.116438
   2 C :   -0.076533
   3 C :    0.012706
   4 C :   -0.098216
   5 H :   -0.008959
   6 C :    0.114038
   7 H :   -0.005227
   8 H :    0.005624
   9 C :   -0.089999
  10 H :    0.022410
  11 H :    0.016390
  12 C :   -0.023629
  13 H :    0.023668
  14 H :    0.040388
  15 H :    0.038841
  16 S :    0.120477
  17 C :   -0.049351
  18 C :   -0.045473
  19 C :   -0.059351
  20 C :   -0.137843
  21 H :    0.014411
  22 C :    0.083677
  23 H :    0.014890
  24 H :    0.008636
  25 C :   -0.047421
  26 H :    0.027421
  27 H :    0.029374
  28 C :   -0.031759
  29 H :    0.011807
  30 H :    0.017207
  31 H :    0.039257
  32 H :    0.039367
  33 H :    0.017423
Sum of atomic charges:    0.0000000

LOEWDIN ATOMIC CHARGES
----------------------
   0 S :    0.383399
   1 C :   -0.176271
   2 C :   -0.061418
   3 C :   -0.067333
   4 C :   -0.182276
   5 H :    0.026733
   6 C :   -0.033569
   7 H :    0.022791
   8 H :    0.028600
   9 C :   -0.040775
  10 H :    0.027298
  11 H :    0.017199
  12 C :   -0.056534
  13 H :    0.017017
  14 H :    0.032093
  15 H :    0.027341
  16 S :    0.452590
  17 C :   -0.189259
  18 C :   -0.064239
  19 C :   -0.046256
  20 C :   -0.217491
  21 H :    0.028099
  22 C :   -0.039105
  23 H :    0.028634
  24 H :    0.025146
  25 C :   -0.038092
  26 H :    0.023037
  27 H :    0.034635
  28 C :   -0.074075
  29 H :    0.017506
  30 H :    0.027228
  31 H :    0.033684
  32 H :    0.023448
  33 H :    0.010216

  Mayer bond orders larger than 0.100000
B(  0-S ,  1-C ) :   1.1256 B(  0-S ,  4-C ) :   1.1468 B(  1-C ,  2-C ) :   1.6109
B(  1-C , 32-H ) :   0.9756 B(  2-C ,  3-C ) :   1.2534 B(  2-C ,  6-C ) :   1.0193
B(  3-C ,  4-C ) :   1.5661 B(  3-C ,  5-H ) :   1.0007 B(  4-C , 20-C ) :   1.0339
B(  6-C ,  7-H ) :   0.9315 B(  6-C ,  8-H ) :   0.9303 B(  6-C ,  9-C ) :   1.0692
B(  9-C , 10-H ) :   0.9524 B(  9-C , 11-H ) :   0.9543 B(  9-C , 12-C ) :   1.0733
B( 12-C , 13-H ) :   0.9762 B( 12-C , 14-H ) :   0.9749 B( 12-C , 15-H ) :   0.9763
B( 16-S , 17-C ) :   1.1800 B( 16-S , 20-C ) :   1.1721 B( 17-C , 18-C ) :   1.5805
B( 17-C , 20-C ) :   0.1011 B( 17-C , 33-H ) :   0.9780 B( 18-C , 19-C ) :   1.2595
B( 18-C , 21-H ) :   0.9936 B( 19-C , 20-C ) :   1.5289 B( 19-C , 22-C ) :   1.0439
B( 22-C , 23-H ) :   0.9347 B( 22-C , 24-H ) :   0.9246 B( 22-C , 25-C ) :   1.0780
B( 25-C , 26-H ) :   0.9489 B( 25-C , 27-H ) :   0.9494 B( 25-C , 28-C ) :   1.0968
B( 28-C , 29-H ) :   0.9688 B( 28-C , 30-H ) :   0.9673 B( 28-C , 31-H ) :   0.9708

Dispersion correction           -0.013608304
FINAL SINGLE POINT ENERGY     -1339.864380418934

DIPOLE MOMENT
-------------
                                X             Y             Z
Electronic contribution:    -19.34187      25.74090      -0.79311
Nuclear contribution   :     19.70223     -26.31977       0.99376
                        -----------------------------------------
Total Dipole Moment    :      0.36036      -0.57887       0.20065
                        -----------------------------------------
Magnitude (a.u.)       :      0.71078
Magnitude (Debye)      :      1.80667

Rotational constants in cm-1:     0.017250     0.008774     0.006147
Rotational constants in MHz :   517.139714   263.030316   184.287571

                             ****ORCA TERMINATED NORMALLY****
TOTAL RUN TIME: 0 days 0 hours 0 minutes 32 seconds 777 msec
