                         Program Version 4.2.1 -  RELEASE  -
|  1> ! wB97X-D3 SP def2-SVP
|  2> %pal
|  3> nprocs 16
|  4> end
|  5>
|  6> * xyz 0 1
|  7> S 	 47.3156 	 14.0874 	 78.1362
|  8> C 	 47.2935 	 14.1629 	 79.9087
|  9> C 	 48.4446 	 14.6508 	 80.408
| 10> C 	 49.4845 	 14.802 	 79.4552
| 11> C 	 48.9499 	 14.6975 	 78.1581
| 12> H 	 50.4933 	 15.0367 	 79.7018
| 13> C 	 48.7678 	 14.841 	 81.8782
| 14> H 	 49.8973 	 14.9431 	 82.0792
| 15> H 	 48.5541 	 13.8503 	 82.329
| 16> C 	 48.0028 	 15.8791 	 82.7272
| 17> H 	 46.9814 	 15.8514 	 82.3792
| 18> H 	 47.9478 	 15.7233 	 83.8197
| 19> C 	 48.5123 	 17.2683 	 82.5348
| 20> H 	 49.4992 	 17.4203 	 82.831
| 21> H 	 48.3411 	 17.5003 	 81.5145
| 22> H 	 47.9288 	 17.9184 	 83.1607
| 23> S 	 49.6144 	 13.806 	 75.6253
| 24> C 	 50.5204 	 15.0202 	 74.5939
| 25> C 	 51.094 	 15.951 	 75.4156
| 26> C 	 50.6626 	 15.9182 	 76.7648
| 27> C 	 49.7324 	 14.9148 	 76.9621
| 28> H 	 51.7709 	 16.604 	 74.9499
| 29> C 	 51.1502 	 17.0085 	 77.786
| 30> H 	 50.5829 	 17.0103 	 78.6781
| 31> H 	 50.9899 	 18.039 	 77.3753
| 32> C 	 52.6288 	 17.0447 	 78.0032
| 33> H 	 52.7412 	 17.828 	 78.6838
| 34> H 	 53.1056 	 17.3629 	 77.1196
| 35> C 	 53.2843 	 15.791 	 78.5954
| 36> H 	 54.1713 	 15.9191 	 79.0112
| 37> H 	 53.2749 	 14.9352 	 77.9042
| 38> H 	 52.6162 	 15.3163 	 79.28
| 39> H 	 46.4747 	 13.8796 	 80.5265
| 40> H 	 50.5225 	 14.9848 	 73.5641
| 41> *
| 42>
| 43>                          ****END OF INPUT****

CARTESIAN COORDINATES (ANGSTROEM)
---------------------------------
  S     47.315600   14.087400   78.136200
  C     47.293500   14.162900   79.908700
  C     48.444600   14.650800   80.408000
  C     49.484500   14.802000   79.455200
  C     48.949900   14.697500   78.158100
  H     50.493300   15.036700   79.701800
  C     48.767800   14.841000   81.878200
  H     49.897300   14.943100   82.079200
  H     48.554100   13.850300   82.329000
  C     48.002800   15.879100   82.727200
  H     46.981400   15.851400   82.379200
  H     47.947800   15.723300   83.819700
  C     48.512300   17.268300   82.534800
  H     49.499200   17.420300   82.831000
  H     48.341100   17.500300   81.514500
  H     47.928800   17.918400   83.160700
  S     49.614400   13.806000   75.625300
  C     50.520400   15.020200   74.593900
  C     51.094000   15.951000   75.415600
  C     50.662600   15.918200   76.764800
  C     49.732400   14.914800   76.962100
  H     51.770900   16.604000   74.949900
  C     51.150200   17.008500   77.786000
  H     50.582900   17.010300   78.678100
  H     50.989900   18.039000   77.375300
  C     52.628800   17.044700   78.003200
  H     52.741200   17.828000   78.683800
  H     53.105600   17.362900   77.119600
  C     53.284300   15.791000   78.595400
  H     54.171300   15.919100   79.011200
  H     53.274900   14.935200   77.904200
  H     52.616200   15.316300   79.280000
  H     46.474700   13.879600   80.526500
  H     50.522500   14.984800   73.564100

 Total Charge           Charge          ....    0
 Multiplicity           Mult            ....    1
 Number of Electrons    NEL             ....  134
 Basis Dimension        Dim             ....  322

ORBITAL ENERGIES
----------------

  NO   OCC          E(Eh)            E(eV)
   0   2.0000     -88.971027     -2421.0247
   1   2.0000     -88.962231     -2420.7854
   2   2.0000     -10.329497      -281.0799
   3   2.0000     -10.324343      -280.9397
   4   2.0000     -10.316062      -280.7143
   5   2.0000     -10.309626      -280.5392
   6   2.0000     -10.303470      -280.3717
   7   2.0000     -10.297838      -280.2184
   8   2.0000     -10.297714      -280.2150
   9   2.0000     -10.292472      -280.0724
  10   2.0000     -10.292187      -280.0647
  11   2.0000     -10.291492      -280.0457
  12   2.0000     -10.283977      -279.8412
  13   2.0000     -10.277091      -279.6539
  14   2.0000     -10.264009      -279.2979
  15   2.0000     -10.262119      -279.2465
  16   2.0000      -8.085218      -220.0100
  17   2.0000      -8.076379      -219.7694
  18   2.0000      -6.043755      -164.4589
  19   2.0000      -6.039931      -164.3549
  20   2.0000      -6.035851      -164.2439
  21   2.0000      -6.034969      -164.2198
  22   2.0000      -6.031239      -164.1184
  23   2.0000      -6.026829      -163.9983
  24   2.0000      -1.007089       -27.4043
  25   2.0000      -0.982676       -26.7400
  26   2.0000      -0.915403       -24.9094
  27   2.0000      -0.912601       -24.8331
  28   2.0000      -0.874192       -23.7880
  29   2.0000      -0.854930       -23.2638
  30   2.0000      -0.844577       -22.9821
  31   2.0000      -0.815046       -22.1785
  32   2.0000      -0.791375       -21.5344
  33   2.0000      -0.778692       -21.1893
  34   2.0000      -0.712934       -19.3999
  35   2.0000      -0.704480       -19.1699
  36   2.0000      -0.696327       -18.9480
  37   2.0000      -0.663406       -18.0522
  38   2.0000      -0.640737       -17.4354
  39   2.0000      -0.615993       -16.7620
  40   2.0000      -0.601389       -16.3646
  41   2.0000      -0.576163       -15.6782
  42   2.0000      -0.561254       -15.2725
  43   2.0000      -0.560221       -15.2444
  44   2.0000      -0.547972       -14.9111
  45   2.0000      -0.537338       -14.6217
  46   2.0000      -0.524715       -14.2782
  47   2.0000      -0.514009       -13.9869
  48   2.0000      -0.503798       -13.7090
  49   2.0000      -0.496899       -13.5213
  50   2.0000      -0.496842       -13.5198
  51   2.0000      -0.482943       -13.1415
  52   2.0000      -0.472280       -12.8514
  53   2.0000      -0.467862       -12.7312
  54   2.0000      -0.459688       -12.5088
  55   2.0000      -0.450566       -12.2605
  56   2.0000      -0.446127       -12.1397
  57   2.0000      -0.434450       -11.8220
  58   2.0000      -0.430947       -11.7267
  59   2.0000      -0.424812       -11.5597
  60   2.0000      -0.421947       -11.4818
  61   2.0000      -0.415557       -11.3079
  62   2.0000      -0.413106       -11.2412
  63   2.0000      -0.345902        -9.4125
  64   2.0000      -0.332860        -9.0576
  65   2.0000      -0.330714        -8.9992
  66   2.0000      -0.286077        -7.7845
  67   0.0000       0.018121         0.4931
  68   0.0000       0.078759         2.1431
  69   0.0000       0.095855         2.6084
  70   0.0000       0.119079         3.2403
  71   0.0000       0.126176         3.4334

MULLIKEN ATOMIC CHARGES
-----------------------
   0 S :    0.122965
   1 C :   -0.116031
   2 C :   -0.046271
   3 C :    0.036737
   4 C :   -0.144569
   5 H :   -0.016195
   6 C :    0.003108
   7 H :    0.030525
   8 H :    0.038003
   9 C :   -0.065361
  10 H :    0.015823
  11 H :    0.029860
  12 C :    0.000033
  13 H :    0.012243
  14 H :    0.026901
  15 H :    0.018229
  16 S :    0.084387
  17 C :   -0.083401
  18 C :   -0.005775
  19 C :   -0.008975
  20 C :   -0.147627
  21 H :    0.003451
  22 C :    0.053475
  23 H :    0.015268
  24 H :    0.029718
  25 C :   -0.032790
  26 H :    0.011032
  27 H :    0.016282
  28 C :    0.022205
  29 H :    0.009560
  30 H :    0.028916
  31 H :   -0.007240
  32 H :    0.033341
  33 H :    0.032173
Sum of atomic charges:   -0.0000000

LOEWDIN ATOMIC CHARGES
----------------------
   0 S :    0.405772
   1 C :   -0.188359
   2 C :   -0.065655
   3 C :   -0.052453
   4 C :   -0.186412
   5 H :    0.022278
   6 C :   -0.041313
   7 H :    0.033587
   8 H :    0.037353
   9 C :   -0.042491
  10 H :    0.021607
  11 H :    0.026287
  12 C :   -0.054411
  13 H :    0.013827
  14 H :    0.022825
  15 H :    0.024505
  16 S :    0.359299
  17 C :   -0.141007
  18 C :   -0.055004
  19 C :   -0.057116
  20 C :   -0.195148
  21 H :    0.025531
  22 C :   -0.022919
  23 H :    0.020158
  24 H :    0.039665
  25 C :   -0.030808
  26 H :    0.021440
  27 H :    0.016373
  28 C :   -0.055391
  29 H :    0.005703
  30 H :    0.034558
  31 H :    0.022002
  32 H :    0.023228
  33 H :    0.012488

  Mayer bond orders larger than 0.100000
B(  0-S ,  1-C ) :   1.1125 B(  0-S ,  4-C ) :   1.1610 B(  1-C ,  2-C ) :   1.6334
B(  1-C , 32-H ) :   0.9673 B(  2-C ,  3-C ) :   1.2402 B(  2-C ,  6-C ) :   1.0070
B(  3-C ,  4-C ) :   1.5300 B(  3-C ,  5-H ) :   0.9957 B(  4-C , 20-C ) :   1.0751
B(  6-C ,  7-H ) :   0.9528 B(  6-C ,  8-H ) :   0.9376 B(  6-C ,  9-C ) :   1.0624
B(  9-C , 10-H ) :   0.9540 B(  9-C , 11-H ) :   0.9577 B(  9-C , 12-C ) :   1.0905
B( 12-C , 13-H ) :   0.9738 B( 12-C , 14-H ) :   0.9775 B( 12-C , 15-H ) :   0.9691
B( 16-S , 17-C ) :   1.1085 B( 16-S , 20-C ) :   1.1369 B( 17-C , 18-C ) :   1.6404
B( 17-C , 33-H ) :   0.9838 B( 18-C , 19-C ) :   1.2043 B( 18-C , 21-H ) :   0.9982
B( 19-C , 20-C ) :   1.6022 B( 19-C , 22-C ) :   1.0306 B( 22-C , 23-H ) :   0.9365
B( 22-C , 24-H ) :   0.9365 B( 22-C , 25-C ) :   1.0885 B( 25-C , 26-H ) :   0.9488
B( 25-C , 27-H ) :   0.9532 B( 25-C , 28-C ) :   1.0714 B( 28-C , 29-H ) :   0.9718
B( 28-C , 30-H ) :   0.9630 B( 28-C , 31-H ) :   0.9702

Dispersion correction           -0.015050111
FINAL SINGLE POINT ENERGY     -1339.844075197974

DIPOLE MOMENT
-------------
                                X             Y             Z
Electronic contribution:    -12.67372     -15.24279     -22.32456
Nuclear contribution   :     13.02111      15.69837      22.75755
                        -----------------------------------------
Total Dipole Moment    :      0.34740       0.45558       0.43299
                        -----------------------------------------
Magnitude (a.u.)       :      0.71813
Magnitude (Debye)      :      1.82535

Rotational constants in cm-1:     0.018987     0.009675     0.006998
Rotational constants in MHz :   569.210500   290.038565   209.794034

                             ****ORCA TERMINATED NORMALLY****
TOTAL RUN TIME: 0 days 0 hours 0 minutes 31 seconds 920 msec
