                         Program Version 4.2.1 -  RELEASE  -
|  1> ! wB97X-D3 SP def2-SVP
|  2> %pal
|  3> nprocs 16
|  4> end
|  5>
|  6> * xyz 0 1
|  7> S 	 -12.9896 	 33.7762 	 39.0307
|  8> C 	 -12.8367 	 35.4064 	 39.691
|  9> C 	 -13.3515 	 36.3643 	 38.8818
| 10> C 	 -13.7079 	 35.7666 	 37.5892
| 11> C 	 -13.7531 	 34.4022 	 37.5433
| 12> H 	 -13.9763 	 36.252 	 36.6903
| 13> C 	 -13.0999 	 37.8613 	 39.0937
| 14> H 	 -12.3495 	 38.2206 	 38.4046
| 15> H 	 -12.8128 	 38.001 	 40.0788
| 16> C 	 -14.2943 	 38.8167 	 38.769
| 17> H 	 -15.2453 	 38.4311 	 39.1956
| 18> H 	 -14.202 	 39.7027 	 39.3789
| 19> C 	 -14.5015 	 39.0951 	 37.2846
| 20> H 	 -13.6529 	 39.5145 	 36.7356
| 21> H 	 -14.9567 	 38.3117 	 36.6788
| 22> H 	 -15.2135 	 39.9369 	 37.1427
| 23> S 	 -12.7482 	 32.4229 	 35.9038
| 24> C 	 -13.6457 	 31.8986 	 34.4858
| 25> C 	 -14.5983 	 32.8239 	 34.2521
| 26> C 	 -14.9124 	 33.7055 	 35.2948
| 27> C 	 -13.9739 	 33.5901 	 36.3519
| 28> H 	 -15.1537 	 32.6597 	 33.3282
| 29> C 	 -16.0468 	 34.7031 	 35.1592
| 30> H 	 -16.141 	 35.247 	 36.1384
| 31> H 	 -16.9078 	 34.1309 	 35.0654
| 32> C 	 -15.8687 	 35.7437 	 34.068
| 33> H 	 -15.7192 	 35.0973 	 33.241
| 34> H 	 -14.9925 	 36.3163 	 34.165
| 35> C 	 -17.032 	 36.7242 	 33.961
| 36> H 	 -17.3177 	 37.145 	 34.9077
| 37> H 	 -17.8322 	 36.2244 	 33.4742
| 38> H 	 -16.8649 	 37.5889 	 33.338
| 39> H 	 -12.4177 	 35.5987 	 40.6416
| 40> H 	 -13.3602 	 31.1077 	 33.7942
| 41> *
| 42>
| 43>                          ****END OF INPUT****

CARTESIAN COORDINATES (ANGSTROEM)
---------------------------------
  S    -12.989600   33.776200   39.030700
  C    -12.836700   35.406400   39.691000
  C    -13.351500   36.364300   38.881800
  C    -13.707900   35.766600   37.589200
  C    -13.753100   34.402200   37.543300
  H    -13.976300   36.252000   36.690300
  C    -13.099900   37.861300   39.093700
  H    -12.349500   38.220600   38.404600
  H    -12.812800   38.001000   40.078800
  C    -14.294300   38.816700   38.769000
  H    -15.245300   38.431100   39.195600
  H    -14.202000   39.702700   39.378900
  C    -14.501500   39.095100   37.284600
  H    -13.652900   39.514500   36.735600
  H    -14.956700   38.311700   36.678800
  H    -15.213500   39.936900   37.142700
  S    -12.748200   32.422900   35.903800
  C    -13.645700   31.898600   34.485800
  C    -14.598300   32.823900   34.252100
  C    -14.912400   33.705500   35.294800
  C    -13.973900   33.590100   36.351900
  H    -15.153700   32.659700   33.328200
  C    -16.046800   34.703100   35.159200
  H    -16.141000   35.247000   36.138400
  H    -16.907800   34.130900   35.065400
  C    -15.868700   35.743700   34.068000
  H    -15.719200   35.097300   33.241000
  H    -14.992500   36.316300   34.165000
  C    -17.032000   36.724200   33.961000
  H    -17.317700   37.145000   34.907700
  H    -17.832200   36.224400   33.474200
  H    -16.864900   37.588900   33.338000
  H    -12.417700   35.598700   40.641600
  H    -13.360200   31.107700   33.794200

 Total Charge           Charge          ....    0
 Multiplicity           Mult            ....    1
 Number of Electrons    NEL             ....  134
 Basis Dimension        Dim             ....  322

ORBITAL ENERGIES
----------------

  NO   OCC          E(Eh)            E(eV)
   0   2.0000     -88.962470     -2420.7919
   1   2.0000     -88.962241     -2420.7857
   2   2.0000     -10.330874      -281.1174
   3   2.0000     -10.329791      -281.0879
   4   2.0000     -10.314491      -280.6716
   5   2.0000     -10.313443      -280.6430
   6   2.0000     -10.303860      -280.3823
   7   2.0000     -10.303494      -280.3723
   8   2.0000     -10.293594      -280.1029
   9   2.0000     -10.291168      -280.0369
  10   2.0000     -10.290899      -280.0296
  11   2.0000     -10.287684      -279.9421
  12   2.0000     -10.287200      -279.9290
  13   2.0000     -10.283475      -279.8276
  14   2.0000     -10.279893      -279.7301
  15   2.0000     -10.274228      -279.5760
  16   2.0000      -8.077053      -219.7878
  17   2.0000      -8.076702      -219.7782
  18   2.0000      -6.035548      -164.2356
  19   2.0000      -6.035391      -164.2313
  20   2.0000      -6.031589      -164.1279
  21   2.0000      -6.031373      -164.1220
  22   2.0000      -6.027746      -164.0233
  23   2.0000      -6.027187      -164.0081
  24   2.0000      -1.006223       -27.3807
  25   2.0000      -0.984186       -26.7811
  26   2.0000      -0.916355       -24.9353
  27   2.0000      -0.909472       -24.7480
  28   2.0000      -0.874631       -23.7999
  29   2.0000      -0.852510       -23.1980
  30   2.0000      -0.840416       -22.8689
  31   2.0000      -0.821132       -22.3441
  32   2.0000      -0.786676       -21.4065
  33   2.0000      -0.777112       -21.1463
  34   2.0000      -0.713052       -19.4031
  35   2.0000      -0.705114       -19.1871
  36   2.0000      -0.700127       -19.0514
  37   2.0000      -0.659316       -17.9409
  38   2.0000      -0.645055       -17.5528
  39   2.0000      -0.618966       -16.8429
  40   2.0000      -0.597892       -16.2695
  41   2.0000      -0.575387       -15.6571
  42   2.0000      -0.573401       -15.6030
  43   2.0000      -0.553784       -15.0692
  44   2.0000      -0.534144       -14.5348
  45   2.0000      -0.526089       -14.3156
  46   2.0000      -0.521066       -14.1789
  47   2.0000      -0.511895       -13.9294
  48   2.0000      -0.506513       -13.7829
  49   2.0000      -0.502961       -13.6863
  50   2.0000      -0.493636       -13.4325
  51   2.0000      -0.488604       -13.2956
  52   2.0000      -0.481839       -13.1115
  53   2.0000      -0.466336       -12.6896
  54   2.0000      -0.462230       -12.5779
  55   2.0000      -0.451928       -12.2976
  56   2.0000      -0.444042       -12.0830
  57   2.0000      -0.434579       -11.8255
  58   2.0000      -0.430550       -11.7159
  59   2.0000      -0.423467       -11.5231
  60   2.0000      -0.421655       -11.4738
  61   2.0000      -0.414561       -11.2808
  62   2.0000      -0.411525       -11.1982
  63   2.0000      -0.353424        -9.6172
  64   2.0000      -0.329463        -8.9651
  65   2.0000      -0.326411        -8.8821
  66   2.0000      -0.292821        -7.9681
  67   0.0000       0.024143         0.6570
  68   0.0000       0.079117         2.1529
  69   0.0000       0.106922         2.9095
  70   0.0000       0.122588         3.3358
  71   0.0000       0.124251         3.3810

MULLIKEN ATOMIC CHARGES
-----------------------
   0 S :    0.090090
   1 C :   -0.113576
   2 C :   -0.045049
   3 C :    0.029919
   4 C :   -0.140507
   5 H :   -0.010971
   6 C :    0.099313
   7 H :    0.037799
   8 H :   -0.000608
   9 C :   -0.069735
  10 H :    0.025352
  11 H :    0.024013
  12 C :   -0.070478
  13 H :    0.030241
  14 H :    0.039202
  15 H :    0.025034
  16 S :    0.094736
  17 C :   -0.097607
  18 C :   -0.052504
  19 C :   -0.041065
  20 C :   -0.138200
  21 H :    0.023846
  22 C :    0.080033
  23 H :    0.017898
  24 H :    0.015049
  25 C :   -0.044837
  26 H :    0.010232
  27 H :    0.018064
  28 C :   -0.009553
  29 H :    0.026903
  30 H :    0.021191
  31 H :    0.025635
  32 H :    0.037636
  33 H :    0.062503
Sum of atomic charges:   -0.0000000

LOEWDIN ATOMIC CHARGES
----------------------
   0 S :    0.372453
   1 C :   -0.170583
   2 C :   -0.062028
   3 C :   -0.048095
   4 C :   -0.184079
   5 H :    0.020808
   6 C :   -0.017731
   7 H :    0.034878
   8 H :    0.019266
   9 C :   -0.044351
  10 H :    0.028528
  11 H :    0.024948
  12 C :   -0.077976
  13 H :    0.025354
  14 H :    0.024116
  15 H :    0.032402
  16 S :    0.400780
  17 C :   -0.181566
  18 C :   -0.080847
  19 C :   -0.057920
  20 C :   -0.192820
  21 H :    0.032333
  22 C :   -0.025482
  23 H :    0.029471
  24 H :    0.022659
  25 C :   -0.032842
  26 H :    0.019237
  27 H :    0.017311
  28 C :   -0.058099
  29 H :    0.023904
  30 H :    0.023276
  31 H :    0.026712
  32 H :    0.020821
  33 H :    0.035162

  Mayer bond orders larger than 0.100000
B(  0-S ,  1-C ) :   1.1336 B(  0-S ,  4-C ) :   1.1103 B(  1-C ,  2-C ) :   1.6463
B(  1-C , 32-H ) :   0.9679 B(  2-C ,  3-C ) :   1.1759 B(  2-C ,  6-C ) :   1.0419
B(  3-C ,  4-C ) :   1.6282 B(  3-C ,  5-H ) :   0.9896 B(  4-C , 20-C ) :   1.0566
B(  6-C ,  7-H ) :   0.9461 B(  6-C ,  8-H ) :   0.9349 B(  6-C ,  9-C ) :   1.0613
B(  9-C , 10-H ) :   0.9534 B(  9-C , 11-H ) :   0.9581 B(  9-C , 12-C ) :   1.0805
B( 12-C , 13-H ) :   0.9730 B( 12-C , 14-H ) :   0.9726 B( 12-C , 15-H ) :   0.9668
B( 16-S , 17-C ) :   1.1429 B( 16-S , 20-C ) :   1.1586 B( 17-C , 18-C ) :   1.6161
B( 17-C , 20-C ) :   0.1026 B( 17-C , 33-H ) :   0.9674 B( 18-C , 19-C ) :   1.2536
B( 18-C , 21-H ) :   0.9797 B( 19-C , 20-C ) :   1.5600 B( 19-C , 22-C ) :   1.0430
B( 22-C , 23-H ) :   0.9303 B( 22-C , 24-H ) :   0.9301 B( 22-C , 25-C ) :   1.0560
B( 25-C , 26-H ) :   0.9552 B( 25-C , 27-H ) :   0.9545 B( 25-C , 28-C ) :   1.0834
B( 28-C , 29-H ) :   0.9728 B( 28-C , 30-H ) :   0.9733 B( 28-C , 31-H ) :   0.9745

Dispersion correction           -0.014682970
FINAL SINGLE POINT ENERGY     -1339.864826179854

DIPOLE MOMENT
-------------
                                X             Y             Z
Electronic contribution:     15.06832     -27.66346       9.00502
Nuclear contribution   :    -15.29923      28.39433      -9.37949
                        -----------------------------------------
Total Dipole Moment    :     -0.23091       0.73087      -0.37447
                        -----------------------------------------
Magnitude (a.u.)       :      0.85307
Magnitude (Debye)      :      2.16832

Rotational constants in cm-1:     0.015628     0.010927     0.006813
Rotational constants in MHz :   468.524009   327.594222   204.239519

                             ****ORCA TERMINATED NORMALLY****
TOTAL RUN TIME: 0 days 0 hours 0 minutes 35 seconds 692 msec
