                         Program Version 4.2.1 -  RELEASE  -
|  1> ! wB97X-D3 SP def2-SVP
|  2> %pal
|  3> nprocs 16
|  4> end
|  5>
|  6> * xyz 0 1
|  7> S 	 43.891 	 10.7404 	 89.11
|  8> C 	 44.5125 	 10.0366 	 90.5402
|  9> C 	 45.0776 	 10.9631 	 91.4156
| 10> C 	 45.0129 	 12.294 	 90.8608
| 11> C 	 44.3277 	 12.3596 	 89.646
| 12> H 	 45.3526 	 13.2593 	 91.2198
| 13> C 	 45.6192 	 10.6248 	 92.786
| 14> H 	 45.1854 	 9.59967 	 92.9059
| 15> H 	 45.2418 	 11.3765 	 93.4698
| 16> C 	 47.1077 	 10.5914 	 92.9071
| 17> H 	 47.2544 	 10.1814 	 93.9138
| 18> H 	 47.4542 	 9.84966 	 92.2092
| 19> C 	 47.8899 	 11.8677 	 92.6573
| 20> H 	 47.6497 	 12.654 	 93.3941
| 21> H 	 48.9694 	 11.6525 	 92.7161
| 22> H 	 47.6829 	 12.3915 	 91.6719
| 23> S 	 45.4703 	 14.3245 	 88.1604
| 24> C 	 44.4624 	 15.5001 	 87.3609
| 25> C 	 43.1457 	 15.2589 	 87.5474
| 26> C 	 42.8778 	 14.0397 	 88.2526
| 27> C 	 44.0917 	 13.5729 	 88.8416
| 28> H 	 42.5408 	 15.8302 	 86.916
| 29> C 	 41.5109 	 13.6027 	 88.6139
| 30> H 	 41.4135 	 12.4667 	 88.5518
| 31> H 	 40.885 	 13.9898 	 87.7438
| 32> C 	 40.8963 	 14.1812 	 89.8222
| 33> H 	 40.8398 	 15.2912 	 89.7427
| 34> H 	 41.6153 	 14.014 	 90.66
| 35> C 	 39.5136 	 13.6214 	 90.1159
| 36> H 	 38.7586 	 13.949 	 89.3195
| 37> H 	 39.2456 	 13.7154 	 91.1208
| 38> H 	 39.6583 	 12.5185 	 90.0737
| 39> H 	 44.3265 	 9.02251 	 90.7166
| 40> H 	 44.8963 	 16.2589 	 86.7798
| 41> *
| 42>
| 43>                          ****END OF INPUT****

CARTESIAN COORDINATES (ANGSTROEM)
---------------------------------
  S     43.891000   10.740400   89.110000
  C     44.512500   10.036600   90.540200
  C     45.077600   10.963100   91.415600
  C     45.012900   12.294000   90.860800
  C     44.327700   12.359600   89.646000
  H     45.352600   13.259300   91.219800
  C     45.619200   10.624800   92.786000
  H     45.185400    9.599670   92.905900
  H     45.241800   11.376500   93.469800
  C     47.107700   10.591400   92.907100
  H     47.254400   10.181400   93.913800
  H     47.454200    9.849660   92.209200
  C     47.889900   11.867700   92.657300
  H     47.649700   12.654000   93.394100
  H     48.969400   11.652500   92.716100
  H     47.682900   12.391500   91.671900
  S     45.470300   14.324500   88.160400
  C     44.462400   15.500100   87.360900
  C     43.145700   15.258900   87.547400
  C     42.877800   14.039700   88.252600
  C     44.091700   13.572900   88.841600
  H     42.540800   15.830200   86.916000
  C     41.510900   13.602700   88.613900
  H     41.413500   12.466700   88.551800
  H     40.885000   13.989800   87.743800
  C     40.896300   14.181200   89.822200
  H     40.839800   15.291200   89.742700
  H     41.615300   14.014000   90.660000
  C     39.513600   13.621400   90.115900
  H     38.758600   13.949000   89.319500
  H     39.245600   13.715400   91.120800
  H     39.658300   12.518500   90.073700
  H     44.326500    9.022510   90.716600
  H     44.896300   16.258900   86.779800

 Total Charge           Charge          ....    0
 Multiplicity           Mult            ....    1
 Number of Electrons    NEL             ....  134
 Basis Dimension        Dim             ....  322

ORBITAL ENERGIES
----------------

  NO   OCC          E(Eh)            E(eV)
   0   2.0000     -88.964947     -2420.8593
   1   2.0000     -88.964284     -2420.8413
   2   2.0000     -10.328185      -281.0442
   3   2.0000     -10.325958      -280.9836
   4   2.0000     -10.309400      -280.5330
   5   2.0000     -10.308949      -280.5208
   6   2.0000     -10.305487      -280.4266
   7   2.0000     -10.302568      -280.3471
   8   2.0000     -10.295424      -280.1527
   9   2.0000     -10.291569      -280.0478
  10   2.0000     -10.290948      -280.0309
  11   2.0000     -10.287629      -279.9406
  12   2.0000     -10.283182      -279.8196
  13   2.0000     -10.282492      -279.8008
  14   2.0000     -10.281708      -279.7795
  15   2.0000     -10.278269      -279.6859
  16   2.0000      -8.080654      -219.8858
  17   2.0000      -8.079404      -219.8518
  18   2.0000      -6.038925      -164.3275
  19   2.0000      -6.037822      -164.2975
  20   2.0000      -6.034968      -164.2198
  21   2.0000      -6.033754      -164.1868
  22   2.0000      -6.031671      -164.1301
  23   2.0000      -6.030367      -164.0946
  24   2.0000      -1.008003       -27.4292
  25   2.0000      -0.986711       -26.8498
  26   2.0000      -0.916987       -24.9525
  27   2.0000      -0.916711       -24.9450
  28   2.0000      -0.872549       -23.7433
  29   2.0000      -0.851979       -23.1835
  30   2.0000      -0.844726       -22.9862
  31   2.0000      -0.819218       -22.2921
  32   2.0000      -0.783910       -21.3313
  33   2.0000      -0.768509       -20.9122
  34   2.0000      -0.703024       -19.1303
  35   2.0000      -0.698161       -18.9979
  36   2.0000      -0.687114       -18.6973
  37   2.0000      -0.664440       -18.0803
  38   2.0000      -0.647522       -17.6200
  39   2.0000      -0.612237       -16.6598
  40   2.0000      -0.597144       -16.2491
  41   2.0000      -0.580560       -15.7978
  42   2.0000      -0.566039       -15.4027
  43   2.0000      -0.545219       -14.8362
  44   2.0000      -0.537953       -14.6385
  45   2.0000      -0.523261       -14.2386
  46   2.0000      -0.519703       -14.1418
  47   2.0000      -0.514992       -14.0137
  48   2.0000      -0.510992       -13.9048
  49   2.0000      -0.494667       -13.4606
  50   2.0000      -0.485383       -13.2079
  51   2.0000      -0.481594       -13.1048
  52   2.0000      -0.473083       -12.8732
  53   2.0000      -0.463930       -12.6242
  54   2.0000      -0.462009       -12.5719
  55   2.0000      -0.445216       -12.1149
  56   2.0000      -0.438347       -11.9280
  57   2.0000      -0.435463       -11.8496
  58   2.0000      -0.432996       -11.7824
  59   2.0000      -0.425872       -11.5886
  60   2.0000      -0.422756       -11.5038
  61   2.0000      -0.412066       -11.2129
  62   2.0000      -0.403511       -10.9801
  63   2.0000      -0.342057        -9.3079
  64   2.0000      -0.334422        -9.1001
  65   2.0000      -0.324246        -8.8232
  66   2.0000      -0.295829        -8.0499
  67   0.0000       0.033723         0.9177
  68   0.0000       0.068936         1.8759
  69   0.0000       0.109767         2.9869
  70   0.0000       0.115989         3.1562
  71   0.0000       0.132597         3.6082

MULLIKEN ATOMIC CHARGES
-----------------------
   0 S :    0.117648
   1 C :   -0.118984
   2 C :   -0.090091
   3 C :    0.016840
   4 C :   -0.160374
   5 H :    0.010676
   6 C :    0.079324
   7 H :    0.025085
   8 H :    0.027821
   9 C :   -0.034758
  10 H :    0.031971
  11 H :    0.017190
  12 C :   -0.083409
  13 H :    0.027175
  14 H :    0.045430
  15 H :    0.049523
  16 S :    0.118991
  17 C :   -0.090431
  18 C :    0.005949
  19 C :   -0.032128
  20 C :   -0.167695
  21 H :    0.001990
  22 C :    0.016023
  23 H :    0.035677
  24 H :    0.019009
  25 C :   -0.073076
  26 H :    0.026989
  27 H :    0.029686
  28 C :   -0.017469
  29 H :    0.051614
  30 H :    0.022299
  31 H :    0.020943
  32 H :    0.031539
  33 H :    0.039025
Sum of atomic charges:    0.0000000

LOEWDIN ATOMIC CHARGES
----------------------
   0 S :    0.419028
   1 C :   -0.203586
   2 C :   -0.061514
   3 C :   -0.067287
   4 C :   -0.198587
   5 H :    0.030287
   6 C :   -0.031352
   7 H :    0.038940
   8 H :    0.029985
   9 C :   -0.044146
  10 H :    0.028632
  11 H :    0.022943
  12 C :   -0.075092
  13 H :    0.023662
  14 H :    0.032209
  15 H :    0.034240
  16 S :    0.430692
  17 C :   -0.175173
  18 C :   -0.065790
  19 C :   -0.053408
  20 C :   -0.214600
  21 H :    0.025794
  22 C :   -0.050610
  23 H :    0.031974
  24 H :    0.035895
  25 C :   -0.049536
  26 H :    0.025915
  27 H :    0.028016
  28 C :   -0.066393
  29 H :    0.037152
  30 H :    0.019801
  31 H :    0.029860
  32 H :    0.014396
  33 H :    0.017654

  Mayer bond orders larger than 0.100000
B(  0-S ,  1-C ) :   1.1580 B(  0-S ,  4-C ) :   1.1509 B(  1-C ,  2-C ) :   1.5980
B(  1-C , 32-H ) :   0.9731 B(  2-C ,  3-C ) :   1.2181 B(  2-C ,  6-C ) :   1.0175
B(  3-C ,  4-C ) :   1.5798 B(  3-C ,  5-H ) :   0.9940 B(  4-C , 20-C ) :   1.0351
B(  6-C ,  7-H ) :   0.9346 B(  6-C ,  8-H ) :   0.9370 B(  6-C ,  9-C ) :   1.0854
B(  9-C , 10-H ) :   0.9512 B(  9-C , 11-H ) :   0.9468 B(  9-C , 12-C ) :   1.0833
B( 12-C , 13-H ) :   0.9734 B( 12-C , 14-H ) :   0.9720 B( 12-C , 15-H ) :   0.9672
B( 16-S , 17-C ) :   1.1599 B( 16-S , 20-C ) :   1.1783 B( 17-C , 18-C ) :   1.6150
B( 17-C , 33-H ) :   0.9731 B( 18-C , 19-C ) :   1.2393 B( 18-C , 21-H ) :   0.9904
B( 19-C , 20-C ) :   1.5316 B( 19-C , 22-C ) :   1.0770 B( 22-C , 23-H ) :   0.9238
B( 22-C , 24-H ) :   0.9217 B( 22-C , 25-C ) :   1.0729 B( 25-C , 26-H ) :   0.9471
B( 25-C , 27-H ) :   0.9504 B( 25-C , 28-C ) :   1.0797 B( 28-C , 29-H ) :   0.9722
B( 28-C , 30-H ) :   0.9697 B( 28-C , 31-H ) :   0.9709

Dispersion correction           -0.014498514
FINAL SINGLE POINT ENERGY     -1339.877054712385

DIPOLE MOMENT
-------------
                                X             Y             Z
Electronic contribution:      5.54780       0.41951     -16.04256
Nuclear contribution   :     -5.64682      -0.34892      16.28104
                        -----------------------------------------
Total Dipole Moment    :     -0.09902       0.07059       0.23848
                        -----------------------------------------
Magnitude (a.u.)       :      0.26769
Magnitude (Debye)      :      0.68042

Rotational constants in cm-1:     0.018992     0.008683     0.007092
Rotational constants in MHz :   569.364983   260.317010   212.614751

                             ****ORCA TERMINATED NORMALLY****
TOTAL RUN TIME: 0 days 0 hours 0 minutes 30 seconds 381 msec
