                         Program Version 4.2.1 -  RELEASE  -
|  1> ! wB97X-D3 SP def2-SVP
|  2> %pal
|  3> nprocs 16
|  4> end
|  5>
|  6> * xyz 0 1
|  7> S 	 -54.759 	 28.1969 	 93.073
|  8> C 	 -54.3202 	 26.7244 	 94.0315
|  9> C 	 -53.752 	 25.7422 	 93.1948
| 10> C 	 -53.594 	 26.2487 	 91.8524
| 11> C 	 -54.0062 	 27.5239 	 91.6001
| 12> H 	 -53.05 	 25.716 	 91.0468
| 13> C 	 -53.2114 	 24.3655 	 93.5448
| 14> H 	 -53.1712 	 24.3126 	 94.6947
| 15> H 	 -52.1919 	 24.1575 	 93.2314
| 16> C 	 -54.0906 	 23.2768 	 92.8713
| 17> H 	 -54.106 	 23.3906 	 91.7923
| 18> H 	 -53.7263 	 22.2683 	 92.9341
| 19> C 	 -55.5545 	 23.1089 	 93.3315
| 20> H 	 -55.5781 	 22.7431 	 94.3178
| 21> H 	 -56.1139 	 24.0139 	 93.1188
| 22> H 	 -55.9583 	 22.46 	 92.6862
| 23> S 	 -52.4198 	 28.312 	 89.5728
| 24> C 	 -52.9076 	 29.5864 	 88.4366
| 25> C 	 -54.1785 	 29.9598 	 88.7583
| 26> C 	 -54.7955 	 29.1864 	 89.7711
| 27> C 	 -53.9492 	 28.2613 	 90.3681
| 28> H 	 -54.739 	 30.5905 	 88.1141
| 29> C 	 -56.2809 	 29.4204 	 90.1372
| 30> H 	 -56.3688 	 28.8306 	 91.0697
| 31> H 	 -56.9624 	 28.9138 	 89.4073
| 32> C 	 -56.6584 	 30.8648 	 90.4527
| 33> H 	 -56.5132 	 31.5849 	 89.6767
| 34> H 	 -55.9346 	 31.1423 	 91.2131
| 35> C 	 -58.111 	 30.9755 	 90.8914
| 36> H 	 -58.4885 	 30.0674 	 91.3215
| 37> H 	 -58.6097 	 31.2291 	 89.9137
| 38> H 	 -58.3711 	 31.7449 	 91.6056
| 39> H 	 -54.3089 	 26.6777 	 95.1256
| 40> H 	 -52.2433 	 30.1735 	 87.7459
| 41> *
| 42>
| 43>                          ****END OF INPUT****

CARTESIAN COORDINATES (ANGSTROEM)
---------------------------------
  S    -54.759000   28.196900   93.073000
  C    -54.320200   26.724400   94.031500
  C    -53.752000   25.742200   93.194800
  C    -53.594000   26.248700   91.852400
  C    -54.006200   27.523900   91.600100
  H    -53.050000   25.716000   91.046800
  C    -53.211400   24.365500   93.544800
  H    -53.171200   24.312600   94.694700
  H    -52.191900   24.157500   93.231400
  C    -54.090600   23.276800   92.871300
  H    -54.106000   23.390600   91.792300
  H    -53.726300   22.268300   92.934100
  C    -55.554500   23.108900   93.331500
  H    -55.578100   22.743100   94.317800
  H    -56.113900   24.013900   93.118800
  H    -55.958300   22.460000   92.686200
  S    -52.419800   28.312000   89.572800
  C    -52.907600   29.586400   88.436600
  C    -54.178500   29.959800   88.758300
  C    -54.795500   29.186400   89.771100
  C    -53.949200   28.261300   90.368100
  H    -54.739000   30.590500   88.114100
  C    -56.280900   29.420400   90.137200
  H    -56.368800   28.830600   91.069700
  H    -56.962400   28.913800   89.407300
  C    -56.658400   30.864800   90.452700
  H    -56.513200   31.584900   89.676700
  H    -55.934600   31.142300   91.213100
  C    -58.111000   30.975500   90.891400
  H    -58.488500   30.067400   91.321500
  H    -58.609700   31.229100   89.913700
  H    -58.371100   31.744900   91.605600
  H    -54.308900   26.677700   95.125600
  H    -52.243300   30.173500   87.745900

 Total Charge           Charge          ....    0
 Multiplicity           Mult            ....    1
 Number of Electrons    NEL             ....  134
 Basis Dimension        Dim             ....  322

ORBITAL ENERGIES
----------------

  NO   OCC          E(Eh)            E(eV)
   0   2.0000     -88.969060     -2420.9712
   1   2.0000     -88.965361     -2420.8706
   2   2.0000     -10.333810      -281.1973
   3   2.0000     -10.327161      -281.0163
   4   2.0000     -10.327010      -281.0122
   5   2.0000     -10.322829      -280.8985
   6   2.0000     -10.311749      -280.5970
   7   2.0000     -10.304896      -280.4105
   8   2.0000     -10.301387      -280.3150
   9   2.0000     -10.296612      -280.1851
  10   2.0000     -10.293194      -280.0920
  11   2.0000     -10.288180      -279.9556
  12   2.0000     -10.284328      -279.8508
  13   2.0000     -10.279966      -279.7321
  14   2.0000     -10.274965      -279.5960
  15   2.0000     -10.259993      -279.1886
  16   2.0000      -8.081880      -219.9191
  17   2.0000      -8.080233      -219.8743
  18   2.0000      -6.040702      -164.3758
  19   2.0000      -6.038783      -164.3237
  20   2.0000      -6.036690      -164.2667
  21   2.0000      -6.034621      -164.2104
  22   2.0000      -6.032377      -164.1493
  23   2.0000      -6.031004      -164.1120
  24   2.0000      -1.008580       -27.4448
  25   2.0000      -0.979658       -26.6579
  26   2.0000      -0.909837       -24.7579
  27   2.0000      -0.907966       -24.7070
  28   2.0000      -0.874016       -23.7832
  29   2.0000      -0.850750       -23.1501
  30   2.0000      -0.842125       -22.9154
  31   2.0000      -0.816929       -22.2298
  32   2.0000      -0.784893       -21.3580
  33   2.0000      -0.769377       -20.9358
  34   2.0000      -0.708725       -19.2854
  35   2.0000      -0.700651       -19.0657
  36   2.0000      -0.693733       -18.8774
  37   2.0000      -0.665475       -18.1085
  38   2.0000      -0.632697       -17.2165
  39   2.0000      -0.619024       -16.8445
  40   2.0000      -0.594339       -16.1728
  41   2.0000      -0.570128       -15.5140
  42   2.0000      -0.567436       -15.4407
  43   2.0000      -0.552608       -15.0372
  44   2.0000      -0.545317       -14.8388
  45   2.0000      -0.527907       -14.3651
  46   2.0000      -0.522215       -14.2102
  47   2.0000      -0.516367       -14.0511
  48   2.0000      -0.505985       -13.7686
  49   2.0000      -0.498610       -13.5679
  50   2.0000      -0.481090       -13.0911
  51   2.0000      -0.475898       -12.9499
  52   2.0000      -0.470202       -12.7949
  53   2.0000      -0.465703       -12.6724
  54   2.0000      -0.458112       -12.4659
  55   2.0000      -0.445580       -12.1249
  56   2.0000      -0.442706       -12.0466
  57   2.0000      -0.436883       -11.8882
  58   2.0000      -0.428973       -11.6730
  59   2.0000      -0.423109       -11.5134
  60   2.0000      -0.415340       -11.3020
  61   2.0000      -0.411277       -11.1914
  62   2.0000      -0.410318       -11.1653
  63   2.0000      -0.357598        -9.7307
  64   2.0000      -0.331119        -9.0102
  65   2.0000      -0.330064        -8.9815
  66   2.0000      -0.290572        -7.9069
  67   0.0000       0.024352         0.6627
  68   0.0000       0.064309         1.7499
  69   0.0000       0.101028         2.7491
  70   0.0000       0.112922         3.0728
  71   0.0000       0.132868         3.6155

MULLIKEN ATOMIC CHARGES
-----------------------
   0 S :    0.092067
   1 C :   -0.130970
   2 C :   -0.072105
   3 C :   -0.006617
   4 C :   -0.122220
   5 H :    0.028359
   6 C :    0.075004
   7 H :    0.031413
   8 H :    0.039662
   9 C :   -0.120845
  10 H :    0.022543
  11 H :    0.017238
  12 C :    0.024989
  13 H :    0.028342
  14 H :    0.032400
  15 H :   -0.004179
  16 S :    0.091512
  17 C :   -0.106063
  18 C :   -0.010513
  19 C :   -0.088559
  20 C :   -0.123517
  21 H :    0.013254
  22 C :    0.046112
  23 H :    0.015979
  24 H :    0.045554
  25 C :   -0.070738
  26 H :    0.023060
  27 H :    0.024820
  28 C :   -0.041451
  29 H :    0.028398
  30 H :    0.037145
  31 H :    0.035261
  32 H :    0.061954
  33 H :    0.082710
Sum of atomic charges:   -0.0000000

LOEWDIN ATOMIC CHARGES
----------------------
   0 S :    0.373466
   1 C :   -0.181346
   2 C :   -0.056660
   3 C :   -0.069601
   4 C :   -0.177178
   5 H :    0.034286
   6 C :   -0.032396
   7 H :    0.036342
   8 H :    0.034159
   9 C :   -0.042148
  10 H :    0.022956
  11 H :    0.020528
  12 C :   -0.047737
  13 H :    0.020044
  14 H :    0.028209
  15 H :    0.011426
  16 S :    0.413036
  17 C :   -0.185481
  18 C :   -0.070709
  19 C :   -0.064554
  20 C :   -0.205672
  21 H :    0.026853
  22 C :   -0.035864
  23 H :    0.019344
  24 H :    0.033663
  25 C :   -0.044320
  26 H :    0.016920
  27 H :    0.023584
  28 C :   -0.064351
  29 H :    0.021849
  30 H :    0.035195
  31 H :    0.025870
  32 H :    0.033669
  33 H :    0.046619

  Mayer bond orders larger than 0.100000
B(  0-S ,  1-C ) :   1.1221 B(  0-S ,  4-C ) :   1.1077 B(  1-C ,  2-C ) :   1.6246
B(  1-C , 32-H ) :   0.9642 B(  2-C ,  3-C ) :   1.2080 B(  2-C ,  6-C ) :   1.0267
B(  3-C ,  4-C ) :   1.6107 B(  3-C ,  5-H ) :   0.9823 B(  4-C , 20-C ) :   1.0570
B(  6-C ,  7-H ) :   0.9473 B(  6-C ,  8-H ) :   0.9453 B(  6-C ,  9-C ) :   1.0480
B(  9-C , 10-H ) :   0.9584 B(  9-C , 11-H ) :   0.9586 B(  9-C , 12-C ) :   1.0862
B( 12-C , 13-H ) :   0.9771 B( 12-C , 14-H ) :   0.9716 B( 12-C , 15-H ) :   0.9651
B( 16-S , 17-C ) :   1.1486 B( 16-S , 20-C ) :   1.1461 B( 17-C , 18-C ) :   1.6024
B( 17-C , 33-H ) :   0.9594 B( 18-C , 19-C ) :   1.2703 B( 18-C , 21-H ) :   0.9875
B( 19-C , 20-C ) :   1.5701 B( 19-C , 22-C ) :   1.0300 B( 22-C , 23-H ) :   0.9286
B( 22-C , 24-H ) :   0.9369 B( 22-C , 25-C ) :   1.0557 B( 25-C , 26-H ) :   0.9633
B( 25-C , 27-H ) :   0.9540 B( 25-C , 28-C ) :   1.0695 B( 28-C , 29-H ) :   0.9765
B( 28-C , 30-H ) :   0.9794 B( 28-C , 31-H ) :   0.9758

Dispersion correction           -0.014134068
FINAL SINGLE POINT ENERGY     -1339.862627527320

DIPOLE MOMENT
-------------
                                X             Y             Z
Electronic contribution:     15.40846       7.64769      -4.00534
Nuclear contribution   :    -15.46663      -7.83013       3.94681
                        -----------------------------------------
Total Dipole Moment    :     -0.05817      -0.18244      -0.05854
                        -----------------------------------------
Magnitude (a.u.)       :      0.20024
Magnitude (Debye)      :      0.50897

Rotational constants in cm-1:     0.019819     0.008211     0.006610
Rotational constants in MHz :   594.146863   246.173588   198.169426

                             ****ORCA TERMINATED NORMALLY****
TOTAL RUN TIME: 0 days 0 hours 0 minutes 27 seconds 471 msec
