                         Program Version 4.2.1 -  RELEASE  -
|  1> ! wB97X-D3 SP def2-SVP
|  2> %pal
|  3> nprocs 16
|  4> end
|  5>
|  6> * xyz 0 1
|  7> S 	 -16.3238 	 37.7824 	 37.3942
|  8> C 	 -16.4943 	 37.7073 	 39.1042
|  9> C 	 -15.3027 	 37.2314 	 39.7368
| 10> C 	 -14.3172 	 36.8773 	 38.7681
| 11> C 	 -14.7461 	 36.982 	 37.4969
| 12> H 	 -13.4153 	 36.3617 	 39.0817
| 13> C 	 -15.0892 	 37.2333 	 41.1982
| 14> H 	 -14.7516 	 36.2603 	 41.5236
| 15> H 	 -16.085 	 37.3794 	 41.6988
| 16> C 	 -14.1085 	 38.2598 	 41.8906
| 17> H 	 -14.5096 	 39.2829 	 41.7043
| 18> H 	 -14.1719 	 38.1928 	 43.0049
| 19> C 	 -12.5928 	 38.085 	 41.5384
| 20> H 	 -12.4246 	 37.0714 	 41.8797
| 21> H 	 -12.3326 	 38.1942 	 40.4946
| 22> H 	 -11.9552 	 38.6826 	 42.1089
| 23> S 	 -12.304 	 36.0604 	 36.8305
| 24> C 	 -11.9724 	 35.4747 	 35.1962
| 25> C 	 -13.0404 	 35.5507 	 34.3593
| 26> C 	 -14.1928 	 36.0702 	 35.0388
| 27> C 	 -13.9701 	 36.4387 	 36.3624
| 28> H 	 -12.9468 	 35.2426 	 33.3592
| 29> C 	 -15.4764 	 36.2824 	 34.2721
| 30> H 	 -15.4744 	 35.8763 	 33.3008
| 31> H 	 -15.7975 	 37.3113 	 34.2193
| 32> C 	 -16.6104 	 35.4067 	 34.8045
| 33> H 	 -17.6125 	 35.7074 	 34.3955
| 34> H 	 -16.5587 	 35.5198 	 35.9404
| 35> C 	 -16.53 	 33.8488 	 34.4755
| 36> H 	 -17.1914 	 33.2449 	 35.1054
| 37> H 	 -15.4712 	 33.4707 	 34.4646
| 38> H 	 -16.7992 	 33.6462 	 33.5153
| 39> H 	 -17.2686 	 38.2653 	 39.6651
| 40> H 	 -10.9863 	 35.4497 	 34.7625
| 41> *
| 42>
| 43>                          ****END OF INPUT****

CARTESIAN COORDINATES (ANGSTROEM)
---------------------------------
  S    -16.323800   37.782400   37.394200
  C    -16.494300   37.707300   39.104200
  C    -15.302700   37.231400   39.736800
  C    -14.317200   36.877300   38.768100
  C    -14.746100   36.982000   37.496900
  H    -13.415300   36.361700   39.081700
  C    -15.089200   37.233300   41.198200
  H    -14.751600   36.260300   41.523600
  H    -16.085000   37.379400   41.698800
  C    -14.108500   38.259800   41.890600
  H    -14.509600   39.282900   41.704300
  H    -14.171900   38.192800   43.004900
  C    -12.592800   38.085000   41.538400
  H    -12.424600   37.071400   41.879700
  H    -12.332600   38.194200   40.494600
  H    -11.955200   38.682600   42.108900
  S    -12.304000   36.060400   36.830500
  C    -11.972400   35.474700   35.196200
  C    -13.040400   35.550700   34.359300
  C    -14.192800   36.070200   35.038800
  C    -13.970100   36.438700   36.362400
  H    -12.946800   35.242600   33.359200
  C    -15.476400   36.282400   34.272100
  H    -15.474400   35.876300   33.300800
  H    -15.797500   37.311300   34.219300
  C    -16.610400   35.406700   34.804500
  H    -17.612500   35.707400   34.395500
  H    -16.558700   35.519800   35.940400
  C    -16.530000   33.848800   34.475500
  H    -17.191400   33.244900   35.105400
  H    -15.471200   33.470700   34.464600
  H    -16.799200   33.646200   33.515300
  H    -17.268600   38.265300   39.665100
  H    -10.986300   35.449700   34.762500

 Total Charge           Charge          ....    0
 Multiplicity           Mult            ....    1
 Number of Electrons    NEL             ....  134
 Basis Dimension        Dim             ....  322

ORBITAL ENERGIES
----------------

  NO   OCC          E(Eh)            E(eV)
   0   2.0000     -88.973483     -2421.0916
   1   2.0000     -88.964978     -2420.8601
   2   2.0000     -10.335020      -281.2302
   3   2.0000     -10.333790      -281.1967
   4   2.0000     -10.318660      -280.7850
   5   2.0000     -10.313417      -280.6423
   6   2.0000     -10.306841      -280.4634
   7   2.0000     -10.304832      -280.4087
   8   2.0000     -10.297381      -280.2060
   9   2.0000     -10.295486      -280.1544
  10   2.0000     -10.291793      -280.0539
  11   2.0000     -10.291185      -280.0374
  12   2.0000     -10.288831      -279.9733
  13   2.0000     -10.284013      -279.8422
  14   2.0000     -10.274019      -279.5703
  15   2.0000     -10.270321      -279.4696
  16   2.0000      -8.087534      -220.0730
  17   2.0000      -8.079202      -219.8463
  18   2.0000      -6.046091      -164.5225
  19   2.0000      -6.042147      -164.4152
  20   2.0000      -6.038272      -164.3097
  21   2.0000      -6.037854      -164.2984
  22   2.0000      -6.033897      -164.1907
  23   2.0000      -6.029735      -164.0774
  24   2.0000      -1.009392       -27.4670
  25   2.0000      -0.985048       -26.8045
  26   2.0000      -0.906840       -24.6764
  27   2.0000      -0.905464       -24.6389
  28   2.0000      -0.876537       -23.8518
  29   2.0000      -0.851306       -23.1652
  30   2.0000      -0.837390       -22.7865
  31   2.0000      -0.818930       -22.2842
  32   2.0000      -0.785680       -21.3794
  33   2.0000      -0.772003       -21.0073
  34   2.0000      -0.707108       -19.2414
  35   2.0000      -0.700230       -19.0542
  36   2.0000      -0.683537       -18.6000
  37   2.0000      -0.670030       -18.2324
  38   2.0000      -0.636346       -17.3159
  39   2.0000      -0.617599       -16.8057
  40   2.0000      -0.599359       -16.3094
  41   2.0000      -0.571870       -15.5614
  42   2.0000      -0.554715       -15.0946
  43   2.0000      -0.545083       -14.8325
  44   2.0000      -0.543870       -14.7995
  45   2.0000      -0.538611       -14.6563
  46   2.0000      -0.515588       -14.0298
  47   2.0000      -0.509897       -13.8750
  48   2.0000      -0.505284       -13.7495
  49   2.0000      -0.494496       -13.4559
  50   2.0000      -0.488034       -13.2801
  51   2.0000      -0.482179       -13.1208
  52   2.0000      -0.473268       -12.8783
  53   2.0000      -0.462302       -12.5799
  54   2.0000      -0.459407       -12.5011
  55   2.0000      -0.452562       -12.3148
  56   2.0000      -0.443452       -12.0670
  57   2.0000      -0.436081       -11.8664
  58   2.0000      -0.426655       -11.6099
  59   2.0000      -0.424421       -11.5491
  60   2.0000      -0.418938       -11.3999
  61   2.0000      -0.409887       -11.1536
  62   2.0000      -0.401562       -10.9271
  63   2.0000      -0.368142       -10.0177
  64   2.0000      -0.333019        -9.0619
  65   2.0000      -0.329118        -8.9558
  66   2.0000      -0.281954        -7.6723
  67   0.0000       0.016026         0.4361
  68   0.0000       0.076197         2.0734
  69   0.0000       0.106858         2.9078
  70   0.0000       0.112517         3.0617
  71   0.0000       0.124462         3.3868

MULLIKEN ATOMIC CHARGES
-----------------------
   0 S :    0.125571
   1 C :   -0.124783
   2 C :   -0.084021
   3 C :   -0.029997
   4 C :   -0.081277
   5 H :    0.039640
   6 C :    0.041337
   7 H :    0.022008
   8 H :    0.026380
   9 C :   -0.094659
  10 H :    0.027503
  11 H :    0.035750
  12 C :   -0.026795
  13 H :    0.017285
  14 H :    0.046000
  15 H :    0.022474
  16 S :    0.057600
  17 C :   -0.061791
  18 C :   -0.023147
  19 C :   -0.083500
  20 C :   -0.111034
  21 H :    0.007455
  22 C :    0.108041
  23 H :   -0.002181
  24 H :    0.043084
  25 C :   -0.138007
  26 H :    0.035963
  27 H :    0.049846
  28 C :   -0.039517
  29 H :    0.041330
  30 H :    0.031128
  31 H :   -0.000271
  32 H :    0.064064
  33 H :    0.058521
Sum of atomic charges:   -0.0000000

LOEWDIN ATOMIC CHARGES
----------------------
   0 S :    0.427170
   1 C :   -0.215988
   2 C :   -0.058121
   3 C :   -0.078934
   4 C :   -0.181686
   5 H :    0.027054
   6 C :   -0.040298
   7 H :    0.026723
   8 H :    0.038426
   9 C :   -0.038904
  10 H :    0.020327
  11 H :    0.029549
  12 C :   -0.062377
  13 H :    0.024889
  14 H :    0.025402
  15 H :    0.019301
  16 S :    0.395028
  17 C :   -0.177301
  18 C :   -0.059224
  19 C :   -0.057489
  20 C :   -0.170256
  21 H :    0.028254
  22 C :   -0.036919
  23 H :    0.024752
  24 H :    0.031527
  25 C :   -0.045038
  26 H :    0.025620
  27 H :    0.016831
  28 C :   -0.069123
  29 H :    0.030785
  30 H :    0.030189
  31 H :    0.005400
  32 H :    0.034380
  33 H :    0.030052

  Mayer bond orders larger than 0.100000
B(  0-S ,  1-C ) :   1.1460 B(  0-S ,  4-C ) :   1.1346 B(  1-C ,  2-C ) :   1.5871
B(  1-C , 32-H ) :   0.9579 B(  2-C ,  3-C ) :   1.2719 B(  2-C ,  6-C ) :   1.0526
B(  3-C ,  4-C ) :   1.5567 B(  3-C ,  5-H ) :   0.9670 B(  4-C , 20-C ) :   1.0570
B(  6-C ,  7-H ) :   0.9336 B(  6-C ,  8-H ) :   0.9361 B(  6-C ,  9-C ) :   1.0627
B(  9-C , 10-H ) :   0.9571 B(  9-C , 11-H ) :   0.9566 B(  9-C , 12-C ) :   1.0661
B( 12-C , 13-H ) :   0.9745 B( 12-C , 14-H ) :   0.9755 B( 12-C , 15-H ) :   0.9733
B( 16-S , 17-C ) :   1.1380 B( 16-S , 20-C ) :   1.1310 B( 17-C , 18-C ) :   1.6488
B( 17-C , 33-H ) :   0.9570 B( 18-C , 19-C ) :   1.2203 B( 18-C , 21-H ) :   0.9975
B( 19-C , 20-C ) :   1.5966 B( 19-C , 22-C ) :   1.0478 B( 22-C , 23-H ) :   0.9311
B( 22-C , 24-H ) :   0.9422 B( 22-C , 25-C ) :   1.0457 B( 25-C , 26-H ) :   0.9583
B( 25-C , 27-H ) :   0.9600 B( 25-C , 28-C ) :   1.0639 B( 28-C , 29-H ) :   0.9766
B( 28-C , 30-H ) :   0.9770 B( 28-C , 31-H ) :   0.9726

Dispersion correction           -0.014883607
FINAL SINGLE POINT ENERGY     -1339.858923262109

DIPOLE MOMENT
-------------
                                X             Y             Z
Electronic contribution:      3.79455       3.86511      -6.80802
Nuclear contribution   :     -3.78434      -3.80418       6.85242
                        -----------------------------------------
Total Dipole Moment    :      0.01022       0.06093       0.04440
                        -----------------------------------------
Magnitude (a.u.)       :      0.07608
Magnitude (Debye)      :      0.19338

Rotational constants in cm-1:     0.021759     0.008979     0.006932
Rotational constants in MHz :   652.314961   269.192442   207.815204

                             ****ORCA TERMINATED NORMALLY****
TOTAL RUN TIME: 0 days 0 hours 0 minutes 32 seconds 521 msec
