                         Program Version 4.2.1 -  RELEASE  -
|  1> ! wB97X-D3 SP def2-SVP
|  2> %pal
|  3> nprocs 16
|  4> end
|  5>
|  6> * xyz 0 1
|  7> S 	 58.5325 	 22.1142 	 80.6172
|  8> C 	 58.8536 	 22.3102 	 82.2802
|  9> C 	 58.052 	 21.4691 	 82.9996
| 10> C 	 57.0951 	 20.8176 	 82.2039
| 11> C 	 57.1513 	 21.0694 	 80.8751
| 12> H 	 56.3773 	 20.127 	 82.6504
| 13> C 	 58.2162 	 21.2887 	 84.5011
| 14> H 	 59.2552 	 21.2392 	 84.7744
| 15> H 	 57.9475 	 20.2747 	 84.632
| 16> C 	 57.4703 	 22.2327 	 85.5063
| 17> H 	 57.6497 	 21.84 	 86.5076
| 18> H 	 57.958 	 23.2102 	 85.5418
| 19> C 	 55.9782 	 22.4079 	 85.1598
| 20> H 	 55.2974 	 23.0267 	 85.778
| 21> H 	 55.9392 	 22.705 	 84.0757
| 22> H 	 55.472 	 21.444 	 85.2967
| 23> S 	 57.4127 	 19.6165 	 78.4764
| 24> C 	 56.0572 	 19.0604 	 77.6808
| 25> C 	 54.9283 	 19.5297 	 78.2426
| 26> C 	 55.1462 	 20.3496 	 79.4107
| 27> C 	 56.4845 	 20.4268 	 79.7202
| 28> H 	 54.0061 	 19.2005 	 77.8064
| 29> C 	 53.9855 	 20.6394 	 80.3678
| 30> H 	 54.4457 	 21.0364 	 81.2363
| 31> H 	 53.4584 	 19.6714 	 80.5947
| 32> C 	 52.9019 	 21.6509 	 79.8388
| 33> H 	 52.4486 	 21.3504 	 78.9182
| 34> H 	 53.4468 	 22.6118 	 79.6568
| 35> C 	 51.8162 	 22.0778 	 80.8569
| 36> H 	 51.0404 	 22.7711 	 80.4884
| 37> H 	 52.2473 	 22.6208 	 81.6812
| 38> H 	 51.259 	 21.2023 	 81.2097
| 39> H 	 59.6941 	 22.8784 	 82.5703
| 40> H 	 56.0084 	 18.2962 	 76.9438
| 41> *
| 42>
| 43>                          ****END OF INPUT****

CARTESIAN COORDINATES (ANGSTROEM)
---------------------------------
  S     58.532500   22.114200   80.617200
  C     58.853600   22.310200   82.280200
  C     58.052000   21.469100   82.999600
  C     57.095100   20.817600   82.203900
  C     57.151300   21.069400   80.875100
  H     56.377300   20.127000   82.650400
  C     58.216200   21.288700   84.501100
  H     59.255200   21.239200   84.774400
  H     57.947500   20.274700   84.632000
  C     57.470300   22.232700   85.506300
  H     57.649700   21.840000   86.507600
  H     57.958000   23.210200   85.541800
  C     55.978200   22.407900   85.159800
  H     55.297400   23.026700   85.778000
  H     55.939200   22.705000   84.075700
  H     55.472000   21.444000   85.296700
  S     57.412700   19.616500   78.476400
  C     56.057200   19.060400   77.680800
  C     54.928300   19.529700   78.242600
  C     55.146200   20.349600   79.410700
  C     56.484500   20.426800   79.720200
  H     54.006100   19.200500   77.806400
  C     53.985500   20.639400   80.367800
  H     54.445700   21.036400   81.236300
  H     53.458400   19.671400   80.594700
  C     52.901900   21.650900   79.838800
  H     52.448600   21.350400   78.918200
  H     53.446800   22.611800   79.656800
  C     51.816200   22.077800   80.856900
  H     51.040400   22.771100   80.488400
  H     52.247300   22.620800   81.681200
  H     51.259000   21.202300   81.209700
  H     59.694100   22.878400   82.570300
  H     56.008400   18.296200   76.943800

 Total Charge           Charge          ....    0
 Multiplicity           Mult            ....    1
 Number of Electrons    NEL             ....  134
 Basis Dimension        Dim             ....  322

ORBITAL ENERGIES
----------------

  NO   OCC          E(Eh)            E(eV)
   0   2.0000     -88.963305     -2420.8146
   1   2.0000     -88.960594     -2420.7408
   2   2.0000     -10.329953      -281.0923
   3   2.0000     -10.328543      -281.0539
   4   2.0000     -10.308317      -280.5036
   5   2.0000     -10.305730      -280.4332
   6   2.0000     -10.303199      -280.3643
   7   2.0000     -10.297012      -280.1960
   8   2.0000     -10.295473      -280.1541
   9   2.0000     -10.292713      -280.0790
  10   2.0000     -10.291577      -280.0480
  11   2.0000     -10.288614      -279.9674
  12   2.0000     -10.287885      -279.9476
  13   2.0000     -10.285964      -279.8953
  14   2.0000     -10.282027      -279.7882
  15   2.0000     -10.277433      -279.6632
  16   2.0000      -8.079839      -219.8636
  17   2.0000      -8.076741      -219.7793
  18   2.0000      -6.038308      -164.3107
  19   2.0000      -6.035024      -164.2214
  20   2.0000      -6.033986      -164.1931
  21   2.0000      -6.030952      -164.1105
  22   2.0000      -6.030617      -164.1014
  23   2.0000      -6.027731      -164.0229
  24   2.0000      -1.017204       -27.6795
  25   2.0000      -0.999005       -27.1843
  26   2.0000      -0.907951       -24.7066
  27   2.0000      -0.902288       -24.5525
  28   2.0000      -0.872831       -23.7509
  29   2.0000      -0.850705       -23.1489
  30   2.0000      -0.845686       -23.0123
  31   2.0000      -0.822522       -22.3820
  32   2.0000      -0.784100       -21.3365
  33   2.0000      -0.773487       -21.0477
  34   2.0000      -0.706582       -19.2271
  35   2.0000      -0.702780       -19.1236
  36   2.0000      -0.696581       -18.9549
  37   2.0000      -0.657868       -17.9015
  38   2.0000      -0.648092       -17.6355
  39   2.0000      -0.625140       -17.0109
  40   2.0000      -0.595530       -16.2052
  41   2.0000      -0.574572       -15.6349
  42   2.0000      -0.564987       -15.3741
  43   2.0000      -0.546921       -14.8825
  44   2.0000      -0.542998       -14.7757
  45   2.0000      -0.522371       -14.2144
  46   2.0000      -0.517551       -14.0833
  47   2.0000      -0.510950       -13.9036
  48   2.0000      -0.504006       -13.7147
  49   2.0000      -0.503354       -13.6970
  50   2.0000      -0.493758       -13.4358
  51   2.0000      -0.477986       -13.0067
  52   2.0000      -0.476450       -12.9649
  53   2.0000      -0.468015       -12.7353
  54   2.0000      -0.459710       -12.5094
  55   2.0000      -0.449182       -12.2229
  56   2.0000      -0.439827       -11.9683
  57   2.0000      -0.437733       -11.9113
  58   2.0000      -0.429559       -11.6889
  59   2.0000      -0.424708       -11.5569
  60   2.0000      -0.421828       -11.4785
  61   2.0000      -0.412510       -11.2250
  62   2.0000      -0.407817       -11.0973
  63   2.0000      -0.354005        -9.6330
  64   2.0000      -0.331526        -9.0213
  65   2.0000      -0.328551        -8.9403
  66   2.0000      -0.299728        -8.1560
  67   0.0000       0.039346         1.0707
  68   0.0000       0.068485         1.8636
  69   0.0000       0.118513         3.2249
  70   0.0000       0.122595         3.3360
  71   0.0000       0.133208         3.6248

MULLIKEN ATOMIC CHARGES
-----------------------
   0 S :    0.095867
   1 C :   -0.102156
   2 C :   -0.123471
   3 C :    0.035206
   4 C :   -0.151610
   5 H :    0.015066
   6 C :    0.089712
   7 H :    0.018328
   8 H :    0.005046
   9 C :   -0.035739
  10 H :    0.026890
  11 H :    0.027477
  12 C :   -0.090125
  13 H :    0.039391
  14 H :    0.061557
  15 H :    0.021421
  16 S :    0.120375
  17 C :   -0.065545
  18 C :   -0.040849
  19 C :   -0.006547
  20 C :   -0.160941
  21 H :    0.008235
  22 C :    0.064453
  23 H :    0.007105
  24 H :    0.045833
  25 C :   -0.091885
  26 H :    0.027910
  27 H :    0.035047
  28 C :   -0.052234
  29 H :    0.035864
  30 H :    0.029210
  31 H :    0.026157
  32 H :    0.040246
  33 H :    0.044704
Sum of atomic charges:    0.0000000

LOEWDIN ATOMIC CHARGES
----------------------
   0 S :    0.422478
   1 C :   -0.190665
   2 C :   -0.075179
   3 C :   -0.067248
   4 C :   -0.192212
   5 H :    0.033369
   6 C :   -0.028759
   7 H :    0.031145
   8 H :    0.024657
   9 C :   -0.036091
  10 H :    0.023762
  11 H :    0.022311
  12 C :   -0.080545
  13 H :    0.028671
  14 H :    0.035500
  15 H :    0.023038
  16 S :    0.434459
  17 C :   -0.203190
  18 C :   -0.072587
  19 C :   -0.054388
  20 C :   -0.201685
  21 H :    0.027032
  22 C :   -0.024415
  23 H :    0.021966
  24 H :    0.037219
  25 C :   -0.040974
  26 H :    0.016519
  27 H :    0.031200
  28 C :   -0.070739
  29 H :    0.030170
  30 H :    0.022722
  31 H :    0.021504
  32 H :    0.021640
  33 H :    0.029313

  Mayer bond orders larger than 0.100000
B(  0-S ,  1-C ) :   1.1674 B(  0-S ,  4-C ) :   1.1663 B(  1-C ,  2-C ) :   1.5656
B(  1-C , 32-H ) :   0.9834 B(  2-C ,  3-C ) :   1.2815 B(  2-C ,  6-C ) :   1.0110
B(  3-C ,  4-C ) :   1.5552 B(  3-C ,  5-H ) :   0.9945 B(  4-C , 20-C ) :   1.0104
B(  6-C ,  7-H ) :   0.9409 B(  6-C ,  8-H ) :   0.9358 B(  6-C ,  9-C ) :   1.0637
B(  9-C , 10-H ) :   0.9555 B(  9-C , 11-H ) :   0.9586 B(  9-C , 12-C ) :   1.0677
B( 12-C , 13-H ) :   0.9755 B( 12-C , 14-H ) :   0.9710 B( 12-C , 15-H ) :   0.9751
B( 16-S , 17-C ) :   1.1627 B( 16-S , 20-C ) :   1.1479 B( 17-C , 18-C ) :   1.6352
B( 17-C , 33-H ) :   0.9664 B( 18-C , 19-C ) :   1.2136 B( 18-C , 21-H ) :   0.9949
B( 19-C , 20-C ) :   1.6062 B( 19-C , 22-C ) :   1.0508 B( 22-C , 23-H ) :   0.9309
B( 22-C , 24-H ) :   0.9452 B( 22-C , 25-C ) :   1.0501 B( 25-C , 26-H ) :   0.9639
B( 25-C , 27-H ) :   0.9568 B( 25-C , 28-C ) :   1.0840 B( 28-C , 29-H ) :   0.9751
B( 28-C , 30-H ) :   0.9757 B( 28-C , 31-H ) :   0.9743

Dispersion correction           -0.014018052
FINAL SINGLE POINT ENERGY     -1339.881471273613

DIPOLE MOMENT
-------------
                                X             Y             Z
Electronic contribution:     20.62521      -6.29636     -20.79916
Nuclear contribution   :    -20.95330       6.04786      21.25556
                        -----------------------------------------
Total Dipole Moment    :     -0.32809      -0.24851       0.45641
                        -----------------------------------------
Magnitude (a.u.)       :      0.61457
Magnitude (Debye)      :      1.56212

Rotational constants in cm-1:     0.016716     0.009390     0.006621
Rotational constants in MHz :   501.136117   281.509065   198.491143

                             ****ORCA TERMINATED NORMALLY****
TOTAL RUN TIME: 0 days 0 hours 0 minutes 29 seconds 955 msec
