                         Program Version 4.2.1 -  RELEASE  -
|  1> ! wB97X-D3 SP def2-SVP
|  2> %pal
|  3> nprocs 16
|  4> end
|  5>
|  6> * xyz 0 1
|  7> S 	 -103.115 	 47.3264 	 122.096
|  8> C 	 -103.506 	 48.0716 	 123.576
|  9> C 	 -104.583 	 47.4548 	 124.15
| 10> C 	 -105.083 	 46.3875 	 123.391
| 11> C 	 -104.374 	 46.1045 	 122.204
| 12> H 	 -105.903 	 45.7342 	 123.642
| 13> C 	 -105.178 	 47.937 	 125.465
| 14> H 	 -106.211 	 48.0424 	 125.35
| 15> H 	 -104.838 	 48.8963 	 125.781
| 16> C 	 -104.939 	 47.0675 	 126.719
| 17> H 	 -105.562 	 47.5328 	 127.474
| 18> H 	 -105.387 	 46.086 	 126.837
| 19> C 	 -103.474 	 47.072 	 127.196
| 20> H 	 -102.981 	 48.0852 	 127.123
| 21> H 	 -103.341 	 46.7278 	 128.254
| 22> H 	 -102.85 	 46.3844 	 126.625
| 23> S 	 -106.103 	 44.3343 	 121.122
| 24> C 	 -105.614 	 43.0559 	 120.019
| 25> C 	 -104.204 	 43.2087 	 119.715
| 26> C 	 -103.601 	 44.2533 	 120.536
| 27> C 	 -104.487 	 44.9298 	 121.337
| 28> H 	 -103.693 	 42.6486 	 118.97
| 29> C 	 -102.126 	 44.5873 	 120.587
| 30> H 	 -102.071 	 45.6702 	 120.395
| 31> H 	 -101.726 	 44.2846 	 119.581
| 32> C 	 -101.358 	 44.099 	 121.821
| 33> H 	 -101.517 	 42.9899 	 121.851
| 34> H 	 -101.782 	 44.5002 	 122.708
| 35> C 	 -99.908 	 44.4453 	 121.715
| 36> H 	 -99.4332 	 44.2867 	 122.675
| 37> H 	 -99.7984 	 45.5019 	 121.661
| 38> H 	 -99.4396 	 43.9334 	 120.88
| 39> H 	 -102.943 	 48.7822 	 124.185
| 40> H 	 -106.257 	 42.355 	 119.493
| 41> *
| 42>
| 43>                          ****END OF INPUT****

CARTESIAN COORDINATES (ANGSTROEM)
---------------------------------
  S    -103.115000   47.326400  122.096000
  C    -103.506000   48.071600  123.576000
  C    -104.583000   47.454800  124.150000
  C    -105.083000   46.387500  123.391000
  C    -104.374000   46.104500  122.204000
  H    -105.903000   45.734200  123.642000
  C    -105.178000   47.937000  125.465000
  H    -106.211000   48.042400  125.350000
  H    -104.838000   48.896300  125.781000
  C    -104.939000   47.067500  126.719000
  H    -105.562000   47.532800  127.474000
  H    -105.387000   46.086000  126.837000
  C    -103.474000   47.072000  127.196000
  H    -102.981000   48.085200  127.123000
  H    -103.341000   46.727800  128.254000
  H    -102.850000   46.384400  126.625000
  S    -106.103000   44.334300  121.122000
  C    -105.614000   43.055900  120.019000
  C    -104.204000   43.208700  119.715000
  C    -103.601000   44.253300  120.536000
  C    -104.487000   44.929800  121.337000
  H    -103.693000   42.648600  118.970000
  C    -102.126000   44.587300  120.587000
  H    -102.071000   45.670200  120.395000
  H    -101.726000   44.284600  119.581000
  C    -101.358000   44.099000  121.821000
  H    -101.517000   42.989900  121.851000
  H    -101.782000   44.500200  122.708000
  C    -99.908000   44.445300  121.715000
  H    -99.433200   44.286700  122.675000
  H    -99.798400   45.501900  121.661000
  H    -99.439600   43.933400  120.880000
  H    -102.943000   48.782200  124.185000
  H    -106.257000   42.355000  119.493000

 Total Charge           Charge          ....    0
 Multiplicity           Mult            ....    1
 Number of Electrons    NEL             ....  134
 Basis Dimension        Dim             ....  322

ORBITAL ENERGIES
----------------

  NO   OCC          E(Eh)            E(eV)
   0   2.0000     -88.968773     -2420.9634
   1   2.0000     -88.968204     -2420.9479
   2   2.0000     -10.336033      -281.2578
   3   2.0000     -10.327884      -281.0360
   4   2.0000     -10.327064      -281.0137
   5   2.0000     -10.309687      -280.5408
   6   2.0000     -10.304663      -280.4041
   7   2.0000     -10.303045      -280.3601
   8   2.0000     -10.296568      -280.1838
   9   2.0000     -10.294547      -280.1289
  10   2.0000     -10.290255      -280.0121
  11   2.0000     -10.288492      -279.9641
  12   2.0000     -10.286431      -279.9080
  13   2.0000     -10.283988      -279.8416
  14   2.0000     -10.281690      -279.7790
  15   2.0000     -10.268327      -279.4154
  16   2.0000      -8.083252      -219.9565
  17   2.0000      -8.082657      -219.9403
  18   2.0000      -6.041783      -164.4053
  19   2.0000      -6.041177      -164.3888
  20   2.0000      -6.037499      -164.2887
  21   2.0000      -6.037080      -164.2773
  22   2.0000      -6.034294      -164.2015
  23   2.0000      -6.033548      -164.1812
  24   2.0000      -1.010118       -27.4867
  25   2.0000      -0.985834       -26.8259
  26   2.0000      -0.912003       -24.8169
  27   2.0000      -0.909156       -24.7394
  28   2.0000      -0.868824       -23.6419
  29   2.0000      -0.855285       -23.2735
  30   2.0000      -0.845569       -23.0091
  31   2.0000      -0.812316       -22.1042
  32   2.0000      -0.783107       -21.3094
  33   2.0000      -0.771999       -21.0072
  34   2.0000      -0.710295       -19.3281
  35   2.0000      -0.701088       -19.0776
  36   2.0000      -0.691270       -18.8104
  37   2.0000      -0.675218       -18.3736
  38   2.0000      -0.637012       -17.3340
  39   2.0000      -0.620033       -16.8720
  40   2.0000      -0.588732       -16.0202
  41   2.0000      -0.574173       -15.6240
  42   2.0000      -0.568698       -15.4751
  43   2.0000      -0.554982       -15.1018
  44   2.0000      -0.534034       -14.5318
  45   2.0000      -0.527295       -14.3484
  46   2.0000      -0.517260       -14.0754
  47   2.0000      -0.516097       -14.0437
  48   2.0000      -0.506490       -13.7823
  49   2.0000      -0.494110       -13.4454
  50   2.0000      -0.491122       -13.3641
  51   2.0000      -0.479147       -13.0383
  52   2.0000      -0.471249       -12.8233
  53   2.0000      -0.469984       -12.7889
  54   2.0000      -0.461340       -12.5537
  55   2.0000      -0.449316       -12.2265
  56   2.0000      -0.443689       -12.0734
  57   2.0000      -0.439076       -11.9479
  58   2.0000      -0.430404       -11.7119
  59   2.0000      -0.425981       -11.5915
  60   2.0000      -0.419365       -11.4115
  61   2.0000      -0.411564       -11.1992
  62   2.0000      -0.400899       -10.9090
  63   2.0000      -0.356133        -9.6909
  64   2.0000      -0.332732        -9.0541
  65   2.0000      -0.329112        -8.9556
  66   2.0000      -0.285093        -7.7578
  67   0.0000       0.018615         0.5066
  68   0.0000       0.077035         2.0962
  69   0.0000       0.117250         3.1905
  70   0.0000       0.124608         3.3908
  71   0.0000       0.129178         3.5151

MULLIKEN ATOMIC CHARGES
-----------------------
   0 S :    0.099094
   1 C :   -0.097394
   2 C :   -0.088876
   3 C :    0.021590
   4 C :   -0.131722
   5 H :    0.008798
   6 C :    0.113564
   7 H :    0.015402
   8 H :    0.005232
   9 C :   -0.065420
  10 H :    0.014528
  11 H :    0.024136
  12 C :   -0.083264
  13 H :    0.027877
  14 H :    0.038665
  15 H :    0.039623
  16 S :    0.102807
  17 C :   -0.097320
  18 C :   -0.023631
  19 C :   -0.087016
  20 C :   -0.116990
  21 H :    0.012376
  22 C :    0.007839
  23 H :    0.028980
  24 H :    0.008049
  25 C :   -0.026187
  26 H :    0.033178
  27 H :    0.024706
  28 C :    0.001159
  29 H :    0.023129
  30 H :    0.012752
  31 H :    0.036888
  32 H :    0.049768
  33 H :    0.067681
Sum of atomic charges:   -0.0000000

LOEWDIN ATOMIC CHARGES
----------------------
   0 S :    0.438724
   1 C :   -0.216921
   2 C :   -0.070026
   3 C :   -0.064560
   4 C :   -0.191149
   5 H :    0.024984
   6 C :   -0.017855
   7 H :    0.026803
   8 H :    0.027116
   9 C :   -0.047309
  10 H :    0.024185
  11 H :    0.024367
  12 C :   -0.075434
  13 H :    0.025586
  14 H :    0.031041
  15 H :    0.024334
  16 S :    0.421520
  17 C :   -0.190301
  18 C :   -0.060243
  19 C :   -0.063939
  20 C :   -0.200133
  21 H :    0.025620
  22 C :   -0.048801
  23 H :    0.018909
  24 H :    0.031329
  25 C :   -0.034508
  26 H :    0.030766
  27 H :    0.020179
  28 C :   -0.060263
  29 H :    0.027780
  30 H :    0.022299
  31 H :    0.026921
  32 H :    0.036674
  33 H :    0.032308

  Mayer bond orders larger than 0.100000
B(  0-S ,  1-C ) :   1.1504 B(  0-S ,  4-C ) :   1.1564 B(  1-C ,  2-C ) :   1.5872
B(  1-C , 32-H ) :   0.9613 B(  2-C ,  3-C ) :   1.2879 B(  2-C ,  6-C ) :   1.0262
B(  3-C ,  4-C ) :   1.5173 B(  3-C ,  5-H ) :   0.9925 B(  4-C , 20-C ) :   1.0573
B(  6-C ,  7-H ) :   0.9350 B(  6-C ,  8-H ) :   0.9417 B(  6-C ,  9-C ) :   1.0777
B(  9-C , 10-H ) :   0.9515 B(  9-C , 11-H ) :   0.9544 B(  9-C , 12-C ) :   1.0668
B( 12-C , 13-H ) :   0.9750 B( 12-C , 14-H ) :   0.9741 B( 12-C , 15-H ) :   0.9776
B( 16-S , 17-C ) :   1.1686 B( 16-S , 20-C ) :   1.1417 B( 17-C , 18-C ) :   1.5630
B( 17-C , 20-C ) :   0.1005 B( 17-C , 33-H ) :   0.9698 B( 18-C , 19-C ) :   1.2633
B( 18-C , 21-H ) :   0.9944 B( 19-C , 20-C ) :   1.5764 B( 19-C , 22-C ) :   1.0419
B( 22-C , 23-H ) :   0.9302 B( 22-C , 24-H ) :   0.9255 B( 22-C , 25-C ) :   1.0473
B( 25-C , 26-H ) :   0.9514 B( 25-C , 27-H ) :   0.9504 B( 25-C , 28-C ) :   1.0982
B( 28-C , 29-H ) :   0.9679 B( 28-C , 30-H ) :   0.9672 B( 28-C , 31-H ) :   0.9744

Dispersion correction           -0.014696914
FINAL SINGLE POINT ENERGY     -1339.874178584319

DIPOLE MOMENT
-------------
                                X             Y             Z
Electronic contribution:    -13.80481      -0.28618     -16.89652
Nuclear contribution   :     13.94107       0.20179      17.21154
                        -----------------------------------------
Total Dipole Moment    :      0.13626      -0.08439       0.31502
                        -----------------------------------------
Magnitude (a.u.)       :      0.35345
Magnitude (Debye)      :      0.89840

Rotational constants in cm-1:     0.018891     0.009038     0.007215
Rotational constants in MHz :   566.346433   270.946933   216.285527

                             ****ORCA TERMINATED NORMALLY****
TOTAL RUN TIME: 0 days 0 hours 0 minutes 35 seconds 674 msec
