                         Program Version 4.2.1 -  RELEASE  -
|  1> ! wB97X-D3 SP def2-SVP
|  2> %pal
|  3> nprocs 16
|  4> end
|  5>
|  6> * xyz 0 1
|  7> S 	 -6.21154 	 -6.43496 	 85.059
|  8> C 	 -6.65659 	 -8.18525 	 85.0516
|  9> C 	 -5.52792 	 -8.91182 	 84.9088
| 10> C 	 -4.32112 	 -8.16546 	 84.7
| 11> C 	 -4.52097 	 -6.75952 	 84.7404
| 12> H 	 -3.38279 	 -8.44372 	 84.4835
| 13> C 	 -5.49206 	 -10.4345 	 84.8619
| 14> H 	 -5.73934 	 -10.6965 	 83.7937
| 15> H 	 -6.32564 	 -10.738 	 85.4381
| 16> C 	 -4.20287 	 -11.2121 	 85.317
| 17> H 	 -4.38027 	 -12.2433 	 85.134
| 18> H 	 -3.40199 	 -11.0137 	 84.6635
| 19> C 	 -3.8901 	 -10.9437 	 86.7844
| 20> H 	 -4.72922 	 -11.2925 	 87.4172
| 21> H 	 -3.02023 	 -11.5337 	 87.0748
| 22> H 	 -3.57725 	 -9.93218 	 86.9395
| 23> S 	 -3.88648 	 -4.66322 	 83.1102
| 24> C 	 -2.36669 	 -3.84608 	 83.2766
| 25> C 	 -1.54414 	 -4.48763 	 84.2156
| 26> C 	 -2.25194 	 -5.62777 	 84.7717
| 27> C 	 -3.58536 	 -5.76251 	 84.4104
| 28> H 	 -0.49594 	 -4.26878 	 84.2913
| 29> C 	 -1.64537 	 -6.28971 	 86.0013
| 30> H 	 -0.595547 	 -5.9775 	 86.0708
| 31> H 	 -1.61026 	 -7.39151 	 85.9553
| 32> C 	 -2.2973 	 -6.08446 	 87.3774
| 33> H 	 -1.81719 	 -6.55926 	 88.2066
| 34> H 	 -3.35343 	 -6.44472 	 87.3905
| 35> C 	 -2.39224 	 -4.64276 	 87.7687
| 36> H 	 -2.92106 	 -4.60442 	 88.6675
| 37> H 	 -2.82213 	 -3.91606 	 87.091
| 38> H 	 -1.38472 	 -4.23721 	 87.9314
| 39> H 	 -7.67604 	 -8.63464 	 85.0377
| 40> H 	 -2.17729 	 -2.91942 	 82.7616
| 41> *
| 42>
| 43>                          ****END OF INPUT****

CARTESIAN COORDINATES (ANGSTROEM)
---------------------------------
  S     -6.211540   -6.434960   85.059000
  C     -6.656590   -8.185250   85.051600
  C     -5.527920   -8.911820   84.908800
  C     -4.321120   -8.165460   84.700000
  C     -4.520970   -6.759520   84.740400
  H     -3.382790   -8.443720   84.483500
  C     -5.492060  -10.434500   84.861900
  H     -5.739340  -10.696500   83.793700
  H     -6.325640  -10.738000   85.438100
  C     -4.202870  -11.212100   85.317000
  H     -4.380270  -12.243300   85.134000
  H     -3.401990  -11.013700   84.663500
  C     -3.890100  -10.943700   86.784400
  H     -4.729220  -11.292500   87.417200
  H     -3.020230  -11.533700   87.074800
  H     -3.577250   -9.932180   86.939500
  S     -3.886480   -4.663220   83.110200
  C     -2.366690   -3.846080   83.276600
  C     -1.544140   -4.487630   84.215600
  C     -2.251940   -5.627770   84.771700
  C     -3.585360   -5.762510   84.410400
  H     -0.495940   -4.268780   84.291300
  C     -1.645370   -6.289710   86.001300
  H     -0.595547   -5.977500   86.070800
  H     -1.610260   -7.391510   85.955300
  C     -2.297300   -6.084460   87.377400
  H     -1.817190   -6.559260   88.206600
  H     -3.353430   -6.444720   87.390500
  C     -2.392240   -4.642760   87.768700
  H     -2.921060   -4.604420   88.667500
  H     -2.822130   -3.916060   87.091000
  H     -1.384720   -4.237210   87.931400
  H     -7.676040   -8.634640   85.037700
  H     -2.177290   -2.919420   82.761600

 Total Charge           Charge          ....    0
 Multiplicity           Mult            ....    1
 Number of Electrons    NEL             ....  134
 Basis Dimension        Dim             ....  322

ORBITAL ENERGIES
----------------

  NO   OCC          E(Eh)            E(eV)
   0   2.0000     -88.966220     -2420.8939
   1   2.0000     -88.965993     -2420.8877
   2   2.0000     -10.331230      -281.1271
   3   2.0000     -10.323937      -280.9286
   4   2.0000     -10.321724      -280.8684
   5   2.0000     -10.317454      -280.7522
   6   2.0000     -10.306648      -280.4581
   7   2.0000     -10.301066      -280.3063
   8   2.0000     -10.300964      -280.3035
   9   2.0000     -10.292346      -280.0690
  10   2.0000     -10.289539      -279.9926
  11   2.0000     -10.289372      -279.9880
  12   2.0000     -10.284325      -279.8507
  13   2.0000     -10.277711      -279.6707
  14   2.0000     -10.276804      -279.6461
  15   2.0000     -10.257699      -279.1262
  16   2.0000      -8.081763      -219.9159
  17   2.0000      -8.079696      -219.8597
  18   2.0000      -6.040119      -164.3600
  19   2.0000      -6.038385      -164.3128
  20   2.0000      -6.036024      -164.2486
  21   2.0000      -6.034258      -164.2005
  22   2.0000      -6.032732      -164.1590
  23   2.0000      -6.030398      -164.0955
  24   2.0000      -1.009911       -27.4811
  25   2.0000      -0.982180       -26.7265
  26   2.0000      -0.910378       -24.7726
  27   2.0000      -0.907683       -24.6993
  28   2.0000      -0.877039       -23.8654
  29   2.0000      -0.850129       -23.1332
  30   2.0000      -0.842167       -22.9165
  31   2.0000      -0.816017       -22.2049
  32   2.0000      -0.782945       -21.3050
  33   2.0000      -0.773082       -21.0366
  34   2.0000      -0.717774       -19.5316
  35   2.0000      -0.701726       -19.0949
  36   2.0000      -0.685778       -18.6610
  37   2.0000      -0.669312       -18.2129
  38   2.0000      -0.643450       -17.5092
  39   2.0000      -0.617849       -16.8125
  40   2.0000      -0.590412       -16.0659
  41   2.0000      -0.569188       -15.4884
  42   2.0000      -0.552979       -15.0473
  43   2.0000      -0.551125       -14.9969
  44   2.0000      -0.547628       -14.9017
  45   2.0000      -0.541327       -14.7303
  46   2.0000      -0.523831       -14.2542
  47   2.0000      -0.512071       -13.9342
  48   2.0000      -0.511286       -13.9128
  49   2.0000      -0.495280       -13.4772
  50   2.0000      -0.488964       -13.3054
  51   2.0000      -0.479656       -13.0521
  52   2.0000      -0.476010       -12.9529
  53   2.0000      -0.467539       -12.7224
  54   2.0000      -0.460371       -12.5273
  55   2.0000      -0.445308       -12.1175
  56   2.0000      -0.438974       -11.9451
  57   2.0000      -0.433509       -11.7964
  58   2.0000      -0.429450       -11.6859
  59   2.0000      -0.423780       -11.5316
  60   2.0000      -0.417083       -11.3494
  61   2.0000      -0.413982       -11.2650
  62   2.0000      -0.404345       -11.0028
  63   2.0000      -0.345685        -9.4066
  64   2.0000      -0.331553        -9.0220
  65   2.0000      -0.327343        -8.9075
  66   2.0000      -0.292869        -7.9694
  67   0.0000       0.018440         0.5018
  68   0.0000       0.072346         1.9686
  69   0.0000       0.109954         2.9920
  70   0.0000       0.116488         3.1698
  71   0.0000       0.129671         3.5285

MULLIKEN ATOMIC CHARGES
-----------------------
   0 S :    0.098460
   1 C :   -0.149134
   2 C :   -0.068015
   3 C :    0.087763
   4 C :   -0.176595
   5 H :   -0.043245
   6 C :    0.045662
   7 H :    0.048998
   8 H :    0.007219
   9 C :   -0.036819
  10 H :    0.018475
  11 H :    0.017614
  12 C :   -0.042380
  13 H :    0.040726
  14 H :    0.026004
  15 H :    0.037957
  16 S :    0.118401
  17 C :   -0.099410
  18 C :   -0.025837
  19 C :   -0.045651
  20 C :   -0.125132
  21 H :    0.031246
  22 C :    0.051022
  23 H :    0.013727
  24 H :    0.022602
  25 C :   -0.068482
  26 H :    0.023857
  27 H :    0.039945
  28 C :   -0.036044
  29 H :    0.015679
  30 H :    0.034325
  31 H :    0.007942
  32 H :    0.064753
  33 H :    0.064369
Sum of atomic charges:    0.0000000

LOEWDIN ATOMIC CHARGES
----------------------
   0 S :    0.384229
   1 C :   -0.193776
   2 C :   -0.063650
   3 C :   -0.043388
   4 C :   -0.188095
   5 H :    0.007799
   6 C :   -0.030399
   7 H :    0.040592
   8 H :    0.020132
   9 C :   -0.035462
  10 H :    0.024038
  11 H :    0.016839
  12 C :   -0.061834
  13 H :    0.031735
  14 H :    0.026277
  15 H :    0.023493
  16 S :    0.432311
  17 C :   -0.182947
  18 C :   -0.069082
  19 C :   -0.055837
  20 C :   -0.215116
  21 H :    0.033689
  22 C :   -0.037822
  23 H :    0.027401
  24 H :    0.028442
  25 C :   -0.040766
  26 H :    0.024784
  27 H :    0.028889
  28 C :   -0.065022
  29 H :    0.017695
  30 H :    0.023920
  31 H :    0.019314
  32 H :    0.043616
  33 H :    0.028000

  Mayer bond orders larger than 0.100000
B(  0-S ,  1-C ) :   1.1088 B(  0-S ,  4-C ) :   1.1459 B(  1-C ,  2-C ) :   1.6402
B(  1-C , 32-H ) :   0.9653 B(  2-C ,  3-C ) :   1.2107 B(  2-C ,  6-C ) :   1.0022
B(  3-C ,  4-C ) :   1.5557 B(  3-C ,  5-H ) :   1.0131 B(  4-C , 20-C ) :   1.0856
B(  6-C ,  7-H ) :   0.9367 B(  6-C ,  8-H ) :   0.9432 B(  6-C ,  9-C ) :   1.0796
B(  9-C , 10-H ) :   0.9505 B(  9-C , 11-H ) :   0.9476 B(  9-C , 12-C ) :   1.0842
B( 12-C , 13-H ) :   0.9747 B( 12-C , 14-H ) :   0.9718 B( 12-C , 15-H ) :   0.9745
B( 16-S , 17-C ) :   1.1860 B( 16-S , 20-C ) :   1.1443 B( 17-C , 18-C ) :   1.5660
B( 17-C , 20-C ) :   0.1001 B( 17-C , 33-H ) :   0.9694 B( 18-C , 19-C ) :   1.2580
B( 18-C , 21-H ) :   0.9918 B( 19-C , 20-C ) :   1.5472 B( 19-C , 22-C ) :   1.0614
B( 22-C , 23-H ) :   0.9401 B( 22-C , 24-H ) :   0.9296 B( 22-C , 25-C ) :   1.0757
B( 25-C , 26-H ) :   0.9517 B( 25-C , 27-H ) :   0.9500 B( 25-C , 28-C ) :   1.0852
B( 28-C , 29-H ) :   0.9724 B( 28-C , 30-H ) :   0.9744 B( 28-C , 31-H ) :   0.9726

Dispersion correction           -0.015713246
FINAL SINGLE POINT ENERGY     -1339.865570291765

DIPOLE MOMENT
-------------
                                X             Y             Z
Electronic contribution:    -10.86625      16.05439     -16.52431
Nuclear contribution   :     11.25713     -16.55291      16.58957
                        -----------------------------------------
Total Dipole Moment    :      0.39087      -0.49853       0.06527
                        -----------------------------------------
Magnitude (a.u.)       :      0.63684
Magnitude (Debye)      :      1.61873

Rotational constants in cm-1:     0.019581     0.009476     0.007923
Rotational constants in MHz :   587.030947   284.079670   237.515294

                             ****ORCA TERMINATED NORMALLY****
TOTAL RUN TIME: 0 days 0 hours 0 minutes 34 seconds 609 msec
