                         Program Version 4.2.1 -  RELEASE  -
|  1> ! wB97X-D3 SP def2-SVP
|  2> %pal
|  3> nprocs 16
|  4> end
|  5>
|  6> * xyz 0 1
|  7> S 	 -5.10836 	 -6.02796 	 83.4811
|  8> C 	 -5.23375 	 -7.7158 	 83.9459
|  9> C 	 -4.35051 	 -8.02377 	 84.9887
| 10> C 	 -3.76663 	 -6.80257 	 85.4959
| 11> C 	 -4.17629 	 -5.69239 	 84.8592
| 12> H 	 -3.16893 	 -6.72165 	 86.337
| 13> C 	 -4.07178 	 -9.38334 	 85.6325
| 14> H 	 -3.06637 	 -9.65587 	 85.6477
| 15> H 	 -4.51201 	 -10.1564 	 85.0708
| 16> C 	 -4.46981 	 -9.45551 	 87.1447
| 17> H 	 -4.06809 	 -10.3688 	 87.539
| 18> H 	 -3.89411 	 -8.7327 	 87.7103
| 19> C 	 -5.9827 	 -9.42818 	 87.3632
| 20> H 	 -6.50368 	 -10.2529 	 86.9101
| 21> H 	 -6.14709 	 -9.38037 	 88.423
| 22> H 	 -6.38386 	 -8.48515 	 86.9883
| 23> S 	 -2.945 	 -3.4796 	 83.6491
| 24> C 	 -2.68455 	 -1.9824 	 84.5331
| 25> C 	 -2.86715 	 -2.16719 	 85.8584
| 26> C 	 -3.37764 	 -3.4878 	 86.129
| 27> C 	 -3.62846 	 -4.3177 	 85.0269
| 28> H 	 -2.67889 	 -1.33154 	 86.5102
| 29> C 	 -3.70285 	 -3.81893 	 87.5944
| 30> H 	 -3.41567 	 -2.93115 	 88.1449
| 31> H 	 -3.07566 	 -4.55971 	 88.1464
| 32> C 	 -5.19132 	 -4.11721 	 87.9212
| 33> H 	 -5.34482 	 -4.29057 	 88.9733
| 34> H 	 -5.43211 	 -5.0536 	 87.5107
| 35> C 	 -6.2587 	 -3.1576 	 87.2827
| 36> H 	 -7.229 	 -3.54902 	 87.4374
| 37> H 	 -6.32723 	 -3.16561 	 86.188
| 38> H 	 -6.36754 	 -2.14461 	 87.7197
| 39> H 	 -5.93236 	 -8.40031 	 83.5543
| 40> H 	 -2.39223 	 -1.10212 	 84.01
| 41> *
| 42>
| 43>                          ****END OF INPUT****

CARTESIAN COORDINATES (ANGSTROEM)
---------------------------------
  S     -5.108360   -6.027960   83.481100
  C     -5.233750   -7.715800   83.945900
  C     -4.350510   -8.023770   84.988700
  C     -3.766630   -6.802570   85.495900
  C     -4.176290   -5.692390   84.859200
  H     -3.168930   -6.721650   86.337000
  C     -4.071780   -9.383340   85.632500
  H     -3.066370   -9.655870   85.647700
  H     -4.512010  -10.156400   85.070800
  C     -4.469810   -9.455510   87.144700
  H     -4.068090  -10.368800   87.539000
  H     -3.894110   -8.732700   87.710300
  C     -5.982700   -9.428180   87.363200
  H     -6.503680  -10.252900   86.910100
  H     -6.147090   -9.380370   88.423000
  H     -6.383860   -8.485150   86.988300
  S     -2.945000   -3.479600   83.649100
  C     -2.684550   -1.982400   84.533100
  C     -2.867150   -2.167190   85.858400
  C     -3.377640   -3.487800   86.129000
  C     -3.628460   -4.317700   85.026900
  H     -2.678890   -1.331540   86.510200
  C     -3.702850   -3.818930   87.594400
  H     -3.415670   -2.931150   88.144900
  H     -3.075660   -4.559710   88.146400
  C     -5.191320   -4.117210   87.921200
  H     -5.344820   -4.290570   88.973300
  H     -5.432110   -5.053600   87.510700
  C     -6.258700   -3.157600   87.282700
  H     -7.229000   -3.549020   87.437400
  H     -6.327230   -3.165610   86.188000
  H     -6.367540   -2.144610   87.719700
  H     -5.932360   -8.400310   83.554300
  H     -2.392230   -1.102120   84.010000

 Total Charge           Charge          ....    0
 Multiplicity           Mult            ....    1
 Number of Electrons    NEL             ....  134
 Basis Dimension        Dim             ....  322

ORBITAL ENERGIES
----------------

  NO   OCC          E(Eh)            E(eV)
   0   2.0000     -88.967596     -2420.9314
   1   2.0000     -88.959485     -2420.7106
   2   2.0000     -10.330542      -281.1083
   3   2.0000     -10.326863      -281.0082
   4   2.0000     -10.315727      -280.7052
   5   2.0000     -10.312426      -280.6154
   6   2.0000     -10.308406      -280.5060
   7   2.0000     -10.306107      -280.4434
   8   2.0000     -10.292609      -280.0761
   9   2.0000     -10.289757      -279.9985
  10   2.0000     -10.288163      -279.9551
  11   2.0000     -10.287648      -279.9411
  12   2.0000     -10.287016      -279.9239
  13   2.0000     -10.280330      -279.7420
  14   2.0000     -10.273574      -279.5582
  15   2.0000     -10.270003      -279.4610
  16   2.0000      -8.083278      -219.9572
  17   2.0000      -8.074489      -219.7180
  18   2.0000      -6.041736      -164.4040
  19   2.0000      -6.037730      -164.2950
  20   2.0000      -6.033942      -164.1919
  21   2.0000      -6.033090      -164.1687
  22   2.0000      -6.028890      -164.0544
  23   2.0000      -6.025201      -163.9541
  24   2.0000      -1.011939       -27.5362
  25   2.0000      -0.986799       -26.8522
  26   2.0000      -0.913214       -24.8498
  27   2.0000      -0.896326       -24.3903
  28   2.0000      -0.870170       -23.6785
  29   2.0000      -0.850108       -23.1326
  30   2.0000      -0.837656       -22.7938
  31   2.0000      -0.819691       -22.3049
  32   2.0000      -0.789194       -21.4751
  33   2.0000      -0.775100       -21.0915
  34   2.0000      -0.712860       -19.3979
  35   2.0000      -0.703647       -19.1472
  36   2.0000      -0.687667       -18.7124
  37   2.0000      -0.662577       -18.0296
  38   2.0000      -0.648412       -17.6442
  39   2.0000      -0.628490       -17.1021
  40   2.0000      -0.590675       -16.0731
  41   2.0000      -0.575678       -15.6650
  42   2.0000      -0.551674       -15.0118
  43   2.0000      -0.544819       -14.8253
  44   2.0000      -0.542838       -14.7714
  45   2.0000      -0.535263       -14.5653
  46   2.0000      -0.522915       -14.2292
  47   2.0000      -0.508734       -13.8434
  48   2.0000      -0.504571       -13.7301
  49   2.0000      -0.499005       -13.5786
  50   2.0000      -0.486640       -13.2422
  51   2.0000      -0.478635       -13.0243
  52   2.0000      -0.472903       -12.8683
  53   2.0000      -0.462692       -12.5905
  54   2.0000      -0.460008       -12.5175
  55   2.0000      -0.449443       -12.2300
  56   2.0000      -0.441147       -12.0042
  57   2.0000      -0.439903       -11.9704
  58   2.0000      -0.429632       -11.6909
  59   2.0000      -0.425911       -11.5896
  60   2.0000      -0.420287       -11.4366
  61   2.0000      -0.415014       -11.2931
  62   2.0000      -0.404154       -10.9976
  63   2.0000      -0.351407        -9.5623
  64   2.0000      -0.331070        -9.0089
  65   2.0000      -0.326226        -8.8770
  66   2.0000      -0.294618        -8.0170
  67   0.0000       0.030972         0.8428
  68   0.0000       0.070229         1.9110
  69   0.0000       0.111607         3.0370
  70   0.0000       0.121273         3.3000
  71   0.0000       0.129912         3.5351

MULLIKEN ATOMIC CHARGES
-----------------------
   0 S :    0.114003
   1 C :   -0.104043
   2 C :   -0.088292
   3 C :    0.057480
   4 C :   -0.140462
   5 H :   -0.018081
   6 C :    0.125377
   7 H :    0.016433
   8 H :   -0.000311
   9 C :   -0.094003
  10 H :    0.014906
  11 H :    0.023098
  12 C :   -0.019991
  13 H :    0.032921
  14 H :    0.026006
  15 H :    0.033967
  16 S :    0.079014
  17 C :   -0.093629
  18 C :   -0.009759
  19 C :   -0.059877
  20 C :   -0.118821
  21 H :    0.025041
  22 C :    0.061538
  23 H :    0.001322
  24 H :    0.034313
  25 C :   -0.043562
  26 H :    0.020460
  27 H :    0.013134
  28 C :   -0.046704
  29 H :    0.003369
  30 H :    0.037987
  31 H :    0.033511
  32 H :    0.032960
  33 H :    0.050695
Sum of atomic charges:   -0.0000000

LOEWDIN ATOMIC CHARGES
----------------------
   0 S :    0.426850
   1 C :   -0.188186
   2 C :   -0.048407
   3 C :   -0.050717
   4 C :   -0.205765
   5 H :    0.019550
   6 C :   -0.022316
   7 H :    0.027791
   8 H :    0.022312
   9 C :   -0.035064
  10 H :    0.019599
  11 H :    0.021022
  12 C :   -0.060581
  13 H :    0.024297
  14 H :    0.024729
  15 H :    0.026570
  16 S :    0.390696
  17 C :   -0.170198
  18 C :   -0.070689
  19 C :   -0.060499
  20 C :   -0.193937
  21 H :    0.036435
  22 C :   -0.040524
  23 H :    0.024112
  24 H :    0.031995
  25 C :   -0.035727
  26 H :    0.023574
  27 H :    0.016808
  28 C :   -0.075515
  29 H :    0.021306
  30 H :    0.032213
  31 H :    0.025301
  32 H :    0.019071
  33 H :    0.023895

  Mayer bond orders larger than 0.100000
B(  0-S ,  1-C ) :   1.1386 B(  0-S ,  4-C ) :   1.1586 B(  1-C ,  2-C ) :   1.6055
B(  1-C , 32-H ) :   0.9763 B(  2-C ,  3-C ) :   1.2149 B(  2-C ,  6-C ) :   1.0337
B(  3-C ,  4-C ) :   1.5907 B(  3-C ,  5-H ) :   1.0081 B(  4-C , 20-C ) :   1.0101
B(  6-C ,  7-H ) :   0.9337 B(  6-C ,  8-H ) :   0.9386 B(  6-C ,  9-C ) :   1.0756
B(  9-C , 10-H ) :   0.9533 B(  9-C , 11-H ) :   0.9560 B(  9-C , 12-C ) :   1.0737
B( 12-C , 13-H ) :   0.9753 B( 12-C , 14-H ) :   0.9724 B( 12-C , 15-H ) :   0.9759
B( 16-S , 17-C ) :   1.1549 B( 16-S , 20-C ) :   1.1373 B( 17-C , 18-C ) :   1.6088
B( 17-C , 33-H ) :   0.9715 B( 18-C , 19-C ) :   1.2353 B( 18-C , 21-H ) :   0.9958
B( 19-C , 20-C ) :   1.6009 B( 19-C , 22-C ) :   1.0348 B( 22-C , 23-H ) :   0.9355
B( 22-C , 24-H ) :   0.9385 B( 22-C , 25-C ) :   1.0689 B( 25-C , 26-H ) :   0.9559
B( 25-C , 27-H ) :   0.9517 B( 25-C , 28-C ) :   1.0802 B( 28-C , 29-H ) :   0.9673
B( 28-C , 30-H ) :   0.9678 B( 28-C , 31-H ) :   0.9787

Dispersion correction           -0.015514683
FINAL SINGLE POINT ENERGY     -1339.865122164038

DIPOLE MOMENT
-------------
                                X             Y             Z
Electronic contribution:      8.98438      10.68340     -23.11184
Nuclear contribution   :     -8.98025     -11.02043      23.71513
                        -----------------------------------------
Total Dipole Moment    :      0.00414      -0.33704       0.60329
                        -----------------------------------------
Magnitude (a.u.)       :      0.69107
Magnitude (Debye)      :      1.75656

Rotational constants in cm-1:     0.020665     0.009312     0.007573
Rotational constants in MHz :   619.524216   279.171886   227.041752

                             ****ORCA TERMINATED NORMALLY****
TOTAL RUN TIME: 0 days 0 hours 0 minutes 36 seconds 537 msec
