                         Program Version 4.2.1 -  RELEASE  -
|  1> ! wB97X-D3 SP def2-SVP
|  2> %pal
|  3> nprocs 16
|  4> end
|  5>
|  6> * xyz 0 1
|  7> S 	 -66.9708 	 37.3015 	 136.344
|  8> C 	 -65.5669 	 38.2087 	 136.01
|  9> C 	 -64.3977 	 37.523 	 136.307
| 10> C 	 -64.6589 	 36.1921 	 136.694
| 11> C 	 -66.0293 	 35.9332 	 136.665
| 12> H 	 -63.9758 	 35.3617 	 136.997
| 13> C 	 -62.9892 	 38.1198 	 136.092
| 14> H 	 -62.5864 	 38.1614 	 137.104
| 15> H 	 -63.0757 	 39.1202 	 135.798
| 16> C 	 -62.1475 	 37.3059 	 135.13
| 17> H 	 -61.8293 	 36.3332 	 135.643
| 18> H 	 -62.7432 	 37.0657 	 134.287
| 19> C 	 -60.7974 	 38.0161 	 134.763
| 20> H 	 -60.2503 	 37.5273 	 134.001
| 21> H 	 -60.8691 	 39.0866 	 134.603
| 22> H 	 -60.0609 	 37.9619 	 135.584
| 23> S 	 -67.5618 	 35.0026 	 138.785
| 24> C 	 -68.051 	 33.3054 	 138.824
| 25> C 	 -67.4473 	 32.6017 	 137.831
| 26> C 	 -66.6281 	 33.4021 	 136.951
| 27> C 	 -66.649 	 34.7514 	 137.266
| 28> H 	 -67.5617 	 31.5353 	 137.701
| 29> C 	 -66.0019 	 32.8241 	 135.646
| 30> H 	 -65.3609 	 33.4988 	 135.123
| 31> H 	 -66.9051 	 32.6526 	 134.968
| 32> C 	 -65.186 	 31.4941 	 135.848
| 33> H 	 -65.0323 	 30.9799 	 134.96
| 34> H 	 -65.8823 	 30.8677 	 136.517
| 35> C 	 -63.8339 	 31.5955 	 136.51
| 36> H 	 -63.994 	 31.9901 	 137.524
| 37> H 	 -63.1028 	 32.2431 	 136.001
| 38> H 	 -63.4602 	 30.5786 	 136.772
| 39> H 	 -65.5332 	 39.2905 	 135.695
| 40> H 	 -68.764 	 32.7385 	 139.516
| 41> *
| 42>
| 43>                          ****END OF INPUT****

CARTESIAN COORDINATES (ANGSTROEM)
---------------------------------
  S    -66.970800   37.301500  136.344000
  C    -65.566900   38.208700  136.010000
  C    -64.397700   37.523000  136.307000
  C    -64.658900   36.192100  136.694000
  C    -66.029300   35.933200  136.665000
  H    -63.975800   35.361700  136.997000
  C    -62.989200   38.119800  136.092000
  H    -62.586400   38.161400  137.104000
  H    -63.075700   39.120200  135.798000
  C    -62.147500   37.305900  135.130000
  H    -61.829300   36.333200  135.643000
  H    -62.743200   37.065700  134.287000
  C    -60.797400   38.016100  134.763000
  H    -60.250300   37.527300  134.001000
  H    -60.869100   39.086600  134.603000
  H    -60.060900   37.961900  135.584000
  S    -67.561800   35.002600  138.785000
  C    -68.051000   33.305400  138.824000
  C    -67.447300   32.601700  137.831000
  C    -66.628100   33.402100  136.951000
  C    -66.649000   34.751400  137.266000
  H    -67.561700   31.535300  137.701000
  C    -66.001900   32.824100  135.646000
  H    -65.360900   33.498800  135.123000
  H    -66.905100   32.652600  134.968000
  C    -65.186000   31.494100  135.848000
  H    -65.032300   30.979900  134.960000
  H    -65.882300   30.867700  136.517000
  C    -63.833900   31.595500  136.510000
  H    -63.994000   31.990100  137.524000
  H    -63.102800   32.243100  136.001000
  H    -63.460200   30.578600  136.772000
  H    -65.533200   39.290500  135.695000
  H    -68.764000   32.738500  139.516000

 Total Charge           Charge          ....    0
 Multiplicity           Mult            ....    1
 Number of Electrons    NEL             ....  134
 Basis Dimension        Dim             ....  322

ORBITAL ENERGIES
----------------

  NO   OCC          E(Eh)            E(eV)
   0   2.0000     -88.970192     -2421.0020
   1   2.0000     -88.962987     -2420.8060
   2   2.0000     -10.326251      -280.9916
   3   2.0000     -10.322897      -280.9003
   4   2.0000     -10.321050      -280.8501
   5   2.0000     -10.312964      -280.6300
   6   2.0000     -10.304792      -280.4076
   7   2.0000     -10.300431      -280.2890
   8   2.0000     -10.297954      -280.2216
   9   2.0000     -10.297410      -280.2068
  10   2.0000     -10.292600      -280.0759
  11   2.0000     -10.291275      -280.0398
  12   2.0000     -10.288493      -279.9641
  13   2.0000     -10.287843      -279.9464
  14   2.0000     -10.280043      -279.7342
  15   2.0000     -10.278657      -279.6965
  16   2.0000      -8.086515      -220.0453
  17   2.0000      -8.076852      -219.7823
  18   2.0000      -6.044711      -164.4849
  19   2.0000      -6.040781      -164.3780
  20   2.0000      -6.037519      -164.2892
  21   2.0000      -6.035579      -164.2364
  22   2.0000      -6.031555      -164.1270
  23   2.0000      -6.027345      -164.0124
  24   2.0000      -1.013634       -27.5824
  25   2.0000      -0.982356       -26.7313
  26   2.0000      -0.912817       -24.8390
  27   2.0000      -0.901278       -24.5250
  28   2.0000      -0.867711       -23.6116
  29   2.0000      -0.852407       -23.1952
  30   2.0000      -0.842650       -22.9297
  31   2.0000      -0.813336       -22.1320
  32   2.0000      -0.784336       -21.3429
  33   2.0000      -0.770247       -20.9595
  34   2.0000      -0.710744       -19.3403
  35   2.0000      -0.693663       -18.8755
  36   2.0000      -0.688333       -18.7305
  37   2.0000      -0.652974       -17.7683
  38   2.0000      -0.642335       -17.4788
  39   2.0000      -0.617210       -16.7951
  40   2.0000      -0.592008       -16.1094
  41   2.0000      -0.568830       -15.4787
  42   2.0000      -0.559921       -15.2362
  43   2.0000      -0.546326       -14.8663
  44   2.0000      -0.540763       -14.7149
  45   2.0000      -0.526369       -14.3232
  46   2.0000      -0.518410       -14.1067
  47   2.0000      -0.507819       -13.8185
  48   2.0000      -0.498077       -13.5534
  49   2.0000      -0.494970       -13.4688
  50   2.0000      -0.489275       -13.3138
  51   2.0000      -0.477566       -12.9952
  52   2.0000      -0.471641       -12.8340
  53   2.0000      -0.466642       -12.6980
  54   2.0000      -0.461572       -12.5600
  55   2.0000      -0.451675       -12.2907
  56   2.0000      -0.443817       -12.0769
  57   2.0000      -0.438976       -11.9451
  58   2.0000      -0.437394       -11.9021
  59   2.0000      -0.424718       -11.5572
  60   2.0000      -0.418552       -11.3894
  61   2.0000      -0.414340       -11.2748
  62   2.0000      -0.409240       -11.1360
  63   2.0000      -0.343682        -9.3521
  64   2.0000      -0.332106        -9.0371
  65   2.0000      -0.326917        -8.8959
  66   2.0000      -0.297321        -8.0905
  67   0.0000       0.037183         1.0118
  68   0.0000       0.067381         1.8335
  69   0.0000       0.117111         3.1868
  70   0.0000       0.123615         3.3637
  71   0.0000       0.127781         3.4771

MULLIKEN ATOMIC CHARGES
-----------------------
   0 S :    0.143743
   1 C :   -0.137259
   2 C :   -0.113231
   3 C :    0.022834
   4 C :   -0.181732
   5 H :    0.034607
   6 C :    0.119518
   7 H :    0.033145
   8 H :   -0.006542
   9 C :   -0.085859
  10 H :    0.040259
  11 H :    0.036497
  12 C :   -0.036054
  13 H :    0.027202
  14 H :    0.029003
  15 H :    0.019540
  16 S :    0.097661
  17 C :   -0.100199
  18 C :   -0.045083
  19 C :   -0.034126
  20 C :   -0.168450
  21 H :    0.020316
  22 C :    0.053814
  23 H :    0.017123
  24 H :    0.055940
  25 C :   -0.081946
  26 H :    0.019920
  27 H :    0.024476
  28 C :   -0.054421
  29 H :    0.027933
  30 H :    0.042003
  31 H :    0.037694
  32 H :    0.063637
  33 H :    0.078036
Sum of atomic charges:    0.0000000

LOEWDIN ATOMIC CHARGES
----------------------
   0 S :    0.462696
   1 C :   -0.227904
   2 C :   -0.063933
   3 C :   -0.060811
   4 C :   -0.222784
   5 H :    0.042635
   6 C :   -0.025101
   7 H :    0.035013
   8 H :    0.017801
   9 C :   -0.036229
  10 H :    0.033567
  11 H :    0.020771
  12 C :   -0.068648
  13 H :    0.021686
  14 H :    0.022701
  15 H :    0.028144
  16 S :    0.374514
  17 C :   -0.192874
  18 C :   -0.079140
  19 C :   -0.060990
  20 C :   -0.188129
  21 H :    0.028484
  22 C :   -0.028268
  23 H :    0.020407
  24 H :    0.045027
  25 C :   -0.042662
  26 H :    0.013376
  27 H :    0.027977
  28 C :   -0.073510
  29 H :    0.026530
  30 H :    0.025562
  31 H :    0.033825
  32 H :    0.039197
  33 H :    0.051068

  Mayer bond orders larger than 0.100000
B(  0-S ,  1-C ) :   1.1589 B(  0-S ,  4-C ) :   1.1918 B(  1-C ,  2-C ) :   1.5918
B(  1-C , 32-H ) :   0.9573 B(  2-C ,  3-C ) :   1.2657 B(  2-C ,  6-C ) :   1.0182
B(  3-C ,  4-C ) :   1.5366 B(  3-C ,  5-H ) :   0.9901 B(  4-C , 20-C ) :   1.0170
B(  6-C ,  7-H ) :   0.9305 B(  6-C ,  8-H ) :   0.9390 B(  6-C ,  9-C ) :   1.0630
B(  9-C , 10-H ) :   0.9506 B(  9-C , 11-H ) :   0.9650 B(  9-C , 12-C ) :   1.0755
B( 12-C , 13-H ) :   0.9757 B( 12-C , 14-H ) :   0.9779 B( 12-C , 15-H ) :   0.9733
B( 16-S , 17-C ) :   1.1290 B( 16-S , 20-C ) :   1.1212 B( 17-C , 18-C ) :   1.6602
B( 17-C , 33-H ) :   0.9529 B( 18-C , 19-C ) :   1.2140 B( 18-C , 21-H ) :   0.9819
B( 19-C , 20-C ) :   1.6416 B( 19-C , 22-C ) :   1.0302 B( 22-C , 23-H ) :   0.9429
B( 22-C , 24-H ) :   0.9426 B( 22-C , 25-C ) :   1.0559 B( 25-C , 26-H ) :   0.9572
B( 25-C , 27-H ) :   0.9568 B( 25-C , 28-C ) :   1.0833 B( 28-C , 29-H ) :   0.9714
B( 28-C , 30-H ) :   0.9726 B( 28-C , 31-H ) :   0.9687

Dispersion correction           -0.014092057
FINAL SINGLE POINT ENERGY     -1339.874906135719

DIPOLE MOMENT
-------------
                                X             Y             Z
Electronic contribution:    -26.24630       8.47781      11.18849
Nuclear contribution   :     26.75652      -8.67603     -11.41779
                        -----------------------------------------
Total Dipole Moment    :      0.51022      -0.19822      -0.22930
                        -----------------------------------------
Magnitude (a.u.)       :      0.59346
Magnitude (Debye)      :      1.50845

Rotational constants in cm-1:     0.018002     0.008777     0.006471
Rotational constants in MHz :   539.673361   263.120558   194.003439

                             ****ORCA TERMINATED NORMALLY****
TOTAL RUN TIME: 0 days 0 hours 0 minutes 34 seconds 688 msec
