                         Program Version 4.2.1 -  RELEASE  -
|  1> ! wB97X-D3 SP def2-SVP
|  2> %pal
|  3> nprocs 16
|  4> end
|  5>
|  6> * xyz 0 1
|  7> S 	 59.0874 	 -10.1134 	 90.6064
|  8> C 	 59.4302 	 -8.56717 	 91.341
|  9> C 	 60.028 	 -7.64023 	 90.439
| 10> C 	 60.2391 	 -8.25219 	 89.1735
| 11> C 	 59.9835 	 -9.59466 	 89.1964
| 12> H 	 60.643 	 -7.75923 	 88.3425
| 13> C 	 60.0936 	 -6.16794 	 90.6775
| 14> H 	 60.8622 	 -5.89469 	 91.4127
| 15> H 	 59.1846 	 -5.774 	 91.1148
| 16> C 	 60.3396 	 -5.29424 	 89.4499
| 17> H 	 60.8253 	 -4.32424 	 89.7576
| 18> H 	 61.2307 	 -5.76554 	 88.8889
| 19> C 	 59.2692 	 -4.96737 	 88.3464
| 20> H 	 59.7729 	 -4.40848 	 87.5633
| 21> H 	 58.9472 	 -5.83132 	 87.823
| 22> H 	 58.3949 	 -4.40935 	 88.658
| 23> S 	 58.9032 	 -10.9176 	 87.0904
| 24> C 	 59.861 	 -11.8245 	 85.9595
| 25> C 	 61.2073 	 -11.8103 	 86.3795
| 26> C 	 61.4447 	 -10.9414 	 87.5033
| 27> C 	 60.2911 	 -10.4502 	 88.0833
| 28> H 	 61.9509 	 -12.2684 	 85.7923
| 29> C 	 62.805 	 -10.8419 	 88.1339
| 30> H 	 62.8372 	 -9.85693 	 88.621
| 31> H 	 63.6341 	 -10.8985 	 87.4536
| 32> C 	 63.0524 	 -11.7983 	 89.2262
| 33> H 	 62.2226 	 -11.8615 	 89.9467
| 34> H 	 63.9408 	 -11.4678 	 89.8024
| 35> C 	 63.1892 	 -13.2911 	 88.6189
| 36> H 	 64.136 	 -13.4319 	 88.0064
| 37> H 	 62.2595 	 -13.5454 	 88.0666
| 38> H 	 63.2521 	 -14.062 	 89.4057
| 39> H 	 59.1736 	 -8.24537 	 92.3394
| 40> H 	 59.4698 	 -12.4568 	 85.215
| 41> *
| 42>
| 43>                          ****END OF INPUT****

CARTESIAN COORDINATES (ANGSTROEM)
---------------------------------
  S     59.087400  -10.113400   90.606400
  C     59.430200   -8.567170   91.341000
  C     60.028000   -7.640230   90.439000
  C     60.239100   -8.252190   89.173500
  C     59.983500   -9.594660   89.196400
  H     60.643000   -7.759230   88.342500
  C     60.093600   -6.167940   90.677500
  H     60.862200   -5.894690   91.412700
  H     59.184600   -5.774000   91.114800
  C     60.339600   -5.294240   89.449900
  H     60.825300   -4.324240   89.757600
  H     61.230700   -5.765540   88.888900
  C     59.269200   -4.967370   88.346400
  H     59.772900   -4.408480   87.563300
  H     58.947200   -5.831320   87.823000
  H     58.394900   -4.409350   88.658000
  S     58.903200  -10.917600   87.090400
  C     59.861000  -11.824500   85.959500
  C     61.207300  -11.810300   86.379500
  C     61.444700  -10.941400   87.503300
  C     60.291100  -10.450200   88.083300
  H     61.950900  -12.268400   85.792300
  C     62.805000  -10.841900   88.133900
  H     62.837200   -9.856930   88.621000
  H     63.634100  -10.898500   87.453600
  C     63.052400  -11.798300   89.226200
  H     62.222600  -11.861500   89.946700
  H     63.940800  -11.467800   89.802400
  C     63.189200  -13.291100   88.618900
  H     64.136000  -13.431900   88.006400
  H     62.259500  -13.545400   88.066600
  H     63.252100  -14.062000   89.405700
  H     59.173600   -8.245370   92.339400
  H     59.469800  -12.456800   85.215000

 Total Charge           Charge          ....    0
 Multiplicity           Mult            ....    1
 Number of Electrons    NEL             ....  134
 Basis Dimension        Dim             ....  322

ORBITAL ENERGIES
----------------

  NO   OCC          E(Eh)            E(eV)
   0   2.0000     -88.975617     -2421.1496
   1   2.0000     -88.960483     -2420.7378
   2   2.0000     -10.325716      -280.9770
   3   2.0000     -10.323130      -280.9066
   4   2.0000     -10.317330      -280.7488
   5   2.0000     -10.315961      -280.7116
   6   2.0000     -10.303084      -280.3612
   7   2.0000     -10.302104      -280.3345
   8   2.0000     -10.299866      -280.2736
   9   2.0000     -10.293566      -280.1022
  10   2.0000     -10.292601      -280.0759
  11   2.0000     -10.290180      -280.0100
  12   2.0000     -10.285282      -279.8768
  13   2.0000     -10.281857      -279.7836
  14   2.0000     -10.281388      -279.7708
  15   2.0000     -10.278096      -279.6812
  16   2.0000      -8.089835      -220.1356
  17   2.0000      -8.075391      -219.7426
  18   2.0000      -6.048249      -164.5812
  19   2.0000      -6.044509      -164.4795
  20   2.0000      -6.040642      -164.3742
  21   2.0000      -6.033882      -164.1903
  22   2.0000      -6.029643      -164.0749
  23   2.0000      -6.026401      -163.9867
  24   2.0000      -1.008157       -27.4334
  25   2.0000      -0.982486       -26.7348
  26   2.0000      -0.911524       -24.8038
  27   2.0000      -0.910354       -24.7720
  28   2.0000      -0.869352       -23.6563
  29   2.0000      -0.849200       -23.1079
  30   2.0000      -0.834419       -22.7057
  31   2.0000      -0.815900       -22.2018
  32   2.0000      -0.785675       -21.3793
  33   2.0000      -0.772015       -21.0076
  34   2.0000      -0.711257       -19.3543
  35   2.0000      -0.692247       -18.8370
  36   2.0000      -0.685606       -18.6563
  37   2.0000      -0.666887       -18.1469
  38   2.0000      -0.641726       -17.4622
  39   2.0000      -0.630693       -17.1620
  40   2.0000      -0.595902       -16.2153
  41   2.0000      -0.566942       -15.4273
  42   2.0000      -0.552541       -15.0354
  43   2.0000      -0.546812       -14.8795
  44   2.0000      -0.539142       -14.6708
  45   2.0000      -0.529497       -14.4084
  46   2.0000      -0.519028       -14.1235
  47   2.0000      -0.509651       -13.8683
  48   2.0000      -0.505542       -13.7565
  49   2.0000      -0.497656       -13.5419
  50   2.0000      -0.484641       -13.1878
  51   2.0000      -0.483114       -13.1462
  52   2.0000      -0.476148       -12.9566
  53   2.0000      -0.464403       -12.6370
  54   2.0000      -0.459697       -12.5090
  55   2.0000      -0.455062       -12.3829
  56   2.0000      -0.437820       -11.9137
  57   2.0000      -0.436430       -11.8759
  58   2.0000      -0.431873       -11.7519
  59   2.0000      -0.421575       -11.4716
  60   2.0000      -0.414037       -11.2665
  61   2.0000      -0.413312       -11.2468
  62   2.0000      -0.406797       -11.0695
  63   2.0000      -0.340573        -9.2675
  64   2.0000      -0.327280        -8.9057
  65   2.0000      -0.325111        -8.8467
  66   2.0000      -0.298193        -8.1143
  67   0.0000       0.032717         0.8903
  68   0.0000       0.053005         1.4423
  69   0.0000       0.109810         2.9881
  70   0.0000       0.121944         3.3183
  71   0.0000       0.128815         3.5052

MULLIKEN ATOMIC CHARGES
-----------------------
   0 S :    0.146518
   1 C :   -0.112299
   2 C :   -0.088782
   3 C :    0.071300
   4 C :   -0.166733
   5 H :   -0.000974
   6 C :    0.108376
   7 H :    0.037646
   8 H :    0.028849
   9 C :   -0.175309
  10 H :    0.033286
  11 H :    0.028192
  12 C :   -0.012783
  13 H :    0.029125
  14 H :    0.022525
  15 H :    0.037639
  16 S :    0.093375
  17 C :   -0.076173
  18 C :   -0.027734
  19 C :   -0.043580
  20 C :   -0.179064
  21 H :    0.009798
  22 C :    0.100597
  23 H :    0.020872
  24 H :    0.013978
  25 C :   -0.063878
  26 H :    0.030341
  27 H :    0.036001
  28 C :   -0.113823
  29 H :    0.038854
  30 H :    0.053233
  31 H :    0.031304
  32 H :    0.040302
  33 H :    0.049020
Sum of atomic charges:   -0.0000000

LOEWDIN ATOMIC CHARGES
----------------------
   0 S :    0.423908
   1 C :   -0.196773
   2 C :   -0.060337
   3 C :   -0.044440
   4 C :   -0.206130
   5 H :    0.024965
   6 C :   -0.041011
   7 H :    0.040658
   8 H :    0.032255
   9 C :   -0.054158
  10 H :    0.030383
  11 H :    0.027447
  12 C :   -0.065011
  13 H :    0.031583
  14 H :    0.019873
  15 H :    0.024387
  16 S :    0.402585
  17 C :   -0.183313
  18 C :   -0.066939
  19 C :   -0.053161
  20 C :   -0.194434
  21 H :    0.022857
  22 C :   -0.037187
  23 H :    0.034403
  24 H :    0.026516
  25 C :   -0.035258
  26 H :    0.024504
  27 H :    0.026882
  28 C :   -0.081714
  29 H :    0.027031
  30 H :    0.030647
  31 H :    0.022951
  32 H :    0.024490
  33 H :    0.021542

  Mayer bond orders larger than 0.100000
B(  0-S ,  1-C ) :   1.1501 B(  0-S ,  4-C ) :   1.1514 B(  1-C ,  2-C ) :   1.5888
B(  1-C ,  4-C ) :   0.1035 B(  1-C , 32-H ) :   0.9712 B(  2-C ,  3-C ) :   1.2679
B(  2-C ,  6-C ) :   1.0142 B(  3-C ,  4-C ) :   1.5579 B(  3-C ,  5-H ) :   0.9922
B(  4-C , 20-C ) :   1.0200 B(  6-C ,  7-H ) :   0.9215 B(  6-C ,  8-H ) :   0.9413
B(  6-C ,  9-C ) :   1.0829 B(  9-C , 10-H ) :   0.9546 B(  9-C , 11-H ) :   0.9488
B(  9-C , 12-C ) :   1.0738 B( 12-C , 13-H ) :   0.9699 B( 12-C , 14-H ) :   0.9742
B( 12-C , 15-H ) :   0.9761 B( 16-S , 17-C ) :   1.1695 B( 16-S , 20-C ) :   1.1475
B( 17-C , 18-C ) :   1.5820 B( 17-C , 20-C ) :   0.1086 B( 17-C , 33-H ) :   0.9729
B( 18-C , 19-C ) :   1.2447 B( 18-C , 21-H ) :   0.9902 B( 19-C , 20-C ) :   1.5984
B( 19-C , 22-C ) :   1.0651 B( 22-C , 23-H ) :   0.9183 B( 22-C , 24-H ) :   0.9309
B( 22-C , 25-C ) :   1.0851 B( 25-C , 26-H ) :   0.9536 B( 25-C , 27-H ) :   0.9563
B( 25-C , 28-C ) :   1.0593 B( 28-C , 29-H ) :   0.9767 B( 28-C , 30-H ) :   0.9707
B( 28-C , 31-H ) :   0.9765

Dispersion correction           -0.015026436
FINAL SINGLE POINT ENERGY     -1339.868623272196

DIPOLE MOMENT
-------------
                                X             Y             Z
Electronic contribution:    -14.80143     -10.37714      -0.12683
Nuclear contribution   :     15.11104      10.78307       0.16536
                        -----------------------------------------
Total Dipole Moment    :      0.30961       0.40593       0.03853
                        -----------------------------------------
Magnitude (a.u.)       :      0.51198
Magnitude (Debye)      :      1.30135

Rotational constants in cm-1:     0.020103     0.008385     0.007844
Rotational constants in MHz :   602.684823   251.370578   235.165783

                             ****ORCA TERMINATED NORMALLY****
TOTAL RUN TIME: 0 days 0 hours 0 minutes 29 seconds 45 msec
