                         Program Version 4.2.1 -  RELEASE  -
|  1> ! wB97X-D3 SP def2-SVP
|  2> %pal
|  3> nprocs 16
|  4> end
|  5>
|  6> * xyz 0 1
|  7> S 	 -66.3987 	 40.0944 	 134.903
|  8> C 	 -64.8396 	 40.5793 	 135.538
|  9> C 	 -64.653 	 40.1819 	 136.868
| 10> C 	 -65.7359 	 39.3264 	 137.255
| 11> C 	 -66.8553 	 39.3917 	 136.46
| 12> H 	 -65.7544 	 38.7576 	 138.166
| 13> C 	 -63.5215 	 40.5207 	 137.791
| 14> H 	 -62.546 	 40.7468 	 137.235
| 15> H 	 -63.26 	 39.6089 	 138.35
| 16> C 	 -63.8806 	 41.6823 	 138.774
| 17> H 	 -62.9366 	 41.8122 	 139.365
| 18> H 	 -63.9816 	 42.5626 	 138.079
| 19> C 	 -65.0128 	 41.3098 	 139.743
| 20> H 	 -64.721 	 40.3181 	 140.161
| 21> H 	 -65.0712 	 42.047 	 140.596
| 22> H 	 -65.9718 	 41.2216 	 139.307
| 23> S 	 -69.303 	 39.678 	 137.61
| 24> C 	 -70.5176 	 38.426 	 137.563
| 25> C 	 -69.9266 	 37.2936 	 137.075
| 26> C 	 -68.5591 	 37.4379 	 136.576
| 27> C 	 -68.1125 	 38.7486 	 136.705
| 28> H 	 -70.5339 	 36.4003 	 137.026
| 29> C 	 -67.7648 	 36.2641 	 135.906
| 30> H 	 -66.9909 	 36.7305 	 135.259
| 31> H 	 -68.5459 	 35.6617 	 135.379
| 32> C 	 -67.2036 	 35.138 	 136.79
| 33> H 	 -66.4916 	 35.6865 	 137.372
| 34> H 	 -66.589 	 34.3345 	 136.354
| 35> C 	 -68.0794 	 34.3198 	 137.64
| 36> H 	 -68.7258 	 34.9583 	 138.187
| 37> H 	 -67.6065 	 33.6363 	 138.319
| 38> H 	 -68.7255 	 33.7894 	 136.972
| 39> H 	 -64.1658 	 41.2308 	 135.067
| 40> H 	 -71.5029 	 38.4586 	 137.988
| 41> *
| 42>
| 43>                          ****END OF INPUT****

CARTESIAN COORDINATES (ANGSTROEM)
---------------------------------
  S    -66.398700   40.094400  134.903000
  C    -64.839600   40.579300  135.538000
  C    -64.653000   40.181900  136.868000
  C    -65.735900   39.326400  137.255000
  C    -66.855300   39.391700  136.460000
  H    -65.754400   38.757600  138.166000
  C    -63.521500   40.520700  137.791000
  H    -62.546000   40.746800  137.235000
  H    -63.260000   39.608900  138.350000
  C    -63.880600   41.682300  138.774000
  H    -62.936600   41.812200  139.365000
  H    -63.981600   42.562600  138.079000
  C    -65.012800   41.309800  139.743000
  H    -64.721000   40.318100  140.161000
  H    -65.071200   42.047000  140.596000
  H    -65.971800   41.221600  139.307000
  S    -69.303000   39.678000  137.610000
  C    -70.517600   38.426000  137.563000
  C    -69.926600   37.293600  137.075000
  C    -68.559100   37.437900  136.576000
  C    -68.112500   38.748600  136.705000
  H    -70.533900   36.400300  137.026000
  C    -67.764800   36.264100  135.906000
  H    -66.990900   36.730500  135.259000
  H    -68.545900   35.661700  135.379000
  C    -67.203600   35.138000  136.790000
  H    -66.491600   35.686500  137.372000
  H    -66.589000   34.334500  136.354000
  C    -68.079400   34.319800  137.640000
  H    -68.725800   34.958300  138.187000
  H    -67.606500   33.636300  138.319000
  H    -68.725500   33.789400  136.972000
  H    -64.165800   41.230800  135.067000
  H    -71.502900   38.458600  137.988000

 Total Charge           Charge          ....    0
 Multiplicity           Mult            ....    1
 Number of Electrons    NEL             ....  134
 Basis Dimension        Dim             ....  322

ORBITAL ENERGIES
----------------

  NO   OCC          E(Eh)            E(eV)
   0   2.0000     -88.967880     -2420.9391
   1   2.0000     -88.961607     -2420.7684
   2   2.0000     -10.327830      -281.0346
   3   2.0000     -10.327493      -281.0254
   4   2.0000     -10.318059      -280.7686
   5   2.0000     -10.314377      -280.6685
   6   2.0000     -10.313589      -280.6470
   7   2.0000     -10.302555      -280.3468
   8   2.0000     -10.302438      -280.3436
   9   2.0000     -10.299957      -280.2761
  10   2.0000     -10.297248      -280.2024
  11   2.0000     -10.295877      -280.1650
  12   2.0000     -10.294788      -280.1354
  13   2.0000     -10.283025      -279.8153
  14   2.0000     -10.277609      -279.6679
  15   2.0000     -10.266365      -279.3620
  16   2.0000      -8.082042      -219.9235
  17   2.0000      -8.076544      -219.7739
  18   2.0000      -6.040557      -164.3719
  19   2.0000      -6.036666      -164.2660
  20   2.0000      -6.035177      -164.2255
  21   2.0000      -6.032785      -164.1604
  22   2.0000      -6.030887      -164.1088
  23   2.0000      -6.027281      -164.0107
  24   2.0000      -1.006252       -27.3815
  25   2.0000      -0.983432       -26.7605
  26   2.0000      -0.912412       -24.8280
  27   2.0000      -0.910588       -24.7784
  28   2.0000      -0.873732       -23.7755
  29   2.0000      -0.848103       -23.0781
  30   2.0000      -0.844093       -22.9689
  31   2.0000      -0.816483       -22.2176
  32   2.0000      -0.785720       -21.3805
  33   2.0000      -0.774571       -21.0771
  34   2.0000      -0.709115       -19.2960
  35   2.0000      -0.698364       -19.0034
  36   2.0000      -0.689220       -18.7546
  37   2.0000      -0.660472       -17.9723
  38   2.0000      -0.644501       -17.5378
  39   2.0000      -0.614269       -16.7151
  40   2.0000      -0.586310       -15.9543
  41   2.0000      -0.576428       -15.6854
  42   2.0000      -0.565530       -15.3888
  43   2.0000      -0.556221       -15.1355
  44   2.0000      -0.550592       -14.9824
  45   2.0000      -0.540511       -14.7081
  46   2.0000      -0.516531       -14.0555
  47   2.0000      -0.507171       -13.8008
  48   2.0000      -0.502901       -13.6846
  49   2.0000      -0.502442       -13.6721
  50   2.0000      -0.485833       -13.2202
  51   2.0000      -0.483610       -13.1597
  52   2.0000      -0.471756       -12.8371
  53   2.0000      -0.469930       -12.7874
  54   2.0000      -0.456728       -12.4282
  55   2.0000      -0.455593       -12.3973
  56   2.0000      -0.442189       -12.0326
  57   2.0000      -0.432379       -11.7656
  58   2.0000      -0.426318       -11.6007
  59   2.0000      -0.424328       -11.5465
  60   2.0000      -0.419489       -11.4149
  61   2.0000      -0.415781       -11.3140
  62   2.0000      -0.397038       -10.8040
  63   2.0000      -0.333656        -9.0793
  64   2.0000      -0.327553        -8.9132
  65   2.0000      -0.319403        -8.6914
  66   2.0000      -0.314221        -8.5504
  67   0.0000       0.042191         1.1481
  68   0.0000       0.047996         1.3060
  69   0.0000       0.103911         2.8276
  70   0.0000       0.119677         3.2566
  71   0.0000       0.127548         3.4708

MULLIKEN ATOMIC CHARGES
-----------------------
   0 S :    0.118180
   1 C :   -0.086204
   2 C :   -0.090122
   3 C :    0.056730
   4 C :   -0.188873
   5 H :    0.010776
   6 C :    0.003806
   7 H :    0.036858
   8 H :    0.028262
   9 C :   -0.074334
  10 H :    0.038182
  11 H :    0.041792
  12 C :   -0.053011
  13 H :    0.027062
  14 H :    0.047326
  15 H :    0.048685
  16 S :    0.098250
  17 C :   -0.080511
  18 C :   -0.048883
  19 C :   -0.010642
  20 C :   -0.188914
  21 H :    0.019801
  22 C :    0.080887
  23 H :    0.049524
  24 H :    0.022163
  25 C :   -0.071853
  26 H :    0.005273
  27 H :    0.029845
  28 C :   -0.012524
  29 H :    0.012373
  30 H :    0.036639
  31 H :    0.008507
  32 H :    0.026669
  33 H :    0.058279
Sum of atomic charges:   -0.0000000

LOEWDIN ATOMIC CHARGES
----------------------
   0 S :    0.401319
   1 C :   -0.184363
   2 C :   -0.064231
   3 C :   -0.044890
   4 C :   -0.206417
   5 H :    0.027940
   6 C :   -0.044159
   7 H :    0.037003
   8 H :    0.028539
   9 C :   -0.041624
  10 H :    0.029015
  11 H :    0.028856
  12 C :   -0.066292
  13 H :    0.029036
  14 H :    0.034685
  15 H :    0.020407
  16 S :    0.402244
  17 C :   -0.182668
  18 C :   -0.077372
  19 C :   -0.049684
  20 C :   -0.202376
  21 H :    0.028155
  22 C :   -0.026410
  23 H :    0.040193
  24 H :    0.032420
  25 C :   -0.052394
  26 H :    0.014122
  27 H :    0.031197
  28 C :   -0.058060
  29 H :    0.016570
  30 H :    0.029431
  31 H :    0.019900
  32 H :    0.016803
  33 H :    0.033108

  Mayer bond orders larger than 0.100000
B(  0-S ,  1-C ) :   1.1470 B(  0-S ,  4-C ) :   1.1278 B(  1-C ,  2-C ) :   1.6138
B(  1-C ,  4-C ) :   0.1039 B(  1-C , 32-H ) :   0.9706 B(  2-C ,  3-C ) :   1.2335
B(  2-C ,  6-C ) :   1.0257 B(  3-C ,  4-C ) :   1.6015 B(  3-C ,  5-H ) :   0.9863
B(  4-C , 20-C ) :   1.0291 B(  6-C ,  7-H ) :   0.9446 B(  6-C ,  8-H ) :   0.9405
B(  6-C ,  9-C ) :   1.0618 B(  9-C , 10-H ) :   0.9557 B(  9-C , 11-H ) :   0.9561
B(  9-C , 12-C ) :   1.0693 B( 12-C , 13-H ) :   0.9703 B( 12-C , 14-H ) :   0.9726
B( 12-C , 15-H ) :   0.9708 B( 16-S , 17-C ) :   1.1457 B( 16-S , 20-C ) :   1.1447
B( 17-C , 18-C ) :   1.6297 B( 17-C , 33-H ) :   0.9697 B( 18-C , 19-C ) :   1.2165
B( 18-C , 21-H ) :   0.9839 B( 19-C , 20-C ) :   1.6106 B( 19-C , 22-C ) :   1.0302
B( 22-C , 23-H ) :   0.9356 B( 22-C , 24-H ) :   0.9394 B( 22-C , 25-C ) :   1.0536
B( 25-C , 26-H ) :   0.9489 B( 25-C , 27-H ) :   0.9584 B( 25-C , 28-C ) :   1.0889
B( 28-C , 29-H ) :   0.9689 B( 28-C , 30-H ) :   0.9697 B( 28-C , 31-H ) :   0.9697

Dispersion correction           -0.015147133
FINAL SINGLE POINT ENERGY     -1339.861629212065

DIPOLE MOMENT
-------------
                                X             Y             Z
Electronic contribution:    -11.06452      11.39850     -12.15953
Nuclear contribution   :     11.36195     -11.74687      12.55446
                        -----------------------------------------
Total Dipole Moment    :      0.29743      -0.34837       0.39493
                        -----------------------------------------
Magnitude (a.u.)       :      0.60482
Magnitude (Debye)      :      1.53732

Rotational constants in cm-1:     0.018979     0.008349     0.007864
Rotational constants in MHz :   568.967641   250.289401   235.769909

                             ****ORCA TERMINATED NORMALLY****
TOTAL RUN TIME: 0 days 0 hours 0 minutes 35 seconds 522 msec
