                         Program Version 4.2.1 -  RELEASE  -
|  1> ! wB97X-D3 SP def2-SVP
|  2> %pal
|  3> nprocs 16
|  4> end
|  5>
|  6> * xyz 0 1
|  7> S 	 -11.6331 	 74.01 	 49.7967
|  8> C 	 -13.1221 	 74.9992 	 49.5875
|  9> C 	 -14.2072 	 74.3907 	 50.1424
| 10> C 	 -13.9313 	 73.0487 	 50.4494
| 11> C 	 -12.6345 	 72.6516 	 50.2235
| 12> H 	 -14.5581 	 72.2655 	 50.7448
| 13> C 	 -15.6381 	 74.9293 	 50.2876
| 14> H 	 -15.8579 	 75.2317 	 49.2647
| 15> H 	 -15.606 	 75.8817 	 50.8089
| 16> C 	 -16.7607 	 74.0096 	 50.8576
| 17> H 	 -16.7685 	 73.0075 	 50.4443
| 18> H 	 -16.4902 	 73.9345 	 51.9267
| 19> C 	 -18.2659 	 74.5292 	 50.6824
| 20> H 	 -18.3861 	 75.6237 	 50.5335
| 21> H 	 -18.749 	 73.958 	 49.8813
| 22> H 	 -18.8824 	 74.2881 	 51.5217
| 23> S 	 -10.5441 	 71.2222 	 51.3777
| 24> C 	 -10.4143 	 69.5725 	 51.0197
| 25> C 	 -11.6037 	 69.1046 	 50.6001
| 26> C 	 -12.5433 	 70.0467 	 50.177
| 27> C 	 -12.0624 	 71.3501 	 50.5005
| 28> H 	 -11.6602 	 68.0158 	 50.5869
| 29> C 	 -13.8902 	 69.694 	 49.5886
| 30> H 	 -13.6637 	 68.9932 	 48.8251
| 31> H 	 -14.347 	 70.5344 	 49.1099
| 32> C 	 -14.8237 	 69.0691 	 50.6047
| 33> H 	 -15.1473 	 69.7711 	 51.3124
| 34> H 	 -14.3519 	 68.3329 	 51.2358
| 35> C 	 -15.9638 	 68.281 	 50.0654
| 36> H 	 -15.5819 	 67.632 	 49.2496
| 37> H 	 -16.7258 	 68.9099 	 49.5549
| 38> H 	 -16.5439 	 67.5828 	 50.7962
| 39> H 	 -13.1035 	 76.0256 	 49.4086
| 40> H 	 -9.56291 	 68.9867 	 51.3233
| 41> *
| 42>
| 43>                          ****END OF INPUT****

CARTESIAN COORDINATES (ANGSTROEM)
---------------------------------
  S    -11.633100   74.010000   49.796700
  C    -13.122100   74.999200   49.587500
  C    -14.207200   74.390700   50.142400
  C    -13.931300   73.048700   50.449400
  C    -12.634500   72.651600   50.223500
  H    -14.558100   72.265500   50.744800
  C    -15.638100   74.929300   50.287600
  H    -15.857900   75.231700   49.264700
  H    -15.606000   75.881700   50.808900
  C    -16.760700   74.009600   50.857600
  H    -16.768500   73.007500   50.444300
  H    -16.490200   73.934500   51.926700
  C    -18.265900   74.529200   50.682400
  H    -18.386100   75.623700   50.533500
  H    -18.749000   73.958000   49.881300
  H    -18.882400   74.288100   51.521700
  S    -10.544100   71.222200   51.377700
  C    -10.414300   69.572500   51.019700
  C    -11.603700   69.104600   50.600100
  C    -12.543300   70.046700   50.177000
  C    -12.062400   71.350100   50.500500
  H    -11.660200   68.015800   50.586900
  C    -13.890200   69.694000   49.588600
  H    -13.663700   68.993200   48.825100
  H    -14.347000   70.534400   49.109900
  C    -14.823700   69.069100   50.604700
  H    -15.147300   69.771100   51.312400
  H    -14.351900   68.332900   51.235800
  C    -15.963800   68.281000   50.065400
  H    -15.581900   67.632000   49.249600
  H    -16.725800   68.909900   49.554900
  H    -16.543900   67.582800   50.796200
  H    -13.103500   76.025600   49.408600
  H     -9.562910   68.986700   51.323300

 Total Charge           Charge          ....    0
 Multiplicity           Mult            ....    1
 Number of Electrons    NEL             ....  134
 Basis Dimension        Dim             ....  322

ORBITAL ENERGIES
----------------

  NO   OCC          E(Eh)            E(eV)
   0   2.0000     -88.964325     -2420.8424
   1   2.0000     -88.962198     -2420.7845
   2   2.0000     -10.326603      -281.0011
   3   2.0000     -10.324015      -280.9307
   4   2.0000     -10.308046      -280.4962
   5   2.0000     -10.306853      -280.4637
   6   2.0000     -10.303605      -280.3754
   7   2.0000     -10.301580      -280.3202
   8   2.0000     -10.299557      -280.2652
   9   2.0000     -10.297053      -280.1971
  10   2.0000     -10.289175      -279.9827
  11   2.0000     -10.287173      -279.9282
  12   2.0000     -10.287118      -279.9267
  13   2.0000     -10.285977      -279.8957
  14   2.0000     -10.283517      -279.8287
  15   2.0000     -10.278943      -279.7043
  16   2.0000      -8.078535      -219.8281
  17   2.0000      -8.078156      -219.8178
  18   2.0000      -6.037100      -164.2779
  19   2.0000      -6.036438      -164.2598
  20   2.0000      -6.033313      -164.1748
  21   2.0000      -6.032612      -164.1557
  22   2.0000      -6.029060      -164.0591
  23   2.0000      -6.028962      -164.0564
  24   2.0000      -1.011468       -27.5234
  25   2.0000      -0.989380       -26.9224
  26   2.0000      -0.920925       -25.0596
  27   2.0000      -0.905483       -24.6395
  28   2.0000      -0.870070       -23.6758
  29   2.0000      -0.857192       -23.3254
  30   2.0000      -0.842671       -22.9302
  31   2.0000      -0.816354       -22.2141
  32   2.0000      -0.787740       -21.4355
  33   2.0000      -0.776476       -21.1290
  34   2.0000      -0.714942       -19.4546
  35   2.0000      -0.704172       -19.1615
  36   2.0000      -0.697282       -18.9740
  37   2.0000      -0.656582       -17.8665
  38   2.0000      -0.642551       -17.4847
  39   2.0000      -0.623154       -16.9569
  40   2.0000      -0.604384       -16.4461
  41   2.0000      -0.570852       -15.5337
  42   2.0000      -0.568163       -15.4605
  43   2.0000      -0.558077       -15.1860
  44   2.0000      -0.531948       -14.4750
  45   2.0000      -0.525792       -14.3075
  46   2.0000      -0.516372       -14.0512
  47   2.0000      -0.511935       -13.9305
  48   2.0000      -0.505148       -13.7458
  49   2.0000      -0.496058       -13.4984
  50   2.0000      -0.492368       -13.3980
  51   2.0000      -0.485909       -13.2222
  52   2.0000      -0.470949       -12.8152
  53   2.0000      -0.467638       -12.7251
  54   2.0000      -0.462431       -12.5834
  55   2.0000      -0.453011       -12.3271
  56   2.0000      -0.445868       -12.1327
  57   2.0000      -0.441003       -12.0003
  58   2.0000      -0.436819       -11.8865
  59   2.0000      -0.426979       -11.6187
  60   2.0000      -0.421871       -11.4797
  61   2.0000      -0.417890       -11.3714
  62   2.0000      -0.414311       -11.2740
  63   2.0000      -0.346206        -9.4207
  64   2.0000      -0.331791        -9.0285
  65   2.0000      -0.329811        -8.9746
  66   2.0000      -0.285773        -7.7763
  67   0.0000       0.023118         0.6291
  68   0.0000       0.074568         2.0291
  69   0.0000       0.107363         2.9215
  70   0.0000       0.125167         3.4060
  71   0.0000       0.125885         3.4255

MULLIKEN ATOMIC CHARGES
-----------------------
   0 S :    0.101923
   1 C :   -0.107118
   2 C :   -0.049338
   3 C :    0.018334
   4 C :   -0.135577
   5 H :   -0.029596
   6 C :    0.059501
   7 H :    0.033051
   8 H :    0.032238
   9 C :   -0.093775
  10 H :    0.040845
  11 H :    0.043605
  12 C :   -0.049782
  13 H :    0.042771
  14 H :    0.036334
  15 H :    0.027616
  16 S :    0.109791
  17 C :   -0.098156
  18 C :   -0.048792
  19 C :   -0.029524
  20 C :   -0.174359
  21 H :    0.015752
  22 C :    0.133039
  23 H :    0.009610
  24 H :    0.022006
  25 C :   -0.035278
  26 H :    0.013344
  27 H :    0.017565
  28 C :   -0.089133
  29 H :    0.027150
  30 H :    0.026424
  31 H :    0.052941
  32 H :    0.021470
  33 H :    0.055121
Sum of atomic charges:   -0.0000000

LOEWDIN ATOMIC CHARGES
----------------------
   0 S :    0.390231
   1 C :   -0.177483
   2 C :   -0.053980
   3 C :   -0.064785
   4 C :   -0.188419
   5 H :    0.019359
   6 C :   -0.034312
   7 H :    0.034357
   8 H :    0.032707
   9 C :   -0.040600
  10 H :    0.023948
  11 H :    0.028896
  12 C :   -0.068489
  13 H :    0.029901
  14 H :    0.029101
  15 H :    0.024869
  16 S :    0.419779
  17 C :   -0.199626
  18 C :   -0.078073
  19 C :   -0.051218
  20 C :   -0.196555
  21 H :    0.032088
  22 C :   -0.019593
  23 H :    0.028560
  24 H :    0.028864
  25 C :   -0.044978
  26 H :    0.016870
  27 H :    0.027647
  28 C :   -0.075606
  29 H :    0.025333
  30 H :    0.020784
  31 H :    0.038123
  32 H :    0.013339
  33 H :    0.028963

  Mayer bond orders larger than 0.100000
B(  0-S ,  1-C ) :   1.1192 B(  0-S ,  4-C ) :   1.1467 B(  1-C ,  2-C ) :   1.6360
B(  1-C , 32-H ) :   0.9754 B(  2-C ,  3-C ) :   1.2287 B(  2-C ,  6-C ) :   0.9885
B(  3-C ,  4-C ) :   1.5642 B(  3-C ,  5-H ) :   1.0033 B(  4-C , 20-C ) :   1.0689
B(  6-C ,  7-H ) :   0.9415 B(  6-C ,  8-H ) :   0.9327 B(  6-C ,  9-C ) :   1.0765
B(  9-C , 10-H ) :   0.9551 B(  9-C , 11-H ) :   0.9595 B(  9-C , 12-C ) :   1.0597
B( 12-C , 13-H ) :   0.9804 B( 12-C , 14-H ) :   0.9808 B( 12-C , 15-H ) :   0.9752
B( 16-S , 17-C ) :   1.1627 B( 16-S , 20-C ) :   1.1646 B( 17-C , 18-C ) :   1.5963
B( 17-C , 20-C ) :   0.1017 B( 17-C , 33-H ) :   0.9691 B( 18-C , 19-C ) :   1.2568
B( 18-C , 21-H ) :   0.9883 B( 19-C , 20-C ) :   1.5361 B( 19-C , 22-C ) :   1.0550
B( 22-C , 23-H ) :   0.9204 B( 22-C , 24-H ) :   0.9245 B( 22-C , 25-C ) :   1.0640
B( 25-C , 26-H ) :   0.9476 B( 25-C , 27-H ) :   0.9515 B( 25-C , 28-C ) :   1.0784
B( 28-C , 29-H ) :   0.9721 B( 28-C , 30-H ) :   0.9726 B( 28-C , 31-H ) :   0.9739

Dispersion correction           -0.013903923
FINAL SINGLE POINT ENERGY     -1339.860203539185

DIPOLE MOMENT
-------------
                                X             Y             Z
Electronic contribution:     32.97979       6.66586       0.86471
Nuclear contribution   :    -33.70482      -6.92958      -0.74519
                        -----------------------------------------
Total Dipole Moment    :     -0.72502      -0.26372       0.11952
                        -----------------------------------------
Magnitude (a.u.)       :      0.78070
Magnitude (Debye)      :      1.98439

Rotational constants in cm-1:     0.015865     0.009839     0.006446
Rotational constants in MHz :   475.625459   294.980300   193.247849

                             ****ORCA TERMINATED NORMALLY****
TOTAL RUN TIME: 0 days 0 hours 0 minutes 34 seconds 59 msec
