                         Program Version 4.2.1 -  RELEASE  -
|  1> ! wB97X-D3 SP def2-SVP
|  2> %pal
|  3> nprocs 16
|  4> end
|  5>
|  6> * xyz 0 1
|  7> S 	 -38.0946 	 42.52 	 93.4668
|  8> C 	 -39.6227 	 42.7967 	 92.8079
|  9> C 	 -40.4602 	 41.692 	 92.9364
| 10> C 	 -39.911 	 40.6742 	 93.7959
| 11> C 	 -38.5986 	 40.9911 	 94.164
| 12> H 	 -40.3621 	 39.846 	 94.2179
| 13> C 	 -41.7795 	 41.4532 	 92.1806
| 14> H 	 -41.5575 	 40.7114 	 91.372
| 15> H 	 -42.0274 	 42.3661 	 91.6611
| 16> C 	 -43.0531 	 41.1411 	 92.9889
| 17> H 	 -42.9078 	 40.361 	 93.6909
| 18> H 	 -43.4068 	 42.0481 	 93.4338
| 19> C 	 -44.26 	 40.7513 	 92.1788
| 20> H 	 -45.1271 	 40.4479 	 92.7493
| 21> H 	 -44.486 	 41.598 	 91.4934
| 22> H 	 -44.0862 	 39.9774 	 91.4684
| 23> S 	 -36.0047 	 40.194 	 94.9687
| 24> C 	 -35.8733 	 39.473 	 96.555
| 25> C 	 -37.073 	 39.2098 	 97.1162
| 26> C 	 -38.2185 	 39.624 	 96.3732
| 27> C 	 -37.8219 	 40.2756 	 95.1447
| 28> H 	 -37.0636 	 38.8184 	 98.129
| 29> C 	 -39.6395 	 39.4545 	 96.9299
| 30> H 	 -40.3095 	 40.2185 	 96.4204
| 31> H 	 -39.5799 	 39.7052 	 97.942
| 32> C 	 -40.2473 	 38.014 	 96.8156
| 33> H 	 -39.459 	 37.3307 	 96.9955
| 34> H 	 -40.524 	 37.8984 	 95.7524
| 35> C 	 -41.377 	 37.7568 	 97.8384
| 36> H 	 -41.0533 	 38.0413 	 98.8171
| 37> H 	 -41.6903 	 36.7273 	 97.9368
| 38> H 	 -42.2512 	 38.3256 	 97.6043
| 39> H 	 -39.8741 	 43.7452 	 92.3533
| 40> H 	 -34.953 	 39.0461 	 96.9558
| 41> *
| 42>
| 43>                          ****END OF INPUT****

CARTESIAN COORDINATES (ANGSTROEM)
---------------------------------
  S    -38.094600   42.520000   93.466800
  C    -39.622700   42.796700   92.807900
  C    -40.460200   41.692000   92.936400
  C    -39.911000   40.674200   93.795900
  C    -38.598600   40.991100   94.164000
  H    -40.362100   39.846000   94.217900
  C    -41.779500   41.453200   92.180600
  H    -41.557500   40.711400   91.372000
  H    -42.027400   42.366100   91.661100
  C    -43.053100   41.141100   92.988900
  H    -42.907800   40.361000   93.690900
  H    -43.406800   42.048100   93.433800
  C    -44.260000   40.751300   92.178800
  H    -45.127100   40.447900   92.749300
  H    -44.486000   41.598000   91.493400
  H    -44.086200   39.977400   91.468400
  S    -36.004700   40.194000   94.968700
  C    -35.873300   39.473000   96.555000
  C    -37.073000   39.209800   97.116200
  C    -38.218500   39.624000   96.373200
  C    -37.821900   40.275600   95.144700
  H    -37.063600   38.818400   98.129000
  C    -39.639500   39.454500   96.929900
  H    -40.309500   40.218500   96.420400
  H    -39.579900   39.705200   97.942000
  C    -40.247300   38.014000   96.815600
  H    -39.459000   37.330700   96.995500
  H    -40.524000   37.898400   95.752400
  C    -41.377000   37.756800   97.838400
  H    -41.053300   38.041300   98.817100
  H    -41.690300   36.727300   97.936800
  H    -42.251200   38.325600   97.604300
  H    -39.874100   43.745200   92.353300
  H    -34.953000   39.046100   96.955800

 Total Charge           Charge          ....    0
 Multiplicity           Mult            ....    1
 Number of Electrons    NEL             ....  134
 Basis Dimension        Dim             ....  322

ORBITAL ENERGIES
----------------

  NO   OCC          E(Eh)            E(eV)
   0   2.0000     -88.967364     -2420.9251
   1   2.0000     -88.965329     -2420.8697
   2   2.0000     -10.337244      -281.2907
   3   2.0000     -10.329245      -281.0730
   4   2.0000     -10.313956      -280.6570
   5   2.0000     -10.312852      -280.6270
   6   2.0000     -10.311786      -280.5980
   7   2.0000     -10.306002      -280.4406
   8   2.0000     -10.296262      -280.1755
   9   2.0000     -10.295150      -280.1453
  10   2.0000     -10.292070      -280.0615
  11   2.0000     -10.290472      -280.0180
  12   2.0000     -10.290102      -280.0079
  13   2.0000     -10.281334      -279.7693
  14   2.0000     -10.277347      -279.6608
  15   2.0000     -10.274388      -279.5803
  16   2.0000      -8.083214      -219.9554
  17   2.0000      -8.079039      -219.8418
  18   2.0000      -6.041615      -164.4007
  19   2.0000      -6.037615      -164.2919
  20   2.0000      -6.037521      -164.2893
  21   2.0000      -6.034056      -164.1950
  22   2.0000      -6.033803      -164.1881
  23   2.0000      -6.029692      -164.0763
  24   2.0000      -1.005408       -27.3585
  25   2.0000      -0.979809       -26.6620
  26   2.0000      -0.912554       -24.8319
  27   2.0000      -0.905485       -24.6395
  28   2.0000      -0.873495       -23.7690
  29   2.0000      -0.856721       -23.3126
  30   2.0000      -0.847121       -23.0513
  31   2.0000      -0.813925       -22.1480
  32   2.0000      -0.784382       -21.3441
  33   2.0000      -0.769238       -20.9320
  34   2.0000      -0.712510       -19.3884
  35   2.0000      -0.701681       -19.0937
  36   2.0000      -0.694158       -18.8890
  37   2.0000      -0.662476       -18.0269
  38   2.0000      -0.641781       -17.4637
  39   2.0000      -0.622387       -16.9360
  40   2.0000      -0.592691       -16.1279
  41   2.0000      -0.572763       -15.5857
  42   2.0000      -0.566235       -15.4080
  43   2.0000      -0.561618       -15.2824
  44   2.0000      -0.530616       -14.4388
  45   2.0000      -0.524928       -14.2840
  46   2.0000      -0.515502       -14.0275
  47   2.0000      -0.513624       -13.9764
  48   2.0000      -0.508974       -13.8499
  49   2.0000      -0.500074       -13.6077
  50   2.0000      -0.497081       -13.5263
  51   2.0000      -0.485960       -13.2236
  52   2.0000      -0.469455       -12.7745
  53   2.0000      -0.464012       -12.6264
  54   2.0000      -0.457006       -12.4358
  55   2.0000      -0.454226       -12.3601
  56   2.0000      -0.444937       -12.1074
  57   2.0000      -0.434099       -11.8124
  58   2.0000      -0.432629       -11.7724
  59   2.0000      -0.425557       -11.5800
  60   2.0000      -0.424280       -11.5452
  61   2.0000      -0.422042       -11.4843
  62   2.0000      -0.417774       -11.3682
  63   2.0000      -0.357713        -9.7339
  64   2.0000      -0.332757        -9.0548
  65   2.0000      -0.329897        -8.9769
  66   2.0000      -0.279310        -7.6004
  67   0.0000       0.022262         0.6058
  68   0.0000       0.072082         1.9614
  69   0.0000       0.110520         3.0074
  70   0.0000       0.119185         3.2432
  71   0.0000       0.126591         3.4447

MULLIKEN ATOMIC CHARGES
-----------------------
   0 S :    0.128837
   1 C :   -0.126763
   2 C :   -0.066783
   3 C :    0.044514
   4 C :   -0.134401
   5 H :   -0.029415
   6 C :    0.049950
   7 H :    0.051929
   8 H :    0.003640
   9 C :   -0.046542
  10 H :    0.022819
  11 H :    0.029427
  12 C :   -0.049759
  13 H :    0.040762
  14 H :    0.018834
  15 H :    0.010671
  16 S :    0.087083
  17 C :   -0.084436
  18 C :   -0.043494
  19 C :   -0.031752
  20 C :   -0.159239
  21 H :    0.020847
  22 C :    0.038753
  23 H :    0.044716
  24 H :    0.006552
  25 C :   -0.049396
  26 H :    0.019377
  27 H :    0.032166
  28 C :   -0.019981
  29 H :    0.018594
  30 H :    0.033474
  31 H :    0.026852
  32 H :    0.050899
  33 H :    0.061266
Sum of atomic charges:   -0.0000000

LOEWDIN ATOMIC CHARGES
----------------------
   0 S :    0.434231
   1 C :   -0.215762
   2 C :   -0.060496
   3 C :   -0.050425
   4 C :   -0.193412
   5 H :    0.016677
   6 C :   -0.031919
   7 H :    0.039309
   8 H :    0.025498
   9 C :   -0.038395
  10 H :    0.015057
  11 H :    0.027681
  12 C :   -0.064731
  13 H :    0.027971
  14 H :    0.026401
  15 H :    0.015714
  16 S :    0.367305
  17 C :   -0.186095
  18 C :   -0.078513
  19 C :   -0.049262
  20 C :   -0.172777
  21 H :    0.034112
  22 C :   -0.030467
  23 H :    0.037237
  24 H :    0.019698
  25 C :   -0.033071
  26 H :    0.018563
  27 H :    0.023924
  28 C :   -0.059030
  29 H :    0.021931
  30 H :    0.027487
  31 H :    0.023017
  32 H :    0.028921
  33 H :    0.033621

  Mayer bond orders larger than 0.100000
B(  0-S ,  1-C ) :   1.1583 B(  0-S ,  4-C ) :   1.1543 B(  1-C ,  2-C ) :   1.5872
B(  1-C , 32-H ) :   0.9705 B(  2-C ,  3-C ) :   1.2314 B(  2-C ,  6-C ) :   1.0243
B(  3-C ,  4-C ) :   1.5405 B(  3-C ,  5-H ) :   1.0124 B(  4-C , 20-C ) :   1.0954
B(  6-C ,  7-H ) :   0.9460 B(  6-C ,  8-H ) :   0.9370 B(  6-C ,  9-C ) :   1.0591
B(  9-C , 10-H ) :   0.9594 B(  9-C , 11-H ) :   0.9566 B(  9-C , 12-C ) :   1.0873
B( 12-C , 13-H ) :   0.9735 B( 12-C , 14-H ) :   0.9725 B( 12-C , 15-H ) :   0.9725
B( 16-S , 17-C ) :   1.1346 B( 16-S , 20-C ) :   1.1274 B( 17-C , 18-C ) :   1.6465
B( 17-C , 33-H ) :   0.9588 B( 18-C , 19-C ) :   1.2381 B( 18-C , 21-H ) :   0.9834
B( 19-C , 20-C ) :   1.5588 B( 19-C , 22-C ) :   1.0423 B( 22-C , 23-H ) :   0.9335
B( 22-C , 24-H ) :   0.9336 B( 22-C , 25-C ) :   1.0537 B( 25-C , 26-H ) :   0.9567
B( 25-C , 27-H ) :   0.9546 B( 25-C , 28-C ) :   1.0751 B( 28-C , 29-H ) :   0.9741
B( 28-C , 30-H ) :   0.9752 B( 28-C , 31-H ) :   0.9772

Dispersion correction           -0.013667142
FINAL SINGLE POINT ENERGY     -1339.874844691341

DIPOLE MOMENT
-------------
                                X             Y             Z
Electronic contribution:     31.93666      10.78401      -4.02089
Nuclear contribution   :    -32.58510     -11.02200       4.29521
                        -----------------------------------------
Total Dipole Moment    :     -0.64844      -0.23799       0.27432
                        -----------------------------------------
Magnitude (a.u.)       :      0.74321
Magnitude (Debye)      :      1.88909

Rotational constants in cm-1:     0.016140     0.009308     0.006157
Rotational constants in MHz :   483.873431   279.040415   184.574857

                             ****ORCA TERMINATED NORMALLY****
TOTAL RUN TIME: 0 days 0 hours 0 minutes 29 seconds 451 msec
