                         Program Version 4.2.1 -  RELEASE  -
|  1> ! wB97X-D3 SP def2-SVP
|  2> %pal
|  3> nprocs 16
|  4> end
|  5>
|  6> * xyz 0 1
|  7> S 	 -13.6561 	 31.5983 	 34.8468
|  8> C 	 -14.4114 	 31.2079 	 36.3754
|  9> C 	 -14.1357 	 32.1927 	 37.281
| 10> C 	 -13.3079 	 33.2306 	 36.7671
| 11> C 	 -12.9475 	 33.0186 	 35.4346
| 12> H 	 -12.8929 	 34.1156 	 37.2385
| 13> C 	 -14.5151 	 32.2267 	 38.8119
| 14> H 	 -13.6595 	 32.514 	 39.474
| 15> H 	 -14.7907 	 31.1327 	 38.8729
| 16> C 	 -15.7522 	 33.1191 	 39.1723
| 17> H 	 -16.5902 	 32.9216 	 38.4511
| 18> H 	 -16.1363 	 32.7298 	 40.0791
| 19> C 	 -15.5239 	 34.6187 	 39.2505
| 20> H 	 -14.5815 	 34.8849 	 39.7249
| 21> H 	 -15.46 	 35.0727 	 38.1875
| 22> H 	 -16.3263 	 35.0774 	 39.8499
| 23> S 	 -11.5369 	 33.0832 	 33.1128
| 24> C 	 -10.9554 	 34.574 	 32.4586
| 25> C 	 -11.3102 	 35.607 	 33.3092
| 26> C 	 -11.776 	 35.1982 	 34.5821
| 27> C 	 -12.2154 	 33.8791 	 34.5223
| 28> H 	 -11.1329 	 36.6328 	 32.9662
| 29> C 	 -12.0341 	 36.2117 	 35.6438
| 30> H 	 -11.4238 	 37.0895 	 35.3954
| 31> H 	 -11.574 	 35.8929 	 36.5479
| 32> C 	 -13.5458 	 36.5715 	 35.6986
| 33> H 	 -14.2369 	 35.8375 	 36.1546
| 34> H 	 -13.966 	 36.7284 	 34.6862
| 35> C 	 -13.6932 	 37.9034 	 36.4574
| 36> H 	 -14.7363 	 38.31 	 36.4316
| 37> H 	 -13.0401 	 38.6995 	 36.0127
| 38> H 	 -13.2962 	 37.7163 	 37.5165
| 39> H 	 -14.8554 	 30.2844 	 36.5774
| 40> H 	 -10.5093 	 34.7276 	 31.469
| 41> *
| 42>
| 43>                          ****END OF INPUT****

CARTESIAN COORDINATES (ANGSTROEM)
---------------------------------
  S    -13.656100   31.598300   34.846800
  C    -14.411400   31.207900   36.375400
  C    -14.135700   32.192700   37.281000
  C    -13.307900   33.230600   36.767100
  C    -12.947500   33.018600   35.434600
  H    -12.892900   34.115600   37.238500
  C    -14.515100   32.226700   38.811900
  H    -13.659500   32.514000   39.474000
  H    -14.790700   31.132700   38.872900
  C    -15.752200   33.119100   39.172300
  H    -16.590200   32.921600   38.451100
  H    -16.136300   32.729800   40.079100
  C    -15.523900   34.618700   39.250500
  H    -14.581500   34.884900   39.724900
  H    -15.460000   35.072700   38.187500
  H    -16.326300   35.077400   39.849900
  S    -11.536900   33.083200   33.112800
  C    -10.955400   34.574000   32.458600
  C    -11.310200   35.607000   33.309200
  C    -11.776000   35.198200   34.582100
  C    -12.215400   33.879100   34.522300
  H    -11.132900   36.632800   32.966200
  C    -12.034100   36.211700   35.643800
  H    -11.423800   37.089500   35.395400
  H    -11.574000   35.892900   36.547900
  C    -13.545800   36.571500   35.698600
  H    -14.236900   35.837500   36.154600
  H    -13.966000   36.728400   34.686200
  C    -13.693200   37.903400   36.457400
  H    -14.736300   38.310000   36.431600
  H    -13.040100   38.699500   36.012700
  H    -13.296200   37.716300   37.516500
  H    -14.855400   30.284400   36.577400
  H    -10.509300   34.727600   31.469000

 Total Charge           Charge          ....    0
 Multiplicity           Mult            ....    1
 Number of Electrons    NEL             ....  134
 Basis Dimension        Dim             ....  322

ORBITAL ENERGIES
----------------

  NO   OCC          E(Eh)            E(eV)
   0   2.0000     -88.964134     -2420.8372
   1   2.0000     -88.963824     -2420.8287
   2   2.0000     -10.327736      -281.0320
   3   2.0000     -10.326192      -280.9900
   4   2.0000     -10.315761      -280.7061
   5   2.0000     -10.308635      -280.5122
   6   2.0000     -10.304381      -280.3965
   7   2.0000     -10.302788      -280.3531
   8   2.0000     -10.302295      -280.3397
   9   2.0000     -10.295130      -280.1447
  10   2.0000     -10.293189      -280.0919
  11   2.0000     -10.293086      -280.0891
  12   2.0000     -10.289625      -279.9949
  13   2.0000     -10.289187      -279.9830
  14   2.0000     -10.287638      -279.9409
  15   2.0000     -10.286359      -279.9061
  16   2.0000      -8.079760      -219.8615
  17   2.0000      -8.079228      -219.8470
  18   2.0000      -6.038232      -164.3086
  19   2.0000      -6.037742      -164.2953
  20   2.0000      -6.033986      -164.1931
  21   2.0000      -6.033672      -164.1846
  22   2.0000      -6.030601      -164.1010
  23   2.0000      -6.029982      -164.0842
  24   2.0000      -1.014841       -27.6152
  25   2.0000      -0.989646       -26.9296
  26   2.0000      -0.913681       -24.8625
  27   2.0000      -0.904393       -24.6098
  28   2.0000      -0.871684       -23.7197
  29   2.0000      -0.852666       -23.2022
  30   2.0000      -0.842099       -22.9147
  31   2.0000      -0.813712       -22.1422
  32   2.0000      -0.780291       -21.2328
  33   2.0000      -0.772299       -21.0153
  34   2.0000      -0.705709       -19.2033
  35   2.0000      -0.697929       -18.9916
  36   2.0000      -0.695771       -18.9329
  37   2.0000      -0.664909       -18.0931
  38   2.0000      -0.641639       -17.4599
  39   2.0000      -0.614710       -16.7271
  40   2.0000      -0.596153       -16.2221
  41   2.0000      -0.570236       -15.5169
  42   2.0000      -0.561182       -15.2706
  43   2.0000      -0.545154       -14.8344
  44   2.0000      -0.538005       -14.6398
  45   2.0000      -0.530948       -14.4478
  46   2.0000      -0.520252       -14.1568
  47   2.0000      -0.513302       -13.9676
  48   2.0000      -0.506028       -13.7697
  49   2.0000      -0.501633       -13.6501
  50   2.0000      -0.490712       -13.3529
  51   2.0000      -0.487792       -13.2735
  52   2.0000      -0.470262       -12.7965
  53   2.0000      -0.465150       -12.6574
  54   2.0000      -0.452254       -12.3065
  55   2.0000      -0.446703       -12.1554
  56   2.0000      -0.445553       -12.1241
  57   2.0000      -0.438252       -11.9254
  58   2.0000      -0.433826       -11.8050
  59   2.0000      -0.428145       -11.6504
  60   2.0000      -0.418624       -11.3913
  61   2.0000      -0.414103       -11.2683
  62   2.0000      -0.403650       -10.9839
  63   2.0000      -0.359740        -9.7890
  64   2.0000      -0.333282        -9.0691
  65   2.0000      -0.326779        -8.8921
  66   2.0000      -0.281277        -7.6539
  67   0.0000       0.019195         0.5223
  68   0.0000       0.084624         2.3027
  69   0.0000       0.110431         3.0050
  70   0.0000       0.121872         3.3163
  71   0.0000       0.123772         3.3680

MULLIKEN ATOMIC CHARGES
-----------------------
   0 S :    0.096603
   1 C :   -0.108348
   2 C :   -0.064691
   3 C :   -0.008859
   4 C :   -0.107943
   5 H :   -0.002625
   6 C :    0.022163
   7 H :    0.049443
   8 H :    0.027944
   9 C :   -0.050938
  10 H :    0.030497
  11 H :    0.020727
  12 C :   -0.074670
  13 H :    0.023760
  14 H :    0.054323
  15 H :    0.044669
  16 S :    0.092737
  17 C :   -0.089357
  18 C :   -0.047274
  19 C :   -0.077475
  20 C :   -0.106358
  21 H :    0.023563
  22 C :    0.071360
  23 H :    0.014936
  24 H :    0.028558
  25 C :   -0.071105
  26 H :    0.049195
  27 H :    0.036588
  28 C :   -0.091307
  29 H :    0.048094
  30 H :    0.034643
  31 H :    0.037903
  32 H :    0.027545
  33 H :    0.065700
Sum of atomic charges:    0.0000000

LOEWDIN ATOMIC CHARGES
----------------------
   0 S :    0.428336
   1 C :   -0.198772
   2 C :   -0.060365
   3 C :   -0.080737
   4 C :   -0.201518
   5 H :    0.027922
   6 C :   -0.030574
   7 H :    0.035110
   8 H :    0.036004
   9 C :   -0.046048
  10 H :    0.031668
  11 H :    0.017599
  12 C :   -0.074438
  13 H :    0.019273
  14 H :    0.036179
  15 H :    0.032196
  16 S :    0.407351
  17 C :   -0.199174
  18 C :   -0.072312
  19 C :   -0.057470
  20 C :   -0.189832
  21 H :    0.032377
  22 C :   -0.030774
  23 H :    0.035276
  24 H :    0.026813
  25 C :   -0.041162
  26 H :    0.027773
  27 H :    0.029828
  28 C :   -0.077515
  29 H :    0.029100
  30 H :    0.024112
  31 H :    0.029670
  32 H :    0.017822
  33 H :    0.036284

  Mayer bond orders larger than 0.100000
B(  0-S ,  1-C ) :   1.1290 B(  0-S ,  4-C ) :   1.1759 B(  1-C ,  2-C ) :   1.6106
B(  1-C , 32-H ) :   0.9779 B(  2-C ,  3-C ) :   1.2472 B(  2-C ,  6-C ) :   0.9973
B(  3-C ,  4-C ) :   1.5469 B(  3-C ,  5-H ) :   0.9939 B(  4-C , 20-C ) :   1.0676
B(  6-C ,  7-H ) :   0.9511 B(  6-C ,  8-H ) :   0.9416 B(  6-C ,  9-C ) :   1.0665
B(  9-C , 10-H ) :   0.9518 B(  9-C , 11-H ) :   0.9584 B(  9-C , 12-C ) :   1.0776
B( 12-C , 13-H ) :   0.9743 B( 12-C , 14-H ) :   0.9706 B( 12-C , 15-H ) :   0.9703
B( 16-S , 17-C ) :   1.1532 B( 16-S , 20-C ) :   1.1426 B( 17-C , 18-C ) :   1.6087
B( 17-C , 20-C ) :   0.1060 B( 17-C , 33-H ) :   0.9659 B( 18-C , 19-C ) :   1.2470
B( 18-C , 21-H ) :   0.9827 B( 19-C , 20-C ) :   1.5570 B( 19-C , 22-C ) :   1.0677
B( 22-C , 23-H ) :   0.9312 B( 22-C , 24-H ) :   0.9200 B( 22-C , 25-C ) :   1.0444
B( 25-C , 26-H ) :   0.9510 B( 25-C , 27-H ) :   0.9541 B( 25-C , 28-C ) :   1.0802
B( 28-C , 29-H ) :   0.9737 B( 28-C , 30-H ) :   0.9766 B( 28-C , 31-H ) :   0.9715

Dispersion correction           -0.015268685
FINAL SINGLE POINT ENERGY     -1339.875671557691

DIPOLE MOMENT
-------------
                                X             Y             Z
Electronic contribution:     11.56592     -19.83272     -22.34715
Nuclear contribution   :    -11.67122      20.36087      22.74826
                        -----------------------------------------
Total Dipole Moment    :     -0.10530       0.52815       0.40111
                        -----------------------------------------
Magnitude (a.u.)       :      0.67151
Magnitude (Debye)      :      1.70683

Rotational constants in cm-1:     0.018084     0.010579     0.006989
Rotational constants in MHz :   542.141137   317.138153   209.529417

                             ****ORCA TERMINATED NORMALLY****
TOTAL RUN TIME: 0 days 0 hours 0 minutes 34 seconds 399 msec
