                         Program Version 4.2.1 -  RELEASE  -
|  1> ! wB97X-D3 SP def2-SVP
|  2> %pal
|  3> nprocs 16
|  4> end
|  5>
|  6> * xyz 0 1
|  7> S 	 -40.9875 	 55.0046 	 109.338
|  8> C 	 -42.4904 	 55.6601 	 108.679
|  9> C 	 -42.1575 	 56.6556 	 107.8
| 10> C 	 -40.7546 	 56.7533 	 107.44
| 11> C 	 -39.9629 	 55.8274 	 108.194
| 12> H 	 -40.2901 	 57.4822 	 106.748
| 13> C 	 -43.2782 	 57.5529 	 107.252
| 14> H 	 -42.8648 	 58.5933 	 107.297
| 15> H 	 -44.0997 	 57.5923 	 108.003
| 16> C 	 -43.869 	 57.1389 	 105.89
| 17> H 	 -43.1059 	 57.3196 	 105.192
| 18> H 	 -44.2354 	 56.0758 	 105.815
| 19> C 	 -45.0295 	 58.1113 	 105.501
| 20> H 	 -45.9438 	 58.0194 	 106.08
| 21> H 	 -44.7301 	 59.1385 	 105.354
| 22> H 	 -45.3888 	 57.7526 	 104.569
| 23> S 	 -37.6524 	 56.4438 	 109.558
| 24> C 	 -36.1594 	 56.1227 	 108.764
| 25> C 	 -36.3729 	 55.5505 	 107.541
| 26> C 	 -37.6944 	 55.2523 	 107.169
| 27> C 	 -38.5313 	 55.7441 	 108.152
| 28> H 	 -35.5282 	 55.4957 	 106.907
| 29> C 	 -38.0603 	 54.637 	 105.866
| 30> H 	 -39.0756 	 54.2535 	 105.858
| 31> H 	 -37.347 	 53.8164 	 105.592
| 32> C 	 -37.87 	 55.5721 	 104.644
| 33> H 	 -36.8717 	 55.9562 	 104.602
| 34> H 	 -38.5302 	 56.4788 	 104.688
| 35> C 	 -38.2531 	 54.9216 	 103.334
| 36> H 	 -38.2264 	 55.6094 	 102.499
| 37> H 	 -39.3352 	 54.6373 	 103.296
| 38> H 	 -37.5567 	 54.1438 	 103.075
| 39> H 	 -43.5097 	 55.3641 	 108.944
| 40> H 	 -35.2376 	 56.5612 	 109.047
| 41> *
| 42>
| 43>                          ****END OF INPUT****

CARTESIAN COORDINATES (ANGSTROEM)
---------------------------------
  S    -40.987500   55.004600  109.338000
  C    -42.490400   55.660100  108.679000
  C    -42.157500   56.655600  107.800000
  C    -40.754600   56.753300  107.440000
  C    -39.962900   55.827400  108.194000
  H    -40.290100   57.482200  106.748000
  C    -43.278200   57.552900  107.252000
  H    -42.864800   58.593300  107.297000
  H    -44.099700   57.592300  108.003000
  C    -43.869000   57.138900  105.890000
  H    -43.105900   57.319600  105.192000
  H    -44.235400   56.075800  105.815000
  C    -45.029500   58.111300  105.501000
  H    -45.943800   58.019400  106.080000
  H    -44.730100   59.138500  105.354000
  H    -45.388800   57.752600  104.569000
  S    -37.652400   56.443800  109.558000
  C    -36.159400   56.122700  108.764000
  C    -36.372900   55.550500  107.541000
  C    -37.694400   55.252300  107.169000
  C    -38.531300   55.744100  108.152000
  H    -35.528200   55.495700  106.907000
  C    -38.060300   54.637000  105.866000
  H    -39.075600   54.253500  105.858000
  H    -37.347000   53.816400  105.592000
  C    -37.870000   55.572100  104.644000
  H    -36.871700   55.956200  104.602000
  H    -38.530200   56.478800  104.688000
  C    -38.253100   54.921600  103.334000
  H    -38.226400   55.609400  102.499000
  H    -39.335200   54.637300  103.296000
  H    -37.556700   54.143800  103.075000
  H    -43.509700   55.364100  108.944000
  H    -35.237600   56.561200  109.047000

 Total Charge           Charge          ....    0
 Multiplicity           Mult            ....    1
 Number of Electrons    NEL             ....  134
 Basis Dimension        Dim             ....  322

ORBITAL ENERGIES
----------------

  NO   OCC          E(Eh)            E(eV)
   0   2.0000     -88.963655     -2420.8241
   1   2.0000     -88.963553     -2420.8214
   2   2.0000     -10.330672      -281.1119
   3   2.0000     -10.326663      -281.0028
   4   2.0000     -10.314180      -280.6631
   5   2.0000     -10.309884      -280.5462
   6   2.0000     -10.303281      -280.3665
   7   2.0000     -10.302385      -280.3421
   8   2.0000     -10.300705      -280.2964
   9   2.0000     -10.295655      -280.1590
  10   2.0000     -10.295189      -280.1463
  11   2.0000     -10.290248      -280.0119
  12   2.0000     -10.287618      -279.9403
  13   2.0000     -10.284995      -279.8689
  14   2.0000     -10.278067      -279.6804
  15   2.0000     -10.274223      -279.5758
  16   2.0000      -8.078471      -219.8264
  17   2.0000      -8.078024      -219.8142
  18   2.0000      -6.036952      -164.2738
  19   2.0000      -6.036589      -164.2639
  20   2.0000      -6.033030      -164.1671
  21   2.0000      -6.032405      -164.1501
  22   2.0000      -6.029185      -164.0625
  23   2.0000      -6.028879      -164.0541
  24   2.0000      -1.005377       -27.3577
  25   2.0000      -0.981860       -26.7178
  26   2.0000      -0.913383       -24.8544
  27   2.0000      -0.906005       -24.6536
  28   2.0000      -0.870644       -23.6914
  29   2.0000      -0.857177       -23.3250
  30   2.0000      -0.840423       -22.8691
  31   2.0000      -0.810096       -22.0438
  32   2.0000      -0.784494       -21.3472
  33   2.0000      -0.770565       -20.9681
  34   2.0000      -0.709051       -19.2942
  35   2.0000      -0.698758       -19.0142
  36   2.0000      -0.696160       -18.9435
  37   2.0000      -0.660122       -17.9628
  38   2.0000      -0.637378       -17.3439
  39   2.0000      -0.613678       -16.6990
  40   2.0000      -0.600958       -16.3529
  41   2.0000      -0.572785       -15.5863
  42   2.0000      -0.568472       -15.4689
  43   2.0000      -0.557407       -15.1678
  44   2.0000      -0.525892       -14.3103
  45   2.0000      -0.520902       -14.1745
  46   2.0000      -0.517790       -14.0898
  47   2.0000      -0.514299       -13.9948
  48   2.0000      -0.506016       -13.7694
  49   2.0000      -0.499474       -13.5914
  50   2.0000      -0.493050       -13.4166
  51   2.0000      -0.477853       -13.0031
  52   2.0000      -0.469142       -12.7660
  53   2.0000      -0.468325       -12.7438
  54   2.0000      -0.460668       -12.5354
  55   2.0000      -0.449753       -12.2384
  56   2.0000      -0.443612       -12.0713
  57   2.0000      -0.436128       -11.8677
  58   2.0000      -0.430252       -11.7077
  59   2.0000      -0.427008       -11.6195
  60   2.0000      -0.425232       -11.5712
  61   2.0000      -0.416579       -11.3357
  62   2.0000      -0.405363       -11.0305
  63   2.0000      -0.333892        -9.0857
  64   2.0000      -0.332786        -9.0556
  65   2.0000      -0.324572        -8.8321
  66   2.0000      -0.297637        -8.0991
  67   0.0000       0.037519         1.0209
  68   0.0000       0.054784         1.4907
  69   0.0000       0.114031         3.1029
  70   0.0000       0.120890         3.2896
  71   0.0000       0.128517         3.4971

MULLIKEN ATOMIC CHARGES
-----------------------
   0 S :    0.112115
   1 C :   -0.124758
   2 C :   -0.081794
   3 C :    0.037302
   4 C :   -0.178830
   5 H :    0.031278
   6 C :    0.014258
   7 H :    0.035606
   8 H :    0.020280
   9 C :   -0.048867
  10 H :    0.017545
  11 H :    0.044785
  12 C :   -0.036622
  13 H :    0.029096
  14 H :    0.034918
  15 H :    0.011351
  16 S :    0.109917
  17 C :   -0.067711
  18 C :   -0.047884
  19 C :    0.048541
  20 C :   -0.207210
  21 H :   -0.000742
  22 C :    0.081371
  23 H :    0.031503
  24 H :    0.030470
  25 C :   -0.097743
  26 H :    0.022158
  27 H :    0.025060
  28 C :   -0.039069
  29 H :    0.022597
  30 H :    0.037836
  31 H :    0.029685
  32 H :    0.057680
  33 H :    0.045879
Sum of atomic charges:   -0.0000000

LOEWDIN ATOMIC CHARGES
----------------------
   0 S :    0.404692
   1 C :   -0.196137
   2 C :   -0.069041
   3 C :   -0.065427
   4 C :   -0.205420
   5 H :    0.036754
   6 C :   -0.039613
   7 H :    0.036072
   8 H :    0.027263
   9 C :   -0.033430
  10 H :    0.017488
  11 H :    0.033962
  12 C :   -0.065877
  13 H :    0.024137
  14 H :    0.024565
  15 H :    0.021156
  16 S :    0.396940
  17 C :   -0.186460
  18 C :   -0.067856
  19 C :   -0.049637
  20 C :   -0.183356
  21 H :    0.022121
  22 C :   -0.028214
  23 H :    0.033432
  24 H :    0.040128
  25 C :   -0.040951
  26 H :    0.018162
  27 H :    0.024530
  28 C :   -0.068733
  29 H :    0.025418
  30 H :    0.032924
  31 H :    0.020873
  32 H :    0.035628
  33 H :    0.023903

  Mayer bond orders larger than 0.100000
B(  0-S ,  1-C ) :   1.1281 B(  0-S ,  4-C ) :   1.1697 B(  1-C ,  2-C ) :   1.6055
B(  1-C ,  4-C ) :   0.1014 B(  1-C , 32-H ) :   0.9714 B(  2-C ,  3-C ) :   1.2441
B(  2-C ,  6-C ) :   1.0160 B(  3-C ,  4-C ) :   1.5344 B(  3-C ,  5-H ) :   0.9889
B(  4-C , 20-C ) :   1.0516 B(  6-C ,  7-H ) :   0.9424 B(  6-C ,  8-H ) :   0.9506
B(  6-C ,  9-C ) :   1.0604 B(  9-C , 10-H ) :   0.9542 B(  9-C , 11-H ) :   0.9581
B(  9-C , 12-C ) :   1.0830 B( 12-C , 13-H ) :   0.9754 B( 12-C , 14-H ) :   0.9760
B( 12-C , 15-H ) :   0.9713 B( 16-S , 17-C ) :   1.1448 B( 16-S , 20-C ) :   1.1445
B( 17-C , 18-C ) :   1.6372 B( 17-C , 33-H ) :   0.9672 B( 18-C , 19-C ) :   1.2124
B( 18-C , 21-H ) :   0.9904 B( 19-C , 20-C ) :   1.5993 B( 19-C , 22-C ) :   1.0692
B( 22-C , 23-H ) :   0.9261 B( 22-C , 24-H ) :   0.9287 B( 22-C , 25-C ) :   1.0592
B( 25-C , 26-H ) :   0.9547 B( 25-C , 27-H ) :   0.9511 B( 25-C , 28-C ) :   1.0986
B( 28-C , 29-H ) :   0.9706 B( 28-C , 30-H ) :   0.9706 B( 28-C , 31-H ) :   0.9726

Dispersion correction           -0.013741575
FINAL SINGLE POINT ENERGY     -1339.874881946716

DIPOLE MOMENT
-------------
                                X             Y             Z
Electronic contribution:     12.80276      -5.15939      28.01178
Nuclear contribution   :    -12.91760       5.46892     -28.78593
                        -----------------------------------------
Total Dipole Moment    :     -0.11484       0.30953      -0.77415
                        -----------------------------------------
Magnitude (a.u.)       :      0.84161
Magnitude (Debye)      :      2.13921

Rotational constants in cm-1:     0.017373     0.008424     0.006358
Rotational constants in MHz :   520.819466   252.536555   190.611794

                             ****ORCA TERMINATED NORMALLY****
TOTAL RUN TIME: 0 days 0 hours 0 minutes 29 seconds 461 msec
