                         Program Version 4.2.1 -  RELEASE  -
|  1> ! wB97X-D3 SP def2-SVP
|  2> %pal
|  3> nprocs 16
|  4> end
|  5>
|  6> * xyz 0 1
|  7> S 	 2.45253 	 -11.1155 	 53.7767
|  8> C 	 1.79885 	 -11.5809 	 52.2187
|  9> C 	 1.15621 	 -12.798 	 52.2346
| 10> C 	 1.47313 	 -13.5232 	 53.4549
| 11> C 	 2.15601 	 -12.7512 	 54.3757
| 12> H 	 1.19223 	 -14.5649 	 53.71
| 13> C 	 0.342459 	 -13.3123 	 51.083
| 14> H 	 1.0532 	 -13.6362 	 50.3037
| 15> H 	 -0.0972299 	 -12.4106 	 50.6392
| 16> C 	 -0.515365 	 -14.5973 	 51.2068
| 17> H 	 -1.15419 	 -14.7598 	 50.2571
| 18> H 	 0.1841 	 -15.4659 	 51.3341
| 19> C 	 -1.53884 	 -14.6349 	 52.404
| 20> H 	 -2.10623 	 -15.5431 	 52.4649
| 21> H 	 -1.1696 	 -14.4152 	 53.3873
| 22> H 	 -2.26334 	 -13.8124 	 52.335
| 23> S 	 4.23094 	 -12.7014 	 56.1911
| 24> C 	 4.1891 	 -13.4541 	 57.7055
| 25> C 	 2.9522 	 -13.9943 	 57.8997
| 26> C 	 2.08634 	 -13.9176 	 56.7502
| 27> C 	 2.62192 	 -13.2049 	 55.7082
| 28> H 	 2.72459 	 -14.5506 	 58.7719
| 29> C 	 0.685037 	 -14.4803 	 56.8591
| 30> H 	 0.874411 	 -15.4616 	 57.3389
| 31> H 	 0.294132 	 -14.6804 	 55.8076
| 32> C 	 -0.279179 	 -13.6483 	 57.6213
| 33> H 	 -0.291365 	 -12.7064 	 57.1305
| 34> H 	 -0.0584169 	 -13.4209 	 58.6625
| 35> C 	 -1.72335 	 -14.1473 	 57.608
| 36> H 	 -2.43817 	 -13.3338 	 57.5345
| 37> H 	 -1.9547 	 -14.6209 	 58.6294
| 38> H 	 -2.01326 	 -14.7947 	 56.8493
| 39> H 	 1.69229 	 -10.8555 	 51.4219
| 40> H 	 4.92471 	 -13.5218 	 58.4902
| 41> *
| 42>
| 43>                          ****END OF INPUT****

CARTESIAN COORDINATES (ANGSTROEM)
---------------------------------
  S      2.452530  -11.115500   53.776700
  C      1.798850  -11.580900   52.218700
  C      1.156210  -12.798000   52.234600
  C      1.473130  -13.523200   53.454900
  C      2.156010  -12.751200   54.375700
  H      1.192230  -14.564900   53.710000
  C      0.342459  -13.312300   51.083000
  H      1.053200  -13.636200   50.303700
  H     -0.097230  -12.410600   50.639200
  C     -0.515365  -14.597300   51.206800
  H     -1.154190  -14.759800   50.257100
  H      0.184100  -15.465900   51.334100
  C     -1.538840  -14.634900   52.404000
  H     -2.106230  -15.543100   52.464900
  H     -1.169600  -14.415200   53.387300
  H     -2.263340  -13.812400   52.335000
  S      4.230940  -12.701400   56.191100
  C      4.189100  -13.454100   57.705500
  C      2.952200  -13.994300   57.899700
  C      2.086340  -13.917600   56.750200
  C      2.621920  -13.204900   55.708200
  H      2.724590  -14.550600   58.771900
  C      0.685037  -14.480300   56.859100
  H      0.874411  -15.461600   57.338900
  H      0.294132  -14.680400   55.807600
  C     -0.279179  -13.648300   57.621300
  H     -0.291365  -12.706400   57.130500
  H     -0.058417  -13.420900   58.662500
  C     -1.723350  -14.147300   57.608000
  H     -2.438170  -13.333800   57.534500
  H     -1.954700  -14.620900   58.629400
  H     -2.013260  -14.794700   56.849300
  H      1.692290  -10.855500   51.421900
  H      4.924710  -13.521800   58.490200

 Total Charge           Charge          ....    0
 Multiplicity           Mult            ....    1
 Number of Electrons    NEL             ....  134
 Basis Dimension        Dim             ....  322

ORBITAL ENERGIES
----------------

  NO   OCC          E(Eh)            E(eV)
   0   2.0000     -88.968321     -2420.9511
   1   2.0000     -88.960073     -2420.7267
   2   2.0000     -10.334712      -281.2218
   3   2.0000     -10.326804      -281.0066
   4   2.0000     -10.312174      -280.6085
   5   2.0000     -10.311736      -280.5966
   6   2.0000     -10.309322      -280.5309
   7   2.0000     -10.306177      -280.4453
   8   2.0000     -10.300133      -280.2809
   9   2.0000     -10.299979      -280.2767
  10   2.0000     -10.298012      -280.2232
  11   2.0000     -10.294342      -280.1233
  12   2.0000     -10.286020      -279.8968
  13   2.0000     -10.277946      -279.6771
  14   2.0000     -10.277197      -279.6567
  15   2.0000     -10.274331      -279.5788
  16   2.0000      -8.082643      -219.9399
  17   2.0000      -8.076012      -219.7595
  18   2.0000      -6.041266      -164.3912
  19   2.0000      -6.037343      -164.2845
  20   2.0000      -6.034543      -164.2083
  21   2.0000      -6.033181      -164.1712
  22   2.0000      -6.030152      -164.0888
  23   2.0000      -6.026841      -163.9987
  24   2.0000      -1.009337       -27.4655
  25   2.0000      -0.987248       -26.8644
  26   2.0000      -0.914942       -24.8968
  27   2.0000      -0.908115       -24.7111
  28   2.0000      -0.869448       -23.6589
  29   2.0000      -0.851605       -23.1734
  30   2.0000      -0.841612       -22.9014
  31   2.0000      -0.820338       -22.3225
  32   2.0000      -0.785240       -21.3675
  33   2.0000      -0.775128       -21.0923
  34   2.0000      -0.711350       -19.3568
  35   2.0000      -0.699231       -19.0270
  36   2.0000      -0.691311       -18.8115
  37   2.0000      -0.662698       -18.0329
  38   2.0000      -0.639163       -17.3925
  39   2.0000      -0.621665       -16.9164
  40   2.0000      -0.594992       -16.1906
  41   2.0000      -0.566726       -15.4214
  42   2.0000      -0.563553       -15.3350
  43   2.0000      -0.551715       -15.0129
  44   2.0000      -0.537637       -14.6298
  45   2.0000      -0.527324       -14.3492
  46   2.0000      -0.519966       -14.1490
  47   2.0000      -0.509610       -13.8672
  48   2.0000      -0.501874       -13.6567
  49   2.0000      -0.499014       -13.5789
  50   2.0000      -0.496938       -13.5224
  51   2.0000      -0.485441       -13.2095
  52   2.0000      -0.469452       -12.7744
  53   2.0000      -0.467975       -12.7342
  54   2.0000      -0.457604       -12.4520
  55   2.0000      -0.449642       -12.2354
  56   2.0000      -0.447212       -12.1693
  57   2.0000      -0.436211       -11.8699
  58   2.0000      -0.432001       -11.7554
  59   2.0000      -0.428873       -11.6702
  60   2.0000      -0.421321       -11.4647
  61   2.0000      -0.413599       -11.2546
  62   2.0000      -0.404112       -10.9965
  63   2.0000      -0.353309        -9.6140
  64   2.0000      -0.328494        -8.9388
  65   2.0000      -0.325918        -8.8687
  66   2.0000      -0.292777        -7.9669
  67   0.0000       0.031453         0.8559
  68   0.0000       0.076181         2.0730
  69   0.0000       0.104351         2.8395
  70   0.0000       0.121602         3.3090
  71   0.0000       0.130526         3.5518

MULLIKEN ATOMIC CHARGES
-----------------------
   0 S :    0.119186
   1 C :   -0.131345
   2 C :   -0.082104
   3 C :   -0.001594
   4 C :   -0.126394
   5 H :    0.034229
   6 C :    0.059245
   7 H :    0.049367
   8 H :    0.029628
   9 C :   -0.102656
  10 H :    0.055333
  11 H :    0.045501
  12 C :   -0.051090
  13 H :    0.034180
  14 H :    0.018326
  15 H :    0.022283
  16 S :    0.098032
  17 C :   -0.058879
  18 C :   -0.043516
  19 C :   -0.061363
  20 C :   -0.156032
  21 H :    0.002424
  22 C :    0.060660
  23 H :    0.026226
  24 H :    0.019429
  25 C :   -0.037109
  26 H :    0.020671
  27 H :    0.027287
  28 C :   -0.043757
  29 H :    0.025071
  30 H :    0.035457
  31 H :    0.015535
  32 H :    0.045340
  33 H :    0.052428
Sum of atomic charges:    0.0000000

LOEWDIN ATOMIC CHARGES
----------------------
   0 S :    0.396646
   1 C :   -0.197365
   2 C :   -0.058076
   3 C :   -0.068485
   4 C :   -0.184887
   5 H :    0.036179
   6 C :   -0.045735
   7 H :    0.045883
   8 H :    0.034184
   9 C :   -0.043378
  10 H :    0.042473
  11 H :    0.029680
  12 C :   -0.077739
  13 H :    0.023689
  14 H :    0.018115
  15 H :    0.027505
  16 S :    0.423285
  17 C :   -0.198126
  18 C :   -0.074101
  19 C :   -0.060696
  20 C :   -0.199060
  21 H :    0.023025
  22 C :   -0.034593
  23 H :    0.031697
  24 H :    0.033324
  25 C :   -0.043830
  26 H :    0.025091
  27 H :    0.027577
  28 C :   -0.064782
  29 H :    0.026791
  30 H :    0.033546
  31 H :    0.012697
  32 H :    0.024277
  33 H :    0.035188

  Mayer bond orders larger than 0.100000
B(  0-S ,  1-C ) :   1.1254 B(  0-S ,  4-C ) :   1.1476 B(  1-C ,  2-C ) :   1.6347
B(  1-C , 32-H ) :   0.9674 B(  2-C ,  3-C ) :   1.2078 B(  2-C ,  6-C ) :   1.0162
B(  3-C ,  4-C ) :   1.6045 B(  3-C ,  5-H ) :   0.9798 B(  4-C , 20-C ) :   1.0277
B(  6-C ,  7-H ) :   0.9349 B(  6-C ,  8-H ) :   0.9378 B(  6-C ,  9-C ) :   1.0666
B(  9-C , 10-H ) :   0.9549 B(  9-C , 11-H ) :   0.9523 B(  9-C , 12-C ) :   1.0684
B( 12-C , 13-H ) :   0.9776 B( 12-C , 14-H ) :   0.9758 B( 12-C , 15-H ) :   0.9710
B( 16-S , 17-C ) :   1.1650 B( 16-S , 20-C ) :   1.1362 B( 17-C , 18-C ) :   1.5996
B( 17-C , 33-H ) :   0.9678 B( 18-C , 19-C ) :   1.2505 B( 18-C , 21-H ) :   0.9935
B( 19-C , 20-C ) :   1.6041 B( 19-C , 22-C ) :   1.0423 B( 22-C , 23-H ) :   0.9234
B( 22-C , 24-H ) :   0.9312 B( 22-C , 25-C ) :   1.0825 B( 25-C , 26-H ) :   0.9525
B( 25-C , 27-H ) :   0.9549 B( 25-C , 28-C ) :   1.0780 B( 28-C , 29-H ) :   0.9760
B( 28-C , 30-H ) :   0.9788 B( 28-C , 31-H ) :   0.9761

Dispersion correction           -0.014436895
FINAL SINGLE POINT ENERGY     -1339.874382586092

DIPOLE MOMENT
-------------
                                X             Y             Z
Electronic contribution:     26.99203      14.07127       1.85688
Nuclear contribution   :    -27.55626     -14.42394      -1.90578
                        -----------------------------------------
Total Dipole Moment    :     -0.56423      -0.35267      -0.04889
                        -----------------------------------------
Magnitude (a.u.)       :      0.66718
Magnitude (Debye)      :      1.69584

Rotational constants in cm-1:     0.016493     0.010088     0.007065
Rotational constants in MHz :   494.441412   302.436133   211.790506

                             ****ORCA TERMINATED NORMALLY****
TOTAL RUN TIME: 0 days 0 hours 0 minutes 30 seconds 677 msec
