                         Program Version 4.2.1 -  RELEASE  -
|  1> ! wB97X-D3 SP def2-SVP
|  2> %pal
|  3> nprocs 16
|  4> end
|  5>
|  6> * xyz 0 1
|  7> S 	 29.1981 	 17.2817 	 71.5229
|  8> C 	 28.761 	 15.6187 	 71.9321
|  9> C 	 29.8757 	 14.9535 	 72.4723
| 10> C 	 31.0433 	 15.7888 	 72.6321
| 11> C 	 30.8722 	 17.0387 	 72.0433
| 12> H 	 32.0391 	 15.572 	 72.9329
| 13> C 	 29.8868 	 13.5047 	 72.7661
| 14> H 	 29.0786 	 13.2821 	 73.5131
| 15> H 	 30.7784 	 13.4658 	 73.3743
| 16> C 	 29.8542 	 12.6082 	 71.5259
| 17> H 	 29.0581 	 12.84 	 70.7647
| 18> H 	 30.7882 	 12.8129 	 71.0403
| 19> C 	 29.9485 	 11.0795 	 71.9261
| 20> H 	 29.7115 	 10.4044 	 71.0967
| 21> H 	 30.9044 	 10.8109 	 72.3825
| 22> H 	 29.1719 	 10.8185 	 72.6039
| 23> S 	 31.6878 	 18.7929 	 70.0264
| 24> C 	 33.4316 	 19.1095 	 69.9648
| 25> C 	 34.064 	 18.855 	 71.1581
| 26> C 	 33.2287 	 18.193 	 72.0685
| 27> C 	 31.9245 	 17.9523 	 71.587
| 28> H 	 35.1115 	 19.1015 	 71.1301
| 29> C 	 33.8271 	 17.7127 	 73.3389
| 30> H 	 33.0421 	 17.446 	 74.1098
| 31> H 	 34.2459 	 18.6334 	 73.8223
| 32> C 	 34.8349 	 16.5174 	 73.3001
| 33> H 	 35.7753 	 16.6448 	 72.6568
| 34> H 	 34.3722 	 15.6523 	 72.7838
| 35> C 	 35.2727 	 16.1211 	 74.7128
| 36> H 	 36.218 	 15.5474 	 74.8017
| 37> H 	 34.4165 	 15.5018 	 75.108
| 38> H 	 35.5769 	 17.0148 	 75.2127
| 39> H 	 27.8491 	 15.1608 	 71.6384
| 40> H 	 33.9517 	 19.5789 	 69.1049
| 41> *
| 42>
| 43>                          ****END OF INPUT****

CARTESIAN COORDINATES (ANGSTROEM)
---------------------------------
  S     29.198100   17.281700   71.522900
  C     28.761000   15.618700   71.932100
  C     29.875700   14.953500   72.472300
  C     31.043300   15.788800   72.632100
  C     30.872200   17.038700   72.043300
  H     32.039100   15.572000   72.932900
  C     29.886800   13.504700   72.766100
  H     29.078600   13.282100   73.513100
  H     30.778400   13.465800   73.374300
  C     29.854200   12.608200   71.525900
  H     29.058100   12.840000   70.764700
  H     30.788200   12.812900   71.040300
  C     29.948500   11.079500   71.926100
  H     29.711500   10.404400   71.096700
  H     30.904400   10.810900   72.382500
  H     29.171900   10.818500   72.603900
  S     31.687800   18.792900   70.026400
  C     33.431600   19.109500   69.964800
  C     34.064000   18.855000   71.158100
  C     33.228700   18.193000   72.068500
  C     31.924500   17.952300   71.587000
  H     35.111500   19.101500   71.130100
  C     33.827100   17.712700   73.338900
  H     33.042100   17.446000   74.109800
  H     34.245900   18.633400   73.822300
  C     34.834900   16.517400   73.300100
  H     35.775300   16.644800   72.656800
  H     34.372200   15.652300   72.783800
  C     35.272700   16.121100   74.712800
  H     36.218000   15.547400   74.801700
  H     34.416500   15.501800   75.108000
  H     35.576900   17.014800   75.212700
  H     27.849100   15.160800   71.638400
  H     33.951700   19.578900   69.104900

 Total Charge           Charge          ....    0
 Multiplicity           Mult            ....    1
 Number of Electrons    NEL             ....  134
 Basis Dimension        Dim             ....  322

ORBITAL ENERGIES
----------------

  NO   OCC          E(Eh)            E(eV)
   0   2.0000     -88.966940     -2420.9135
   1   2.0000     -88.964741     -2420.8537
   2   2.0000     -10.334614      -281.2191
   3   2.0000     -10.334412      -281.2136
   4   2.0000     -10.320534      -280.8360
   5   2.0000     -10.313047      -280.6323
   6   2.0000     -10.306165      -280.4450
   7   2.0000     -10.303623      -280.3758
   8   2.0000     -10.301378      -280.3147
   9   2.0000     -10.299796      -280.2717
  10   2.0000     -10.295754      -280.1617
  11   2.0000     -10.293744      -280.1070
  12   2.0000     -10.292194      -280.0648
  13   2.0000     -10.289618      -279.9948
  14   2.0000     -10.285210      -279.8748
  15   2.0000     -10.278891      -279.7028
  16   2.0000      -8.080824      -219.8904
  17   2.0000      -8.078925      -219.8387
  18   2.0000      -6.039367      -164.3395
  19   2.0000      -6.037539      -164.2898
  20   2.0000      -6.035658      -164.2386
  21   2.0000      -6.033461      -164.1788
  22   2.0000      -6.031378      -164.1221
  23   2.0000      -6.029677      -164.0758
  24   2.0000      -1.002298       -27.2739
  25   2.0000      -0.979746       -26.6603
  26   2.0000      -0.911815       -24.8117
  27   2.0000      -0.907304       -24.6890
  28   2.0000      -0.865984       -23.5646
  29   2.0000      -0.855814       -23.2879
  30   2.0000      -0.845448       -23.0058
  31   2.0000      -0.816546       -22.2193
  32   2.0000      -0.779085       -21.2000
  33   2.0000      -0.765952       -20.8426
  34   2.0000      -0.710628       -19.3372
  35   2.0000      -0.705840       -19.2069
  36   2.0000      -0.694112       -18.8877
  37   2.0000      -0.662152       -18.0181
  38   2.0000      -0.641569       -17.4580
  39   2.0000      -0.616520       -16.7764
  40   2.0000      -0.595512       -16.2047
  41   2.0000      -0.567182       -15.4338
  42   2.0000      -0.565667       -15.3926
  43   2.0000      -0.555894       -15.1266
  44   2.0000      -0.526002       -14.3132
  45   2.0000      -0.523062       -14.2332
  46   2.0000      -0.520650       -14.1676
  47   2.0000      -0.512274       -13.9397
  48   2.0000      -0.510764       -13.8986
  49   2.0000      -0.501949       -13.6587
  50   2.0000      -0.491192       -13.3660
  51   2.0000      -0.474123       -12.9015
  52   2.0000      -0.467428       -12.7194
  53   2.0000      -0.461521       -12.5586
  54   2.0000      -0.455447       -12.3933
  55   2.0000      -0.449974       -12.2444
  56   2.0000      -0.446203       -12.1418
  57   2.0000      -0.439237       -11.9522
  58   2.0000      -0.434155       -11.8139
  59   2.0000      -0.425932       -11.5902
  60   2.0000      -0.421290       -11.4639
  61   2.0000      -0.412359       -11.2209
  62   2.0000      -0.408858       -11.1256
  63   2.0000      -0.355548        -9.6750
  64   2.0000      -0.336675        -9.1614
  65   2.0000      -0.325635        -8.8610
  66   2.0000      -0.278410        -7.5759
  67   0.0000       0.014961         0.4071
  68   0.0000       0.070272         1.9122
  69   0.0000       0.101980         2.7750
  70   0.0000       0.120500         3.2790
  71   0.0000       0.123915         3.3719

MULLIKEN ATOMIC CHARGES
-----------------------
   0 S :    0.087171
   1 C :   -0.100709
   2 C :   -0.109946
   3 C :    0.053110
   4 C :   -0.135519
   5 H :   -0.024483
   6 C :    0.058470
   7 H :    0.037852
   8 H :    0.011316
   9 C :   -0.066587
  10 H :    0.047785
  11 H :    0.027123
  12 C :   -0.040505
  13 H :    0.032315
  14 H :    0.037591
  15 H :    0.016654
  16 S :    0.097438
  17 C :   -0.122204
  18 C :   -0.020566
  19 C :   -0.014224
  20 C :   -0.114220
  21 H :    0.021135
  22 C :    0.003857
  23 H :    0.030778
  24 H :    0.039437
  25 C :   -0.099606
  26 H :    0.035481
  27 H :    0.036694
  28 C :   -0.051013
  29 H :    0.035491
  30 H :    0.051623
  31 H :    0.029074
  32 H :    0.041378
  33 H :    0.067810
Sum of atomic charges:   -0.0000000

LOEWDIN ATOMIC CHARGES
----------------------
   0 S :    0.383923
   1 C :   -0.191271
   2 C :   -0.055550
   3 C :   -0.066533
   4 C :   -0.173372
   5 H :    0.024475
   6 C :   -0.042377
   7 H :    0.035123
   8 H :    0.029694
   9 C :   -0.036663
  10 H :    0.032606
  11 H :    0.025744
  12 C :   -0.067086
  13 H :    0.028215
  14 H :    0.027381
  15 H :    0.017607
  16 S :    0.377699
  17 C :   -0.174575
  18 C :   -0.070221
  19 C :   -0.061708
  20 C :   -0.181960
  21 H :    0.037033
  22 C :   -0.046662
  23 H :    0.035127
  24 H :    0.040088
  25 C :   -0.051598
  26 H :    0.028578
  27 H :    0.022190
  28 C :   -0.072404
  29 H :    0.030448
  30 H :    0.035390
  31 H :    0.023448
  32 H :    0.022079
  33 H :    0.035129

  Mayer bond orders larger than 0.100000
B(  0-S ,  1-C ) :   1.1204 B(  0-S ,  4-C ) :   1.1502 B(  1-C ,  2-C ) :   1.5974
B(  1-C , 32-H ) :   0.9778 B(  2-C ,  3-C ) :   1.2363 B(  2-C ,  6-C ) :   1.0260
B(  3-C ,  4-C ) :   1.5654 B(  3-C ,  5-H ) :   0.9870 B(  4-C , 20-C ) :   1.0716
B(  6-C ,  7-H ) :   0.9351 B(  6-C ,  8-H ) :   0.9417 B(  6-C ,  9-C ) :   1.0483
B(  9-C , 10-H ) :   0.9625 B(  9-C , 11-H ) :   0.9540 B(  9-C , 12-C ) :   1.0707
B( 12-C , 13-H ) :   0.9754 B( 12-C , 14-H ) :   0.9777 B( 12-C , 15-H ) :   0.9767
B( 16-S , 17-C ) :   1.1471 B( 16-S , 20-C ) :   1.1213 B( 17-C , 18-C ) :   1.6292
B( 17-C , 33-H ) :   0.9601 B( 18-C , 19-C ) :   1.2165 B( 18-C , 21-H ) :   0.9985
B( 19-C , 20-C ) :   1.5726 B( 19-C , 22-C ) :   1.0586 B( 22-C , 23-H ) :   0.9362
B( 22-C , 24-H ) :   0.9278 B( 22-C , 25-C ) :   1.0406 B( 25-C , 26-H ) :   0.9530
B( 25-C , 27-H ) :   0.9561 B( 25-C , 28-C ) :   1.0729 B( 28-C , 29-H ) :   0.9742
B( 28-C , 30-H ) :   0.9757 B( 28-C , 31-H ) :   0.9734

Dispersion correction           -0.013977025
FINAL SINGLE POINT ENERGY     -1339.859111506822

DIPOLE MOMENT
-------------
                                X             Y             Z
Electronic contribution:    -12.41924      24.66342     -13.00477
Nuclear contribution   :     13.04846     -25.16395      13.09618
                        -----------------------------------------
Total Dipole Moment    :      0.62921      -0.50053       0.09141
                        -----------------------------------------
Magnitude (a.u.)       :      0.80920
Magnitude (Debye)      :      2.05681

Rotational constants in cm-1:     0.016338     0.008956     0.006579
Rotational constants in MHz :   489.794717   268.505554   197.247976

                             ****ORCA TERMINATED NORMALLY****
TOTAL RUN TIME: 0 days 0 hours 0 minutes 29 seconds 528 msec
