                         Program Version 4.2.1 -  RELEASE  -
|  1> ! wB97X-D3 SP def2-SVP
|  2> %pal
|  3> nprocs 16
|  4> end
|  5>
|  6> * xyz 0 1
|  7> S 	 7.81732 	 21.0466 	 64.6656
|  8> C 	 9.50812 	 20.6972 	 64.2202
|  9> C 	 10.2865 	 21.8247 	 64.0365
| 10> C 	 9.40933 	 22.9062 	 63.7131
| 11> C 	 8.08468 	 22.6856 	 64.0455
| 12> H 	 9.73685 	 23.8859 	 63.4049
| 13> C 	 11.8052 	 21.9863 	 63.9496
| 14> H 	 12.0466 	 21.8291 	 62.8782
| 15> H 	 12.2996 	 21.1243 	 64.4864
| 16> C 	 12.3687 	 23.3781 	 64.2977
| 17> H 	 13.3896 	 23.2397 	 64.4836
| 18> H 	 12.32 	 24.086 	 63.4445
| 19> C 	 11.8856 	 24.1377 	 65.4861
| 20> H 	 10.9544 	 24.5674 	 65.2109
| 21> H 	 11.7825 	 23.4198 	 66.304
| 22> H 	 12.4799 	 24.9997 	 65.8342
| 23> S 	 6.53817 	 24.4616 	 65.3839
| 24> C 	 5.02599 	 25.0744 	 64.7305
| 25> C 	 4.95941 	 24.5885 	 63.4202
| 26> C 	 6.09223 	 23.8387 	 62.9894
| 27> C 	 6.99414 	 23.6698 	 63.9713
| 28> H 	 3.9609 	 24.8399 	 62.935
| 29> C 	 6.28572 	 23.3433 	 61.5637
| 30> H 	 7.37351 	 23.4898 	 61.2242
| 31> H 	 5.78216 	 24.0573 	 60.8885
| 32> C 	 5.87355 	 21.9104 	 61.2782
| 33> H 	 4.75645 	 21.8203 	 61.3102
| 34> H 	 6.16292 	 21.306 	 62.0915
| 35> C 	 6.51026 	 21.319 	 59.9841
| 36> H 	 5.80629 	 20.5236 	 59.594
| 37> H 	 7.49148 	 20.85 	 60.0946
| 38> H 	 6.54236 	 22.0713 	 59.2197
| 39> H 	 9.94353 	 19.7395 	 64.4285
| 40> H 	 4.33044 	 25.7592 	 65.2394
| 41> *
| 42>
| 43>                          ****END OF INPUT****

CARTESIAN COORDINATES (ANGSTROEM)
---------------------------------
  S      7.817320   21.046600   64.665600
  C      9.508120   20.697200   64.220200
  C     10.286500   21.824700   64.036500
  C      9.409330   22.906200   63.713100
  C      8.084680   22.685600   64.045500
  H      9.736850   23.885900   63.404900
  C     11.805200   21.986300   63.949600
  H     12.046600   21.829100   62.878200
  H     12.299600   21.124300   64.486400
  C     12.368700   23.378100   64.297700
  H     13.389600   23.239700   64.483600
  H     12.320000   24.086000   63.444500
  C     11.885600   24.137700   65.486100
  H     10.954400   24.567400   65.210900
  H     11.782500   23.419800   66.304000
  H     12.479900   24.999700   65.834200
  S      6.538170   24.461600   65.383900
  C      5.025990   25.074400   64.730500
  C      4.959410   24.588500   63.420200
  C      6.092230   23.838700   62.989400
  C      6.994140   23.669800   63.971300
  H      3.960900   24.839900   62.935000
  C      6.285720   23.343300   61.563700
  H      7.373510   23.489800   61.224200
  H      5.782160   24.057300   60.888500
  C      5.873550   21.910400   61.278200
  H      4.756450   21.820300   61.310200
  H      6.162920   21.306000   62.091500
  C      6.510260   21.319000   59.984100
  H      5.806290   20.523600   59.594000
  H      7.491480   20.850000   60.094600
  H      6.542360   22.071300   59.219700
  H      9.943530   19.739500   64.428500
  H      4.330440   25.759200   65.239400

 Total Charge           Charge          ....    0
 Multiplicity           Mult            ....    1
 Number of Electrons    NEL             ....  134
 Basis Dimension        Dim             ....  322

ORBITAL ENERGIES
----------------

  NO   OCC          E(Eh)            E(eV)
   0   2.0000     -88.969630     -2420.9867
   1   2.0000     -88.959515     -2420.7115
   2   2.0000     -10.329805      -281.0883
   3   2.0000     -10.319360      -280.8041
   4   2.0000     -10.314503      -280.6719
   5   2.0000     -10.314245      -280.6649
   6   2.0000     -10.306959      -280.4666
   7   2.0000     -10.305388      -280.4239
   8   2.0000     -10.298960      -280.2489
   9   2.0000     -10.296724      -280.1881
  10   2.0000     -10.294435      -280.1258
  11   2.0000     -10.291108      -280.0353
  12   2.0000     -10.285305      -279.8774
  13   2.0000     -10.277861      -279.6748
  14   2.0000     -10.276619      -279.6410
  15   2.0000     -10.271769      -279.5090
  16   2.0000      -8.083015      -219.9500
  17   2.0000      -8.075600      -219.7483
  18   2.0000      -6.041571      -164.3995
  19   2.0000      -6.038014      -164.3027
  20   2.0000      -6.033954      -164.1922
  21   2.0000      -6.033488      -164.1796
  22   2.0000      -6.029662      -164.0754
  23   2.0000      -6.026674      -163.9941
  24   2.0000      -1.011945       -27.5364
  25   2.0000      -0.984783       -26.7973
  26   2.0000      -0.915026       -24.8991
  27   2.0000      -0.901147       -24.5215
  28   2.0000      -0.869365       -23.6566
  29   2.0000      -0.848076       -23.0773
  30   2.0000      -0.843502       -22.9529
  31   2.0000      -0.815360       -22.1871
  32   2.0000      -0.785219       -21.3669
  33   2.0000      -0.769206       -20.9312
  34   2.0000      -0.703974       -19.1561
  35   2.0000      -0.695434       -18.9237
  36   2.0000      -0.691309       -18.8115
  37   2.0000      -0.658927       -17.9303
  38   2.0000      -0.639103       -17.3909
  39   2.0000      -0.621700       -16.9173
  40   2.0000      -0.591264       -16.0891
  41   2.0000      -0.567608       -15.4454
  42   2.0000      -0.558081       -15.1862
  43   2.0000      -0.551429       -15.0051
  44   2.0000      -0.542200       -14.7540
  45   2.0000      -0.522504       -14.2181
  46   2.0000      -0.514809       -14.0087
  47   2.0000      -0.512470       -13.9450
  48   2.0000      -0.502957       -13.6862
  49   2.0000      -0.491394       -13.3715
  50   2.0000      -0.488251       -13.2860
  51   2.0000      -0.479653       -13.0520
  52   2.0000      -0.473802       -12.8928
  53   2.0000      -0.463314       -12.6074
  54   2.0000      -0.462066       -12.5735
  55   2.0000      -0.445799       -12.1308
  56   2.0000      -0.443224       -12.0607
  57   2.0000      -0.434119       -11.8130
  58   2.0000      -0.425222       -11.5709
  59   2.0000      -0.422787       -11.5046
  60   2.0000      -0.418570       -11.3899
  61   2.0000      -0.414633       -11.2827
  62   2.0000      -0.402677       -10.9574
  63   2.0000      -0.334507        -9.1024
  64   2.0000      -0.327708        -8.9174
  65   2.0000      -0.323125        -8.7927
  66   2.0000      -0.307133        -8.3575
  67   0.0000       0.043986         1.1969
  68   0.0000       0.052201         1.4205
  69   0.0000       0.101456         2.7608
  70   0.0000       0.121916         3.3175
  71   0.0000       0.126914         3.4535

MULLIKEN ATOMIC CHARGES
-----------------------
   0 S :    0.121832
   1 C :   -0.121119
   2 C :   -0.096041
   3 C :    0.035240
   4 C :   -0.143307
   5 H :    0.012795
   6 C :    0.073585
   7 H :    0.053062
   8 H :    0.037741
   9 C :   -0.093569
  10 H :    0.019743
  11 H :    0.030779
  12 C :   -0.027334
  13 H :    0.014437
  14 H :    0.033621
  15 H :    0.038659
  16 S :    0.104259
  17 C :   -0.129390
  18 C :   -0.069621
  19 C :   -0.010918
  20 C :   -0.177517
  21 H :    0.044672
  22 C :    0.042030
  23 H :    0.033382
  24 H :    0.021344
  25 C :   -0.042674
  26 H :    0.027088
  27 H :    0.011812
  28 C :   -0.058016
  29 H :    0.034062
  30 H :    0.048494
  31 H :    0.022597
  32 H :    0.036049
  33 H :    0.072224
Sum of atomic charges:   -0.0000000

LOEWDIN ATOMIC CHARGES
----------------------
   0 S :    0.389582
   1 C :   -0.184627
   2 C :   -0.058739
   3 C :   -0.052083
   4 C :   -0.183400
   5 H :    0.028234
   6 C :   -0.032844
   7 H :    0.046859
   8 H :    0.037475
   9 C :   -0.049653
  10 H :    0.022902
  11 H :    0.026840
  12 C :   -0.063794
  13 H :    0.016807
  14 H :    0.028122
  15 H :    0.032363
  16 S :    0.430973
  17 C :   -0.197217
  18 C :   -0.080466
  19 C :   -0.066513
  20 C :   -0.226718
  21 H :    0.043358
  22 C :   -0.037939
  23 H :    0.037538
  24 H :    0.028929
  25 C :   -0.043834
  26 H :    0.027262
  27 H :    0.011325
  28 C :   -0.066243
  29 H :    0.033503
  30 H :    0.029175
  31 H :    0.017561
  32 H :    0.017325
  33 H :    0.037937

  Mayer bond orders larger than 0.100000
B(  0-S ,  1-C ) :   1.1305 B(  0-S ,  4-C ) :   1.1277 B(  1-C ,  2-C ) :   1.6473
B(  1-C , 32-H ) :   0.9650 B(  2-C ,  3-C ) :   1.1995 B(  2-C ,  6-C ) :   1.0167
B(  3-C ,  4-C ) :   1.6316 B(  3-C ,  5-H ) :   0.9799 B(  4-C , 20-C ) :   1.0010
B(  6-C ,  7-H ) :   0.9357 B(  6-C ,  8-H ) :   0.9411 B(  6-C ,  9-C ) :   1.0698
B(  9-C , 10-H ) :   0.9507 B(  9-C , 11-H ) :   0.9490 B(  9-C , 12-C ) :   1.0932
B( 12-C , 13-H ) :   0.9664 B( 12-C , 14-H ) :   0.9734 B( 12-C , 15-H ) :   0.9712
B( 16-S , 17-C ) :   1.1626 B( 16-S , 20-C ) :   1.1748 B( 17-C , 18-C ) :   1.5868
B( 17-C , 33-H ) :   0.9692 B( 18-C , 19-C ) :   1.2528 B( 18-C , 21-H ) :   0.9831
B( 19-C , 20-C ) :   1.5974 B( 19-C , 22-C ) :   1.0304 B( 22-C , 23-H ) :   0.9449
B( 22-C , 24-H ) :   0.9281 B( 22-C , 25-C ) :   1.0598 B( 25-C , 26-H ) :   0.9531
B( 25-C , 27-H ) :   0.9543 B( 25-C , 28-C ) :   1.0716 B( 28-C , 29-H ) :   0.9751
B( 28-C , 30-H ) :   0.9769 B( 28-C , 31-H ) :   0.9776

Dispersion correction           -0.015195784
FINAL SINGLE POINT ENERGY     -1339.861527351718

DIPOLE MOMENT
-------------
                                X             Y             Z
Electronic contribution:    -12.15623       0.59620      13.99951
Nuclear contribution   :     12.55153      -0.49083     -14.23952
                        -----------------------------------------
Total Dipole Moment    :      0.39531       0.10537      -0.24001
                        -----------------------------------------
Magnitude (a.u.)       :      0.47432
Magnitude (Debye)      :      1.20562

Rotational constants in cm-1:     0.017701     0.009819     0.007784
Rotational constants in MHz :   530.655920   294.357814   233.354953

                             ****ORCA TERMINATED NORMALLY****
TOTAL RUN TIME: 0 days 0 hours 0 minutes 36 seconds 81 msec
