                         Program Version 4.2.1 -  RELEASE  -
|  1> ! wB97X-D3 SP def2-SVP
|  2> %pal
|  3> nprocs 16
|  4> end
|  5>
|  6> * xyz 0 1
|  7> S 	 -31.3814 	 67.1497 	 100.021
|  8> C 	 -32.4525 	 68.4008 	 100.731
|  9> C 	 -32.1989 	 69.6035 	 100.159
| 10> C 	 -31.0283 	 69.5432 	 99.3091
| 11> C 	 -30.4862 	 68.3147 	 99.0537
| 12> H 	 -30.5404 	 70.3405 	 98.9343
| 13> C 	 -32.9579 	 70.8046 	 100.502
| 14> H 	 -34.0062 	 70.6078 	 100.773
| 15> H 	 -33.2052 	 71.2666 	 99.5342
| 16> C 	 -32.3751 	 71.8469 	 101.49
| 17> H 	 -31.5581 	 72.3543 	 101.036
| 18> H 	 -33.0344 	 72.7272 	 101.608
| 19> C 	 -31.873 	 71.2967 	 102.841
| 20> H 	 -32.7086 	 71.1507 	 103.56
| 21> H 	 -31.2246 	 70.427 	 102.646
| 22> H 	 -31.2794 	 71.9535 	 103.421
| 23> S 	 -29.5751 	 66.6524 	 97.088
| 24> C 	 -28.0301 	 66.9646 	 96.3934
| 25> C 	 -27.338 	 68.0143 	 97.0202
| 26> C 	 -28.1147 	 68.5381 	 98.0976
| 27> C 	 -29.2997 	 67.947 	 98.2304
| 28> H 	 -26.3599 	 68.3666 	 96.6311
| 29> C 	 -27.4957 	 69.5822 	 98.9653
| 30> H 	 -28.3395 	 70.056 	 99.4856
| 31> H 	 -27.1605 	 70.352 	 98.2841
| 32> C 	 -26.5109 	 69.0983 	 99.9829
| 33> H 	 -26.1483 	 69.964 	 100.541
| 34> H 	 -25.69 	 68.5762 	 99.3805
| 35> C 	 -27.0548 	 68.062 	 100.933
| 36> H 	 -27.9962 	 68.4432 	 101.28
| 37> H 	 -26.3735 	 67.8963 	 101.774
| 38> H 	 -27.2451 	 67.0713 	 100.476
| 39> H 	 -33.2437 	 68.1461 	 101.442
| 40> H 	 -27.5275 	 66.4363 	 95.5474
| 41> *
| 42>
| 43>                          ****END OF INPUT****

CARTESIAN COORDINATES (ANGSTROEM)
---------------------------------
  S    -31.381400   67.149700  100.021000
  C    -32.452500   68.400800  100.731000
  C    -32.198900   69.603500  100.159000
  C    -31.028300   69.543200   99.309100
  C    -30.486200   68.314700   99.053700
  H    -30.540400   70.340500   98.934300
  C    -32.957900   70.804600  100.502000
  H    -34.006200   70.607800  100.773000
  H    -33.205200   71.266600   99.534200
  C    -32.375100   71.846900  101.490000
  H    -31.558100   72.354300  101.036000
  H    -33.034400   72.727200  101.608000
  C    -31.873000   71.296700  102.841000
  H    -32.708600   71.150700  103.560000
  H    -31.224600   70.427000  102.646000
  H    -31.279400   71.953500  103.421000
  S    -29.575100   66.652400   97.088000
  C    -28.030100   66.964600   96.393400
  C    -27.338000   68.014300   97.020200
  C    -28.114700   68.538100   98.097600
  C    -29.299700   67.947000   98.230400
  H    -26.359900   68.366600   96.631100
  C    -27.495700   69.582200   98.965300
  H    -28.339500   70.056000   99.485600
  H    -27.160500   70.352000   98.284100
  C    -26.510900   69.098300   99.982900
  H    -26.148300   69.964000  100.541000
  H    -25.690000   68.576200   99.380500
  C    -27.054800   68.062000  100.933000
  H    -27.996200   68.443200  101.280000
  H    -26.373500   67.896300  101.774000
  H    -27.245100   67.071300  100.476000
  H    -33.243700   68.146100  101.442000
  H    -27.527500   66.436300   95.547400

 Total Charge           Charge          ....    0
 Multiplicity           Mult            ....    1
 Number of Electrons    NEL             ....  134
 Basis Dimension        Dim             ....  322

ORBITAL ENERGIES
----------------

  NO   OCC          E(Eh)            E(eV)
   0   2.0000     -88.969361     -2420.9794
   1   2.0000     -88.959179     -2420.7023
   2   2.0000     -10.331781      -281.1421
   3   2.0000     -10.324696      -280.9493
   4   2.0000     -10.321552      -280.8637
   5   2.0000     -10.316498      -280.7262
   6   2.0000     -10.300068      -280.2791
   7   2.0000     -10.297450      -280.2078
   8   2.0000     -10.296459      -280.1809
   9   2.0000     -10.292591      -280.0757
  10   2.0000     -10.288800      -279.9725
  11   2.0000     -10.287148      -279.9275
  12   2.0000     -10.286224      -279.9024
  13   2.0000     -10.285147      -279.8731
  14   2.0000     -10.276742      -279.6444
  15   2.0000     -10.270197      -279.4663
  16   2.0000      -8.084614      -219.9935
  17   2.0000      -8.073580      -219.6933
  18   2.0000      -6.043063      -164.4401
  19   2.0000      -6.039113      -164.3326
  20   2.0000      -6.035330      -164.2297
  21   2.0000      -6.032167      -164.1436
  22   2.0000      -6.028130      -164.0338
  23   2.0000      -6.024270      -163.9287
  24   2.0000      -1.011393       -27.5214
  25   2.0000      -0.987168       -26.8622
  26   2.0000      -0.918977       -25.0066
  27   2.0000      -0.911376       -24.7998
  28   2.0000      -0.866851       -23.5882
  29   2.0000      -0.854741       -23.2587
  30   2.0000      -0.841581       -22.9006
  31   2.0000      -0.817385       -22.2422
  32   2.0000      -0.786909       -21.4129
  33   2.0000      -0.778832       -21.1931
  34   2.0000      -0.710135       -19.3238
  35   2.0000      -0.697254       -18.9732
  36   2.0000      -0.689686       -18.7673
  37   2.0000      -0.664363       -18.0782
  38   2.0000      -0.646305       -17.5868
  39   2.0000      -0.623046       -16.9540
  40   2.0000      -0.595402       -16.2017
  41   2.0000      -0.571111       -15.5407
  42   2.0000      -0.558237       -15.1904
  43   2.0000      -0.552912       -15.0455
  44   2.0000      -0.546244       -14.8641
  45   2.0000      -0.540245       -14.7008
  46   2.0000      -0.516260       -14.0482
  47   2.0000      -0.507080       -13.7983
  48   2.0000      -0.502232       -13.6664
  49   2.0000      -0.500741       -13.6258
  50   2.0000      -0.495841       -13.4925
  51   2.0000      -0.475352       -12.9350
  52   2.0000      -0.471492       -12.8299
  53   2.0000      -0.461237       -12.5509
  54   2.0000      -0.451919       -12.2973
  55   2.0000      -0.451358       -12.2821
  56   2.0000      -0.446945       -12.1620
  57   2.0000      -0.441073       -12.0022
  58   2.0000      -0.438199       -11.9240
  59   2.0000      -0.421170       -11.4606
  60   2.0000      -0.414430       -11.2772
  61   2.0000      -0.406455       -11.0602
  62   2.0000      -0.404066       -10.9952
  63   2.0000      -0.349693        -9.5156
  64   2.0000      -0.335907        -9.1405
  65   2.0000      -0.326900        -8.8954
  66   2.0000      -0.298424        -8.1205
  67   0.0000       0.036359         0.9894
  68   0.0000       0.070086         1.9071
  69   0.0000       0.110331         3.0022
  70   0.0000       0.119569         3.2537
  71   0.0000       0.128502         3.4967

MULLIKEN ATOMIC CHARGES
-----------------------
   0 S :    0.074289
   1 C :   -0.127618
   2 C :   -0.071487
   3 C :    0.072483
   4 C :   -0.137399
   5 H :   -0.041693
   6 C :    0.057965
   7 H :    0.018805
   8 H :    0.025162
   9 C :   -0.049418
  10 H :    0.010009
  11 H :    0.025268
  12 C :   -0.051104
  13 H :    0.030277
  14 H :    0.052736
  15 H :    0.016142
  16 S :    0.126076
  17 C :   -0.096111
  18 C :   -0.070276
  19 C :   -0.071937
  20 C :   -0.139369
  21 H :    0.034175
  22 C :    0.090881
  23 H :   -0.001462
  24 H :    0.024498
  25 C :   -0.057184
  26 H :    0.037494
  27 H :    0.030013
  28 C :   -0.044570
  29 H :    0.020723
  30 H :    0.036325
  31 H :    0.048204
  32 H :    0.060206
  33 H :    0.067899
Sum of atomic charges:   -0.0000000

LOEWDIN ATOMIC CHARGES
----------------------
   0 S :    0.366564
   1 C :   -0.169948
   2 C :   -0.069080
   3 C :   -0.055129
   4 C :   -0.180978
   5 H :    0.007313
   6 C :   -0.042051
   7 H :    0.033739
   8 H :    0.039055
   9 C :   -0.042362
  10 H :    0.017206
  11 H :    0.028712
  12 C :   -0.070914
  13 H :    0.028484
  14 H :    0.032795
  15 H :    0.020256
  16 S :    0.422297
  17 C :   -0.196901
  18 C :   -0.074943
  19 C :   -0.060855
  20 C :   -0.198532
  21 H :    0.038354
  22 C :   -0.035836
  23 H :    0.025559
  24 H :    0.031716
  25 C :   -0.040879
  26 H :    0.028062
  27 H :    0.028378
  28 C :   -0.063562
  29 H :    0.020675
  30 H :    0.028282
  31 H :    0.031920
  32 H :    0.033733
  33 H :    0.038869

  Mayer bond orders larger than 0.100000
B(  0-S ,  1-C ) :   1.1201 B(  0-S ,  4-C ) :   1.1354 B(  1-C ,  2-C ) :   1.6215
B(  1-C , 32-H ) :   0.9715 B(  2-C ,  3-C ) :   1.1946 B(  2-C ,  6-C ) :   1.0447
B(  3-C ,  4-C ) :   1.6175 B(  3-C ,  5-H ) :   1.0139 B(  4-C , 20-C ) :   0.9854
B(  6-C ,  7-H ) :   0.9401 B(  6-C ,  8-H ) :   0.9268 B(  6-C ,  9-C ) :   1.0631
B(  9-C , 10-H ) :   0.9553 B(  9-C , 11-H ) :   0.9523 B(  9-C , 12-C ) :   1.0768
B( 12-C , 13-H ) :   0.9752 B( 12-C , 14-H ) :   0.9721 B( 12-C , 15-H ) :   0.9728
B( 16-S , 17-C ) :   1.1622 B( 16-S , 20-C ) :   1.1291 B( 17-C , 18-C ) :   1.6228
B( 17-C , 33-H ) :   0.9596 B( 18-C , 19-C ) :   1.2118 B( 18-C , 21-H ) :   0.9861
B( 19-C , 20-C ) :   1.6606 B( 19-C , 22-C ) :   1.0363 B( 22-C , 23-H ) :   0.9205
B( 22-C , 24-H ) :   0.9257 B( 22-C , 25-C ) :   1.0827 B( 25-C , 26-H ) :   0.9519
B( 25-C , 27-H ) :   0.9518 B( 25-C , 28-C ) :   1.0791 B( 28-C , 29-H ) :   0.9744
B( 28-C , 30-H ) :   0.9722 B( 28-C , 31-H ) :   0.9697

Dispersion correction           -0.015508929
FINAL SINGLE POINT ENERGY     -1339.874677924539

DIPOLE MOMENT
-------------
                                X             Y             Z
Electronic contribution:     -5.15552     -19.16358     -16.82764
Nuclear contribution   :      5.37616      19.84233      16.92190
                        -----------------------------------------
Total Dipole Moment    :      0.22064       0.67875       0.09426
                        -----------------------------------------
Magnitude (a.u.)       :      0.71991
Magnitude (Debye)      :      1.82986

Rotational constants in cm-1:     0.021147     0.008928     0.007455
Rotational constants in MHz :   633.963433   267.652398   223.485771

                             ****ORCA TERMINATED NORMALLY****
TOTAL RUN TIME: 0 days 0 hours 0 minutes 31 seconds 278 msec
