                         Program Version 4.2.1 -  RELEASE  -
|  1> ! wB97X-D3 SP def2-SVP
|  2> %pal
|  3> nprocs 16
|  4> end
|  5>
|  6> * xyz 0 1
|  7> S 	 36.6344 	 10.3279 	 79.3869
|  8> C 	 37.9514 	 9.25996 	 79.1935
|  9> C 	 38.3361 	 9.04723 	 77.9431
| 10> C 	 37.4592 	 9.67272 	 76.9968
| 11> C 	 36.5386 	 10.4905 	 77.5799
| 12> H 	 37.4348 	 9.62345 	 75.9632
| 13> C 	 39.4781 	 8.124 	 77.5573
| 14> H 	 40.1718 	 8.17458 	 78.3939
| 15> H 	 39.9655 	 8.46295 	 76.6159
| 16> C 	 39.1843 	 6.6026 	 77.4709
| 17> H 	 38.2003 	 6.29471 	 77.0379
| 18> H 	 39.9378 	 6.12422 	 76.8444
| 19> C 	 39.1548 	 5.8507 	 78.8233
| 20> H 	 38.6317 	 6.40352 	 79.5624
| 21> H 	 38.6463 	 4.89119 	 78.7748
| 22> H 	 40.1504 	 5.52773 	 79.1152
| 23> S 	 33.8629 	 11.3312 	 77.6311
| 24> C 	 33.3924 	 12.6462 	 76.6288
| 25> C 	 34.4085 	 12.9217 	 75.7194
| 26> C 	 35.6076 	 12.1845 	 75.8902
| 27> C 	 35.502 	 11.3106 	 76.9886
| 28> H 	 34.3341 	 13.7421 	 74.9436
| 29> C 	 36.8619 	 12.5487 	 75.0651
| 30> H 	 37.7604 	 12.3565 	 75.6178
| 31> H 	 36.979 	 13.6571 	 74.8727
| 32> C 	 36.987 	 11.7952 	 73.7538
| 33> H 	 37.5055 	 10.8303 	 73.7882
| 34> H 	 37.6093 	 12.4397 	 73.1072
| 35> C 	 35.6998 	 11.5496 	 72.9128
| 36> H 	 34.9573 	 10.8139 	 73.3155
| 37> H 	 36.0395 	 11.1002 	 72.0014
| 38> H 	 35.1045 	 12.3991 	 72.6245
| 39> H 	 38.3436 	 8.77659 	 80.0405
| 40> H 	 32.4966 	 13.2434 	 76.7569
| 41> *
| 42>
| 43>                          ****END OF INPUT****

CARTESIAN COORDINATES (ANGSTROEM)
---------------------------------
  S     36.634400   10.327900   79.386900
  C     37.951400    9.259960   79.193500
  C     38.336100    9.047230   77.943100
  C     37.459200    9.672720   76.996800
  C     36.538600   10.490500   77.579900
  H     37.434800    9.623450   75.963200
  C     39.478100    8.124000   77.557300
  H     40.171800    8.174580   78.393900
  H     39.965500    8.462950   76.615900
  C     39.184300    6.602600   77.470900
  H     38.200300    6.294710   77.037900
  H     39.937800    6.124220   76.844400
  C     39.154800    5.850700   78.823300
  H     38.631700    6.403520   79.562400
  H     38.646300    4.891190   78.774800
  H     40.150400    5.527730   79.115200
  S     33.862900   11.331200   77.631100
  C     33.392400   12.646200   76.628800
  C     34.408500   12.921700   75.719400
  C     35.607600   12.184500   75.890200
  C     35.502000   11.310600   76.988600
  H     34.334100   13.742100   74.943600
  C     36.861900   12.548700   75.065100
  H     37.760400   12.356500   75.617800
  H     36.979000   13.657100   74.872700
  C     36.987000   11.795200   73.753800
  H     37.505500   10.830300   73.788200
  H     37.609300   12.439700   73.107200
  C     35.699800   11.549600   72.912800
  H     34.957300   10.813900   73.315500
  H     36.039500   11.100200   72.001400
  H     35.104500   12.399100   72.624500
  H     38.343600    8.776590   80.040500
  H     32.496600   13.243400   76.756900

 Total Charge           Charge          ....    0
 Multiplicity           Mult            ....    1
 Number of Electrons    NEL             ....  134
 Basis Dimension        Dim             ....  322

ORBITAL ENERGIES
----------------

  NO   OCC          E(Eh)            E(eV)
   0   2.0000     -88.967407     -2420.9262
   1   2.0000     -88.960337     -2420.7339
   2   2.0000     -10.329271      -281.0738
   3   2.0000     -10.328572      -281.0547
   4   2.0000     -10.316884      -280.7367
   5   2.0000     -10.305388      -280.4239
   6   2.0000     -10.302910      -280.3564
   7   2.0000     -10.296903      -280.1930
   8   2.0000     -10.296797      -280.1901
   9   2.0000     -10.296275      -280.1759
  10   2.0000     -10.295755      -280.1617
  11   2.0000     -10.291397      -280.0432
  12   2.0000     -10.290281      -280.0128
  13   2.0000     -10.289802      -279.9997
  14   2.0000     -10.275107      -279.5999
  15   2.0000     -10.273547      -279.5574
  16   2.0000      -8.082349      -219.9319
  17   2.0000      -8.075578      -219.7476
  18   2.0000      -6.040849      -164.3799
  19   2.0000      -6.036736      -164.2679
  20   2.0000      -6.034001      -164.1935
  21   2.0000      -6.033188      -164.1714
  22   2.0000      -6.030208      -164.0903
  23   2.0000      -6.026202      -163.9813
  24   2.0000      -1.008057       -27.4306
  25   2.0000      -0.988187       -26.8899
  26   2.0000      -0.907305       -24.6890
  27   2.0000      -0.907167       -24.6853
  28   2.0000      -0.871745       -23.7214
  29   2.0000      -0.851548       -23.1718
  30   2.0000      -0.844076       -22.9685
  31   2.0000      -0.815183       -22.1823
  32   2.0000      -0.788921       -21.4676
  33   2.0000      -0.775705       -21.1080
  34   2.0000      -0.709643       -19.3104
  35   2.0000      -0.695297       -18.9200
  36   2.0000      -0.689590       -18.7647
  37   2.0000      -0.663117       -18.0443
  38   2.0000      -0.647819       -17.6281
  39   2.0000      -0.618644       -16.8342
  40   2.0000      -0.595836       -16.2135
  41   2.0000      -0.568928       -15.4813
  42   2.0000      -0.557288       -15.1646
  43   2.0000      -0.546727       -14.8772
  44   2.0000      -0.542741       -14.7687
  45   2.0000      -0.540266       -14.7014
  46   2.0000      -0.518384       -14.1059
  47   2.0000      -0.505353       -13.7514
  48   2.0000      -0.502144       -13.6640
  49   2.0000      -0.497656       -13.5419
  50   2.0000      -0.492131       -13.3916
  51   2.0000      -0.484012       -13.1706
  52   2.0000      -0.472036       -12.8447
  53   2.0000      -0.469146       -12.7661
  54   2.0000      -0.455842       -12.4041
  55   2.0000      -0.442808       -12.0494
  56   2.0000      -0.441309       -12.0086
  57   2.0000      -0.439050       -11.9472
  58   2.0000      -0.436043       -11.8653
  59   2.0000      -0.424550       -11.5526
  60   2.0000      -0.421525       -11.4703
  61   2.0000      -0.410610       -11.1733
  62   2.0000      -0.408605       -11.1187
  63   2.0000      -0.353150        -9.6097
  64   2.0000      -0.333935        -9.0868
  65   2.0000      -0.329279        -8.9601
  66   2.0000      -0.290220        -7.8973
  67   0.0000       0.024068         0.6549
  68   0.0000       0.080338         2.1861
  69   0.0000       0.109297         2.9741
  70   0.0000       0.122420         3.3312
  71   0.0000       0.128116         3.4862

MULLIKEN ATOMIC CHARGES
-----------------------
   0 S :    0.093109
   1 C :   -0.113939
   2 C :   -0.048230
   3 C :    0.059427
   4 C :   -0.153216
   5 H :   -0.033905
   6 C :    0.070899
   7 H :    0.023924
   8 H :    0.035550
   9 C :   -0.075947
  10 H :    0.035073
  11 H :    0.029319
  12 C :   -0.054197
  13 H :    0.023201
  14 H :    0.024845
  15 H :    0.026413
  16 S :    0.120354
  17 C :   -0.099937
  18 C :   -0.053532
  19 C :   -0.020411
  20 C :   -0.160404
  21 H :    0.035920
  22 C :    0.070516
  23 H :    0.023427
  24 H :    0.040799
  25 C :   -0.089636
  26 H :    0.037778
  27 H :    0.026094
  28 C :   -0.062709
  29 H :    0.045000
  30 H :    0.022050
  31 H :    0.024433
  32 H :    0.032614
  33 H :    0.065318
Sum of atomic charges:   -0.0000000

LOEWDIN ATOMIC CHARGES
----------------------
   0 S :    0.381747
   1 C :   -0.189111
   2 C :   -0.069359
   3 C :   -0.045028
   4 C :   -0.162886
   5 H :    0.020360
   6 C :   -0.029748
   7 H :    0.032981
   8 H :    0.035595
   9 C :   -0.043767
  10 H :    0.027912
  11 H :    0.023990
  12 C :   -0.067693
  13 H :    0.016931
  14 H :    0.028111
  15 H :    0.022326
  16 S :    0.418465
  17 C :   -0.201261
  18 C :   -0.075813
  19 C :   -0.054229
  20 C :   -0.201849
  21 H :    0.037157
  22 C :   -0.036268
  23 H :    0.030588
  24 H :    0.040513
  25 C :   -0.042964
  26 H :    0.023410
  27 H :    0.028773
  28 C :   -0.073823
  29 H :    0.031287
  30 H :    0.023678
  31 H :    0.019330
  32 H :    0.016695
  33 H :    0.033952

  Mayer bond orders larger than 0.100000
B(  0-S ,  1-C ) :   1.1375 B(  0-S ,  4-C ) :   1.1160 B(  1-C ,  2-C ) :   1.6527
B(  1-C , 32-H ) :   0.9654 B(  2-C ,  3-C ) :   1.1849 B(  2-C ,  6-C ) :   1.0302
B(  3-C ,  4-C ) :   1.6157 B(  3-C ,  5-H ) :   1.0113 B(  4-C , 20-C ) :   1.0702
B(  6-C ,  7-H ) :   0.9410 B(  6-C ,  8-H ) :   0.9420 B(  6-C ,  9-C ) :   1.0524
B(  9-C , 10-H ) :   0.9648 B(  9-C , 11-H ) :   0.9592 B(  9-C , 12-C ) :   1.0770
B( 12-C , 13-H ) :   0.9764 B( 12-C , 14-H ) :   0.9735 B( 12-C , 15-H ) :   0.9746
B( 16-S , 17-C ) :   1.1585 B( 16-S , 20-C ) :   1.1528 B( 17-C , 18-C ) :   1.5752
B( 17-C , 20-C ) :   0.1035 B( 17-C , 33-H ) :   0.9708 B( 18-C , 19-C ) :   1.2791
B( 18-C , 21-H ) :   0.9771 B( 19-C , 20-C ) :   1.5479 B( 19-C , 22-C ) :   1.0364
B( 22-C , 23-H ) :   0.9304 B( 22-C , 24-H ) :   0.9460 B( 22-C , 25-C ) :   1.0694
B( 25-C , 26-H ) :   0.9530 B( 25-C , 27-H ) :   0.9539 B( 25-C , 28-C ) :   1.0876
B( 28-C , 29-H ) :   0.9697 B( 28-C , 30-H ) :   0.9726 B( 28-C , 31-H ) :   0.9753

Dispersion correction           -0.014629956
FINAL SINGLE POINT ENERGY     -1339.879114152802

DIPOLE MOMENT
-------------
                                X             Y             Z
Electronic contribution:    -15.60611      11.26455      16.16260
Nuclear contribution   :     16.00635     -11.32783     -16.63939
                        -----------------------------------------
Total Dipole Moment    :      0.40024      -0.06328      -0.47679
                        -----------------------------------------
Magnitude (a.u.)       :      0.62572
Magnitude (Debye)      :      1.59045

Rotational constants in cm-1:     0.021207     0.008203     0.006521
Rotational constants in MHz :   635.779477   245.920965   195.501923

                             ****ORCA TERMINATED NORMALLY****
TOTAL RUN TIME: 0 days 0 hours 0 minutes 30 seconds 341 msec
