                         Program Version 4.2.1 -  RELEASE  -
|  1> ! wB97X-D3 SP def2-SVP
|  2> %pal
|  3> nprocs 16
|  4> end
|  5>
|  6> * xyz 0 1
|  7> S 	 30.9988 	 19.3183 	 69.6235
|  8> C 	 30.4531 	 17.7978 	 70.2054
|  9> C 	 31.2612 	 17.2754 	 71.1268
| 10> C 	 32.3168 	 18.1629 	 71.499
| 11> C 	 32.3715 	 19.2948 	 70.7511
| 12> H 	 32.992 	 18.1807 	 72.3953
| 13> C 	 31.0405 	 16.0245 	 71.9392
| 14> H 	 31.9487 	 15.6824 	 72.5144
| 15> H 	 30.7951 	 15.1971 	 71.191
| 16> C 	 29.8304 	 16.1019 	 72.9571
| 17> H 	 29.7609 	 17.0236 	 73.5198
| 18> H 	 29.0083 	 16.247 	 72.25
| 19> C 	 29.5182 	 14.8507 	 73.8045
| 20> H 	 30.4554 	 14.5399 	 74.2461
| 21> H 	 28.7079 	 14.9609 	 74.5603
| 22> H 	 29.1808 	 14.0958 	 73.1217
| 23> S 	 32.8099 	 21.9502 	 70.0587
| 24> C 	 33.9971 	 22.8868 	 70.9615
| 25> C 	 34.7611 	 22.0728 	 71.7711
| 26> C 	 34.2909 	 20.7195 	 71.8607
| 27> C 	 33.1866 	 20.5026 	 71.0006
| 28> H 	 35.6209 	 22.6302 	 72.2112
| 29> C 	 35.0316 	 19.7553 	 72.7745
| 30> H 	 34.4296 	 19.1283 	 73.3755
| 31> H 	 35.4758 	 20.4382 	 73.5308
| 32> C 	 36.1566 	 18.9391 	 72.0992
| 33> H 	 35.8306 	 18.3524 	 71.2079
| 34> H 	 36.5316 	 18.2032 	 72.8586
| 35> C 	 37.4527 	 19.648 	 71.82
| 36> H 	 37.8623 	 20.1049 	 72.7077
| 37> H 	 37.4422 	 20.3701 	 70.9856
| 38> H 	 38.2089 	 18.8522 	 71.7185
| 39> H 	 29.4924 	 17.3896 	 69.784
| 40> H 	 34.0368 	 23.9938 	 70.9075
| 41> *
| 42>
| 43>                          ****END OF INPUT****

CARTESIAN COORDINATES (ANGSTROEM)
---------------------------------
  S     30.998800   19.318300   69.623500
  C     30.453100   17.797800   70.205400
  C     31.261200   17.275400   71.126800
  C     32.316800   18.162900   71.499000
  C     32.371500   19.294800   70.751100
  H     32.992000   18.180700   72.395300
  C     31.040500   16.024500   71.939200
  H     31.948700   15.682400   72.514400
  H     30.795100   15.197100   71.191000
  C     29.830400   16.101900   72.957100
  H     29.760900   17.023600   73.519800
  H     29.008300   16.247000   72.250000
  C     29.518200   14.850700   73.804500
  H     30.455400   14.539900   74.246100
  H     28.707900   14.960900   74.560300
  H     29.180800   14.095800   73.121700
  S     32.809900   21.950200   70.058700
  C     33.997100   22.886800   70.961500
  C     34.761100   22.072800   71.771100
  C     34.290900   20.719500   71.860700
  C     33.186600   20.502600   71.000600
  H     35.620900   22.630200   72.211200
  C     35.031600   19.755300   72.774500
  H     34.429600   19.128300   73.375500
  H     35.475800   20.438200   73.530800
  C     36.156600   18.939100   72.099200
  H     35.830600   18.352400   71.207900
  H     36.531600   18.203200   72.858600
  C     37.452700   19.648000   71.820000
  H     37.862300   20.104900   72.707700
  H     37.442200   20.370100   70.985600
  H     38.208900   18.852200   71.718500
  H     29.492400   17.389600   69.784000
  H     34.036800   23.993800   70.907500

 Total Charge           Charge          ....    0
 Multiplicity           Mult            ....    1
 Number of Electrons    NEL             ....  134
 Basis Dimension        Dim             ....  322

ORBITAL ENERGIES
----------------

  NO   OCC          E(Eh)            E(eV)
   0   2.0000     -88.965875     -2420.8845
   1   2.0000     -88.962088     -2420.7815
   2   2.0000     -10.335604      -281.2461
   3   2.0000     -10.328967      -281.0655
   4   2.0000     -10.320158      -280.8258
   5   2.0000     -10.314318      -280.6669
   6   2.0000     -10.311287      -280.5844
   7   2.0000     -10.303382      -280.3693
   8   2.0000     -10.299151      -280.2542
   9   2.0000     -10.298805      -280.2447
  10   2.0000     -10.296471      -280.1812
  11   2.0000     -10.292736      -280.0796
  12   2.0000     -10.291991      -280.0593
  13   2.0000     -10.286542      -279.9110
  14   2.0000     -10.280621      -279.7499
  15   2.0000     -10.276652      -279.6419
  16   2.0000      -8.080284      -219.8757
  17   2.0000      -8.077528      -219.8007
  18   2.0000      -6.038837      -164.3251
  19   2.0000      -6.036126      -164.2513
  20   2.0000      -6.034880      -164.2174
  21   2.0000      -6.032031      -164.1399
  22   2.0000      -6.030996      -164.1118
  23   2.0000      -6.028071      -164.0322
  24   2.0000      -1.009205       -27.4619
  25   2.0000      -0.985258       -26.8102
  26   2.0000      -0.911002       -24.7896
  27   2.0000      -0.904086       -24.6014
  28   2.0000      -0.869763       -23.6675
  29   2.0000      -0.855472       -23.2786
  30   2.0000      -0.846292       -23.0288
  31   2.0000      -0.816663       -22.2225
  32   2.0000      -0.784615       -21.3505
  33   2.0000      -0.770902       -20.9773
  34   2.0000      -0.704658       -19.1747
  35   2.0000      -0.700128       -19.0514
  36   2.0000      -0.685383       -18.6502
  37   2.0000      -0.664050       -18.0697
  38   2.0000      -0.635560       -17.2945
  39   2.0000      -0.618232       -16.8229
  40   2.0000      -0.595627       -16.2078
  41   2.0000      -0.567805       -15.4507
  42   2.0000      -0.557051       -15.1581
  43   2.0000      -0.551138       -14.9972
  44   2.0000      -0.544672       -14.8213
  45   2.0000      -0.523888       -14.2557
  46   2.0000      -0.517273       -14.0757
  47   2.0000      -0.508768       -13.8443
  48   2.0000      -0.503084       -13.6896
  49   2.0000      -0.498780       -13.5725
  50   2.0000      -0.489219       -13.3123
  51   2.0000      -0.481190       -13.0939
  52   2.0000      -0.476658       -12.9705
  53   2.0000      -0.469538       -12.7768
  54   2.0000      -0.459474       -12.5029
  55   2.0000      -0.445170       -12.1137
  56   2.0000      -0.441666       -12.0183
  57   2.0000      -0.435890       -11.8612
  58   2.0000      -0.427782       -11.6405
  59   2.0000      -0.427121       -11.6226
  60   2.0000      -0.415801       -11.3145
  61   2.0000      -0.412481       -11.2242
  62   2.0000      -0.405423       -11.0321
  63   2.0000      -0.366156        -9.9636
  64   2.0000      -0.336825        -9.1655
  65   2.0000      -0.325977        -8.8703
  66   2.0000      -0.282049        -7.6749
  67   0.0000       0.019248         0.5238
  68   0.0000       0.086853         2.3634
  69   0.0000       0.092555         2.5186
  70   0.0000       0.119911         3.2629
  71   0.0000       0.133959         3.6452

MULLIKEN ATOMIC CHARGES
-----------------------
   0 S :    0.084288
   1 C :   -0.159660
   2 C :   -0.011839
   3 C :   -0.045216
   4 C :   -0.085701
   5 H :    0.015446
   6 C :    0.014331
   7 H :    0.032697
   8 H :    0.039604
   9 C :   -0.087604
  10 H :    0.030012
  11 H :    0.010358
  12 C :   -0.024967
  13 H :    0.029709
  14 H :    0.047656
  15 H :    0.023539
  16 S :    0.089960
  17 C :   -0.121202
  18 C :   -0.051329
  19 C :   -0.042063
  20 C :   -0.121277
  21 H :    0.039906
  22 C :    0.065139
  23 H :    0.026526
  24 H :    0.017787
  25 C :   -0.084805
  26 H :    0.050377
  27 H :    0.027716
  28 C :   -0.045421
  29 H :    0.010886
  30 H :    0.051755
  31 H :    0.027609
  32 H :    0.072231
  33 H :    0.073552
Sum of atomic charges:   -0.0000000

LOEWDIN ATOMIC CHARGES
----------------------
   0 S :    0.390040
   1 C :   -0.199045
   2 C :   -0.074899
   3 C :   -0.071086
   4 C :   -0.177902
   5 H :    0.041551
   6 C :   -0.034528
   7 H :    0.029083
   8 H :    0.037684
   9 C :   -0.047481
  10 H :    0.021463
  11 H :    0.019427
  12 C :   -0.064275
  13 H :    0.022521
  14 H :    0.034716
  15 H :    0.023155
  16 S :    0.387092
  17 C :   -0.188192
  18 C :   -0.079445
  19 C :   -0.059649
  20 C :   -0.182531
  21 H :    0.043711
  22 C :   -0.034003
  23 H :    0.020573
  24 H :    0.037514
  25 C :   -0.044450
  26 H :    0.032412
  27 H :    0.031475
  28 C :   -0.070971
  29 H :    0.020649
  30 H :    0.025725
  31 H :    0.032153
  32 H :    0.040366
  33 H :    0.037147

  Mayer bond orders larger than 0.100000
B(  0-S ,  1-C ) :   1.1383 B(  0-S ,  4-C ) :   1.1249 B(  1-C ,  2-C ) :   1.6318
B(  1-C , 32-H ) :   0.9617 B(  2-C ,  3-C ) :   1.2103 B(  2-C ,  6-C ) :   1.0280
B(  3-C ,  4-C ) :   1.6298 B(  3-C ,  5-H ) :   0.9779 B(  4-C , 20-C ) :   1.0762
B(  6-C ,  7-H ) :   0.9470 B(  6-C ,  8-H ) :   0.9410 B(  6-C ,  9-C ) :   1.0427
B(  9-C , 10-H ) :   0.9626 B(  9-C , 11-H ) :   0.9558 B(  9-C , 12-C ) :   1.0719
B( 12-C , 13-H ) :   0.9776 B( 12-C , 14-H ) :   0.9743 B( 12-C , 15-H ) :   0.9751
B( 16-S , 17-C ) :   1.1468 B( 16-S , 20-C ) :   1.1411 B( 17-C , 18-C ) :   1.6266
B( 17-C , 33-H ) :   0.9628 B( 18-C , 19-C ) :   1.2359 B( 18-C , 21-H ) :   0.9819
B( 19-C , 20-C ) :   1.5784 B( 19-C , 22-C ) :   1.0263 B( 22-C , 23-H ) :   0.9374
B( 22-C , 24-H ) :   0.9290 B( 22-C , 25-C ) :   1.0680 B( 25-C , 26-H ) :   0.9546
B( 25-C , 27-H ) :   0.9552 B( 25-C , 28-C ) :   1.0909 B( 28-C , 29-H ) :   0.9678
B( 28-C , 30-H ) :   0.9736 B( 28-C , 31-H ) :   0.9719

Dispersion correction           -0.013823977
FINAL SINGLE POINT ENERGY     -1339.868580407354

DIPOLE MOMENT
-------------
                                X             Y             Z
Electronic contribution:     -8.11818      19.76114     -17.75748
Nuclear contribution   :      8.34294     -20.00605      18.36399
                        -----------------------------------------
Total Dipole Moment    :      0.22476      -0.24491       0.60651
                        -----------------------------------------
Magnitude (a.u.)       :      0.69163
Magnitude (Debye)      :      1.75797

Rotational constants in cm-1:     0.019439     0.007996     0.006231
Rotational constants in MHz :   582.768091   239.714098   186.788951

                             ****ORCA TERMINATED NORMALLY****
TOTAL RUN TIME: 0 days 0 hours 0 minutes 29 seconds 228 msec
