                         Program Version 4.2.1 -  RELEASE  -
|  1> ! wB97X-D3 SP def2-SVP
|  2> %pal
|  3> nprocs 16
|  4> end
|  5>
|  6> * xyz 0 1
|  7> S 	 -8.83709 	 46.0789 	 40.0074
|  8> C 	 -10.127 	 47.1275 	 39.6917
|  9> C 	 -9.73482 	 48.4367 	 39.6325
| 10> C 	 -8.33099 	 48.6098 	 39.5994
| 11> C 	 -7.69859 	 47.3984 	 39.7197
| 12> H 	 -7.83238 	 49.5353 	 39.3398
| 13> C 	 -10.6228 	 49.6184 	 39.4544
| 14> H 	 -10.7689 	 49.8843 	 38.4072
| 15> H 	 -10.0906 	 50.4996 	 39.8758
| 16> C 	 -11.9787 	 49.3576 	 40.201
| 17> H 	 -12.7297 	 50.0472 	 39.7416
| 18> H 	 -12.3459 	 48.3741 	 40.0179
| 19> C 	 -12.0145 	 49.4841 	 41.6766
| 20> H 	 -12.911 	 49.0685 	 42.1276
| 21> H 	 -11.1607 	 48.9794 	 42.0938
| 22> H 	 -11.8184 	 50.5146 	 42.0221
| 23> S 	 -5.31904 	 46.5001 	 40.7023
| 24> C 	 -3.8365 	 46.5706 	 39.7785
| 25> C 	 -4.13119 	 47.1006 	 38.5603
| 26> C 	 -5.49235 	 47.5564 	 38.3617
| 27> C 	 -6.30067 	 47.2722 	 39.4448
| 28> H 	 -3.44116 	 47.0723 	 37.7286
| 29> C 	 -5.83257 	 48.24 	 37.1429
| 30> H 	 -4.92504 	 48.4696 	 36.5818
| 31> H 	 -6.21627 	 49.186 	 37.4523
| 32> C 	 -6.86211 	 47.4337 	 36.3732
| 33> H 	 -7.68723 	 47.4816 	 37.1372
| 34> H 	 -6.51933 	 46.387 	 36.2068
| 35> C 	 -7.39473 	 47.9993 	 35.0728
| 36> H 	 -8.10148 	 48.8343 	 35.2722
| 37> H 	 -7.92814 	 47.1357 	 34.6855
| 38> H 	 -6.63255 	 48.2596 	 34.372
| 39> H 	 -11.0786 	 46.6827 	 39.5313
| 40> H 	 -2.92834 	 46.0849 	 40.0178
| 41> *
| 42>
| 43>                          ****END OF INPUT****

CARTESIAN COORDINATES (ANGSTROEM)
---------------------------------
  S     -8.837090   46.078900   40.007400
  C    -10.127000   47.127500   39.691700
  C     -9.734820   48.436700   39.632500
  C     -8.330990   48.609800   39.599400
  C     -7.698590   47.398400   39.719700
  H     -7.832380   49.535300   39.339800
  C    -10.622800   49.618400   39.454400
  H    -10.768900   49.884300   38.407200
  H    -10.090600   50.499600   39.875800
  C    -11.978700   49.357600   40.201000
  H    -12.729700   50.047200   39.741600
  H    -12.345900   48.374100   40.017900
  C    -12.014500   49.484100   41.676600
  H    -12.911000   49.068500   42.127600
  H    -11.160700   48.979400   42.093800
  H    -11.818400   50.514600   42.022100
  S     -5.319040   46.500100   40.702300
  C     -3.836500   46.570600   39.778500
  C     -4.131190   47.100600   38.560300
  C     -5.492350   47.556400   38.361700
  C     -6.300670   47.272200   39.444800
  H     -3.441160   47.072300   37.728600
  C     -5.832570   48.240000   37.142900
  H     -4.925040   48.469600   36.581800
  H     -6.216270   49.186000   37.452300
  C     -6.862110   47.433700   36.373200
  H     -7.687230   47.481600   37.137200
  H     -6.519330   46.387000   36.206800
  C     -7.394730   47.999300   35.072800
  H     -8.101480   48.834300   35.272200
  H     -7.928140   47.135700   34.685500
  H     -6.632550   48.259600   34.372000
  H    -11.078600   46.682700   39.531300
  H     -2.928340   46.084900   40.017800

 Total Charge           Charge          ....    0
 Multiplicity           Mult            ....    1
 Number of Electrons    NEL             ....  134
 Basis Dimension        Dim             ....  322

ORBITAL ENERGIES
----------------

  NO   OCC          E(Eh)            E(eV)
   0   2.0000     -88.968557     -2420.9575
   1   2.0000     -88.955625     -2420.6056
   2   2.0000     -10.327073      -281.0139
   3   2.0000     -10.321692      -280.8675
   4   2.0000     -10.311016      -280.5770
   5   2.0000     -10.309822      -280.5445
   6   2.0000     -10.296878      -280.1923
   7   2.0000     -10.295593      -280.1573
   8   2.0000     -10.295093      -280.1437
   9   2.0000     -10.293514      -280.1007
  10   2.0000     -10.288079      -279.9529
  11   2.0000     -10.283961      -279.8408
  12   2.0000     -10.283617      -279.8315
  13   2.0000     -10.278901      -279.7031
  14   2.0000     -10.273773      -279.5636
  15   2.0000     -10.271050      -279.4895
  16   2.0000      -8.084336      -219.9860
  17   2.0000      -8.070539      -219.6105
  18   2.0000      -6.042784      -164.4325
  19   2.0000      -6.038737      -164.3224
  20   2.0000      -6.035034      -164.2216
  21   2.0000      -6.029237      -164.0639
  22   2.0000      -6.024905      -163.9460
  23   2.0000      -6.021216      -163.8456
  24   2.0000      -1.014285       -27.6001
  25   2.0000      -0.988653       -26.9026
  26   2.0000      -0.917895       -24.9772
  27   2.0000      -0.915054       -24.8999
  28   2.0000      -0.876013       -23.8375
  29   2.0000      -0.860285       -23.4095
  30   2.0000      -0.850592       -23.1458
  31   2.0000      -0.815458       -22.1897
  32   2.0000      -0.781792       -21.2736
  33   2.0000      -0.771346       -20.9894
  34   2.0000      -0.713768       -19.4226
  35   2.0000      -0.698782       -19.0148
  36   2.0000      -0.684978       -18.6392
  37   2.0000      -0.668731       -18.1971
  38   2.0000      -0.651639       -17.7320
  39   2.0000      -0.613353       -16.6902
  40   2.0000      -0.597158       -16.2495
  41   2.0000      -0.574933       -15.6447
  42   2.0000      -0.568444       -15.4682
  43   2.0000      -0.557529       -15.1711
  44   2.0000      -0.534124       -14.5342
  45   2.0000      -0.532674       -14.4948
  46   2.0000      -0.525697       -14.3049
  47   2.0000      -0.518933       -14.1209
  48   2.0000      -0.506350       -13.7785
  49   2.0000      -0.502008       -13.6603
  50   2.0000      -0.497873       -13.5478
  51   2.0000      -0.488541       -13.2939
  52   2.0000      -0.476728       -12.9724
  53   2.0000      -0.467087       -12.7101
  54   2.0000      -0.456282       -12.4161
  55   2.0000      -0.451259       -12.2794
  56   2.0000      -0.440047       -11.9743
  57   2.0000      -0.437664       -11.9095
  58   2.0000      -0.430989       -11.7278
  59   2.0000      -0.424181       -11.5426
  60   2.0000      -0.413129       -11.2418
  61   2.0000      -0.409319       -11.1381
  62   2.0000      -0.405481       -11.0337
  63   2.0000      -0.345801        -9.4097
  64   2.0000      -0.333532        -9.0759
  65   2.0000      -0.321535        -8.7494
  66   2.0000      -0.292534        -7.9603
  67   0.0000       0.032189         0.8759
  68   0.0000       0.062288         1.6949
  69   0.0000       0.117460         3.1963
  70   0.0000       0.121055         3.2941
  71   0.0000       0.131972         3.5911

MULLIKEN ATOMIC CHARGES
-----------------------
   0 S :    0.139581
   1 C :   -0.149740
   2 C :   -0.063722
   3 C :    0.011468
   4 C :   -0.137865
   5 H :    0.020928
   6 C :    0.071355
   7 H :    0.042563
   8 H :    0.025689
   9 C :   -0.081439
  10 H :    0.023751
  11 H :    0.012662
  12 C :   -0.023389
  13 H :    0.039327
  14 H :    0.020939
  15 H :    0.021896
  16 S :    0.074621
  17 C :   -0.059398
  18 C :   -0.041344
  19 C :   -0.056139
  20 C :   -0.178842
  21 H :    0.013151
  22 C :    0.135462
  23 H :    0.003516
  24 H :    0.007892
  25 C :   -0.159975
  26 H :    0.052126
  27 H :    0.038337
  28 C :    0.009351
  29 H :    0.034231
  30 H :    0.031629
  31 H :    0.025283
  32 H :    0.049359
  33 H :    0.046737
Sum of atomic charges:   -0.0000000

LOEWDIN ATOMIC CHARGES
----------------------
   0 S :    0.428714
   1 C :   -0.205917
   2 C :   -0.070241
   3 C :   -0.052668
   4 C :   -0.195655
   5 H :    0.035403
   6 C :   -0.030729
   7 H :    0.034731
   8 H :    0.032882
   9 C :   -0.042038
  10 H :    0.023835
  11 H :    0.017156
  12 C :   -0.065227
  13 H :    0.029079
  14 H :    0.024098
  15 H :    0.024725
  16 S :    0.384980
  17 C :   -0.180192
  18 C :   -0.071670
  19 C :   -0.054519
  20 C :   -0.190489
  21 H :    0.027212
  22 C :   -0.037107
  23 H :    0.024947
  24 H :    0.027315
  25 C :   -0.044556
  26 H :    0.036261
  27 H :    0.028091
  28 C :   -0.064889
  29 H :    0.029016
  30 H :    0.031354
  31 H :    0.018533
  32 H :    0.021594
  33 H :    0.025971

  Mayer bond orders larger than 0.100000
B(  0-S ,  1-C ) :   1.1495 B(  0-S ,  4-C ) :   1.1468 B(  1-C ,  2-C ) :   1.5867
B(  1-C , 32-H ) :   0.9763 B(  2-C ,  3-C ) :   1.2323 B(  2-C ,  6-C ) :   1.0190
B(  3-C ,  4-C ) :   1.5562 B(  3-C ,  5-H ) :   1.0045 B(  4-C , 20-C ) :   1.0523
B(  6-C ,  7-H ) :   0.9343 B(  6-C ,  8-H ) :   0.9464 B(  6-C ,  9-C ) :   1.0641
B(  9-C , 10-H ) :   0.9536 B(  9-C , 11-H ) :   0.9553 B(  9-C , 12-C ) :   1.0905
B( 12-C , 13-H ) :   0.9725 B( 12-C , 14-H ) :   0.9692 B( 12-C , 15-H ) :   0.9703
B( 16-S , 17-C ) :   1.1427 B( 16-S , 20-C ) :   1.1248 B( 17-C , 18-C ) :   1.6138
B( 17-C , 33-H ) :   0.9719 B( 18-C , 19-C ) :   1.2445 B( 18-C , 21-H ) :   0.9836
B( 19-C , 20-C ) :   1.5929 B( 19-C , 22-C ) :   1.0601 B( 22-C , 23-H ) :   0.9168
B( 22-C , 24-H ) :   0.9184 B( 22-C , 25-C ) :   1.0495 B( 25-C , 26-H ) :   0.9545
B( 25-C , 27-H ) :   0.9614 B( 25-C , 28-C ) :   1.0855 B( 28-C , 29-H ) :   0.9716
B( 28-C , 30-H ) :   0.9732 B( 28-C , 31-H ) :   0.9718

Dispersion correction           -0.015090995
FINAL SINGLE POINT ENERGY     -1339.870363681778

DIPOLE MOMENT
-------------
                                X             Y             Z
Electronic contribution:     14.78661     -14.38840      12.46678
Nuclear contribution   :    -15.02746      14.69997     -13.04728
                        -----------------------------------------
Total Dipole Moment    :     -0.24084       0.31156      -0.58049
                        -----------------------------------------
Magnitude (a.u.)       :      0.70146
Magnitude (Debye)      :      1.78298

Rotational constants in cm-1:     0.020986     0.008758     0.007086
Rotational constants in MHz :   629.153032   262.572378   212.421099

                             ****ORCA TERMINATED NORMALLY****
TOTAL RUN TIME: 0 days 0 hours 0 minutes 36 seconds 122 msec
