                         Program Version 4.2.1 -  RELEASE  -
|  1> ! wB97X-D3 SP def2-SVP
|  2> %pal
|  3> nprocs 16
|  4> end
|  5>
|  6> * xyz 0 1
|  7> S 	 -2.56258 	 -17.7244 	 84.5556
|  8> C 	 -3.36902 	 -17.1652 	 83.1418
|  9> C 	 -2.5082 	 -17.1022 	 82.0368
| 10> C 	 -1.13358 	 -17.4648 	 82.3565
| 11> C 	 -0.974834 	 -17.8258 	 83.7111
| 12> H 	 -0.342176 	 -17.3521 	 81.6525
| 13> C 	 -3.02064 	 -16.9708 	 80.6194
| 14> H 	 -2.254 	 -16.416 	 80.0553
| 15> H 	 -4.02199 	 -16.5006 	 80.5354
| 16> C 	 -3.11542 	 -18.3618 	 79.9226
| 17> H 	 -2.14948 	 -18.9631 	 80.0111
| 18> H 	 -3.93286 	 -18.86 	 80.4482
| 19> C 	 -3.5515 	 -18.3261 	 78.4154
| 20> H 	 -2.65791 	 -18.0606 	 77.8273
| 21> H 	 -4.00031 	 -19.1907 	 78.0304
| 22> H 	 -4.34348 	 -17.4733 	 78.3089
| 23> S 	 0.601853 	 -17.2485 	 85.9177
| 24> C 	 2.18758 	 -17.8995 	 85.908
| 25> C 	 2.44904 	 -18.7272 	 84.9016
| 26> C 	 1.36653 	 -18.8904 	 83.9522
| 27> C 	 0.262959 	 -18.1409 	 84.4115
| 28> H 	 3.45312 	 -19.2347 	 84.9621
| 29> C 	 1.57073 	 -19.628 	 82.6766
| 30> H 	 2.40118 	 -19.129 	 82.1845
| 31> H 	 0.617214 	 -19.5951 	 82.216
| 32> C 	 1.92638 	 -21.1106 	 82.7616
| 33> H 	 1.22042 	 -21.6379 	 83.4045
| 34> H 	 2.94683 	 -21.0357 	 83.1467
| 35> C 	 1.98944 	 -21.7451 	 81.3681
| 36> H 	 1.07205 	 -22.2609 	 81.1113
| 37> H 	 2.73332 	 -22.6054 	 81.2922
| 38> H 	 2.23239 	 -21.0965 	 80.5202
| 39> H 	 -4.44671 	 -16.9543 	 83.001
| 40> H 	 2.85099 	 -17.9061 	 86.7553
| 41> *
| 42>
| 43>                          ****END OF INPUT****

CARTESIAN COORDINATES (ANGSTROEM)
---------------------------------
  S     -2.562580  -17.724400   84.555600
  C     -3.369020  -17.165200   83.141800
  C     -2.508200  -17.102200   82.036800
  C     -1.133580  -17.464800   82.356500
  C     -0.974834  -17.825800   83.711100
  H     -0.342176  -17.352100   81.652500
  C     -3.020640  -16.970800   80.619400
  H     -2.254000  -16.416000   80.055300
  H     -4.021990  -16.500600   80.535400
  C     -3.115420  -18.361800   79.922600
  H     -2.149480  -18.963100   80.011100
  H     -3.932860  -18.860000   80.448200
  C     -3.551500  -18.326100   78.415400
  H     -2.657910  -18.060600   77.827300
  H     -4.000310  -19.190700   78.030400
  H     -4.343480  -17.473300   78.308900
  S      0.601853  -17.248500   85.917700
  C      2.187580  -17.899500   85.908000
  C      2.449040  -18.727200   84.901600
  C      1.366530  -18.890400   83.952200
  C      0.262959  -18.140900   84.411500
  H      3.453120  -19.234700   84.962100
  C      1.570730  -19.628000   82.676600
  H      2.401180  -19.129000   82.184500
  H      0.617214  -19.595100   82.216000
  C      1.926380  -21.110600   82.761600
  H      1.220420  -21.637900   83.404500
  H      2.946830  -21.035700   83.146700
  C      1.989440  -21.745100   81.368100
  H      1.072050  -22.260900   81.111300
  H      2.733320  -22.605400   81.292200
  H      2.232390  -21.096500   80.520200
  H     -4.446710  -16.954300   83.001000
  H      2.850990  -17.906100   86.755300

 Total Charge           Charge          ....    0
 Multiplicity           Mult            ....    1
 Number of Electrons    NEL             ....  134
 Basis Dimension        Dim             ....  322

ORBITAL ENERGIES
----------------

  NO   OCC          E(Eh)            E(eV)
   0   2.0000     -88.968544     -2420.9571
   1   2.0000     -88.965112     -2420.8638
   2   2.0000     -10.337049      -281.2854
   3   2.0000     -10.331905      -281.1454
   4   2.0000     -10.316208      -280.7183
   5   2.0000     -10.307948      -280.4935
   6   2.0000     -10.306411      -280.4517
   7   2.0000     -10.303290      -280.3668
   8   2.0000     -10.300679      -280.2957
   9   2.0000     -10.298163      -280.2273
  10   2.0000     -10.293644      -280.1043
  11   2.0000     -10.290762      -280.0259
  12   2.0000     -10.289068      -279.9798
  13   2.0000     -10.286965      -279.9226
  14   2.0000     -10.285620      -279.8860
  15   2.0000     -10.283473      -279.8275
  16   2.0000      -8.082677      -219.9408
  17   2.0000      -8.080257      -219.8750
  18   2.0000      -6.041332      -164.3930
  19   2.0000      -6.038808      -164.3243
  20   2.0000      -6.037180      -164.2800
  21   2.0000      -6.034890      -164.2177
  22   2.0000      -6.033409      -164.1774
  23   2.0000      -6.030753      -164.1051
  24   2.0000      -1.003569       -27.3085
  25   2.0000      -0.980960       -26.6933
  26   2.0000      -0.917833       -24.9755
  27   2.0000      -0.905484       -24.6395
  28   2.0000      -0.869158       -23.6510
  29   2.0000      -0.852596       -23.2003
  30   2.0000      -0.843036       -22.9402
  31   2.0000      -0.814501       -22.1637
  32   2.0000      -0.783390       -21.3171
  33   2.0000      -0.767070       -20.8730
  34   2.0000      -0.708954       -19.2916
  35   2.0000      -0.696284       -18.9469
  36   2.0000      -0.689142       -18.7525
  37   2.0000      -0.653280       -17.7767
  38   2.0000      -0.634214       -17.2578
  39   2.0000      -0.622291       -16.9334
  40   2.0000      -0.595102       -16.1935
  41   2.0000      -0.583943       -15.8899
  42   2.0000      -0.567264       -15.4360
  43   2.0000      -0.558511       -15.1979
  44   2.0000      -0.524613       -14.2754
  45   2.0000      -0.521096       -14.1797
  46   2.0000      -0.512180       -13.9371
  47   2.0000      -0.506090       -13.7714
  48   2.0000      -0.504464       -13.7272
  49   2.0000      -0.498784       -13.5726
  50   2.0000      -0.491938       -13.3863
  51   2.0000      -0.482311       -13.1244
  52   2.0000      -0.470513       -12.8033
  53   2.0000      -0.462226       -12.5778
  54   2.0000      -0.459398       -12.5008
  55   2.0000      -0.449548       -12.2328
  56   2.0000      -0.444006       -12.0820
  57   2.0000      -0.441259       -12.0073
  58   2.0000      -0.429946       -11.6994
  59   2.0000      -0.428738       -11.6666
  60   2.0000      -0.426041       -11.5932
  61   2.0000      -0.411861       -11.2073
  62   2.0000      -0.410136       -11.1604
  63   2.0000      -0.353310        -9.6141
  64   2.0000      -0.330883        -9.0038
  65   2.0000      -0.325150        -8.8478
  66   2.0000      -0.289016        -7.8645
  67   0.0000       0.026230         0.7137
  68   0.0000       0.074787         2.0351
  69   0.0000       0.110350         3.0028
  70   0.0000       0.113455         3.0873
  71   0.0000       0.126245         3.4353

MULLIKEN ATOMIC CHARGES
-----------------------
   0 S :    0.111092
   1 C :   -0.112929
   2 C :   -0.103447
   3 C :    0.041187
   4 C :   -0.161852
   5 H :    0.013537
   6 C :    0.040631
   7 H :    0.025769
   8 H :    0.032432
   9 C :   -0.110574
  10 H :    0.046449
  11 H :    0.026582
  12 C :   -0.054224
  13 H :    0.038468
  14 H :    0.035537
  15 H :    0.031866
  16 S :    0.109024
  17 C :   -0.072661
  18 C :   -0.071176
  19 C :   -0.035887
  20 C :   -0.145478
  21 H :    0.036870
  22 C :    0.075739
  23 H :    0.041239
  24 H :    0.010856
  25 C :   -0.061330
  26 H :    0.043900
  27 H :    0.027330
  28 C :   -0.066959
  29 H :    0.031766
  30 H :    0.035163
  31 H :    0.032729
  32 H :    0.060080
  33 H :    0.048272
Sum of atomic charges:    0.0000000

LOEWDIN ATOMIC CHARGES
----------------------
   0 S :    0.398105
   1 C :   -0.215084
   2 C :   -0.064999
   3 C :   -0.054473
   4 C :   -0.179984
   5 H :    0.027721
   6 C :   -0.035126
   7 H :    0.028116
   8 H :    0.032411
   9 C :   -0.045129
  10 H :    0.029329
  11 H :    0.021048
  12 C :   -0.069566
  13 H :    0.025995
  14 H :    0.017498
  15 H :    0.032654
  16 S :    0.401000
  17 C :   -0.194390
  18 C :   -0.082808
  19 C :   -0.045361
  20 C :   -0.192062
  21 H :    0.041507
  22 C :   -0.032381
  23 H :    0.037962
  24 H :    0.023888
  25 C :   -0.034637
  26 H :    0.030258
  27 H :    0.023259
  28 C :   -0.075848
  29 H :    0.025243
  30 H :    0.033305
  31 H :    0.025696
  32 H :    0.038100
  33 H :    0.028756

  Mayer bond orders larger than 0.100000
B(  0-S ,  1-C ) :   1.1372 B(  0-S ,  4-C ) :   1.1432 B(  1-C ,  2-C ) :   1.6109
B(  1-C , 32-H ) :   0.9597 B(  2-C ,  3-C ) :   1.2424 B(  2-C ,  6-C ) :   1.0489
B(  3-C ,  4-C ) :   1.5516 B(  3-C ,  5-H ) :   0.9921 B(  4-C , 20-C ) :   1.0549
B(  6-C ,  7-H ) :   0.9374 B(  6-C ,  8-H ) :   0.9424 B(  6-C ,  9-C ) :   1.0510
B(  9-C , 10-H ) :   0.9587 B(  9-C , 11-H ) :   0.9587 B(  9-C , 12-C ) :   1.0679
B( 12-C , 13-H ) :   0.9774 B( 12-C , 14-H ) :   0.9780 B( 12-C , 15-H ) :   0.9737
B( 16-S , 17-C ) :   1.1345 B( 16-S , 20-C ) :   1.1306 B( 17-C , 18-C ) :   1.6938
B( 17-C , 33-H ) :   0.9545 B( 18-C , 19-C ) :   1.1880 B( 18-C , 21-H ) :   0.9753
B( 19-C , 20-C ) :   1.6046 B( 19-C , 22-C ) :   1.0539 B( 22-C , 23-H ) :   0.9300
B( 22-C , 24-H ) :   0.9225 B( 22-C , 25-C ) :   1.0751 B( 25-C , 26-H ) :   0.9583
B( 25-C , 27-H ) :   0.9566 B( 25-C , 28-C ) :   1.0775 B( 28-C , 29-H ) :   0.9756
B( 28-C , 30-H ) :   0.9752 B( 28-C , 31-H ) :   0.9733

Dispersion correction           -0.013553405
FINAL SINGLE POINT ENERGY     -1339.871200535677

DIPOLE MOMENT
-------------
                                X             Y             Z
Electronic contribution:     -1.31485      13.61488      29.30403
Nuclear contribution   :      1.55598     -13.94847     -29.91196
                        -----------------------------------------
Total Dipole Moment    :      0.24113      -0.33359      -0.60793
                        -----------------------------------------
Magnitude (a.u.)       :      0.73417
Magnitude (Debye)      :      1.86611

Rotational constants in cm-1:     0.016384     0.009039     0.006264
Rotational constants in MHz :   491.174212   270.992225   187.787537

                             ****ORCA TERMINATED NORMALLY****
TOTAL RUN TIME: 0 days 0 hours 0 minutes 33 seconds 396 msec
