                         Program Version 4.2.1 -  RELEASE  -
|  1> ! wB97X-D3 SP def2-SVP
|  2> %pal
|  3> nprocs 16
|  4> end
|  5>
|  6> * xyz 0 1
|  7> S 	 10.6353 	 -11.2058 	 90.3746
|  8> C 	 11.824 	 -12.2573 	 89.7805
|  9> C 	 11.3641 	 -13.569 	 89.5853
| 10> C 	 9.93901 	 -13.5692 	 89.6909
| 11> C 	 9.31982 	 -12.4225 	 90.2184
| 12> H 	 9.3355 	 -14.3448 	 89.3591
| 13> C 	 12.1271 	 -14.7439 	 89.0336
| 14> H 	 12.2072 	 -14.5939 	 87.9533
| 15> H 	 11.4739 	 -15.6062 	 89.0864
| 16> C 	 13.5192 	 -15.0406 	 89.6624
| 17> H 	 14.0069 	 -15.8962 	 89.2152
| 18> H 	 14.2476 	 -14.1762 	 89.4992
| 19> C 	 13.4347 	 -15.4081 	 91.187
| 20> H 	 13.2541 	 -14.5808 	 91.9446
| 21> H 	 12.6297 	 -16.0858 	 91.4118
| 22> H 	 14.4126 	 -15.8585 	 91.5056
| 23> S 	 7.19409 	 -10.995 	 89.2652
| 24> C 	 5.63736 	 -11.2887 	 89.9401
| 25> C 	 5.58416 	 -12.3538 	 90.8086
| 26> C 	 6.87207 	 -12.9485 	 90.9467
| 27> C 	 7.86597 	 -12.1895 	 90.4163
| 28> H 	 4.6387 	 -12.6081 	 91.2341
| 29> C 	 7.14883 	 -14.1855 	 91.8826
| 30> H 	 7.5769 	 -15.0285 	 91.2751
| 31> H 	 6.21657 	 -14.5108 	 92.2203
| 32> C 	 8.09757 	 -13.8372 	 93.0494
| 33> H 	 7.591 	 -13.063 	 93.6108
| 34> H 	 9.06636 	 -13.4399 	 92.8219
| 35> C 	 8.35908 	 -14.9709 	 94.0479
| 36> H 	 7.47239 	 -15.457 	 94.4145
| 37> H 	 8.90907 	 -14.5824 	 94.8558
| 38> H 	 8.89307 	 -15.7873 	 93.6175
| 39> H 	 12.8054 	 -11.848 	 89.5939
| 40> H 	 4.77563 	 -10.6859 	 89.5816
| 41> *
| 42>
| 43>                          ****END OF INPUT****

CARTESIAN COORDINATES (ANGSTROEM)
---------------------------------
  S     10.635300  -11.205800   90.374600
  C     11.824000  -12.257300   89.780500
  C     11.364100  -13.569000   89.585300
  C      9.939010  -13.569200   89.690900
  C      9.319820  -12.422500   90.218400
  H      9.335500  -14.344800   89.359100
  C     12.127100  -14.743900   89.033600
  H     12.207200  -14.593900   87.953300
  H     11.473900  -15.606200   89.086400
  C     13.519200  -15.040600   89.662400
  H     14.006900  -15.896200   89.215200
  H     14.247600  -14.176200   89.499200
  C     13.434700  -15.408100   91.187000
  H     13.254100  -14.580800   91.944600
  H     12.629700  -16.085800   91.411800
  H     14.412600  -15.858500   91.505600
  S      7.194090  -10.995000   89.265200
  C      5.637360  -11.288700   89.940100
  C      5.584160  -12.353800   90.808600
  C      6.872070  -12.948500   90.946700
  C      7.865970  -12.189500   90.416300
  H      4.638700  -12.608100   91.234100
  C      7.148830  -14.185500   91.882600
  H      7.576900  -15.028500   91.275100
  H      6.216570  -14.510800   92.220300
  C      8.097570  -13.837200   93.049400
  H      7.591000  -13.063000   93.610800
  H      9.066360  -13.439900   92.821900
  C      8.359080  -14.970900   94.047900
  H      7.472390  -15.457000   94.414500
  H      8.909070  -14.582400   94.855800
  H      8.893070  -15.787300   93.617500
  H     12.805400  -11.848000   89.593900
  H      4.775630  -10.685900   89.581600

 Total Charge           Charge          ....    0
 Multiplicity           Mult            ....    1
 Number of Electrons    NEL             ....  134
 Basis Dimension        Dim             ....  322

ORBITAL ENERGIES
----------------

  NO   OCC          E(Eh)            E(eV)
   0   2.0000     -88.964553     -2420.8486
   1   2.0000     -88.961003     -2420.7520
   2   2.0000     -10.331529      -281.1352
   3   2.0000     -10.325611      -280.9742
   4   2.0000     -10.317199      -280.7452
   5   2.0000     -10.313264      -280.6382
   6   2.0000     -10.306669      -280.4587
   7   2.0000     -10.302455      -280.3441
   8   2.0000     -10.299508      -280.2639
   9   2.0000     -10.295325      -280.1500
  10   2.0000     -10.295218      -280.1471
  11   2.0000     -10.293337      -280.0959
  12   2.0000     -10.290082      -280.0074
  13   2.0000     -10.283720      -279.8342
  14   2.0000     -10.278236      -279.6850
  15   2.0000     -10.264519      -279.3118
  16   2.0000      -8.079365      -219.8507
  17   2.0000      -8.076244      -219.7658
  18   2.0000      -6.037835      -164.2978
  19   2.0000      -6.034603      -164.2099
  20   2.0000      -6.033611      -164.1829
  21   2.0000      -6.030874      -164.1084
  22   2.0000      -6.030419      -164.0961
  23   2.0000      -6.026930      -164.0011
  24   2.0000      -1.003715       -27.3125
  25   2.0000      -0.984804       -26.7979
  26   2.0000      -0.904548       -24.6140
  27   2.0000      -0.903107       -24.5748
  28   2.0000      -0.864219       -23.5166
  29   2.0000      -0.851342       -23.1662
  30   2.0000      -0.845682       -23.0122
  31   2.0000      -0.809465       -22.0267
  32   2.0000      -0.783063       -21.3082
  33   2.0000      -0.770985       -20.9796
  34   2.0000      -0.705079       -19.1862
  35   2.0000      -0.703430       -19.1413
  36   2.0000      -0.686900       -18.6915
  37   2.0000      -0.662777       -18.0351
  38   2.0000      -0.646609       -17.5951
  39   2.0000      -0.609198       -16.5771
  40   2.0000      -0.591853       -16.1051
  41   2.0000      -0.571832       -15.5603
  42   2.0000      -0.561899       -15.2900
  43   2.0000      -0.548752       -14.9323
  44   2.0000      -0.538837       -14.6625
  45   2.0000      -0.528044       -14.3688
  46   2.0000      -0.509281       -13.8582
  47   2.0000      -0.506241       -13.7755
  48   2.0000      -0.501276       -13.6404
  49   2.0000      -0.494927       -13.4676
  50   2.0000      -0.488788       -13.3006
  51   2.0000      -0.478996       -13.0341
  52   2.0000      -0.474149       -12.9023
  53   2.0000      -0.463679       -12.6173
  54   2.0000      -0.457992       -12.4626
  55   2.0000      -0.445297       -12.1172
  56   2.0000      -0.439992       -11.9728
  57   2.0000      -0.435161       -11.8413
  58   2.0000      -0.432760       -11.7760
  59   2.0000      -0.429370       -11.6838
  60   2.0000      -0.420118       -11.4320
  61   2.0000      -0.416482       -11.3331
  62   2.0000      -0.414550       -11.2805
  63   2.0000      -0.340636        -9.2692
  64   2.0000      -0.331425        -9.0185
  65   2.0000      -0.323413        -8.8005
  66   2.0000      -0.294570        -8.0156
  67   0.0000       0.029725         0.8089
  68   0.0000       0.067082         1.8254
  69   0.0000       0.108998         2.9660
  70   0.0000       0.122016         3.3202
  71   0.0000       0.128401         3.4940

MULLIKEN ATOMIC CHARGES
-----------------------
   0 S :    0.111951
   1 C :   -0.137235
   2 C :   -0.065638
   3 C :    0.042868
   4 C :   -0.174826
   5 H :   -0.012210
   6 C :    0.060048
   7 H :    0.045574
   8 H :    0.015762
   9 C :   -0.067751
  10 H :    0.033120
  11 H :    0.041537
  12 C :   -0.093667
  13 H :    0.046396
  14 H :    0.028866
  15 H :    0.038223
  16 S :    0.097698
  17 C :   -0.101901
  18 C :   -0.022683
  19 C :   -0.040923
  20 C :   -0.144090
  21 H :    0.011683
  22 C :    0.109005
  23 H :    0.033302
  24 H :   -0.005084
  25 C :   -0.079298
  26 H :    0.023573
  27 H :    0.041355
  28 C :   -0.012277
  29 H :    0.011402
  30 H :    0.025559
  31 H :    0.015479
  32 H :    0.055970
  33 H :    0.068211
Sum of atomic charges:   -0.0000000

LOEWDIN ATOMIC CHARGES
----------------------
   0 S :    0.412863
   1 C :   -0.205127
   2 C :   -0.068762
   3 C :   -0.049406
   4 C :   -0.198544
   5 H :    0.017158
   6 C :   -0.036134
   7 H :    0.038428
   8 H :    0.028286
   9 C :   -0.041465
  10 H :    0.025801
  11 H :    0.030687
  12 C :   -0.078256
  13 H :    0.032021
  14 H :    0.020522
  15 H :    0.029570
  16 S :    0.399016
  17 C :   -0.184233
  18 C :   -0.076803
  19 C :   -0.046828
  20 C :   -0.187228
  21 H :    0.030821
  22 C :   -0.018010
  23 H :    0.033295
  24 H :    0.017485
  25 C :   -0.035299
  26 H :    0.024368
  27 H :    0.025549
  28 C :   -0.058275
  29 H :    0.019018
  30 H :    0.022800
  31 H :    0.018706
  32 H :    0.025255
  33 H :    0.032722

  Mayer bond orders larger than 0.100000
B(  0-S ,  1-C ) :   1.1887 B(  0-S ,  4-C ) :   1.1396 B(  1-C ,  2-C ) :   1.5384
B(  1-C ,  4-C ) :   0.1018 B(  1-C , 32-H ) :   0.9719 B(  2-C ,  3-C ) :   1.2743
B(  2-C ,  6-C ) :   1.0209 B(  3-C ,  4-C ) :   1.5560 B(  3-C ,  5-H ) :   0.9985
B(  4-C , 20-C ) :   1.0292 B(  6-C ,  7-H ) :   0.9366 B(  6-C ,  8-H ) :   0.9415
B(  6-C ,  9-C ) :   1.0740 B(  9-C , 10-H ) :   0.9584 B(  9-C , 11-H ) :   0.9562
B(  9-C , 12-C ) :   1.0603 B( 12-C , 13-H ) :   0.9757 B( 12-C , 14-H ) :   0.9779
B( 12-C , 15-H ) :   0.9780 B( 16-S , 17-C ) :   1.1754 B( 16-S , 20-C ) :   1.1303
B( 17-C , 18-C ) :   1.6140 B( 17-C , 33-H ) :   0.9600 B( 18-C , 19-C ) :   1.2092
B( 18-C , 21-H ) :   1.0012 B( 19-C , 20-C ) :   1.6307 B( 19-C , 22-C ) :   1.0329
B( 22-C , 23-H ) :   0.9341 B( 22-C , 24-H ) :   0.9356 B( 22-C , 25-C ) :   1.0644
B( 25-C , 26-H ) :   0.9553 B( 25-C , 27-H ) :   0.9541 B( 25-C , 28-C ) :   1.0942
B( 28-C , 29-H ) :   0.9725 B( 28-C , 30-H ) :   0.9731 B( 28-C , 31-H ) :   0.9734

Dispersion correction           -0.014676985
FINAL SINGLE POINT ENERGY     -1339.872714237706

DIPOLE MOMENT
-------------
                                X             Y             Z
Electronic contribution:    -11.51183      23.24227     -12.74350
Nuclear contribution   :     11.50506     -23.84295      12.70767
                        -----------------------------------------
Total Dipole Moment    :     -0.00677      -0.60068      -0.03583
                        -----------------------------------------
Magnitude (a.u.)       :      0.60178
Magnitude (Debye)      :      1.52961

Rotational constants in cm-1:     0.019391     0.008919     0.006944
Rotational constants in MHz :   581.314325   267.372748   208.187749

                             ****ORCA TERMINATED NORMALLY****
TOTAL RUN TIME: 0 days 0 hours 0 minutes 34 seconds 510 msec
