                         Program Version 4.2.1 -  RELEASE  -
|  1> ! wB97X-D3 SP def2-SVP
|  2> %pal
|  3> nprocs 16
|  4> end
|  5>
|  6> * xyz 0 1
|  7> S 	 16.5795 	 4.767 	 85.8059
|  8> C 	 17.4103 	 6.19511 	 86.2921
|  9> C 	 16.5299 	 7.06655 	 86.8159
| 10> C 	 15.156 	 6.75329 	 86.7792
| 11> C 	 14.9988 	 5.4891 	 86.2131
| 12> H 	 14.2386 	 7.34714 	 87.0731
| 13> C 	 16.9008 	 8.42193 	 87.4611
| 14> H 	 17.8889 	 8.38377 	 87.8819
| 15> H 	 16.3854 	 8.50403 	 88.394
| 16> C 	 16.9647 	 9.84315 	 86.754
| 17> H 	 16.0863 	 10.3216 	 86.319
| 18> H 	 17.2029 	 10.5056 	 87.6094
| 19> C 	 18.0295 	 9.79158 	 85.6482
| 20> H 	 18.2336 	 10.811 	 85.2973
| 21> H 	 19.0734 	 9.43449 	 86.0359
| 22> H 	 17.6231 	 9.08434 	 84.8812
| 23> S 	 13.7074 	 3.42118 	 87.2454
| 24> C 	 12.0896 	 2.89566 	 86.6252
| 25> C 	 11.8018 	 3.63254 	 85.4924
| 26> C 	 12.7346 	 4.68026 	 85.2599
| 27> C 	 13.8153 	 4.71323 	 86.1325
| 28> H 	 10.8922 	 3.42248 	 84.9879
| 29> C 	 12.5281 	 5.58733 	 84.0882
| 30> H 	 12.1676 	 5.07578 	 83.2898
| 31> H 	 13.5151 	 6.02831 	 83.7872
| 32> C 	 11.5066 	 6.66147 	 84.4599
| 33> H 	 10.589 	 6.0744 	 84.7154
| 34> H 	 11.3046 	 7.22622 	 83.574
| 35> C 	 11.9207 	 7.7553 	 85.509
| 36> H 	 12.9209 	 7.99358 	 85.3149
| 37> H 	 11.6781 	 7.37224 	 86.5311
| 38> H 	 11.2747 	 8.62599 	 85.3552
| 39> H 	 18.4567 	 6.37295 	 86.3694
| 40> H 	 11.4665 	 2.22763 	 87.0835
| 41> *
| 42>
| 43>                          ****END OF INPUT****

CARTESIAN COORDINATES (ANGSTROEM)
---------------------------------
  S     16.579500    4.767000   85.805900
  C     17.410300    6.195110   86.292100
  C     16.529900    7.066550   86.815900
  C     15.156000    6.753290   86.779200
  C     14.998800    5.489100   86.213100
  H     14.238600    7.347140   87.073100
  C     16.900800    8.421930   87.461100
  H     17.888900    8.383770   87.881900
  H     16.385400    8.504030   88.394000
  C     16.964700    9.843150   86.754000
  H     16.086300   10.321600   86.319000
  H     17.202900   10.505600   87.609400
  C     18.029500    9.791580   85.648200
  H     18.233600   10.811000   85.297300
  H     19.073400    9.434490   86.035900
  H     17.623100    9.084340   84.881200
  S     13.707400    3.421180   87.245400
  C     12.089600    2.895660   86.625200
  C     11.801800    3.632540   85.492400
  C     12.734600    4.680260   85.259900
  C     13.815300    4.713230   86.132500
  H     10.892200    3.422480   84.987900
  C     12.528100    5.587330   84.088200
  H     12.167600    5.075780   83.289800
  H     13.515100    6.028310   83.787200
  C     11.506600    6.661470   84.459900
  H     10.589000    6.074400   84.715400
  H     11.304600    7.226220   83.574000
  C     11.920700    7.755300   85.509000
  H     12.920900    7.993580   85.314900
  H     11.678100    7.372240   86.531100
  H     11.274700    8.625990   85.355200
  H     18.456700    6.372950   86.369400
  H     11.466500    2.227630   87.083500

 Total Charge           Charge          ....    0
 Multiplicity           Mult            ....    1
 Number of Electrons    NEL             ....  134
 Basis Dimension        Dim             ....  322

ORBITAL ENERGIES
----------------

  NO   OCC          E(Eh)            E(eV)
   0   2.0000     -88.966988     -2420.9148
   1   2.0000     -88.960981     -2420.7514
   2   2.0000     -10.329430      -281.0781
   3   2.0000     -10.319135      -280.7979
   4   2.0000     -10.316025      -280.7133
   5   2.0000     -10.308890      -280.5191
   6   2.0000     -10.299317      -280.2587
   7   2.0000     -10.298917      -280.2478
   8   2.0000     -10.296948      -280.1942
   9   2.0000     -10.292543      -280.0743
  10   2.0000     -10.292482      -280.0727
  11   2.0000     -10.287290      -279.9314
  12   2.0000     -10.287097      -279.9261
  13   2.0000     -10.284752      -279.8623
  14   2.0000     -10.280606      -279.7495
  15   2.0000     -10.279051      -279.7072
  16   2.0000      -8.081659      -219.9131
  17   2.0000      -8.075778      -219.7531
  18   2.0000      -6.040211      -164.3625
  19   2.0000      -6.036139      -164.2517
  20   2.0000      -6.034336      -164.2026
  21   2.0000      -6.032389      -164.1496
  22   2.0000      -6.030114      -164.0877
  23   2.0000      -6.026620      -163.9927
  24   2.0000      -1.011348       -27.5202
  25   2.0000      -0.986479       -26.8435
  26   2.0000      -0.910478       -24.7754
  27   2.0000      -0.902052       -24.5461
  28   2.0000      -0.877346       -23.8738
  29   2.0000      -0.848596       -23.0915
  30   2.0000      -0.841573       -22.9004
  31   2.0000      -0.818078       -22.2610
  32   2.0000      -0.780960       -21.2510
  33   2.0000      -0.772841       -21.0301
  34   2.0000      -0.713902       -19.4263
  35   2.0000      -0.694018       -18.8852
  36   2.0000      -0.692177       -18.8351
  37   2.0000      -0.666662       -18.1408
  38   2.0000      -0.643098       -17.4996
  39   2.0000      -0.616953       -16.7881
  40   2.0000      -0.598336       -16.2816
  41   2.0000      -0.572428       -15.5766
  42   2.0000      -0.557054       -15.1582
  43   2.0000      -0.547254       -14.8915
  44   2.0000      -0.544349       -14.8125
  45   2.0000      -0.532705       -14.4956
  46   2.0000      -0.527392       -14.3511
  47   2.0000      -0.514859       -14.0100
  48   2.0000      -0.505970       -13.7681
  49   2.0000      -0.499718       -13.5980
  50   2.0000      -0.490680       -13.3521
  51   2.0000      -0.476634       -12.9699
  52   2.0000      -0.469882       -12.7861
  53   2.0000      -0.466017       -12.6810
  54   2.0000      -0.452676       -12.3179
  55   2.0000      -0.445113       -12.1121
  56   2.0000      -0.436945       -11.8899
  57   2.0000      -0.432895       -11.7797
  58   2.0000      -0.428334       -11.6556
  59   2.0000      -0.424340       -11.5469
  60   2.0000      -0.417917       -11.3721
  61   2.0000      -0.411239       -11.1904
  62   2.0000      -0.408350       -11.1118
  63   2.0000      -0.344149        -9.3648
  64   2.0000      -0.330166        -8.9843
  65   2.0000      -0.324558        -8.8317
  66   2.0000      -0.301152        -8.1948
  67   0.0000       0.039591         1.0773
  68   0.0000       0.053058         1.4438
  69   0.0000       0.114872         3.1258
  70   0.0000       0.123122         3.3503
  71   0.0000       0.128951         3.5089

MULLIKEN ATOMIC CHARGES
-----------------------
   0 S :    0.119395
   1 C :   -0.084076
   2 C :   -0.085136
   3 C :    0.039834
   4 C :   -0.184555
   5 H :    0.046841
   6 C :    0.056400
   7 H :   -0.001235
   8 H :    0.015332
   9 C :   -0.058666
  10 H :    0.029525
  11 H :    0.028774
  12 C :   -0.096584
  13 H :    0.038759
  14 H :    0.032130
  15 H :    0.060580
  16 S :    0.098539
  17 C :   -0.068026
  18 C :   -0.022917
  19 C :   -0.033935
  20 C :   -0.173436
  21 H :    0.013021
  22 C :    0.127059
  23 H :   -0.005328
  24 H :    0.030557
  25 C :   -0.106507
  26 H :    0.027339
  27 H :    0.020146
  28 C :   -0.041233
  29 H :    0.031440
  30 H :    0.051545
  31 H :    0.035634
  32 H :    0.033833
  33 H :    0.024949
Sum of atomic charges:    0.0000000

LOEWDIN ATOMIC CHARGES
----------------------
   0 S :    0.407652
   1 C :   -0.199828
   2 C :   -0.073586
   3 C :   -0.056327
   4 C :   -0.187558
   5 H :    0.051307
   6 C :   -0.038714
   7 H :    0.026160
   8 H :    0.026426
   9 C :   -0.042438
  10 H :    0.020711
  11 H :    0.026797
  12 C :   -0.077076
  13 H :    0.024317
  14 H :    0.028200
  15 H :    0.035170
  16 S :    0.403691
  17 C :   -0.149443
  18 C :   -0.063244
  19 C :   -0.053706
  20 C :   -0.222660
  21 H :    0.028127
  22 C :   -0.025138
  23 H :    0.017200
  24 H :    0.033126
  25 C :   -0.036795
  26 H :    0.024513
  27 H :    0.016759
  28 C :   -0.061516
  29 H :    0.016327
  30 H :    0.031927
  31 H :    0.029617
  32 H :    0.029537
  33 H :    0.010465

  Mayer bond orders larger than 0.100000
B(  0-S ,  1-C ) :   1.1239 B(  0-S ,  4-C ) :   1.1494 B(  1-C ,  2-C ) :   1.6357
B(  1-C , 32-H ) :   0.9683 B(  2-C ,  3-C ) :   1.2253 B(  2-C ,  6-C ) :   1.0171
B(  3-C ,  4-C ) :   1.5777 B(  3-C ,  5-H ) :   0.9817 B(  4-C , 20-C ) :   1.0394
B(  6-C ,  7-H ) :   0.9376 B(  6-C ,  8-H ) :   0.9417 B(  6-C ,  9-C ) :   1.0528
B(  9-C , 10-H ) :   0.9605 B(  9-C , 11-H ) :   0.9524 B(  9-C , 12-C ) :   1.0689
B( 12-C , 13-H ) :   0.9740 B( 12-C , 14-H ) :   0.9752 B( 12-C , 15-H ) :   0.9740
B( 16-S , 17-C ) :   1.1496 B( 16-S , 20-C ) :   1.1515 B( 17-C , 18-C ) :   1.6001
B( 17-C , 20-C ) :   0.1063 B( 17-C , 33-H ) :   0.9826 B( 18-C , 19-C ) :   1.2379
B( 18-C , 21-H ) :   0.9933 B( 19-C , 20-C ) :   1.5833 B( 19-C , 22-C ) :   1.0535
B( 22-C , 23-H ) :   0.9238 B( 22-C , 24-H ) :   0.9302 B( 22-C , 25-C ) :   1.0802
B( 25-C , 26-H ) :   0.9579 B( 25-C , 27-H ) :   0.9583 B( 25-C , 28-C ) :   1.0647
B( 28-C , 29-H ) :   0.9701 B( 28-C , 30-H ) :   0.9734 B( 28-C , 31-H ) :   0.9742

Dispersion correction           -0.015258519
FINAL SINGLE POINT ENERGY     -1339.852265240252

DIPOLE MOMENT
-------------
                                X             Y             Z
Electronic contribution:      1.97337     -26.73474       4.88785
Nuclear contribution   :     -2.31702      27.23224      -4.96308
                        -----------------------------------------
Total Dipole Moment    :     -0.34366       0.49750      -0.07522
                        -----------------------------------------
Magnitude (a.u.)       :      0.60932
Magnitude (Debye)      :      1.54876

Rotational constants in cm-1:     0.021543     0.008813     0.007101
Rotational constants in MHz :   645.838521   264.204623   212.868822

                             ****ORCA TERMINATED NORMALLY****
TOTAL RUN TIME: 0 days 0 hours 0 minutes 37 seconds 252 msec
