                         Program Version 4.2.1 -  RELEASE  -
|  1> ! wB97X-D3 SP def2-SVP
|  2> %pal
|  3> nprocs 16
|  4> end
|  5>
|  6> * xyz 0 1
|  7> S 	 -70.465 	 47.7213 	 135.277
|  8> C 	 -70.533 	 49.1379 	 134.233
|  9> C 	 -71.3146 	 48.9985 	 133.105
| 10> C 	 -71.7216 	 47.6543 	 132.889
| 11> C 	 -71.4553 	 46.9239 	 134.068
| 12> H 	 -72.1925 	 47.3497 	 131.967
| 13> C 	 -71.5167 	 50.1129 	 132.104
| 14> H 	 -71.3893 	 49.7585 	 131.137
| 15> H 	 -70.7384 	 50.8652 	 132.237
| 16> C 	 -72.9447 	 50.669 	 132.062
| 17> H 	 -73.6229 	 49.8722 	 131.731
| 18> H 	 -73.2905 	 50.8684 	 133.087
| 19> C 	 -73.1733 	 51.8717 	 131.104
| 20> H 	 -74.1717 	 52.1687 	 131.136
| 21> H 	 -72.6404 	 52.8141 	 131.334
| 22> H 	 -72.8404 	 51.6365 	 130.141
| 23> S 	 -73.5723 	 45.1176 	 134.435
| 24> C 	 -73.2031 	 43.4446 	 134.607
| 25> C 	 -71.9066 	 43.176 	 134.476
| 26> C 	 -71.1318 	 44.3338 	 134.204
| 27> C 	 -71.8305 	 45.5233 	 134.203
| 28> H 	 -71.4545 	 42.2072 	 134.595
| 29> C 	 -69.5906 	 44.2538 	 134.093
| 30> H 	 -69.2951 	 43.2558 	 134.367
| 31> H 	 -69.1877 	 45.027 	 134.721
| 32> C 	 -69.0468 	 44.5661 	 132.684
| 33> H 	 -69.4981 	 45.51 	 132.396
| 34> H 	 -69.4806 	 43.7685 	 132.049
| 35> C 	 -67.479 	 44.4622 	 132.558
| 36> H 	 -67.0284 	 43.5785 	 133.042
| 37> H 	 -66.937 	 45.3176 	 132.82
| 38> H 	 -67.2901 	 44.1657 	 131.519
| 39> H 	 -70.1611 	 50.0664 	 134.51
| 40> H 	 -73.9571 	 42.6601 	 134.554
| 41> *
| 42>
| 43>                          ****END OF INPUT****

CARTESIAN COORDINATES (ANGSTROEM)
---------------------------------
  S    -70.465000   47.721300  135.277000
  C    -70.533000   49.137900  134.233000
  C    -71.314600   48.998500  133.105000
  C    -71.721600   47.654300  132.889000
  C    -71.455300   46.923900  134.068000
  H    -72.192500   47.349700  131.967000
  C    -71.516700   50.112900  132.104000
  H    -71.389300   49.758500  131.137000
  H    -70.738400   50.865200  132.237000
  C    -72.944700   50.669000  132.062000
  H    -73.622900   49.872200  131.731000
  H    -73.290500   50.868400  133.087000
  C    -73.173300   51.871700  131.104000
  H    -74.171700   52.168700  131.136000
  H    -72.640400   52.814100  131.334000
  H    -72.840400   51.636500  130.141000
  S    -73.572300   45.117600  134.435000
  C    -73.203100   43.444600  134.607000
  C    -71.906600   43.176000  134.476000
  C    -71.131800   44.333800  134.204000
  C    -71.830500   45.523300  134.203000
  H    -71.454500   42.207200  134.595000
  C    -69.590600   44.253800  134.093000
  H    -69.295100   43.255800  134.367000
  H    -69.187700   45.027000  134.721000
  C    -69.046800   44.566100  132.684000
  H    -69.498100   45.510000  132.396000
  H    -69.480600   43.768500  132.049000
  C    -67.479000   44.462200  132.558000
  H    -67.028400   43.578500  133.042000
  H    -66.937000   45.317600  132.820000
  H    -67.290100   44.165700  131.519000
  H    -70.161100   50.066400  134.510000
  H    -73.957100   42.660100  134.554000

 Total Charge           Charge          ....    0
 Multiplicity           Mult            ....    1
 Number of Electrons    NEL             ....  134
 Basis Dimension        Dim             ....  322

ORBITAL ENERGIES
----------------

  NO   OCC          E(Eh)            E(eV)
   0   2.0000     -88.976503     -2421.1737
   1   2.0000     -88.957999     -2420.6702
   2   2.0000     -10.334706      -281.2216
   3   2.0000     -10.321491      -280.8620
   4   2.0000     -10.309549      -280.5371
   5   2.0000     -10.308818      -280.5172
   6   2.0000     -10.300994      -280.3043
   7   2.0000     -10.299588      -280.2660
   8   2.0000     -10.296757      -280.1890
   9   2.0000     -10.289667      -279.9961
  10   2.0000     -10.287003      -279.9236
  11   2.0000     -10.284046      -279.8431
  12   2.0000     -10.283566      -279.8301
  13   2.0000     -10.282572      -279.8030
  14   2.0000     -10.275084      -279.5992
  15   2.0000     -10.273661      -279.5605
  16   2.0000      -8.090405      -220.1511
  17   2.0000      -8.072894      -219.6746
  18   2.0000      -6.048727      -164.5942
  19   2.0000      -6.045255      -164.4997
  20   2.0000      -6.041197      -164.3893
  21   2.0000      -6.031404      -164.1228
  22   2.0000      -6.027402      -164.0140
  23   2.0000      -6.023616      -163.9109
  24   2.0000      -1.005164       -27.3519
  25   2.0000      -0.985475       -26.8161
  26   2.0000      -0.913584       -24.8599
  27   2.0000      -0.899393       -24.4737
  28   2.0000      -0.868028       -23.6203
  29   2.0000      -0.855381       -23.2761
  30   2.0000      -0.841476       -22.8977
  31   2.0000      -0.814407       -22.1611
  32   2.0000      -0.787055       -21.4169
  33   2.0000      -0.772137       -21.0109
  34   2.0000      -0.710497       -19.3336
  35   2.0000      -0.702151       -19.1065
  36   2.0000      -0.687514       -18.7082
  37   2.0000      -0.661175       -17.9915
  38   2.0000      -0.644180       -17.5290
  39   2.0000      -0.619761       -16.8646
  40   2.0000      -0.592249       -16.1159
  41   2.0000      -0.574786       -15.6407
  42   2.0000      -0.567053       -15.4303
  43   2.0000      -0.554508       -15.0889
  44   2.0000      -0.529253       -14.4017
  45   2.0000      -0.522418       -14.2157
  46   2.0000      -0.512729       -13.9521
  47   2.0000      -0.506237       -13.7754
  48   2.0000      -0.502281       -13.6678
  49   2.0000      -0.497961       -13.5502
  50   2.0000      -0.489357       -13.3161
  51   2.0000      -0.480605       -13.0779
  52   2.0000      -0.476598       -12.9689
  53   2.0000      -0.471596       -12.8328
  54   2.0000      -0.459469       -12.5028
  55   2.0000      -0.453878       -12.3506
  56   2.0000      -0.447422       -12.1750
  57   2.0000      -0.440999       -12.0002
  58   2.0000      -0.431890       -11.7523
  59   2.0000      -0.424628       -11.5547
  60   2.0000      -0.417885       -11.3712
  61   2.0000      -0.415996       -11.3198
  62   2.0000      -0.407201       -11.0805
  63   2.0000      -0.339671        -9.2429
  64   2.0000      -0.329744        -8.9728
  65   2.0000      -0.325493        -8.8571
  66   2.0000      -0.301730        -8.2105
  67   0.0000       0.032457         0.8832
  68   0.0000       0.063695         1.7332
  69   0.0000       0.103063         2.8045
  70   0.0000       0.114891         3.1264
  71   0.0000       0.128637         3.5004

MULLIKEN ATOMIC CHARGES
-----------------------
   0 S :    0.138196
   1 C :   -0.095920
   2 C :   -0.084110
   3 C :    0.042050
   4 C :   -0.170710
   5 H :    0.024504
   6 C :    0.114537
   7 H :   -0.002157
   8 H :    0.018072
   9 C :   -0.108253
  10 H :    0.027777
  11 H :    0.029204
  12 C :    0.001001
  13 H :    0.025349
  14 H :    0.024324
  15 H :    0.014233
  16 S :    0.092347
  17 C :   -0.071647
  18 C :   -0.030780
  19 C :   -0.042588
  20 C :   -0.183976
  21 H :    0.010058
  22 C :    0.113328
  23 H :    0.001782
  24 H :    0.016411
  25 C :   -0.100356
  26 H :    0.038366
  27 H :    0.023591
  28 C :   -0.022422
  29 H :    0.021381
  30 H :    0.037304
  31 H :    0.025180
  32 H :    0.015556
  33 H :    0.058366
Sum of atomic charges:   -0.0000000

LOEWDIN ATOMIC CHARGES
----------------------
   0 S :    0.415934
   1 C :   -0.184908
   2 C :   -0.055019
   3 C :   -0.044660
   4 C :   -0.192598
   5 H :    0.035957
   6 C :   -0.027386
   7 H :    0.020740
   8 H :    0.029636
   9 C :   -0.037645
  10 H :    0.025617
  11 H :    0.022516
  12 C :   -0.057729
  13 H :    0.021632
  14 H :    0.028300
  15 H :    0.016666
  16 S :    0.388006
  17 C :   -0.187218
  18 C :   -0.079575
  19 C :   -0.053548
  20 C :   -0.193758
  21 H :    0.030923
  22 C :   -0.025682
  23 H :    0.020174
  24 H :    0.020158
  25 C :   -0.036814
  26 H :    0.023965
  27 H :    0.023775
  28 C :   -0.066490
  29 H :    0.028400
  30 H :    0.017694
  31 H :    0.030520
  32 H :    0.009747
  33 H :    0.032668

  Mayer bond orders larger than 0.100000
B(  0-S ,  1-C ) :   1.1270 B(  0-S ,  4-C ) :   1.1640 B(  1-C ,  2-C ) :   1.6256
B(  1-C , 32-H ) :   0.9692 B(  2-C ,  3-C ) :   1.2361 B(  2-C ,  6-C ) :   1.0374
B(  3-C ,  4-C ) :   1.5539 B(  3-C ,  5-H ) :   0.9924 B(  4-C , 20-C ) :   1.0360
B(  6-C ,  7-H ) :   0.9295 B(  6-C ,  8-H ) :   0.9447 B(  6-C ,  9-C ) :   1.0476
B(  9-C , 10-H ) :   0.9549 B(  9-C , 11-H ) :   0.9603 B(  9-C , 12-C ) :   1.0806
B( 12-C , 13-H ) :   0.9741 B( 12-C , 14-H ) :   0.9747 B( 12-C , 15-H ) :   0.9727
B( 16-S , 17-C ) :   1.1610 B( 16-S , 20-C ) :   1.1183 B( 17-C , 18-C ) :   1.6142
B( 17-C , 33-H ) :   0.9564 B( 18-C , 19-C ) :   1.2546 B( 18-C , 21-H ) :   0.9920
B( 19-C , 20-C ) :   1.6108 B( 19-C , 22-C ) :   1.0364 B( 22-C , 23-H ) :   0.9329
B( 22-C , 24-H ) :   0.9338 B( 22-C , 25-C ) :   1.0632 B( 25-C , 26-H ) :   0.9611
B( 25-C , 27-H ) :   0.9585 B( 25-C , 28-C ) :   1.0707 B( 28-C , 29-H ) :   0.9717
B( 28-C , 30-H ) :   0.9795 B( 28-C , 31-H ) :   0.9761

Dispersion correction           -0.014318128
FINAL SINGLE POINT ENERGY     -1339.870731786835

DIPOLE MOMENT
-------------
                                X             Y             Z
Electronic contribution:     -8.99667      -8.98674      16.97534
Nuclear contribution   :      9.20536       9.11008     -17.44335
                        -----------------------------------------
Total Dipole Moment    :      0.20870       0.12334      -0.46801
                        -----------------------------------------
Magnitude (a.u.)       :      0.52707
Magnitude (Debye)      :      1.33969

Rotational constants in cm-1:     0.018660     0.008054     0.006700
Rotational constants in MHz :   559.400744   241.460643   200.865179

                             ****ORCA TERMINATED NORMALLY****
TOTAL RUN TIME: 0 days 0 hours 0 minutes 34 seconds 911 msec
