                         Program Version 4.2.1 -  RELEASE  -
|  1> ! wB97X-D3 SP def2-SVP
|  2> %pal
|  3> nprocs 16
|  4> end
|  5>
|  6> * xyz 0 1
|  7> S 	 -73.7463 	 52.4392 	 137.237
|  8> C 	 -74.2155 	 51.3959 	 138.61
|  9> C 	 -74.6499 	 50.2058 	 138.175
| 10> C 	 -74.842 	 50.1827 	 136.706
| 11> C 	 -74.4939 	 51.3587 	 136.102
| 12> H 	 -75.0557 	 49.3687 	 135.993
| 13> C 	 -75.0972 	 49.0203 	 138.974
| 14> H 	 -76.1292 	 48.7274 	 138.636
| 15> H 	 -75.2863 	 49.349 	 140.033
| 16> C 	 -74.1786 	 47.8269 	 139.06
| 17> H 	 -74.1381 	 47.2042 	 138.171
| 18> H 	 -73.12 	 48.1387 	 139.18
| 19> C 	 -74.4131 	 46.7667 	 140.22
| 20> H 	 -73.6149 	 45.9691 	 140.118
| 21> H 	 -74.2593 	 47.3138 	 141.115
| 22> H 	 -75.3988 	 46.3631 	 140.35
| 23> S 	 -73.5416 	 52.1824 	 133.625
| 24> C 	 -74.6805 	 52.2091 	 132.33
| 25> C 	 -75.939 	 51.9365 	 132.7
| 26> C 	 -76.0499 	 51.7549 	 134.084
| 27> C 	 -74.7803 	 51.7686 	 134.715
| 28> H 	 -76.7266 	 51.796 	 131.919
| 29> C 	 -77.4095 	 51.4784 	 134.701
| 30> H 	 -77.4898 	 50.5379 	 135.22
| 31> H 	 -78.1151 	 51.2593 	 133.907
| 32> C 	 -77.8873 	 52.5706 	 135.693
| 33> H 	 -78.1477 	 53.4463 	 135.246
| 34> H 	 -77.0509 	 52.9542 	 136.369
| 35> C 	 -79.159 	 52.0613 	 136.535
| 36> H 	 -79.9925 	 51.6807 	 135.977
| 37> H 	 -79.4794 	 52.8536 	 137.175
| 38> H 	 -78.9335 	 51.329 	 137.279
| 39> H 	 -74.1448 	 51.7582 	 139.629
| 40> H 	 -74.3528 	 52.3125 	 131.304
| 41> *
| 42>
| 43>                          ****END OF INPUT****

CARTESIAN COORDINATES (ANGSTROEM)
---------------------------------
  S    -73.746300   52.439200  137.237000
  C    -74.215500   51.395900  138.610000
  C    -74.649900   50.205800  138.175000
  C    -74.842000   50.182700  136.706000
  C    -74.493900   51.358700  136.102000
  H    -75.055700   49.368700  135.993000
  C    -75.097200   49.020300  138.974000
  H    -76.129200   48.727400  138.636000
  H    -75.286300   49.349000  140.033000
  C    -74.178600   47.826900  139.060000
  H    -74.138100   47.204200  138.171000
  H    -73.120000   48.138700  139.180000
  C    -74.413100   46.766700  140.220000
  H    -73.614900   45.969100  140.118000
  H    -74.259300   47.313800  141.115000
  H    -75.398800   46.363100  140.350000
  S    -73.541600   52.182400  133.625000
  C    -74.680500   52.209100  132.330000
  C    -75.939000   51.936500  132.700000
  C    -76.049900   51.754900  134.084000
  C    -74.780300   51.768600  134.715000
  H    -76.726600   51.796000  131.919000
  C    -77.409500   51.478400  134.701000
  H    -77.489800   50.537900  135.220000
  H    -78.115100   51.259300  133.907000
  C    -77.887300   52.570600  135.693000
  H    -78.147700   53.446300  135.246000
  H    -77.050900   52.954200  136.369000
  C    -79.159000   52.061300  136.535000
  H    -79.992500   51.680700  135.977000
  H    -79.479400   52.853600  137.175000
  H    -78.933500   51.329000  137.279000
  H    -74.144800   51.758200  139.629000
  H    -74.352800   52.312500  131.304000

 Total Charge           Charge          ....    0
 Multiplicity           Mult            ....    1
 Number of Electrons    NEL             ....  134
 Basis Dimension        Dim             ....  322

ORBITAL ENERGIES
----------------

  NO   OCC          E(Eh)            E(eV)
   0   2.0000     -88.967651     -2420.9329
   1   2.0000     -88.959020     -2420.6980
   2   2.0000     -10.326392      -280.9954
   3   2.0000     -10.324711      -280.9497
   4   2.0000     -10.315710      -280.7047
   5   2.0000     -10.309209      -280.5278
   6   2.0000     -10.305126      -280.4167
   7   2.0000     -10.302062      -280.3333
   8   2.0000     -10.298806      -280.2448
   9   2.0000     -10.295128      -280.1447
  10   2.0000     -10.289786      -279.9993
  11   2.0000     -10.289562      -279.9932
  12   2.0000     -10.287358      -279.9332
  13   2.0000     -10.284480      -279.8549
  14   2.0000     -10.281692      -279.7791
  15   2.0000     -10.270919      -279.4859
  16   2.0000      -8.083820      -219.9719
  17   2.0000      -8.074134      -219.7083
  18   2.0000      -6.042061      -164.4128
  19   2.0000      -6.038128      -164.3058
  20   2.0000      -6.034801      -164.2153
  21   2.0000      -6.032843      -164.1620
  22   2.0000      -6.028673      -164.0485
  23   2.0000      -6.024574      -163.9370
  24   2.0000      -1.012709       -27.5572
  25   2.0000      -0.988422       -26.8963
  26   2.0000      -0.909524       -24.7494
  27   2.0000      -0.900291       -24.4982
  28   2.0000      -0.871509       -23.7150
  29   2.0000      -0.848672       -23.0935
  30   2.0000      -0.841510       -22.8986
  31   2.0000      -0.815493       -22.1907
  32   2.0000      -0.782989       -21.3062
  33   2.0000      -0.773285       -21.0422
  34   2.0000      -0.712851       -19.3977
  35   2.0000      -0.700668       -19.0662
  36   2.0000      -0.693065       -18.8593
  37   2.0000      -0.658142       -17.9089
  38   2.0000      -0.645159       -17.5557
  39   2.0000      -0.615934       -16.7604
  40   2.0000      -0.600398       -16.3377
  41   2.0000      -0.569089       -15.4857
  42   2.0000      -0.556814       -15.1517
  43   2.0000      -0.545952       -14.8561
  44   2.0000      -0.525613       -14.3026
  45   2.0000      -0.522966       -14.2306
  46   2.0000      -0.514250       -13.9934
  47   2.0000      -0.511748       -13.9254
  48   2.0000      -0.501461       -13.6454
  49   2.0000      -0.499530       -13.5929
  50   2.0000      -0.491719       -13.3804
  51   2.0000      -0.481641       -13.1061
  52   2.0000      -0.469715       -12.7816
  53   2.0000      -0.460890       -12.5414
  54   2.0000      -0.457588       -12.4516
  55   2.0000      -0.453614       -12.3435
  56   2.0000      -0.443970       -12.0810
  57   2.0000      -0.443414       -12.0659
  58   2.0000      -0.434843       -11.8327
  59   2.0000      -0.419652       -11.4193
  60   2.0000      -0.417529       -11.3615
  61   2.0000      -0.412925       -11.2363
  62   2.0000      -0.407719       -11.0946
  63   2.0000      -0.348635        -9.4868
  64   2.0000      -0.332981        -9.0609
  65   2.0000      -0.324763        -8.8373
  66   2.0000      -0.297066        -8.0836
  67   0.0000       0.037172         1.0115
  68   0.0000       0.066240         1.8025
  69   0.0000       0.109400         2.9769
  70   0.0000       0.120779         3.2866
  71   0.0000       0.134544         3.6611

MULLIKEN ATOMIC CHARGES
-----------------------
   0 S :    0.082849
   1 C :   -0.138678
   2 C :   -0.041754
   3 C :    0.023855
   4 C :   -0.162013
   5 H :    0.034231
   6 C :    0.057314
   7 H :    0.037415
   8 H :    0.013938
   9 C :   -0.083767
  10 H :    0.025671
  11 H :    0.032673
  12 C :   -0.059209
  13 H :    0.049346
  14 H :    0.018118
  15 H :    0.031796
  16 S :    0.127741
  17 C :   -0.095388
  18 C :   -0.046036
  19 C :   -0.033147
  20 C :   -0.161983
  21 H :    0.037346
  22 C :    0.108237
  23 H :    0.012166
  24 H :    0.005593
  25 C :   -0.056618
  26 H :    0.005242
  27 H :    0.046800
  28 C :   -0.047513
  29 H :    0.031444
  30 H :    0.019940
  31 H :    0.021794
  32 H :    0.052267
  33 H :    0.050332
Sum of atomic charges:    0.0000000

LOEWDIN ATOMIC CHARGES
----------------------
   0 S :    0.373696
   1 C :   -0.175118
   2 C :   -0.061978
   3 C :   -0.066478
   4 C :   -0.191649
   5 H :    0.040601
   6 C :   -0.041425
   7 H :    0.037253
   8 H :    0.031761
   9 C :   -0.045674
  10 H :    0.019681
  11 H :    0.029980
  12 C :   -0.063802
  13 H :    0.037236
  14 H :    0.016319
  15 H :    0.020264
  16 S :    0.440735
  17 C :   -0.191503
  18 C :   -0.078424
  19 C :   -0.051405
  20 C :   -0.223049
  21 H :    0.044063
  22 C :   -0.033359
  23 H :    0.027474
  24 H :    0.028163
  25 C :   -0.026196
  26 H :    0.007385
  27 H :    0.037478
  28 C :   -0.066799
  29 H :    0.021913
  30 H :    0.024115
  31 H :    0.021474
  32 H :    0.030662
  33 H :    0.026605

  Mayer bond orders larger than 0.100000
B(  0-S ,  1-C ) :   1.1053 B(  0-S ,  4-C ) :   1.1315 B(  1-C ,  2-C ) :   1.6689
B(  1-C , 32-H ) :   0.9739 B(  2-C ,  3-C ) :   1.1482 B(  2-C ,  6-C ) :   1.0358
B(  3-C ,  4-C ) :   1.6602 B(  3-C ,  5-H ) :   0.9887 B(  4-C , 20-C ) :   1.0010
B(  6-C ,  7-H ) :   0.9354 B(  6-C ,  8-H ) :   0.9426 B(  6-C ,  9-C ) :   1.0553
B(  9-C , 10-H ) :   0.9576 B(  9-C , 11-H ) :   0.9563 B(  9-C , 12-C ) :   1.0749
B( 12-C , 13-H ) :   0.9765 B( 12-C , 14-H ) :   0.9767 B( 12-C , 15-H ) :   0.9783
B( 16-S , 17-C ) :   1.1702 B( 16-S , 20-C ) :   1.1712 B( 17-C , 18-C ) :   1.6027
B( 17-C , 33-H ) :   0.9651 B( 18-C , 19-C ) :   1.2763 B( 18-C , 21-H ) :   0.9833
B( 19-C , 20-C ) :   1.5541 B( 19-C , 22-C ) :   1.0431 B( 22-C , 23-H ) :   0.9348
B( 22-C , 24-H ) :   0.9299 B( 22-C , 25-C ) :   1.0405 B( 25-C , 26-H ) :   0.9574
B( 25-C , 27-H ) :   0.9603 B( 25-C , 28-C ) :   1.0695 B( 28-C , 29-H ) :   0.9785
B( 28-C , 30-H ) :   0.9740 B( 28-C , 31-H ) :   0.9762

Dispersion correction           -0.014432273
FINAL SINGLE POINT ENERGY     -1339.864421198159

DIPOLE MOMENT
-------------
                                X             Y             Z
Electronic contribution:     17.82561      16.08396     -15.78214
Nuclear contribution   :    -18.28740     -16.54065      15.84651
                        -----------------------------------------
Total Dipole Moment    :     -0.46179      -0.45669       0.06437
                        -----------------------------------------
Magnitude (a.u.)       :      0.65266
Magnitude (Debye)      :      1.65893

Rotational constants in cm-1:     0.018629     0.008126     0.006955
Rotational constants in MHz :   558.493988   243.619996   208.507396

                             ****ORCA TERMINATED NORMALLY****
TOTAL RUN TIME: 0 days 0 hours 0 minutes 34 seconds 962 msec
