                         Program Version 4.2.1 -  RELEASE  -
|  1> ! wB97X-D3 SP def2-SVP
|  2> %pal
|  3> nprocs 16
|  4> end
|  5>
|  6> * xyz 0 1
|  7> S 	 -18.7892 	 -5.94409 	 81.1823
|  8> C 	 -19.125 	 -7.497 	 80.3878
|  9> C 	 -20.0922 	 -8.22496 	 81.0838
| 10> C 	 -20.2585 	 -7.69598 	 82.3711
| 11> C 	 -19.5659 	 -6.54899 	 82.616
| 12> H 	 -20.8307 	 -8.19353 	 83.1195
| 13> C 	 -20.7523 	 -9.5323 	 80.7357
| 14> H 	 -20.2034 	 -10.4298 	 81.1951
| 15> H 	 -20.6275 	 -9.74638 	 79.6702
| 16> C 	 -22.2363 	 -9.72376 	 81.1362
| 17> H 	 -22.2792 	 -9.74047 	 82.2099
| 18> H 	 -22.7414 	 -8.88249 	 80.747
| 19> C 	 -22.6848 	 -11.0242 	 80.4695
| 20> H 	 -23.6847 	 -11.3397 	 80.6843
| 21> H 	 -22.6048 	 -10.9724 	 79.3979
| 22> H 	 -21.9612 	 -11.8288 	 80.6774
| 23> S 	 -20.2685 	 -4.24477 	 84.0306
| 24> C 	 -19.9699 	 -4.1387 	 85.7539
| 25> C 	 -19.2061 	 -5.17981 	 86.1338
| 26> C 	 -18.9511 	 -6.19748 	 85.1342
| 27> C 	 -19.5115 	 -5.83705 	 83.9043
| 28> H 	 -18.921 	 -5.10791 	 87.1621
| 29> C 	 -18.0806 	 -7.39702 	 85.4717
| 30> H 	 -18.5441 	 -8.27927 	 84.9885
| 31> H 	 -18.0557 	 -7.51948 	 86.5599
| 32> C 	 -16.6409 	 -7.25939 	 85.0262
| 33> H 	 -16.3182 	 -6.45967 	 85.6056
| 34> H 	 -16.6984 	 -6.76163 	 84.037
| 35> C 	 -15.7418 	 -8.50172 	 85.043
| 36> H 	 -16.137 	 -9.2544 	 84.4483
| 37> H 	 -15.7126 	 -8.9472 	 86.0752
| 38> H 	 -14.7193 	 -8.24369 	 84.7455
| 39> H 	 -19.0484 	 -7.68193 	 79.3944
| 40> H 	 -20.2291 	 -3.33527 	 86.4254
| 41> *
| 42>
| 43>                          ****END OF INPUT****

CARTESIAN COORDINATES (ANGSTROEM)
---------------------------------
  S    -18.789200   -5.944090   81.182300
  C    -19.125000   -7.497000   80.387800
  C    -20.092200   -8.224960   81.083800
  C    -20.258500   -7.695980   82.371100
  C    -19.565900   -6.548990   82.616000
  H    -20.830700   -8.193530   83.119500
  C    -20.752300   -9.532300   80.735700
  H    -20.203400  -10.429800   81.195100
  H    -20.627500   -9.746380   79.670200
  C    -22.236300   -9.723760   81.136200
  H    -22.279200   -9.740470   82.209900
  H    -22.741400   -8.882490   80.747000
  C    -22.684800  -11.024200   80.469500
  H    -23.684700  -11.339700   80.684300
  H    -22.604800  -10.972400   79.397900
  H    -21.961200  -11.828800   80.677400
  S    -20.268500   -4.244770   84.030600
  C    -19.969900   -4.138700   85.753900
  C    -19.206100   -5.179810   86.133800
  C    -18.951100   -6.197480   85.134200
  C    -19.511500   -5.837050   83.904300
  H    -18.921000   -5.107910   87.162100
  C    -18.080600   -7.397020   85.471700
  H    -18.544100   -8.279270   84.988500
  H    -18.055700   -7.519480   86.559900
  C    -16.640900   -7.259390   85.026200
  H    -16.318200   -6.459670   85.605600
  H    -16.698400   -6.761630   84.037000
  C    -15.741800   -8.501720   85.043000
  H    -16.137000   -9.254400   84.448300
  H    -15.712600   -8.947200   86.075200
  H    -14.719300   -8.243690   84.745500
  H    -19.048400   -7.681930   79.394400
  H    -20.229100   -3.335270   86.425400

 Total Charge           Charge          ....    0
 Multiplicity           Mult            ....    1
 Number of Electrons    NEL             ....  134
 Basis Dimension        Dim             ....  322

ORBITAL ENERGIES
----------------

  NO   OCC          E(Eh)            E(eV)
   0   2.0000     -88.970016     -2420.9972
   1   2.0000     -88.961790     -2420.7734
   2   2.0000     -10.330540      -281.1083
   3   2.0000     -10.328932      -281.0645
   4   2.0000     -10.312759      -280.6244
   5   2.0000     -10.308911      -280.5197
   6   2.0000     -10.308006      -280.4951
   7   2.0000     -10.300144      -280.2812
   8   2.0000     -10.298320      -280.2315
   9   2.0000     -10.289383      -279.9883
  10   2.0000     -10.288114      -279.9538
  11   2.0000     -10.287515      -279.9375
  12   2.0000     -10.286736      -279.9163
  13   2.0000     -10.279312      -279.7143
  14   2.0000     -10.276939      -279.6497
  15   2.0000     -10.274146      -279.5737
  16   2.0000      -8.084342      -219.9861
  17   2.0000      -8.076474      -219.7720
  18   2.0000      -6.042872      -164.4349
  19   2.0000      -6.039073      -164.3315
  20   2.0000      -6.035089      -164.2231
  21   2.0000      -6.034935      -164.2189
  22   2.0000      -6.030978      -164.1112
  23   2.0000      -6.027123      -164.0064
  24   2.0000      -1.007250       -27.4087
  25   2.0000      -0.985506       -26.8170
  26   2.0000      -0.917361       -24.9627
  27   2.0000      -0.909327       -24.7440
  28   2.0000      -0.872246       -23.7350
  29   2.0000      -0.852830       -23.2067
  30   2.0000      -0.843834       -22.9619
  31   2.0000      -0.818385       -22.2694
  32   2.0000      -0.781795       -21.2737
  33   2.0000      -0.774120       -21.0649
  34   2.0000      -0.716721       -19.5030
  35   2.0000      -0.704131       -19.1604
  36   2.0000      -0.693602       -18.8739
  37   2.0000      -0.656058       -17.8522
  38   2.0000      -0.643679       -17.5154
  39   2.0000      -0.629037       -17.1170
  40   2.0000      -0.592862       -16.1326
  41   2.0000      -0.577717       -15.7205
  42   2.0000      -0.568746       -15.4764
  43   2.0000      -0.560936       -15.2638
  44   2.0000      -0.528401       -14.3785
  45   2.0000      -0.521815       -14.1993
  46   2.0000      -0.514742       -14.0068
  47   2.0000      -0.506383       -13.7794
  48   2.0000      -0.505059       -13.7434
  49   2.0000      -0.500785       -13.6271
  50   2.0000      -0.495684       -13.4882
  51   2.0000      -0.478295       -13.0151
  52   2.0000      -0.473128       -12.8745
  53   2.0000      -0.469945       -12.7878
  54   2.0000      -0.456948       -12.4342
  55   2.0000      -0.454191       -12.3592
  56   2.0000      -0.442204       -12.0330
  57   2.0000      -0.437700       -11.9104
  58   2.0000      -0.431151       -11.7322
  59   2.0000      -0.430507       -11.7147
  60   2.0000      -0.427100       -11.6220
  61   2.0000      -0.419856       -11.4249
  62   2.0000      -0.407972       -11.1015
  63   2.0000      -0.340744        -9.2721
  64   2.0000      -0.332407        -9.0453
  65   2.0000      -0.326451        -8.8832
  66   2.0000      -0.301815        -8.2128
  67   0.0000       0.035056         0.9539
  68   0.0000       0.057236         1.5575
  69   0.0000       0.108105         2.9417
  70   0.0000       0.121000         3.2926
  71   0.0000       0.130242         3.5441

MULLIKEN ATOMIC CHARGES
-----------------------
   0 S :    0.116060
   1 C :   -0.056311
   2 C :   -0.071757
   3 C :    0.044798
   4 C :   -0.150873
   5 H :    0.000287
   6 C :   -0.024490
   7 H :    0.048556
   8 H :    0.011421
   9 C :   -0.045583
  10 H :    0.038623
  11 H :    0.031363
  12 C :   -0.022327
  13 H :    0.033915
  14 H :    0.019450
  15 H :    0.019673
  16 S :    0.094227
  17 C :   -0.089741
  18 C :   -0.040337
  19 C :   -0.033261
  20 C :   -0.173384
  21 H :    0.009545
  22 C :    0.086231
  23 H :    0.020706
  24 H :    0.016653
  25 C :   -0.059078
  26 H :   -0.003423
  27 H :    0.023484
  28 C :    0.000342
  29 H :    0.021677
  30 H :    0.026446
  31 H :    0.043033
  32 H :    0.009988
  33 H :    0.054086
Sum of atomic charges:   -0.0000000

LOEWDIN ATOMIC CHARGES
----------------------
   0 S :    0.405630
   1 C :   -0.177821
   2 C :   -0.058362
   3 C :   -0.055262
   4 C :   -0.194122
   5 H :    0.027272
   6 C :   -0.039008
   7 H :    0.040589
   8 H :    0.024438
   9 C :   -0.029486
  10 H :    0.021930
  11 H :    0.022086
  12 C :   -0.060853
  13 H :    0.022375
  14 H :    0.024719
  15 H :    0.027517
  16 S :    0.389558
  17 C :   -0.182771
  18 C :   -0.076981
  19 C :   -0.050711
  20 C :   -0.193518
  21 H :    0.029349
  22 C :   -0.030229
  23 H :    0.028996
  24 H :    0.027920
  25 C :   -0.044673
  26 H :    0.013719
  27 H :    0.027161
  28 C :   -0.056420
  29 H :    0.016757
  30 H :    0.030084
  31 H :    0.032415
  32 H :    0.004283
  33 H :    0.033419

  Mayer bond orders larger than 0.100000
B(  0-S ,  1-C ) :   1.1307 B(  0-S ,  4-C ) :   1.1483 B(  1-C ,  2-C ) :   1.6190
B(  1-C ,  4-C ) :   0.1011 B(  1-C , 32-H ) :   0.9659 B(  2-C ,  3-C ) :   1.2325
B(  2-C ,  6-C ) :   1.0266 B(  3-C ,  4-C ) :   1.5946 B(  3-C ,  5-H ) :   1.0009
B(  4-C , 20-C ) :   1.0130 B(  6-C ,  7-H ) :   0.9368 B(  6-C ,  8-H ) :   0.9468
B(  6-C ,  9-C ) :   1.0509 B(  9-C , 10-H ) :   0.9504 B(  9-C , 11-H ) :   0.9593
B(  9-C , 12-C ) :   1.0871 B( 12-C , 13-H ) :   0.9733 B( 12-C , 14-H ) :   0.9721
B( 12-C , 15-H ) :   0.9697 B( 16-S , 17-C ) :   1.1357 B( 16-S , 20-C ) :   1.1422
B( 17-C , 18-C ) :   1.6588 B( 17-C , 33-H ) :   0.9646 B( 18-C , 19-C ) :   1.2062
B( 18-C , 21-H ) :   0.9897 B( 19-C , 20-C ) :   1.6082 B( 19-C , 22-C ) :   1.0537
B( 22-C , 23-H ) :   0.9258 B( 22-C , 24-H ) :   0.9295 B( 22-C , 25-C ) :   1.0662
B( 25-C , 26-H ) :   0.9479 B( 25-C , 27-H ) :   0.9542 B( 25-C , 28-C ) :   1.0746
B( 28-C , 29-H ) :   0.9748 B( 28-C , 30-H ) :   0.9723 B( 28-C , 31-H ) :   0.9728

Dispersion correction           -0.013908967
FINAL SINGLE POINT ENERGY     -1339.867940887652

DIPOLE MOMENT
-------------
                                X             Y             Z
Electronic contribution:     -1.54306      25.56981      -1.62055
Nuclear contribution   :      1.44339     -26.12793       1.81734
                        -----------------------------------------
Total Dipole Moment    :     -0.09967      -0.55811       0.19679
                        -----------------------------------------
Magnitude (a.u.)       :      0.60013
Magnitude (Debye)      :      1.52540

Rotational constants in cm-1:     0.017357     0.008090     0.007132
Rotational constants in MHz :   520.364031   242.531475   213.811221

                             ****ORCA TERMINATED NORMALLY****
TOTAL RUN TIME: 0 days 0 hours 0 minutes 33 seconds 75 msec
