                         Program Version 4.2.1 -  RELEASE  -
|  1> ! wB97X-D3 SP def2-SVP
|  2> %pal
|  3> nprocs 16
|  4> end
|  5>
|  6> * xyz 0 1
|  7> S 	 -77.991 	 42.9676 	 141.917
|  8> C 	 -77.9673 	 41.237 	 142.162
|  9> C 	 -78.2623 	 40.5233 	 140.95
| 10> C 	 -78.3346 	 41.3912 	 139.859
| 11> C 	 -78.3305 	 42.7553 	 140.234
| 12> H 	 -78.6477 	 41.2117 	 138.861
| 13> C 	 -78.4126 	 39.0166 	 140.733
| 14> H 	 -79.0659 	 38.9282 	 139.93
| 15> H 	 -78.8492 	 38.552 	 141.621
| 16> C 	 -77.0776 	 38.2738 	 140.523
| 17> H 	 -76.3136 	 38.6263 	 141.275
| 18> H 	 -77.283 	 37.1328 	 140.718
| 19> C 	 -76.5172 	 38.5343 	 139.119
| 20> H 	 -75.6935 	 37.7768 	 138.927
| 21> H 	 -77.26 	 38.5287 	 138.29
| 22> H 	 -75.9934 	 39.5013 	 139.038
| 23> S 	 -79.4696 	 45.202 	 139.903
| 24> C 	 -78.9887 	 46.2682 	 138.564
| 25> C 	 -78.0637 	 45.6579 	 137.75
| 26> C 	 -77.8546 	 44.3002 	 138.137
| 27> C 	 -78.439 	 43.8973 	 139.329
| 28> H 	 -77.6778 	 46.1426 	 136.876
| 29> C 	 -76.7935 	 43.3781 	 137.49
| 30> H 	 -76.2459 	 42.8241 	 138.233
| 31> H 	 -76.1222 	 44.0896 	 137.012
| 32> C 	 -77.3566 	 42.4711 	 136.408
| 33> H 	 -78.1339 	 41.8349 	 136.778
| 34> H 	 -76.5787 	 41.785 	 135.978
| 35> C 	 -77.908 	 43.2065 	 135.151
| 36> H 	 -78.0427 	 42.5652 	 134.286
| 37> H 	 -77.2614 	 44.0496 	 134.913
| 38> H 	 -78.8613 	 43.5776 	 135.429
| 39> H 	 -77.8739 	 40.6789 	 143.095
| 40> H 	 -79.3324 	 47.3034 	 138.456
| 41> *
| 42>
| 43>                          ****END OF INPUT****

CARTESIAN COORDINATES (ANGSTROEM)
---------------------------------
  S    -77.991000   42.967600  141.917000
  C    -77.967300   41.237000  142.162000
  C    -78.262300   40.523300  140.950000
  C    -78.334600   41.391200  139.859000
  C    -78.330500   42.755300  140.234000
  H    -78.647700   41.211700  138.861000
  C    -78.412600   39.016600  140.733000
  H    -79.065900   38.928200  139.930000
  H    -78.849200   38.552000  141.621000
  C    -77.077600   38.273800  140.523000
  H    -76.313600   38.626300  141.275000
  H    -77.283000   37.132800  140.718000
  C    -76.517200   38.534300  139.119000
  H    -75.693500   37.776800  138.927000
  H    -77.260000   38.528700  138.290000
  H    -75.993400   39.501300  139.038000
  S    -79.469600   45.202000  139.903000
  C    -78.988700   46.268200  138.564000
  C    -78.063700   45.657900  137.750000
  C    -77.854600   44.300200  138.137000
  C    -78.439000   43.897300  139.329000
  H    -77.677800   46.142600  136.876000
  C    -76.793500   43.378100  137.490000
  H    -76.245900   42.824100  138.233000
  H    -76.122200   44.089600  137.012000
  C    -77.356600   42.471100  136.408000
  H    -78.133900   41.834900  136.778000
  H    -76.578700   41.785000  135.978000
  C    -77.908000   43.206500  135.151000
  H    -78.042700   42.565200  134.286000
  H    -77.261400   44.049600  134.913000
  H    -78.861300   43.577600  135.429000
  H    -77.873900   40.678900  143.095000
  H    -79.332400   47.303400  138.456000

 Total Charge           Charge          ....    0
 Multiplicity           Mult            ....    1
 Number of Electrons    NEL             ....  134
 Basis Dimension        Dim             ....  322

ORBITAL ENERGIES
----------------

  NO   OCC          E(Eh)            E(eV)
   0   2.0000     -88.977068     -2421.1891
   1   2.0000     -88.962747     -2420.7994
   2   2.0000     -10.332103      -281.1508
   3   2.0000     -10.327741      -281.0321
   4   2.0000     -10.322083      -280.8782
   5   2.0000     -10.319967      -280.8206
   6   2.0000     -10.305635      -280.4306
   7   2.0000     -10.304294      -280.3941
   8   2.0000     -10.301384      -280.3149
   9   2.0000     -10.297313      -280.2041
  10   2.0000     -10.292243      -280.0662
  11   2.0000     -10.289750      -279.9983
  12   2.0000     -10.288633      -279.9679
  13   2.0000     -10.285117      -279.8723
  14   2.0000     -10.285111      -279.8721
  15   2.0000     -10.272426      -279.5269
  16   2.0000      -8.091238      -220.1738
  17   2.0000      -8.077230      -219.7926
  18   2.0000      -6.049646      -164.6192
  19   2.0000      -6.045674      -164.5112
  20   2.0000      -6.042281      -164.4188
  21   2.0000      -6.035758      -164.2413
  22   2.0000      -6.031707      -164.1311
  23   2.0000      -6.028048      -164.0315
  24   2.0000      -1.007025       -27.4025
  25   2.0000      -0.982913       -26.7464
  26   2.0000      -0.912580       -24.8326
  27   2.0000      -0.905779       -24.6475
  28   2.0000      -0.867851       -23.6154
  29   2.0000      -0.851609       -23.1735
  30   2.0000      -0.841821       -22.9071
  31   2.0000      -0.812710       -22.1150
  32   2.0000      -0.783529       -21.3209
  33   2.0000      -0.771264       -20.9872
  34   2.0000      -0.705314       -19.1926
  35   2.0000      -0.696403       -18.9501
  36   2.0000      -0.688069       -18.7233
  37   2.0000      -0.667466       -18.1627
  38   2.0000      -0.643380       -17.5072
  39   2.0000      -0.614068       -16.7096
  40   2.0000      -0.590037       -16.0557
  41   2.0000      -0.573408       -15.6032
  42   2.0000      -0.556814       -15.1517
  43   2.0000      -0.547078       -14.8867
  44   2.0000      -0.545872       -14.8539
  45   2.0000      -0.537801       -14.6343
  46   2.0000      -0.517072       -14.0703
  47   2.0000      -0.510661       -13.8958
  48   2.0000      -0.501042       -13.6341
  49   2.0000      -0.497915       -13.5490
  50   2.0000      -0.481373       -13.0988
  51   2.0000      -0.480436       -13.0733
  52   2.0000      -0.477650       -12.9975
  53   2.0000      -0.465856       -12.6766
  54   2.0000      -0.458909       -12.4876
  55   2.0000      -0.448944       -12.2164
  56   2.0000      -0.445152       -12.1132
  57   2.0000      -0.439950       -11.9717
  58   2.0000      -0.434541       -11.8245
  59   2.0000      -0.426239       -11.5986
  60   2.0000      -0.419624       -11.4185
  61   2.0000      -0.413646       -11.2559
  62   2.0000      -0.402099       -10.9417
  63   2.0000      -0.348833        -9.4922
  64   2.0000      -0.338244        -9.2041
  65   2.0000      -0.331132        -9.0106
  66   2.0000      -0.287245        -7.8163
  67   0.0000       0.023190         0.6310
  68   0.0000       0.065957         1.7948
  69   0.0000       0.111707         3.0397
  70   0.0000       0.121207         3.2982
  71   0.0000       0.123849         3.3701

MULLIKEN ATOMIC CHARGES
-----------------------
   0 S :    0.148268
   1 C :   -0.122738
   2 C :   -0.106519
   3 C :    0.033262
   4 C :   -0.146089
   5 H :   -0.003251
   6 C :    0.107004
   7 H :    0.013347
   8 H :    0.022431
   9 C :   -0.103093
  10 H :    0.044285
  11 H :    0.050301
  12 C :   -0.086306
  13 H :    0.042856
  14 H :    0.035343
  15 H :    0.044464
  16 S :    0.083122
  17 C :   -0.100502
  18 C :   -0.012597
  19 C :   -0.059026
  20 C :   -0.160333
  21 H :    0.018732
  22 C :    0.077356
  23 H :    0.040416
  24 H :    0.012913
  25 C :   -0.084153
  26 H :    0.020697
  27 H :    0.033233
  28 C :   -0.047087
  29 H :    0.036780
  30 H :    0.022390
  31 H :    0.027988
  32 H :    0.049697
  33 H :    0.066809
Sum of atomic charges:   -0.0000000

LOEWDIN ATOMIC CHARGES
----------------------
   0 S :    0.440739
   1 C :   -0.214897
   2 C :   -0.054380
   3 C :   -0.063007
   4 C :   -0.204655
   5 H :    0.024594
   6 C :   -0.026272
   7 H :    0.020735
   8 H :    0.031867
   9 C :   -0.046929
  10 H :    0.033092
  11 H :    0.033191
  12 C :   -0.080980
  13 H :    0.033460
  14 H :    0.024215
  15 H :    0.028687
  16 S :    0.384725
  17 C :   -0.173975
  18 C :   -0.070282
  19 C :   -0.059594
  20 C :   -0.194490
  21 H :    0.032302
  22 C :   -0.025079
  23 H :    0.030656
  24 H :    0.027245
  25 C :   -0.041569
  26 H :    0.013625
  27 H :    0.026746
  28 C :   -0.060756
  29 H :    0.026539
  30 H :    0.020626
  31 H :    0.019486
  32 H :    0.030442
  33 H :    0.033891

  Mayer bond orders larger than 0.100000
B(  0-S ,  1-C ) :   1.1593 B(  0-S ,  4-C ) :   1.1794 B(  1-C ,  2-C ) :   1.5521
B(  1-C ,  4-C ) :   0.1166 B(  1-C , 32-H ) :   0.9653 B(  2-C ,  3-C ) :   1.2907
B(  2-C ,  6-C ) :   1.0253 B(  3-C ,  4-C ) :   1.5193 B(  3-C ,  5-H ) :   0.9927
B(  4-C , 20-C ) :   1.0451 B(  6-C ,  7-H ) :   0.9440 B(  6-C ,  8-H ) :   0.9361
B(  6-C ,  9-C ) :   1.0650 B(  9-C , 10-H ) :   0.9525 B(  9-C , 11-H ) :   0.9587
B(  9-C , 12-C ) :   1.0709 B( 12-C , 13-H ) :   0.9728 B( 12-C , 14-H ) :   0.9766
B( 12-C , 15-H ) :   0.9720 B( 16-S , 17-C ) :   1.1514 B( 16-S , 20-C ) :   1.1311
B( 17-C , 18-C ) :   1.6064 B( 17-C , 33-H ) :   0.9647 B( 18-C , 19-C ) :   1.2470
B( 18-C , 21-H ) :   0.9915 B( 19-C , 20-C ) :   1.5924 B( 19-C , 22-C ) :   1.0229
B( 22-C , 23-H ) :   0.9431 B( 22-C , 24-H ) :   0.9395 B( 22-C , 25-C ) :   1.0697
B( 25-C , 26-H ) :   0.9551 B( 25-C , 27-H ) :   0.9576 B( 25-C , 28-C ) :   1.0727
B( 28-C , 29-H ) :   0.9756 B( 28-C , 30-H ) :   0.9772 B( 28-C , 31-H ) :   0.9755

Dispersion correction           -0.015424621
FINAL SINGLE POINT ENERGY     -1339.880228905524

DIPOLE MOMENT
-------------
                                X             Y             Z
Electronic contribution:     -9.24239      20.59443      19.01701
Nuclear contribution   :      9.45009     -20.93421     -19.36365
                        -----------------------------------------
Total Dipole Moment    :      0.20769      -0.33978      -0.34664
                        -----------------------------------------
Magnitude (a.u.)       :      0.52796
Magnitude (Debye)      :      1.34197

Rotational constants in cm-1:     0.018739     0.009960     0.006949
Rotational constants in MHz :   561.778465   298.607725   208.337382

                             ****ORCA TERMINATED NORMALLY****
TOTAL RUN TIME: 0 days 0 hours 0 minutes 36 seconds 267 msec
