                         Program Version 4.2.1 -  RELEASE  -
|  1> ! wB97X-D3 SP def2-SVP
|  2> %pal
|  3> nprocs 16
|  4> end
|  5>
|  6> * xyz 0 1
|  7> S 	 -101.241 	 40.9177 	 124.461
|  8> C 	 -99.9559 	 39.8496 	 125.109
|  9> C 	 -98.9655 	 40.613 	 125.728
| 10> C 	 -99.3247 	 41.9757 	 125.909
| 11> C 	 -100.561 	 42.3369 	 125.363
| 12> H 	 -98.7083 	 42.6742 	 126.451
| 13> C 	 -97.7633 	 40.0973 	 126.327
| 14> H 	 -98.0814 	 39.5456 	 127.191
| 15> H 	 -97.1453 	 40.9261 	 126.568
| 16> C 	 -96.9048 	 39.219 	 125.419
| 17> H 	 -97.4811 	 38.4089 	 124.983
| 18> H 	 -96.6843 	 39.8814 	 124.56
| 19> C 	 -95.566 	 38.7875 	 125.905
| 20> H 	 -95.4942 	 37.9293 	 126.589
| 21> H 	 -94.9852 	 38.4891 	 125.042
| 22> H 	 -95.0413 	 39.6569 	 126.354
| 23> S 	 -102.832 	 43.6064 	 125.928
| 24> C 	 -102.943 	 45.3345 	 125.826
| 25> C 	 -101.739 	 45.9365 	 125.355
| 26> C 	 -100.747 	 44.9108 	 125.182
| 27> C 	 -101.184 	 43.6619 	 125.355
| 28> H 	 -101.737 	 47.0147 	 125.098
| 29> C 	 -99.2833 	 45.2524 	 124.744
| 30> H 	 -98.5319 	 44.6686 	 125.309
| 31> H 	 -99.0185 	 46.27 	 124.729
| 32> C 	 -99.0558 	 44.8114 	 123.335
| 33> H 	 -99.6578 	 45.2374 	 122.58
| 34> H 	 -99.1063 	 43.7415 	 123.334
| 35> C 	 -97.71 	 45.2202 	 122.805
| 36> H 	 -96.824 	 44.7797 	 123.361
| 37> H 	 -97.4752 	 46.311 	 122.739
| 38> H 	 -97.6891 	 44.7751 	 121.784
| 39> H 	 -99.8846 	 38.8048 	 124.854
| 40> H 	 -103.822 	 45.9493 	 125.91
| 41> *
| 42>
| 43>                          ****END OF INPUT****

CARTESIAN COORDINATES (ANGSTROEM)
---------------------------------
  S    -101.241000   40.917700  124.461000
  C    -99.955900   39.849600  125.109000
  C    -98.965500   40.613000  125.728000
  C    -99.324700   41.975700  125.909000
  C    -100.561000   42.336900  125.363000
  H    -98.708300   42.674200  126.451000
  C    -97.763300   40.097300  126.327000
  H    -98.081400   39.545600  127.191000
  H    -97.145300   40.926100  126.568000
  C    -96.904800   39.219000  125.419000
  H    -97.481100   38.408900  124.983000
  H    -96.684300   39.881400  124.560000
  C    -95.566000   38.787500  125.905000
  H    -95.494200   37.929300  126.589000
  H    -94.985200   38.489100  125.042000
  H    -95.041300   39.656900  126.354000
  S    -102.832000   43.606400  125.928000
  C    -102.943000   45.334500  125.826000
  C    -101.739000   45.936500  125.355000
  C    -100.747000   44.910800  125.182000
  C    -101.184000   43.661900  125.355000
  H    -101.737000   47.014700  125.098000
  C    -99.283300   45.252400  124.744000
  H    -98.531900   44.668600  125.309000
  H    -99.018500   46.270000  124.729000
  C    -99.055800   44.811400  123.335000
  H    -99.657800   45.237400  122.580000
  H    -99.106300   43.741500  123.334000
  C    -97.710000   45.220200  122.805000
  H    -96.824000   44.779700  123.361000
  H    -97.475200   46.311000  122.739000
  H    -97.689100   44.775100  121.784000
  H    -99.884600   38.804800  124.854000
  H    -103.822000   45.949300  125.910000

 Total Charge           Charge          ....    0
 Multiplicity           Mult            ....    1
 Number of Electrons    NEL             ....  134
 Basis Dimension        Dim             ....  322

ORBITAL ENERGIES
----------------

  NO   OCC          E(Eh)            E(eV)
   0   2.0000     -88.968062     -2420.9440
   1   2.0000     -88.966560     -2420.9032
   2   2.0000     -10.338098      -281.3139
   3   2.0000     -10.321514      -280.8627
   4   2.0000     -10.319525      -280.8086
   5   2.0000     -10.317429      -280.7515
   6   2.0000     -10.305547      -280.4282
   7   2.0000     -10.302592      -280.3478
   8   2.0000     -10.297894      -280.2199
   9   2.0000     -10.295799      -280.1629
  10   2.0000     -10.287911      -279.9483
  11   2.0000     -10.284718      -279.8614
  12   2.0000     -10.280984      -279.7598
  13   2.0000     -10.280187      -279.7381
  14   2.0000     -10.279835      -279.7285
  15   2.0000     -10.270109      -279.4639
  16   2.0000      -8.081626      -219.9122
  17   2.0000      -8.080948      -219.8938
  18   2.0000      -6.040113      -164.3598
  19   2.0000      -6.039637      -164.3469
  20   2.0000      -6.036067      -164.2497
  21   2.0000      -6.035745      -164.2410
  22   2.0000      -6.032387      -164.1496
  23   2.0000      -6.031598      -164.1281
  24   2.0000      -1.006613       -27.3913
  25   2.0000      -0.981088       -26.6968
  26   2.0000      -0.920943       -25.0601
  27   2.0000      -0.917681       -24.9714
  28   2.0000      -0.868800       -23.6412
  29   2.0000      -0.854850       -23.2617
  30   2.0000      -0.849185       -23.1075
  31   2.0000      -0.814324       -22.1589
  32   2.0000      -0.781738       -21.2722
  33   2.0000      -0.771685       -20.9986
  34   2.0000      -0.710107       -19.3230
  35   2.0000      -0.697190       -18.9715
  36   2.0000      -0.685347       -18.6492
  37   2.0000      -0.668661       -18.1952
  38   2.0000      -0.639501       -17.4017
  39   2.0000      -0.619671       -16.8621
  40   2.0000      -0.595553       -16.2058
  41   2.0000      -0.582766       -15.8579
  42   2.0000      -0.579387       -15.7659
  43   2.0000      -0.562792       -15.3144
  44   2.0000      -0.526050       -14.3145
  45   2.0000      -0.524527       -14.2731
  46   2.0000      -0.522240       -14.2109
  47   2.0000      -0.514626       -14.0037
  48   2.0000      -0.503412       -13.6985
  49   2.0000      -0.499124       -13.5819
  50   2.0000      -0.492365       -13.3979
  51   2.0000      -0.486037       -13.2257
  52   2.0000      -0.477948       -13.0056
  53   2.0000      -0.460589       -12.5333
  54   2.0000      -0.458100       -12.4655
  55   2.0000      -0.450874       -12.2689
  56   2.0000      -0.444654       -12.0996
  57   2.0000      -0.429308       -11.6821
  58   2.0000      -0.426750       -11.6124
  59   2.0000      -0.425971       -11.5913
  60   2.0000      -0.422087       -11.4856
  61   2.0000      -0.416286       -11.3277
  62   2.0000      -0.407952       -11.1009
  63   2.0000      -0.344069        -9.3626
  64   2.0000      -0.333321        -9.0701
  65   2.0000      -0.328521        -8.9395
  66   2.0000      -0.292912        -7.9705
  67   0.0000       0.024595         0.6693
  68   0.0000       0.064699         1.7605
  69   0.0000       0.105396         2.8680
  70   0.0000       0.115975         3.1559
  71   0.0000       0.131017         3.5652

MULLIKEN ATOMIC CHARGES
-----------------------
   0 S :    0.097106
   1 C :   -0.128006
   2 C :   -0.092672
   3 C :    0.020454
   4 C :   -0.129009
   5 H :    0.015192
   6 C :    0.122365
   7 H :    0.043461
   8 H :   -0.000123
   9 C :   -0.118993
  10 H :    0.022072
  11 H :    0.024854
  12 C :   -0.026741
  13 H :    0.035309
  14 H :    0.030170
  15 H :    0.026805
  16 S :    0.119067
  17 C :   -0.087115
  18 C :   -0.069099
  19 C :   -0.013390
  20 C :   -0.163759
  21 H :    0.040771
  22 C :    0.109878
  23 H :    0.016978
  24 H :   -0.001782
  25 C :   -0.062074
  26 H :    0.020414
  27 H :    0.035016
  28 C :   -0.095397
  29 H :    0.024902
  30 H :    0.038460
  31 H :    0.038098
  32 H :    0.053999
  33 H :    0.052788
Sum of atomic charges:    0.0000000

LOEWDIN ATOMIC CHARGES
----------------------
   0 S :    0.365734
   1 C :   -0.185322
   2 C :   -0.060889
   3 C :   -0.062140
   4 C :   -0.172891
   5 H :    0.029162
   6 C :   -0.032122
   7 H :    0.037046
   8 H :    0.025175
   9 C :   -0.045266
  10 H :    0.018761
  11 H :    0.030434
  12 C :   -0.067882
  13 H :    0.024416
  14 H :    0.029326
  15 H :    0.028624
  16 S :    0.423959
  17 C :   -0.187801
  18 C :   -0.073577
  19 C :   -0.049797
  20 C :   -0.206046
  21 H :    0.040998
  22 C :   -0.021644
  23 H :    0.031597
  24 H :    0.019863
  25 C :   -0.041062
  26 H :    0.021373
  27 H :    0.024509
  28 C :   -0.074763
  29 H :    0.021820
  30 H :    0.024346
  31 H :    0.031976
  32 H :    0.025773
  33 H :    0.026309

  Mayer bond orders larger than 0.100000
B(  0-S ,  1-C ) :   1.1203 B(  0-S ,  4-C ) :   1.1445 B(  1-C ,  2-C ) :   1.5842
B(  1-C ,  4-C ) :   0.1068 B(  1-C , 32-H ) :   0.9721 B(  2-C ,  3-C ) :   1.2536
B(  2-C ,  6-C ) :   1.0424 B(  3-C ,  4-C ) :   1.5609 B(  3-C ,  5-H ) :   0.9922
B(  4-C , 20-C ) :   1.0184 B(  6-C ,  7-H ) :   0.9251 B(  6-C ,  8-H ) :   0.9297
B(  6-C ,  9-C ) :   1.0652 B(  9-C , 10-H ) :   0.9530 B(  9-C , 11-H ) :   0.9563
B(  9-C , 12-C ) :   1.0980 B( 12-C , 13-H ) :   0.9725 B( 12-C , 14-H ) :   0.9714
B( 12-C , 15-H ) :   0.9675 B( 16-S , 17-C ) :   1.1714 B( 16-S , 20-C ) :   1.1295
B( 17-C , 18-C ) :   1.6105 B( 17-C , 20-C ) :   0.1007 B( 17-C , 33-H ) :   0.9657
B( 18-C , 19-C ) :   1.2221 B( 18-C , 21-H ) :   0.9865 B( 19-C , 20-C ) :   1.6462
B( 19-C , 22-C ) :   1.0355 B( 22-C , 23-H ) :   0.9340 B( 22-C , 24-H ) :   0.9388
B( 22-C , 25-C ) :   1.0758 B( 25-C , 26-H ) :   0.9523 B( 25-C , 27-H ) :   0.9501
B( 25-C , 28-C ) :   1.0915 B( 28-C , 29-H ) :   0.9695 B( 28-C , 30-H ) :   0.9733
B( 28-C , 31-H ) :   0.9744

Dispersion correction           -0.014050579
FINAL SINGLE POINT ENERGY     -1339.864193575964

DIPOLE MOMENT
-------------
                                X             Y             Z
Electronic contribution:    -29.99398       1.49321       4.92621
Nuclear contribution   :     30.60091      -1.33249      -4.98778
                        -----------------------------------------
Total Dipole Moment    :      0.60693       0.16072      -0.06158
                        -----------------------------------------
Magnitude (a.u.)       :      0.63086
Magnitude (Debye)      :      1.60352

Rotational constants in cm-1:     0.019906     0.008307     0.006585
Rotational constants in MHz :   596.779021   249.029519   197.398817

                             ****ORCA TERMINATED NORMALLY****
TOTAL RUN TIME: 0 days 0 hours 0 minutes 34 seconds 254 msec
