                         Program Version 4.2.1 -  RELEASE  -
|  1> ! wB97X-D3 SP def2-SVP
|  2> %pal
|  3> nprocs 16
|  4> end
|  5>
|  6> * xyz 0 1
|  7> S 	 -43.0004 	 29.0538 	 88.3553
|  8> C 	 -42.7646 	 28.9644 	 90.1275
|  9> C 	 -43.5071 	 29.9243 	 90.8454
| 10> C 	 -44.4597 	 30.4907 	 90.0102
| 11> C 	 -44.2938 	 30.1604 	 88.6579
| 12> H 	 -45.3726 	 30.9482 	 90.3466
| 13> C 	 -43.5444 	 30.1058 	 92.3174
| 14> H 	 -43.6016 	 29.1693 	 92.6361
| 15> H 	 -44.4977 	 30.5308 	 92.5086
| 16> C 	 -42.4183 	 30.7919 	 93.0728
| 17> H 	 -42.5555 	 30.5778 	 94.1582
| 18> H 	 -41.5024 	 30.4077 	 92.6031
| 19> C 	 -42.3201 	 32.2998 	 92.7646
| 20> H 	 -42.2284 	 32.5134 	 91.7151
| 21> H 	 -43.2107 	 32.8544 	 93.136
| 22> H 	 -41.5137 	 32.7669 	 93.3102
| 23> S 	 -46.5754 	 29.4283 	 87.3941
| 24> C 	 -47.1407 	 30.3021 	 86.0438
| 25> C 	 -46.4295 	 31.4602 	 85.7528
| 26> C 	 -45.2152 	 31.4358 	 86.5012
| 27> C 	 -45.1964 	 30.5036 	 87.5358
| 28> H 	 -46.7871 	 32.1675 	 84.9721
| 29> C 	 -44.3595 	 32.7029 	 86.4325
| 30> H 	 -44.7483 	 33.4212 	 85.6154
| 31> H 	 -43.3558 	 32.3693 	 86.0646
| 32> C 	 -44.0725 	 33.4481 	 87.7815
| 33> H 	 -43.369 	 34.2892 	 87.5996
| 34> H 	 -43.4624 	 32.7887 	 88.4158
| 35> C 	 -45.273 	 33.9889 	 88.4738
| 36> H 	 -45.0115 	 34.4231 	 89.5225
| 37> H 	 -45.9111 	 33.114 	 88.5712
| 38> H 	 -45.7244 	 34.7797 	 87.8556
| 39> H 	 -42.0128 	 28.3437 	 90.6314
| 40> H 	 -48.2136 	 30.2215 	 85.629
| 41> *
| 42>
| 43>                          ****END OF INPUT****

CARTESIAN COORDINATES (ANGSTROEM)
---------------------------------
  S    -43.000400   29.053800   88.355300
  C    -42.764600   28.964400   90.127500
  C    -43.507100   29.924300   90.845400
  C    -44.459700   30.490700   90.010200
  C    -44.293800   30.160400   88.657900
  H    -45.372600   30.948200   90.346600
  C    -43.544400   30.105800   92.317400
  H    -43.601600   29.169300   92.636100
  H    -44.497700   30.530800   92.508600
  C    -42.418300   30.791900   93.072800
  H    -42.555500   30.577800   94.158200
  H    -41.502400   30.407700   92.603100
  C    -42.320100   32.299800   92.764600
  H    -42.228400   32.513400   91.715100
  H    -43.210700   32.854400   93.136000
  H    -41.513700   32.766900   93.310200
  S    -46.575400   29.428300   87.394100
  C    -47.140700   30.302100   86.043800
  C    -46.429500   31.460200   85.752800
  C    -45.215200   31.435800   86.501200
  C    -45.196400   30.503600   87.535800
  H    -46.787100   32.167500   84.972100
  C    -44.359500   32.702900   86.432500
  H    -44.748300   33.421200   85.615400
  H    -43.355800   32.369300   86.064600
  C    -44.072500   33.448100   87.781500
  H    -43.369000   34.289200   87.599600
  H    -43.462400   32.788700   88.415800
  C    -45.273000   33.988900   88.473800
  H    -45.011500   34.423100   89.522500
  H    -45.911100   33.114000   88.571200
  H    -45.724400   34.779700   87.855600
  H    -42.012800   28.343700   90.631400
  H    -48.213600   30.221500   85.629000

 Total Charge           Charge          ....    0
 Multiplicity           Mult            ....    1
 Number of Electrons    NEL             ....  134
 Basis Dimension        Dim             ....  322

ORBITAL ENERGIES
----------------

  NO   OCC          E(Eh)            E(eV)
   0   2.0000     -88.973908     -2421.1031
   1   2.0000     -88.966140     -2420.8917
   2   2.0000     -10.330012      -281.0939
   3   2.0000     -10.326086      -280.9871
   4   2.0000     -10.319534      -280.8088
   5   2.0000     -10.317029      -280.7406
   6   2.0000     -10.304882      -280.4101
   7   2.0000     -10.299856      -280.2733
   8   2.0000     -10.298337      -280.2320
   9   2.0000     -10.295937      -280.1667
  10   2.0000     -10.293311      -280.0952
  11   2.0000     -10.292617      -280.0763
  12   2.0000     -10.280213      -279.7388
  13   2.0000     -10.275998      -279.6241
  14   2.0000     -10.275947      -279.6227
  15   2.0000     -10.275830      -279.6195
  16   2.0000      -8.087936      -220.0839
  17   2.0000      -8.081575      -219.9108
  18   2.0000      -6.046217      -164.5259
  19   2.0000      -6.042625      -164.4282
  20   2.0000      -6.039888      -164.3537
  21   2.0000      -6.038882      -164.3263
  22   2.0000      -6.035944      -164.2464
  23   2.0000      -6.032539      -164.1537
  24   2.0000      -1.008324       -27.4379
  25   2.0000      -0.986867       -26.8540
  26   2.0000      -0.921293       -25.0697
  27   2.0000      -0.902253       -24.5516
  28   2.0000      -0.865584       -23.5537
  29   2.0000      -0.853691       -23.2301
  30   2.0000      -0.845935       -23.0191
  31   2.0000      -0.811979       -22.0951
  32   2.0000      -0.786516       -21.4022
  33   2.0000      -0.766538       -20.8586
  34   2.0000      -0.707742       -19.2586
  35   2.0000      -0.699892       -19.0450
  36   2.0000      -0.677310       -18.4306
  37   2.0000      -0.654079       -17.7984
  38   2.0000      -0.639793       -17.4097
  39   2.0000      -0.615984       -16.7618
  40   2.0000      -0.585430       -15.9304
  41   2.0000      -0.576179       -15.6786
  42   2.0000      -0.556936       -15.1550
  43   2.0000      -0.551252       -15.0003
  44   2.0000      -0.541677       -14.7398
  45   2.0000      -0.539859       -14.6903
  46   2.0000      -0.510696       -13.8967
  47   2.0000      -0.509147       -13.8546
  48   2.0000      -0.499533       -13.5930
  49   2.0000      -0.487980       -13.2786
  50   2.0000      -0.481571       -13.1042
  51   2.0000      -0.478186       -13.0121
  52   2.0000      -0.472415       -12.8551
  53   2.0000      -0.461176       -12.5492
  54   2.0000      -0.460212       -12.5230
  55   2.0000      -0.452732       -12.3195
  56   2.0000      -0.439694       -11.9647
  57   2.0000      -0.435857       -11.8603
  58   2.0000      -0.434719       -11.8293
  59   2.0000      -0.432142       -11.7592
  60   2.0000      -0.417744       -11.3674
  61   2.0000      -0.412064       -11.2128
  62   2.0000      -0.405109       -11.0236
  63   2.0000      -0.341017        -9.2795
  64   2.0000      -0.330064        -8.9815
  65   2.0000      -0.316505        -8.6125
  66   2.0000      -0.304891        -8.2965
  67   0.0000       0.037259         1.0139
  68   0.0000       0.049308         1.3417
  69   0.0000       0.107726         2.9314
  70   0.0000       0.111535         3.0350
  71   0.0000       0.125179         3.4063

MULLIKEN ATOMIC CHARGES
-----------------------
   0 S :    0.143040
   1 C :   -0.135567
   2 C :   -0.110802
   3 C :    0.036472
   4 C :   -0.171660
   5 H :    0.018279
   6 C :    0.154882
   7 H :   -0.007361
   8 H :   -0.002746
   9 C :   -0.061197
  10 H :    0.046436
  11 H :    0.028929
  12 C :   -0.062083
  13 H :    0.040265
  14 H :    0.021696
  15 H :    0.031366
  16 S :    0.131929
  17 C :   -0.112870
  18 C :   -0.074521
  19 C :    0.001750
  20 C :   -0.209704
  21 H :    0.045716
  22 C :    0.004519
  23 H :    0.035863
  24 H :    0.035827
  25 C :   -0.076451
  26 H :    0.020876
  27 H :    0.035966
  28 C :   -0.053000
  29 H :    0.045483
  30 H :    0.038228
  31 H :    0.032809
  32 H :    0.048547
  33 H :    0.079086
Sum of atomic charges:    0.0000000

LOEWDIN ATOMIC CHARGES
----------------------
   0 S :    0.418952
   1 C :   -0.192123
   2 C :   -0.057851
   3 C :   -0.058723
   4 C :   -0.209705
   5 H :    0.031655
   6 C :   -0.025271
   7 H :    0.019295
   8 H :    0.025921
   9 C :   -0.033318
  10 H :    0.033388
  11 H :    0.028493
  12 C :   -0.068373
  13 H :    0.024978
  14 H :    0.023859
  15 H :    0.024009
  16 S :    0.433063
  17 C :   -0.215464
  18 C :   -0.080481
  19 C :   -0.061073
  20 C :   -0.213852
  21 H :    0.042735
  22 C :   -0.038457
  23 H :    0.034267
  24 H :    0.037076
  25 C :   -0.051554
  26 H :    0.023242
  27 H :    0.024126
  28 C :   -0.072416
  29 H :    0.036223
  30 H :    0.023271
  31 H :    0.025269
  32 H :    0.025306
  33 H :    0.043532

  Mayer bond orders larger than 0.100000
B(  0-S ,  1-C ) :   1.1485 B(  0-S ,  4-C ) :   1.1767 B(  1-C ,  2-C ) :   1.5868
B(  1-C ,  4-C ) :   0.1108 B(  1-C , 32-H ) :   0.9628 B(  2-C ,  3-C ) :   1.2645
B(  2-C ,  6-C ) :   1.0055 B(  3-C ,  4-C ) :   1.5652 B(  3-C ,  5-H ) :   0.9878
B(  4-C , 20-C ) :   0.9957 B(  6-C ,  7-H ) :   0.9175 B(  6-C ,  8-H ) :   0.9340
B(  6-C ,  9-C ) :   1.0704 B(  9-C , 10-H ) :   0.9537 B(  9-C , 11-H ) :   0.9551
B(  9-C , 12-C ) :   1.0774 B( 12-C , 13-H ) :   0.9768 B( 12-C , 14-H ) :   0.9747
B( 12-C , 15-H ) :   0.9750 B( 16-S , 17-C ) :   1.1837 B( 16-S , 20-C ) :   1.1574
B( 17-C , 18-C ) :   1.6105 B( 17-C , 20-C ) :   0.1011 B( 17-C , 33-H ) :   0.9486
B( 18-C , 19-C ) :   1.2368 B( 18-C , 21-H ) :   0.9819 B( 19-C , 20-C ) :   1.5879
B( 19-C , 22-C ) :   1.0404 B( 22-C , 23-H ) :   0.9514 B( 22-C , 24-H ) :   0.9241
B( 22-C , 25-C ) :   1.0750 B( 25-C , 26-H ) :   0.9497 B( 25-C , 27-H ) :   0.9458
B( 25-C , 28-C ) :   1.0775 B( 28-C , 29-H ) :   0.9708 B( 28-C , 30-H ) :   0.9732
B( 28-C , 31-H ) :   0.9726

Dispersion correction           -0.015806278
FINAL SINGLE POINT ENERGY     -1339.851853438171

DIPOLE MOMENT
-------------
                                X             Y             Z
Electronic contribution:     -6.55710     -20.70399     -15.82445
Nuclear contribution   :      6.53374      20.99462      16.22724
                        -----------------------------------------
Total Dipole Moment    :     -0.02335       0.29063       0.40279
                        -----------------------------------------
Magnitude (a.u.)       :      0.49724
Magnitude (Debye)      :      1.26389

Rotational constants in cm-1:     0.021096     0.009116     0.007569
Rotational constants in MHz :   632.439229   273.302588   226.914419

                             ****ORCA TERMINATED NORMALLY****
TOTAL RUN TIME: 0 days 0 hours 0 minutes 32 seconds 784 msec
