                         Program Version 4.2.1 -  RELEASE  -
|  1> ! wB97X-D3 SP def2-SVP
|  2> %pal
|  3> nprocs 16
|  4> end
|  5>
|  6> * xyz 0 1
|  7> S 	 40.0348 	 9.3787 	 83.247
|  8> C 	 40.9549 	 8.14074 	 82.4514
|  9> C 	 41.6494 	 7.33871 	 83.3726
| 10> C 	 41.1451 	 7.57175 	 84.6911
| 11> C 	 40.2149 	 8.56071 	 84.7032
| 12> H 	 41.3802 	 7.01838 	 85.5748
| 13> C 	 42.6168 	 6.25091 	 83.0253
| 14> H 	 42.5462 	 6.0791 	 81.9019
| 15> H 	 42.2182 	 5.4264 	 83.5261
| 16> C 	 44.0682 	 6.54382 	 83.5276
| 17> H 	 44.1142 	 6.70273 	 84.589
| 18> H 	 44.7328 	 5.73913 	 83.3857
| 19> C 	 44.6533 	 7.79006 	 82.8596
| 20> H 	 44.7157 	 7.78787 	 81.7344
| 21> H 	 44.1052 	 8.67785 	 83.1811
| 22> H 	 45.6423 	 8.00066 	 83.2449
| 23> S 	 37.7678 	 8.80603 	 85.739
| 24> C 	 37.5201 	 9.50947 	 87.3647
| 25> C 	 38.6503 	 9.2396 	 88.1001
| 26> C 	 39.7972 	 8.92574 	 87.288
| 27> C 	 39.4674 	 8.77796 	 85.9381
| 28> H 	 38.6629 	 9.32696 	 89.1918
| 29> C 	 41.1636 	 8.65256 	 87.9972
| 30> H 	 41.5393 	 7.67047 	 87.821
| 31> H 	 40.9552 	 8.63572 	 89.083
| 32> C 	 42.205 	 9.69812 	 87.7422
| 33> H 	 41.8892 	 10.7528 	 87.9891
| 34> H 	 42.4108 	 9.73475 	 86.6938
| 35> C 	 43.5308 	 9.473 	 88.5366
| 36> H 	 43.97 	 8.5123 	 88.5866
| 37> H 	 43.2946 	 9.56973 	 89.5531
| 38> H 	 44.3479 	 10.2462 	 88.4097
| 39> H 	 41.1795 	 8.17804 	 81.3606
| 40> H 	 36.5661 	 9.75195 	 87.8611
| 41> *
| 42>
| 43>                          ****END OF INPUT****

CARTESIAN COORDINATES (ANGSTROEM)
---------------------------------
  S     40.034800    9.378700   83.247000
  C     40.954900    8.140740   82.451400
  C     41.649400    7.338710   83.372600
  C     41.145100    7.571750   84.691100
  C     40.214900    8.560710   84.703200
  H     41.380200    7.018380   85.574800
  C     42.616800    6.250910   83.025300
  H     42.546200    6.079100   81.901900
  H     42.218200    5.426400   83.526100
  C     44.068200    6.543820   83.527600
  H     44.114200    6.702730   84.589000
  H     44.732800    5.739130   83.385700
  C     44.653300    7.790060   82.859600
  H     44.715700    7.787870   81.734400
  H     44.105200    8.677850   83.181100
  H     45.642300    8.000660   83.244900
  S     37.767800    8.806030   85.739000
  C     37.520100    9.509470   87.364700
  C     38.650300    9.239600   88.100100
  C     39.797200    8.925740   87.288000
  C     39.467400    8.777960   85.938100
  H     38.662900    9.326960   89.191800
  C     41.163600    8.652560   87.997200
  H     41.539300    7.670470   87.821000
  H     40.955200    8.635720   89.083000
  C     42.205000    9.698120   87.742200
  H     41.889200   10.752800   87.989100
  H     42.410800    9.734750   86.693800
  C     43.530800    9.473000   88.536600
  H     43.970000    8.512300   88.586600
  H     43.294600    9.569730   89.553100
  H     44.347900   10.246200   88.409700
  H     41.179500    8.178040   81.360600
  H     36.566100    9.751950   87.861100

 Total Charge           Charge          ....    0
 Multiplicity           Mult            ....    1
 Number of Electrons    NEL             ....  134
 Basis Dimension        Dim             ....  322

ORBITAL ENERGIES
----------------

  NO   OCC          E(Eh)            E(eV)
   0   2.0000     -88.970057     -2420.9983
   1   2.0000     -88.961145     -2420.7558
   2   2.0000     -10.324815      -280.9525
   3   2.0000     -10.320638      -280.8388
   4   2.0000     -10.316369      -280.7227
   5   2.0000     -10.315540      -280.7001
   6   2.0000     -10.304710      -280.4054
   7   2.0000     -10.302413      -280.3429
   8   2.0000     -10.295247      -280.1479
   9   2.0000     -10.294220      -280.1200
  10   2.0000     -10.294065      -280.1158
  11   2.0000     -10.288405      -279.9617
  12   2.0000     -10.286238      -279.9028
  13   2.0000     -10.286090      -279.8987
  14   2.0000     -10.276688      -279.6429
  15   2.0000     -10.273539      -279.5572
  16   2.0000      -8.086168      -220.0358
  17   2.0000      -8.076195      -219.7644
  18   2.0000      -6.044476      -164.4785
  19   2.0000      -6.040656      -164.3746
  20   2.0000      -6.036867      -164.2715
  21   2.0000      -6.034762      -164.2142
  22   2.0000      -6.030791      -164.1062
  23   2.0000      -6.026710      -163.9951
  24   2.0000      -1.016847       -27.6698
  25   2.0000      -0.987197       -26.8630
  26   2.0000      -0.914721       -24.8908
  27   2.0000      -0.906671       -24.6718
  28   2.0000      -0.870291       -23.6818
  29   2.0000      -0.855096       -23.2683
  30   2.0000      -0.841740       -22.9049
  31   2.0000      -0.814135       -22.1537
  32   2.0000      -0.782226       -21.2855
  33   2.0000      -0.772967       -21.0335
  34   2.0000      -0.710460       -19.3326
  35   2.0000      -0.704010       -19.1571
  36   2.0000      -0.690314       -18.7844
  37   2.0000      -0.661880       -18.0107
  38   2.0000      -0.640519       -17.4294
  39   2.0000      -0.620044       -16.8723
  40   2.0000      -0.591554       -16.0970
  41   2.0000      -0.567063       -15.4306
  42   2.0000      -0.560214       -15.2442
  43   2.0000      -0.552083       -15.0229
  44   2.0000      -0.546492       -14.8708
  45   2.0000      -0.523879       -14.2555
  46   2.0000      -0.516072       -14.0430
  47   2.0000      -0.506132       -13.7725
  48   2.0000      -0.504905       -13.7392
  49   2.0000      -0.493416       -13.4265
  50   2.0000      -0.489732       -13.3263
  51   2.0000      -0.483438       -13.1550
  52   2.0000      -0.470839       -12.8122
  53   2.0000      -0.460579       -12.5330
  54   2.0000      -0.456086       -12.4107
  55   2.0000      -0.452920       -12.3246
  56   2.0000      -0.443893       -12.0790
  57   2.0000      -0.439075       -11.9478
  58   2.0000      -0.437829       -11.9139
  59   2.0000      -0.431527       -11.7424
  60   2.0000      -0.422726       -11.5029
  61   2.0000      -0.417602       -11.3635
  62   2.0000      -0.410900       -11.1812
  63   2.0000      -0.345793        -9.4095
  64   2.0000      -0.330292        -8.9877
  65   2.0000      -0.324425        -8.8280
  66   2.0000      -0.291888        -7.9427
  67   0.0000       0.025387         0.6908
  68   0.0000       0.074441         2.0256
  69   0.0000       0.100624         2.7381
  70   0.0000       0.115133         3.1329
  71   0.0000       0.130811         3.5595

MULLIKEN ATOMIC CHARGES
-----------------------
   0 S :    0.148655
   1 C :   -0.151575
   2 C :   -0.092151
   3 C :    0.018581
   4 C :   -0.118860
   5 H :   -0.001658
   6 C :    0.088219
   7 H :    0.034441
   8 H :    0.019040
   9 C :   -0.040241
  10 H :    0.021311
  11 H :    0.020865
  12 C :   -0.071949
  13 H :    0.038626
  14 H :    0.038409
  15 H :    0.022718
  16 S :    0.100631
  17 C :   -0.103890
  18 C :   -0.046550
  19 C :   -0.027637
  20 C :   -0.174640
  21 H :    0.029981
  22 C :    0.066883
  23 H :    0.023229
  24 H :    0.009214
  25 C :   -0.062684
  26 H :    0.034736
  27 H :    0.030980
  28 C :   -0.037172
  29 H :    0.012722
  30 H :    0.000175
  31 H :    0.042944
  32 H :    0.061879
  33 H :    0.064769
Sum of atomic charges:   -0.0000000

LOEWDIN ATOMIC CHARGES
----------------------
   0 S :    0.446230
   1 C :   -0.213724
   2 C :   -0.055829
   3 C :   -0.056453
   4 C :   -0.223440
   5 H :    0.027883
   6 C :   -0.026635
   7 H :    0.038921
   8 H :    0.024485
   9 C :   -0.034205
  10 H :    0.024474
  11 H :    0.018139
  12 C :   -0.069903
  13 H :    0.028219
  14 H :    0.026690
  15 H :    0.023176
  16 S :    0.406662
  17 C :   -0.188645
  18 C :   -0.068376
  19 C :   -0.063072
  20 C :   -0.197189
  21 H :    0.033451
  22 C :   -0.027347
  23 H :    0.021668
  24 H :    0.029870
  25 C :   -0.039094
  26 H :    0.033323
  27 H :    0.018553
  28 C :   -0.075104
  29 H :    0.017228
  30 H :    0.016982
  31 H :    0.035536
  32 H :    0.032541
  33 H :    0.034985

  Mayer bond orders larger than 0.100000
B(  0-S ,  1-C ) :   1.1417 B(  0-S ,  4-C ) :   1.1748 B(  1-C ,  2-C ) :   1.5837
B(  1-C , 32-H ) :   0.9621 B(  2-C ,  3-C ) :   1.2371 B(  2-C ,  6-C ) :   1.0219
B(  3-C ,  4-C ) :   1.5442 B(  3-C ,  5-H ) :   1.0036 B(  4-C , 20-C ) :   1.0327
B(  6-C ,  7-H ) :   0.9469 B(  6-C ,  8-H ) :   0.9368 B(  6-C ,  9-C ) :   1.0652
B(  9-C , 10-H ) :   0.9537 B(  9-C , 11-H ) :   0.9589 B(  9-C , 12-C ) :   1.0768
B( 12-C , 13-H ) :   0.9772 B( 12-C , 14-H ) :   0.9732 B( 12-C , 15-H ) :   0.9713
B( 16-S , 17-C ) :   1.1334 B( 16-S , 20-C ) :   1.1681 B( 17-C , 18-C ) :   1.6125
B( 17-C , 20-C ) :   0.1007 B( 17-C , 33-H ) :   0.9647 B( 18-C , 19-C ) :   1.2588
B( 18-C , 21-H ) :   0.9782 B( 19-C , 20-C ) :   1.5793 B( 19-C , 22-C ) :   1.0227
B( 22-C , 23-H ) :   0.9411 B( 22-C , 24-H ) :   0.9357 B( 22-C , 25-C ) :   1.0626
B( 25-C , 26-H ) :   0.9540 B( 25-C , 27-H ) :   0.9595 B( 25-C , 28-C ) :   1.0682
B( 28-C , 29-H ) :   0.9743 B( 28-C , 30-H ) :   0.9690 B( 28-C , 31-H ) :   0.9760

Dispersion correction           -0.014762070
FINAL SINGLE POINT ENERGY     -1339.858533440192

DIPOLE MOMENT
-------------
                                X             Y             Z
Electronic contribution:    -28.54728       4.72967      -7.65040
Nuclear contribution   :     29.09595      -5.06388       7.99551
                        -----------------------------------------
Total Dipole Moment    :      0.54867      -0.33421       0.34510
                        -----------------------------------------
Magnitude (a.u.)       :      0.72927
Magnitude (Debye)      :      1.85365

Rotational constants in cm-1:     0.017779     0.009989     0.007124
Rotational constants in MHz :   533.012046   299.452352   213.582780

                             ****ORCA TERMINATED NORMALLY****
TOTAL RUN TIME: 0 days 0 hours 0 minutes 31 seconds 203 msec
