                         Program Version 4.2.1 -  RELEASE  -
|  1> ! wB97X-D3 SP def2-SVP
|  2> %pal
|  3> nprocs 16
|  4> end
|  5>
|  6> * xyz 0 1
|  7> S 	 -14.2508 	 -7.91966 	 91.1052
|  8> C 	 -15.6017 	 -7.2334 	 90.2227
|  9> C 	 -16.6974 	 -8.0898 	 90.2668
| 10> C 	 -16.4424 	 -9.35752 	 90.9451
| 11> C 	 -15.0781 	 -9.49064 	 91.2396
| 12> H 	 -17.1562 	 -10.1861 	 90.9865
| 13> C 	 -18.0998 	 -7.60676 	 89.7409
| 14> H 	 -17.8391 	 -6.62888 	 89.3184
| 15> H 	 -18.8183 	 -7.3168 	 90.4926
| 16> C 	 -18.7565 	 -8.62089 	 88.7286
| 17> H 	 -18.0637 	 -9.04948 	 88.0058
| 18> H 	 -19.1307 	 -9.45644 	 89.3099
| 19> C 	 -19.8936 	 -7.89286 	 87.9059
| 20> H 	 -19.5952 	 -6.8705 	 87.6017
| 21> H 	 -20.2251 	 -8.37302 	 87.054
| 22> H 	 -20.7579 	 -7.73946 	 88.5176
| 23> S 	 -12.6815 	 -10.3057 	 92.3138
| 24> C 	 -12.5006 	 -11.9279 	 92.956
| 25> C 	 -13.6864 	 -12.653 	 92.8891
| 26> C 	 -14.7234 	 -11.9457 	 92.2153
| 27> C 	 -14.3673 	 -10.623 	 91.8361
| 28> H 	 -13.7079 	 -13.7048 	 93.2254
| 29> C 	 -16.0692 	 -12.5689 	 92.029
| 30> H 	 -16.781 	 -11.8386 	 92.3386
| 31> H 	 -16.0328 	 -13.3677 	 92.6849
| 32> C 	 -16.3835 	 -12.9806 	 90.5825
| 33> H 	 -15.7255 	 -13.8563 	 90.2423
| 34> H 	 -16.2575 	 -12.0465 	 89.9516
| 35> C 	 -17.8756 	 -13.51 	 90.3853
| 36> H 	 -18.6399 	 -12.8332 	 90.799
| 37> H 	 -18.0875 	 -14.5004 	 90.7898
| 38> H 	 -18.0408 	 -13.741 	 89.3327
| 39> H 	 -15.549 	 -6.18561 	 89.8266
| 40> H 	 -11.4971 	 -12.2026 	 93.3773
| 41> *
| 42>
| 43>                          ****END OF INPUT****

CARTESIAN COORDINATES (ANGSTROEM)
---------------------------------
  S    -14.250800   -7.919660   91.105200
  C    -15.601700   -7.233400   90.222700
  C    -16.697400   -8.089800   90.266800
  C    -16.442400   -9.357520   90.945100
  C    -15.078100   -9.490640   91.239600
  H    -17.156200  -10.186100   90.986500
  C    -18.099800   -7.606760   89.740900
  H    -17.839100   -6.628880   89.318400
  H    -18.818300   -7.316800   90.492600
  C    -18.756500   -8.620890   88.728600
  H    -18.063700   -9.049480   88.005800
  H    -19.130700   -9.456440   89.309900
  C    -19.893600   -7.892860   87.905900
  H    -19.595200   -6.870500   87.601700
  H    -20.225100   -8.373020   87.054000
  H    -20.757900   -7.739460   88.517600
  S    -12.681500  -10.305700   92.313800
  C    -12.500600  -11.927900   92.956000
  C    -13.686400  -12.653000   92.889100
  C    -14.723400  -11.945700   92.215300
  C    -14.367300  -10.623000   91.836100
  H    -13.707900  -13.704800   93.225400
  C    -16.069200  -12.568900   92.029000
  H    -16.781000  -11.838600   92.338600
  H    -16.032800  -13.367700   92.684900
  C    -16.383500  -12.980600   90.582500
  H    -15.725500  -13.856300   90.242300
  H    -16.257500  -12.046500   89.951600
  C    -17.875600  -13.510000   90.385300
  H    -18.639900  -12.833200   90.799000
  H    -18.087500  -14.500400   90.789800
  H    -18.040800  -13.741000   89.332700
  H    -15.549000   -6.185610   89.826600
  H    -11.497100  -12.202600   93.377300

 Total Charge           Charge          ....    0
 Multiplicity           Mult            ....    1
 Number of Electrons    NEL             ....  134
 Basis Dimension        Dim             ....  322

ORBITAL ENERGIES
----------------

  NO   OCC          E(Eh)            E(eV)
   0   2.0000     -88.965872     -2420.8844
   1   2.0000     -88.965660     -2420.8787
   2   2.0000     -10.340303      -281.3740
   3   2.0000     -10.333429      -281.1869
   4   2.0000     -10.325882      -280.9815
   5   2.0000     -10.319221      -280.8003
   6   2.0000     -10.309745      -280.5424
   7   2.0000     -10.307769      -280.4887
   8   2.0000     -10.303109      -280.3618
   9   2.0000     -10.302996      -280.3588
  10   2.0000     -10.301011      -280.3048
  11   2.0000     -10.297872      -280.2194
  12   2.0000     -10.292780      -280.0808
  13   2.0000     -10.284519      -279.8560
  14   2.0000     -10.283855      -279.8379
  15   2.0000     -10.273959      -279.5686
  16   2.0000      -8.080255      -219.8749
  17   2.0000      -8.080096      -219.8706
  18   2.0000      -6.038818      -164.3246
  19   2.0000      -6.038732      -164.3222
  20   2.0000      -6.034799      -164.2152
  21   2.0000      -6.034773      -164.2145
  22   2.0000      -6.031109      -164.1148
  23   2.0000      -6.030515      -164.0987
  24   2.0000      -1.001702       -27.2577
  25   2.0000      -0.977860       -26.6089
  26   2.0000      -0.910251       -24.7692
  27   2.0000      -0.898812       -24.4579
  28   2.0000      -0.866016       -23.5655
  29   2.0000      -0.848324       -23.0841
  30   2.0000      -0.840013       -22.8579
  31   2.0000      -0.813212       -22.1286
  32   2.0000      -0.783100       -21.3092
  33   2.0000      -0.767995       -20.8982
  34   2.0000      -0.712442       -19.3865
  35   2.0000      -0.701775       -19.0963
  36   2.0000      -0.686525       -18.6813
  37   2.0000      -0.666839       -18.1456
  38   2.0000      -0.635638       -17.2966
  39   2.0000      -0.620485       -16.8843
  40   2.0000      -0.592898       -16.1336
  41   2.0000      -0.568788       -15.4775
  42   2.0000      -0.565699       -15.3935
  43   2.0000      -0.546629       -14.8745
  44   2.0000      -0.524918       -14.2838
  45   2.0000      -0.522254       -14.2112
  46   2.0000      -0.514668       -14.0048
  47   2.0000      -0.506755       -13.7895
  48   2.0000      -0.504865       -13.7381
  49   2.0000      -0.499529       -13.5929
  50   2.0000      -0.493760       -13.4359
  51   2.0000      -0.480324       -13.0703
  52   2.0000      -0.468697       -12.7539
  53   2.0000      -0.465857       -12.6766
  54   2.0000      -0.458665       -12.4809
  55   2.0000      -0.451699       -12.2914
  56   2.0000      -0.444170       -12.0865
  57   2.0000      -0.442179       -12.0323
  58   2.0000      -0.432767       -11.7762
  59   2.0000      -0.426083       -11.5943
  60   2.0000      -0.422530       -11.4976
  61   2.0000      -0.414942       -11.2911
  62   2.0000      -0.409880       -11.1534
  63   2.0000      -0.363010        -9.8780
  64   2.0000      -0.337212        -9.1760
  65   2.0000      -0.325578        -8.8594
  66   2.0000      -0.277822        -7.5599
  67   0.0000       0.011294         0.3073
  68   0.0000       0.080592         2.1930
  69   0.0000       0.090268         2.4563
  70   0.0000       0.119738         3.2582
  71   0.0000       0.125204         3.4070

MULLIKEN ATOMIC CHARGES
-----------------------
   0 S :    0.083253
   1 C :   -0.135405
   2 C :   -0.093916
   3 C :    0.000951
   4 C :   -0.096733
   5 H :    0.018513
   6 C :    0.055731
   7 H :    0.008131
   8 H :    0.041384
   9 C :   -0.086269
  10 H :    0.039662
  11 H :    0.036333
  12 C :   -0.026332
  13 H :    0.025986
  14 H :    0.020024
  15 H :    0.019789
  16 S :    0.080441
  17 C :   -0.114160
  18 C :   -0.031285
  19 C :   -0.084840
  20 C :   -0.116501
  21 H :    0.035410
  22 C :    0.126765
  23 H :    0.022761
  24 H :   -0.007080
  25 C :   -0.121594
  26 H :    0.047991
  27 H :    0.056012
  28 C :   -0.055574
  29 H :    0.034146
  30 H :    0.025055
  31 H :    0.034436
  32 H :    0.075882
  33 H :    0.081031
Sum of atomic charges:    0.0000000

LOEWDIN ATOMIC CHARGES
----------------------
   0 S :    0.381236
   1 C :   -0.207269
   2 C :   -0.057591
   3 C :   -0.075924
   4 C :   -0.167211
   5 H :    0.030383
   6 C :   -0.028606
   7 H :    0.026815
   8 H :    0.030753
   9 C :   -0.035894
  10 H :    0.025764
  11 H :    0.022075
  12 C :   -0.060891
  13 H :    0.028054
  14 H :    0.014322
  15 H :    0.021574
  16 S :    0.390127
  17 C :   -0.183622
  18 C :   -0.079844
  19 C :   -0.049253
  20 C :   -0.189051
  21 H :    0.040394
  22 C :   -0.028801
  23 H :    0.027436
  24 H :    0.020355
  25 C :   -0.040851
  26 H :    0.036020
  27 H :    0.032626
  28 C :   -0.076932
  29 H :    0.022857
  30 H :    0.023942
  31 H :    0.028284
  32 H :    0.040313
  33 H :    0.038410

  Mayer bond orders larger than 0.100000
B(  0-S ,  1-C ) :   1.1169 B(  0-S ,  4-C ) :   1.1451 B(  1-C ,  2-C ) :   1.6358
B(  1-C , 32-H ) :   0.9589 B(  2-C ,  3-C ) :   1.2259 B(  2-C ,  6-C ) :   1.0174
B(  3-C ,  4-C ) :   1.5571 B(  3-C ,  5-H ) :   0.9821 B(  4-C , 20-C ) :   1.1111
B(  6-C ,  7-H ) :   0.9477 B(  6-C ,  8-H ) :   0.9470 B(  6-C ,  9-C ) :   1.0377
B(  9-C , 10-H ) :   0.9676 B(  9-C , 11-H ) :   0.9582 B(  9-C , 12-C ) :   1.0728
B( 12-C , 13-H ) :   0.9785 B( 12-C , 14-H ) :   0.9784 B( 12-C , 15-H ) :   0.9755
B( 16-S , 17-C ) :   1.1735 B( 16-S , 20-C ) :   1.1324 B( 17-C , 18-C ) :   1.5701
B( 17-C , 20-C ) :   0.1017 B( 17-C , 33-H ) :   0.9626 B( 18-C , 19-C ) :   1.2779
B( 18-C , 21-H ) :   0.9841 B( 19-C , 20-C ) :   1.5405 B( 19-C , 22-C ) :   1.0450
B( 22-C , 23-H ) :   0.9262 B( 22-C , 24-H ) :   0.9203 B( 22-C , 25-C ) :   1.0664
B( 25-C , 26-H ) :   0.9529 B( 25-C , 27-H ) :   0.9545 B( 25-C , 28-C ) :   1.0713
B( 28-C , 29-H ) :   0.9759 B( 28-C , 30-H ) :   0.9749 B( 28-C , 31-H ) :   0.9750

Dispersion correction           -0.014053697
FINAL SINGLE POINT ENERGY     -1339.870742719625

DIPOLE MOMENT
-------------
                                X             Y             Z
Electronic contribution:     29.56492       8.48969      13.67844
Nuclear contribution   :    -30.11734      -8.85684     -13.75050
                        -----------------------------------------
Total Dipole Moment    :     -0.55242      -0.36715      -0.07206
                        -----------------------------------------
Magnitude (a.u.)       :      0.66720
Magnitude (Debye)      :      1.69589

Rotational constants in cm-1:     0.018282     0.009099     0.006236
Rotational constants in MHz :   548.088157   272.772736   186.950230

                             ****ORCA TERMINATED NORMALLY****
TOTAL RUN TIME: 0 days 0 hours 0 minutes 31 seconds 612 msec
