                         Program Version 4.2.1 -  RELEASE  -
|  1> ! wB97X-D3 SP def2-SVP
|  2> %pal
|  3> nprocs 16
|  4> end
|  5>
|  6> * xyz 0 1
|  7> S 	 3.18458 	 75.9381 	 44.4943
|  8> C 	 1.72201 	 75.0642 	 45.0553
|  9> C 	 1.97791 	 73.7131 	 45.1497
| 10> C 	 3.36548 	 73.412 	 44.875
| 11> C 	 4.1762 	 74.4766 	 44.5467
| 12> H 	 3.75131 	 72.4517 	 44.9575
| 13> C 	 0.953098 	 72.6105 	 45.4463
| 14> H 	 0.0188988 	 72.84 	 45.03
| 15> H 	 0.770587 	 72.6121 	 46.5135
| 16> C 	 1.26029 	 71.1907 	 44.9581
| 17> H 	 1.10749 	 71.0449 	 43.8777
| 18> H 	 2.31212 	 70.9709 	 45.1924
| 19> C 	 0.465185 	 70.073 	 45.6578
| 20> H 	 0.673742 	 69.1526 	 45.1035
| 21> H 	 0.692416 	 69.8808 	 46.7352
| 22> H 	 -0.608824 	 70.3687 	 45.6487
| 23> S 	 6.13851 	 73.0577 	 43.1439
| 24> C 	 7.837 	 73.537 	 43.1384
| 25> C 	 7.97146 	 74.6578 	 43.9149
| 26> C 	 6.71487 	 75.2093 	 44.4648
| 27> C 	 5.57321 	 74.475 	 44.1245
| 28> H 	 8.93623 	 75.1213 	 44.1524
| 29> C 	 6.64318 	 76.4322 	 45.3966
| 30> H 	 7.43717 	 76.2575 	 46.1445
| 31> H 	 5.68148 	 76.3958 	 45.9707
| 32> C 	 6.72823 	 77.8576 	 44.6886
| 33> H 	 6.21553 	 78.4823 	 45.4165
| 34> H 	 6.07382 	 77.924 	 43.8566
| 35> C 	 8.17412 	 78.4019 	 44.2975
| 36> H 	 8.61886 	 77.8837 	 43.3936
| 37> H 	 8.87221 	 78.2919 	 45.1505
| 38> H 	 8.14174 	 79.4768 	 44.0164
| 39> H 	 0.683408 	 75.397 	 45.3048
| 40> H 	 8.63553 	 73.0413 	 42.635
| 41> *
| 42>
| 43>                          ****END OF INPUT****

CARTESIAN COORDINATES (ANGSTROEM)
---------------------------------
  S      3.184580   75.938100   44.494300
  C      1.722010   75.064200   45.055300
  C      1.977910   73.713100   45.149700
  C      3.365480   73.412000   44.875000
  C      4.176200   74.476600   44.546700
  H      3.751310   72.451700   44.957500
  C      0.953098   72.610500   45.446300
  H      0.018899   72.840000   45.030000
  H      0.770587   72.612100   46.513500
  C      1.260290   71.190700   44.958100
  H      1.107490   71.044900   43.877700
  H      2.312120   70.970900   45.192400
  C      0.465185   70.073000   45.657800
  H      0.673742   69.152600   45.103500
  H      0.692416   69.880800   46.735200
  H     -0.608824   70.368700   45.648700
  S      6.138510   73.057700   43.143900
  C      7.837000   73.537000   43.138400
  C      7.971460   74.657800   43.914900
  C      6.714870   75.209300   44.464800
  C      5.573210   74.475000   44.124500
  H      8.936230   75.121300   44.152400
  C      6.643180   76.432200   45.396600
  H      7.437170   76.257500   46.144500
  H      5.681480   76.395800   45.970700
  C      6.728230   77.857600   44.688600
  H      6.215530   78.482300   45.416500
  H      6.073820   77.924000   43.856600
  C      8.174120   78.401900   44.297500
  H      8.618860   77.883700   43.393600
  H      8.872210   78.291900   45.150500
  H      8.141740   79.476800   44.016400
  H      0.683408   75.397000   45.304800
  H      8.635530   73.041300   42.635000

 Total Charge           Charge          ....    0
 Multiplicity           Mult            ....    1
 Number of Electrons    NEL             ....  134
 Basis Dimension        Dim             ....  322

ORBITAL ENERGIES
----------------

  NO   OCC          E(Eh)            E(eV)
   0   2.0000     -88.970075     -2420.9988
   1   2.0000     -88.961668     -2420.7701
   2   2.0000     -10.336005      -281.2570
   3   2.0000     -10.335440      -281.2416
   4   2.0000     -10.322312      -280.8844
   5   2.0000     -10.320966      -280.8478
   6   2.0000     -10.311611      -280.5932
   7   2.0000     -10.304488      -280.3994
   8   2.0000     -10.300777      -280.2984
   9   2.0000     -10.300063      -280.2789
  10   2.0000     -10.291062      -280.0340
  11   2.0000     -10.290663      -280.0232
  12   2.0000     -10.290612      -280.0218
  13   2.0000     -10.290419      -280.0165
  14   2.0000     -10.290409      -280.0163
  15   2.0000     -10.285528      -279.8835
  16   2.0000      -8.083229      -219.9558
  17   2.0000      -8.075303      -219.7402
  18   2.0000      -6.042061      -164.4128
  19   2.0000      -6.037931      -164.3005
  20   2.0000      -6.034096      -164.1961
  21   2.0000      -6.033741      -164.1864
  22   2.0000      -6.029897      -164.0818
  23   2.0000      -6.025868      -163.9722
  24   2.0000      -0.998412       -27.1682
  25   2.0000      -0.975578       -26.5468
  26   2.0000      -0.911995       -24.8166
  27   2.0000      -0.892311       -24.2810
  28   2.0000      -0.870934       -23.6993
  29   2.0000      -0.844103       -22.9692
  30   2.0000      -0.835705       -22.7407
  31   2.0000      -0.814123       -22.1534
  32   2.0000      -0.782411       -21.2905
  33   2.0000      -0.770928       -20.9780
  34   2.0000      -0.714536       -19.4435
  35   2.0000      -0.698545       -19.0084
  36   2.0000      -0.687918       -18.7192
  37   2.0000      -0.665239       -18.1021
  38   2.0000      -0.631754       -17.1909
  39   2.0000      -0.622125       -16.9289
  40   2.0000      -0.590068       -16.0566
  41   2.0000      -0.570609       -15.5271
  42   2.0000      -0.565903       -15.3990
  43   2.0000      -0.540752       -14.7146
  44   2.0000      -0.532428       -14.4881
  45   2.0000      -0.527128       -14.3439
  46   2.0000      -0.515403       -14.0248
  47   2.0000      -0.513032       -13.9603
  48   2.0000      -0.498598       -13.5675
  49   2.0000      -0.496438       -13.5088
  50   2.0000      -0.488740       -13.2993
  51   2.0000      -0.482663       -13.1339
  52   2.0000      -0.475734       -12.9454
  53   2.0000      -0.462257       -12.5786
  54   2.0000      -0.456957       -12.4344
  55   2.0000      -0.447164       -12.1679
  56   2.0000      -0.439439       -11.9577
  57   2.0000      -0.436919       -11.8892
  58   2.0000      -0.430719       -11.7205
  59   2.0000      -0.427193       -11.6245
  60   2.0000      -0.422286       -11.4910
  61   2.0000      -0.413021       -11.2389
  62   2.0000      -0.402234       -10.9453
  63   2.0000      -0.353352        -9.6152
  64   2.0000      -0.330690        -8.9985
  65   2.0000      -0.324780        -8.8377
  66   2.0000      -0.293965        -7.9992
  67   0.0000       0.023660         0.6438
  68   0.0000       0.071932         1.9574
  69   0.0000       0.108721         2.9584
  70   0.0000       0.110910         3.0180
  71   0.0000       0.127519         3.4700

MULLIKEN ATOMIC CHARGES
-----------------------
   0 S :    0.103314
   1 C :   -0.131007
   2 C :   -0.092698
   3 C :    0.027492
   4 C :   -0.126610
   5 H :   -0.018294
   6 C :    0.104364
   7 H :    0.010214
   8 H :    0.034633
   9 C :   -0.111468
  10 H :    0.047317
  11 H :    0.036697
  12 C :   -0.078513
  13 H :    0.042883
  14 H :    0.040271
  15 H :    0.032485
  16 S :    0.073531
  17 C :   -0.072802
  18 C :   -0.020552
  19 C :   -0.056691
  20 C :   -0.126035
  21 H :    0.025745
  22 C :    0.007491
  23 H :    0.035907
  24 H :    0.038667
  25 C :   -0.032962
  26 H :    0.028015
  27 H :    0.022230
  28 C :   -0.088578
  29 H :    0.048876
  30 H :    0.036868
  31 H :    0.044587
  32 H :    0.056870
  33 H :    0.057752
Sum of atomic charges:    0.0000000

LOEWDIN ATOMIC CHARGES
----------------------
   0 S :    0.389571
   1 C :   -0.197738
   2 C :   -0.058228
   3 C :   -0.060747
   4 C :   -0.183098
   5 H :    0.014402
   6 C :   -0.030526
   7 H :    0.023860
   8 H :    0.035187
   9 C :   -0.043086
  10 H :    0.030632
  11 H :    0.023249
  12 C :   -0.069195
  13 H :    0.029942
  14 H :    0.027336
  15 H :    0.024998
  16 S :    0.369421
  17 C :   -0.170845
  18 C :   -0.075348
  19 C :   -0.052560
  20 C :   -0.181081
  21 H :    0.032245
  22 C :   -0.038166
  23 H :    0.033042
  24 H :    0.031905
  25 C :   -0.035872
  26 H :    0.026505
  27 H :    0.019352
  28 C :   -0.077200
  29 H :    0.031780
  30 H :    0.024697
  31 H :    0.031282
  32 H :    0.042797
  33 H :    0.031487

  Mayer bond orders larger than 0.100000
B(  0-S ,  1-C ) :   1.1170 B(  0-S ,  4-C ) :   1.1300 B(  1-C ,  2-C ) :   1.6502
B(  1-C , 32-H ) :   0.9606 B(  2-C ,  3-C ) :   1.2356 B(  2-C ,  6-C ) :   1.0039
B(  3-C ,  4-C ) :   1.5862 B(  3-C ,  5-H ) :   0.9998 B(  4-C , 20-C ) :   1.0491
B(  6-C ,  7-H ) :   0.9369 B(  6-C ,  8-H ) :   0.9356 B(  6-C ,  9-C ) :   1.0698
B(  9-C , 10-H ) :   0.9590 B(  9-C , 11-H ) :   0.9512 B(  9-C , 12-C ) :   1.0819
B( 12-C , 13-H ) :   0.9742 B( 12-C , 14-H ) :   0.9759 B( 12-C , 15-H ) :   0.9756
B( 16-S , 17-C ) :   1.1422 B( 16-S , 20-C ) :   1.1078 B( 17-C , 18-C ) :   1.6158
B( 17-C , 33-H ) :   0.9727 B( 18-C , 19-C ) :   1.2279 B( 18-C , 21-H ) :   0.9848
B( 19-C , 20-C ) :   1.5972 B( 19-C , 22-C ) :   1.0413 B( 22-C , 23-H ) :   0.9412
B( 22-C , 24-H ) :   0.9378 B( 22-C , 25-C ) :   1.0517 B( 25-C , 26-H ) :   0.9598
B( 25-C , 27-H ) :   0.9570 B( 25-C , 28-C ) :   1.0626 B( 28-C , 29-H ) :   0.9760
B( 28-C , 30-H ) :   0.9786 B( 28-C , 31-H ) :   0.9747

Dispersion correction           -0.013921809
FINAL SINGLE POINT ENERGY     -1339.877386969067

DIPOLE MOMENT
-------------
                                X             Y             Z
Electronic contribution:      3.74209       1.30654      -7.52526
Nuclear contribution   :     -3.75868      -1.43126       7.83272
                        -----------------------------------------
Total Dipole Moment    :     -0.01659      -0.12473       0.30746
                        -----------------------------------------
Magnitude (a.u.)       :      0.33221
Magnitude (Debye)      :      0.84442

Rotational constants in cm-1:     0.023725     0.007296     0.005850
Rotational constants in MHz :   711.246070   218.742691   175.389940

                             ****ORCA TERMINATED NORMALLY****
TOTAL RUN TIME: 0 days 0 hours 0 minutes 32 seconds 366 msec
