                         Program Version 4.2.1 -  RELEASE  -
|  1> ! wB97X-D3 SP def2-SVP
|  2> %pal
|  3> nprocs 16
|  4> end
|  5>
|  6> * xyz 0 1
|  7> S 	 37.2284 	 6.60387 	 86.2469
|  8> C 	 37.4304 	 6.51625 	 84.4523
|  9> C 	 38.7243 	 6.10317 	 84.1189
| 10> C 	 39.6166 	 6.13536 	 85.2447
| 11> C 	 39.0005 	 6.55869 	 86.3982
| 12> H 	 40.704 	 5.98467 	 85.2301
| 13> C 	 39.171 	 5.66769 	 82.7176
| 14> H 	 40.1402 	 6.108 	 82.4212
| 15> H 	 38.3767 	 6.08903 	 82.0496
| 16> C 	 39.3165 	 4.15136 	 82.4611
| 17> H 	 38.3977 	 3.67431 	 82.6785
| 18> H 	 39.5414 	 3.91781 	 81.4702
| 19> C 	 40.3727 	 3.52437 	 83.2852
| 20> H 	 40.5823 	 2.5223 	 82.8503
| 21> H 	 41.2231 	 4.19089 	 83.3061
| 22> H 	 39.98 	 3.40128 	 84.2849
| 23> S 	 39.6676 	 5.9371 	 89.0469
| 24> C 	 40.6932 	 7.10304 	 89.9305
| 25> C 	 41.0094 	 8.13519 	 89.0694
| 26> C 	 40.3843 	 8.11188 	 87.7691
| 27> C 	 39.6072 	 6.96206 	 87.619
| 28> H 	 41.5691 	 8.95163 	 89.4701
| 29> C 	 40.5301 	 9.26384 	 86.738
| 30> H 	 41.0618 	 8.83096 	 85.8674
| 31> H 	 41.1563 	 9.99639 	 87.1082
| 32> C 	 39.1862 	 9.87031 	 86.3155
| 33> H 	 38.6726 	 10.196 	 87.2607
| 34> H 	 38.625 	 9.0356 	 85.9554
| 35> C 	 39.3426 	 11.0957 	 85.3094
| 36> H 	 38.3132 	 11.4094 	 85.3128
| 37> H 	 39.5582 	 10.7272 	 84.3014
| 38> H 	 40.0112 	 11.8682 	 85.5805
| 39> H 	 36.6206 	 6.39966 	 83.7797
| 40> H 	 40.994 	 7.0548 	 90.9303
| 41> *
| 42>
| 43>                          ****END OF INPUT****

CARTESIAN COORDINATES (ANGSTROEM)
---------------------------------
  S     37.228400    6.603870   86.246900
  C     37.430400    6.516250   84.452300
  C     38.724300    6.103170   84.118900
  C     39.616600    6.135360   85.244700
  C     39.000500    6.558690   86.398200
  H     40.704000    5.984670   85.230100
  C     39.171000    5.667690   82.717600
  H     40.140200    6.108000   82.421200
  H     38.376700    6.089030   82.049600
  C     39.316500    4.151360   82.461100
  H     38.397700    3.674310   82.678500
  H     39.541400    3.917810   81.470200
  C     40.372700    3.524370   83.285200
  H     40.582300    2.522300   82.850300
  H     41.223100    4.190890   83.306100
  H     39.980000    3.401280   84.284900
  S     39.667600    5.937100   89.046900
  C     40.693200    7.103040   89.930500
  C     41.009400    8.135190   89.069400
  C     40.384300    8.111880   87.769100
  C     39.607200    6.962060   87.619000
  H     41.569100    8.951630   89.470100
  C     40.530100    9.263840   86.738000
  H     41.061800    8.830960   85.867400
  H     41.156300    9.996390   87.108200
  C     39.186200    9.870310   86.315500
  H     38.672600   10.196000   87.260700
  H     38.625000    9.035600   85.955400
  C     39.342600   11.095700   85.309400
  H     38.313200   11.409400   85.312800
  H     39.558200   10.727200   84.301400
  H     40.011200   11.868200   85.580500
  H     36.620600    6.399660   83.779700
  H     40.994000    7.054800   90.930300

 Total Charge           Charge          ....    0
 Multiplicity           Mult            ....    1
 Number of Electrons    NEL             ....  134
 Basis Dimension        Dim             ....  322

ORBITAL ENERGIES
----------------

  NO   OCC          E(Eh)            E(eV)
   0   2.0000     -88.967870     -2420.9388
   1   2.0000     -88.965412     -2420.8719
   2   2.0000     -10.330056      -281.0951
   3   2.0000     -10.322199      -280.8813
   4   2.0000     -10.320267      -280.8287
   5   2.0000     -10.317168      -280.7444
   6   2.0000     -10.310672      -280.5676
   7   2.0000     -10.304996      -280.4132
   8   2.0000     -10.300042      -280.2784
   9   2.0000     -10.299901      -280.2746
  10   2.0000     -10.292326      -280.0684
  11   2.0000     -10.284765      -279.8627
  12   2.0000     -10.282831      -279.8101
  13   2.0000     -10.274488      -279.5830
  14   2.0000     -10.273780      -279.5638
  15   2.0000     -10.272284      -279.5231
  16   2.0000      -8.081073      -219.8972
  17   2.0000      -8.079271      -219.8481
  18   2.0000      -6.039655      -164.3474
  19   2.0000      -6.037898      -164.2996
  20   2.0000      -6.036088      -164.2503
  21   2.0000      -6.033841      -164.1892
  22   2.0000      -6.031521      -164.1260
  23   2.0000      -6.030025      -164.0853
  24   2.0000      -1.002485       -27.2790
  25   2.0000      -0.976023       -26.5589
  26   2.0000      -0.917524       -24.9671
  27   2.0000      -0.899492       -24.4764
  28   2.0000      -0.873121       -23.7588
  29   2.0000      -0.847084       -23.0503
  30   2.0000      -0.839896       -22.8547
  31   2.0000      -0.816042       -22.2056
  32   2.0000      -0.783233       -21.3128
  33   2.0000      -0.770782       -20.9741
  34   2.0000      -0.711397       -19.3581
  35   2.0000      -0.700626       -19.0650
  36   2.0000      -0.691282       -18.8107
  37   2.0000      -0.659350       -17.9418
  38   2.0000      -0.643176       -17.5017
  39   2.0000      -0.613156       -16.6848
  40   2.0000      -0.589680       -16.0460
  41   2.0000      -0.580357       -15.7923
  42   2.0000      -0.562579       -15.3086
  43   2.0000      -0.555103       -15.1051
  44   2.0000      -0.544523       -14.8172
  45   2.0000      -0.524591       -14.2748
  46   2.0000      -0.515415       -14.0252
  47   2.0000      -0.512654       -13.9500
  48   2.0000      -0.501370       -13.6430
  49   2.0000      -0.498377       -13.5615
  50   2.0000      -0.489113       -13.3094
  51   2.0000      -0.481917       -13.1136
  52   2.0000      -0.477076       -12.9819
  53   2.0000      -0.466898       -12.7049
  54   2.0000      -0.456736       -12.4284
  55   2.0000      -0.444408       -12.0930
  56   2.0000      -0.441345       -12.0096
  57   2.0000      -0.432580       -11.7711
  58   2.0000      -0.428177       -11.6513
  59   2.0000      -0.423663       -11.5284
  60   2.0000      -0.422301       -11.4914
  61   2.0000      -0.415797       -11.3144
  62   2.0000      -0.407867       -11.0986
  63   2.0000      -0.336554        -9.1581
  64   2.0000      -0.331944        -9.0327
  65   2.0000      -0.323417        -8.8006
  66   2.0000      -0.304145        -8.2762
  67   0.0000       0.030145         0.8203
  68   0.0000       0.052013         1.4153
  69   0.0000       0.101593         2.7645
  70   0.0000       0.122437         3.3317
  71   0.0000       0.122972         3.3462

MULLIKEN ATOMIC CHARGES
-----------------------
   0 S :    0.102074
   1 C :   -0.103510
   2 C :   -0.104970
   3 C :    0.070484
   4 C :   -0.224091
   5 H :    0.027075
   6 C :    0.029205
   7 H :    0.032658
   8 H :    0.028975
   9 C :   -0.017106
  10 H :    0.010210
  11 H :    0.014770
  12 C :   -0.054173
  13 H :    0.039597
  14 H :    0.020602
  15 H :    0.041757
  16 S :    0.105540
  17 C :   -0.077843
  18 C :   -0.029947
  19 C :   -0.044140
  20 C :   -0.158346
  21 H :    0.010511
  22 C :    0.148038
  23 H :    0.024773
  24 H :   -0.013475
  25 C :   -0.119103
  26 H :    0.036422
  27 H :    0.040111
  28 C :   -0.015447
  29 H :    0.033982
  30 H :    0.033550
  31 H :    0.033379
  32 H :    0.037945
  33 H :    0.040494
Sum of atomic charges:    0.0000000

LOEWDIN ATOMIC CHARGES
----------------------
   0 S :    0.373776
   1 C :   -0.176897
   2 C :   -0.056477
   3 C :   -0.055330
   4 C :   -0.181198
   5 H :    0.038834
   6 C :   -0.032042
   7 H :    0.029463
   8 H :    0.034998
   9 C :   -0.036083
  10 H :    0.019084
  11 H :    0.016815
  12 C :   -0.060590
  13 H :    0.032915
  14 H :    0.018308
  15 H :    0.026038
  16 S :    0.387110
  17 C :   -0.167005
  18 C :   -0.068525
  19 C :   -0.044731
  20 C :   -0.214364
  21 H :    0.026104
  22 C :   -0.026196
  23 H :    0.033013
  24 H :    0.012958
  25 C :   -0.034667
  26 H :    0.028054
  27 H :    0.017657
  28 C :   -0.058689
  29 H :    0.030389
  30 H :    0.027455
  31 H :    0.019148
  32 H :    0.018736
  33 H :    0.021939

  Mayer bond orders larger than 0.100000
B(  0-S ,  1-C ) :   1.1183 B(  0-S ,  4-C ) :   1.1311 B(  1-C ,  2-C ) :   1.6415
B(  1-C ,  4-C ) :   0.1040 B(  1-C , 32-H ) :   0.9667 B(  2-C ,  3-C ) :   1.1969
B(  2-C ,  6-C ) :   1.0219 B(  3-C ,  4-C ) :   1.6173 B(  3-C ,  5-H ) :   0.9900
B(  4-C , 20-C ) :   1.0288 B(  6-C ,  7-H ) :   0.9455 B(  6-C ,  8-H ) :   0.9399
B(  6-C ,  9-C ) :   1.0762 B(  9-C , 10-H ) :   0.9477 B(  9-C , 11-H ) :   0.9559
B(  9-C , 12-C ) :   1.0910 B( 12-C , 13-H ) :   0.9700 B( 12-C , 14-H ) :   0.9730
B( 12-C , 15-H ) :   0.9715 B( 16-S , 17-C ) :   1.1360 B( 16-S , 20-C ) :   1.1401
B( 17-C , 18-C ) :   1.6221 B( 17-C , 33-H ) :   0.9753 B( 18-C , 19-C ) :   1.2470
B( 18-C , 21-H ) :   0.9862 B( 19-C , 20-C ) :   1.5820 B( 19-C , 22-C ) :   1.0343
B( 22-C , 23-H ) :   0.9222 B( 22-C , 24-H ) :   0.9306 B( 22-C , 25-C ) :   1.0626
B( 25-C , 26-H ) :   0.9590 B( 25-C , 27-H ) :   0.9562 B( 25-C , 28-C ) :   1.0692
B( 28-C , 29-H ) :   0.9767 B( 28-C , 30-H ) :   0.9758 B( 28-C , 31-H ) :   0.9783

Dispersion correction           -0.015482402
FINAL SINGLE POINT ENERGY     -1339.866867423532

DIPOLE MOMENT
-------------
                                X             Y             Z
Electronic contribution:     -7.08029      -5.86834      20.44396
Nuclear contribution   :      7.41699       6.01155     -20.90868
                        -----------------------------------------
Total Dipole Moment    :      0.33670       0.14321      -0.46471
                        -----------------------------------------
Magnitude (a.u.)       :      0.59147
Magnitude (Debye)      :      1.50339

Rotational constants in cm-1:     0.017720     0.009476     0.007783
Rotational constants in MHz :   531.246629   284.068983   233.341607

                             ****ORCA TERMINATED NORMALLY****
TOTAL RUN TIME: 0 days 0 hours 0 minutes 29 seconds 943 msec
