                         Program Version 4.2.1 -  RELEASE  -
|  1> ! wB97X-D3 SP def2-SVP
|  2> %pal
|  3> nprocs 16
|  4> end
|  5>
|  6> * xyz 0 1
|  7> S 	 -15.9447 	 -11.8946 	 90.318
|  8> C 	 -16.3137 	 -11.5576 	 88.6225
|  9> C 	 -15.4794 	 -10.6107 	 88.0425
| 10> C 	 -14.426 	 -10.3131 	 88.9434
| 11> C 	 -14.5801 	 -10.8967 	 90.2067
| 12> H 	 -13.5817 	 -9.76212 	 88.6055
| 13> C 	 -15.6707 	 -10.0303 	 86.7157
| 14> H 	 -16.2693 	 -10.7946 	 86.2564
| 15> H 	 -14.6605 	 -10.0525 	 86.3361
| 16> C 	 -16.4087 	 -8.62804 	 86.7269
| 17> H 	 -17.3266 	 -8.65681 	 87.313
| 18> H 	 -15.7331 	 -8.02653 	 87.2965
| 19> C 	 -16.5195 	 -7.87258 	 85.3852
| 20> H 	 -17.0077 	 -6.93011 	 85.5919
| 21> H 	 -15.5683 	 -7.65422 	 84.8931
| 22> H 	 -17.2179 	 -8.44947 	 84.764
| 23> S 	 -14.2558 	 -9.24834 	 92.3999
| 24> C 	 -12.8968 	 -9.55497 	 93.457
| 25> C 	 -12.1482 	 -10.6548 	 93.1127
| 26> C 	 -12.5951 	 -11.2673 	 91.8989
| 27> C 	 -13.7477 	 -10.6902 	 91.3756
| 28> H 	 -11.3599 	 -10.928 	 93.8489
| 29> C 	 -11.8694 	 -12.5339 	 91.3428
| 30> H 	 -10.7654 	 -12.4084 	 91.5082
| 31> H 	 -12.0848 	 -12.69 	 90.283
| 32> C 	 -12.1928 	 -13.8954 	 92.0949
| 33> H 	 -11.5519 	 -14.7866 	 91.8669
| 34> H 	 -13.0995 	 -14.1829 	 91.8322
| 35> C 	 -12.1258 	 -13.7179 	 93.6549
| 36> H 	 -12.878 	 -13.1367 	 94.1466
| 37> H 	 -11.1504 	 -13.412 	 94.0528
| 38> H 	 -12.1993 	 -14.7276 	 94.0623
| 39> H 	 -17.2046 	 -11.8882 	 88.1263
| 40> H 	 -12.796 	 -9.17145 	 94.4518
| 41> *
| 42>
| 43>                          ****END OF INPUT****

CARTESIAN COORDINATES (ANGSTROEM)
---------------------------------
  S    -15.944700  -11.894600   90.318000
  C    -16.313700  -11.557600   88.622500
  C    -15.479400  -10.610700   88.042500
  C    -14.426000  -10.313100   88.943400
  C    -14.580100  -10.896700   90.206700
  H    -13.581700   -9.762120   88.605500
  C    -15.670700  -10.030300   86.715700
  H    -16.269300  -10.794600   86.256400
  H    -14.660500  -10.052500   86.336100
  C    -16.408700   -8.628040   86.726900
  H    -17.326600   -8.656810   87.313000
  H    -15.733100   -8.026530   87.296500
  C    -16.519500   -7.872580   85.385200
  H    -17.007700   -6.930110   85.591900
  H    -15.568300   -7.654220   84.893100
  H    -17.217900   -8.449470   84.764000
  S    -14.255800   -9.248340   92.399900
  C    -12.896800   -9.554970   93.457000
  C    -12.148200  -10.654800   93.112700
  C    -12.595100  -11.267300   91.898900
  C    -13.747700  -10.690200   91.375600
  H    -11.359900  -10.928000   93.848900
  C    -11.869400  -12.533900   91.342800
  H    -10.765400  -12.408400   91.508200
  H    -12.084800  -12.690000   90.283000
  C    -12.192800  -13.895400   92.094900
  H    -11.551900  -14.786600   91.866900
  H    -13.099500  -14.182900   91.832200
  C    -12.125800  -13.717900   93.654900
  H    -12.878000  -13.136700   94.146600
  H    -11.150400  -13.412000   94.052800
  H    -12.199300  -14.727600   94.062300
  H    -17.204600  -11.888200   88.126300
  H    -12.796000   -9.171450   94.451800

 Total Charge           Charge          ....    0
 Multiplicity           Mult            ....    1
 Number of Electrons    NEL             ....  134
 Basis Dimension        Dim             ....  322

ORBITAL ENERGIES
----------------

  NO   OCC          E(Eh)            E(eV)
   0   2.0000     -88.969034     -2420.9705
   1   2.0000     -88.961136     -2420.7556
   2   2.0000     -10.330479      -281.1066
   3   2.0000     -10.325053      -280.9590
   4   2.0000     -10.311969      -280.6029
   5   2.0000     -10.311877      -280.6004
   6   2.0000     -10.309437      -280.5340
   7   2.0000     -10.299134      -280.2537
   8   2.0000     -10.294206      -280.1196
   9   2.0000     -10.293963      -280.1130
  10   2.0000     -10.290343      -280.0145
  11   2.0000     -10.289978      -280.0045
  12   2.0000     -10.289600      -279.9942
  13   2.0000     -10.283519      -279.8288
  14   2.0000     -10.281566      -279.7756
  15   2.0000     -10.273420      -279.5540
  16   2.0000      -8.084283      -219.9845
  17   2.0000      -8.074932      -219.7301
  18   2.0000      -6.042564      -164.4265
  19   2.0000      -6.038721      -164.3220
  20   2.0000      -6.035251      -164.2275
  21   2.0000      -6.033431      -164.1780
  22   2.0000      -6.029722      -164.0771
  23   2.0000      -6.025607      -163.9651
  24   2.0000      -1.005481       -27.3605
  25   2.0000      -0.977945       -26.6112
  26   2.0000      -0.916183       -24.9306
  27   2.0000      -0.895538       -24.3688
  28   2.0000      -0.867275       -23.5998
  29   2.0000      -0.850575       -23.1453
  30   2.0000      -0.839534       -22.8449
  31   2.0000      -0.812470       -22.1084
  32   2.0000      -0.785712       -21.3803
  33   2.0000      -0.770608       -20.9693
  34   2.0000      -0.712742       -19.3947
  35   2.0000      -0.704755       -19.1774
  36   2.0000      -0.693627       -18.8745
  37   2.0000      -0.654283       -17.8040
  38   2.0000      -0.638594       -17.3770
  39   2.0000      -0.619111       -16.8469
  40   2.0000      -0.583639       -15.8816
  41   2.0000      -0.570220       -15.5165
  42   2.0000      -0.560071       -15.2403
  43   2.0000      -0.551152       -14.9976
  44   2.0000      -0.534236       -14.5373
  45   2.0000      -0.524538       -14.2734
  46   2.0000      -0.519096       -14.1253
  47   2.0000      -0.514500       -14.0003
  48   2.0000      -0.504372       -13.7247
  49   2.0000      -0.496096       -13.4995
  50   2.0000      -0.480160       -13.0658
  51   2.0000      -0.476084       -12.9549
  52   2.0000      -0.467312       -12.7162
  53   2.0000      -0.459694       -12.5089
  54   2.0000      -0.458560       -12.4780
  55   2.0000      -0.453526       -12.3411
  56   2.0000      -0.441827       -12.0227
  57   2.0000      -0.438909       -11.9433
  58   2.0000      -0.432334       -11.7644
  59   2.0000      -0.430291       -11.7088
  60   2.0000      -0.422072       -11.4852
  61   2.0000      -0.415699       -11.3117
  62   2.0000      -0.411683       -11.2025
  63   2.0000      -0.335772        -9.1368
  64   2.0000      -0.326473        -8.8838
  65   2.0000      -0.314971        -8.5708
  66   2.0000      -0.310844        -8.4585
  67   0.0000       0.044702         1.2164
  68   0.0000       0.048904         1.3308
  69   0.0000       0.109506         2.9798
  70   0.0000       0.119289         3.2460
  71   0.0000       0.123442         3.3590

MULLIKEN ATOMIC CHARGES
-----------------------
   0 S :    0.135625
   1 C :   -0.118174
   2 C :   -0.137673
   3 C :    0.065468
   4 C :   -0.180632
   5 H :   -0.001717
   6 C :    0.106513
   7 H :    0.011554
   8 H :    0.024978
   9 C :   -0.072809
  10 H :    0.035277
  11 H :    0.015847
  12 C :   -0.027092
  13 H :    0.032856
  14 H :    0.040759
  15 H :    0.031997
  16 S :    0.090653
  17 C :   -0.079091
  18 C :   -0.072128
  19 C :    0.008766
  20 C :   -0.184919
  21 H :    0.038910
  22 C :    0.053421
  23 H :    0.037467
  24 H :    0.037197
  25 C :   -0.016886
  26 H :    0.036973
  27 H :   -0.005228
  28 C :   -0.082010
  29 H :    0.048315
  30 H :    0.021318
  31 H :    0.020871
  32 H :    0.032469
  33 H :    0.051124
Sum of atomic charges:   -0.0000000

LOEWDIN ATOMIC CHARGES
----------------------
   0 S :    0.435154
   1 C :   -0.197629
   2 C :   -0.062143
   3 C :   -0.053667
   4 C :   -0.225554
   5 H :    0.026303
   6 C :   -0.030161
   7 H :    0.027931
   8 H :    0.033950
   9 C :   -0.034230
  10 H :    0.028883
  11 H :    0.020472
  12 C :   -0.062728
  13 H :    0.028084
  14 H :    0.028235
  15 H :    0.024693
  16 S :    0.364914
  17 C :   -0.183155
  18 C :   -0.078042
  19 C :   -0.047359
  20 C :   -0.176570
  21 H :    0.042253
  22 C :   -0.028581
  23 H :    0.035217
  24 H :    0.029910
  25 C :   -0.023151
  26 H :    0.033903
  27 H :    0.000340
  28 C :   -0.071300
  29 H :    0.022744
  30 H :    0.020554
  31 H :    0.026028
  32 H :    0.018677
  33 H :    0.026026

  Mayer bond orders larger than 0.100000
B(  0-S ,  1-C ) :   1.1439 B(  0-S ,  4-C ) :   1.1856 B(  1-C ,  2-C ) :   1.6016
B(  1-C , 32-H ) :   0.9632 B(  2-C ,  3-C ) :   1.2625 B(  2-C ,  6-C ) :   1.0180
B(  3-C ,  4-C ) :   1.5481 B(  3-C ,  5-H ) :   1.0010 B(  4-C , 20-C ) :   1.0058
B(  6-C ,  7-H ) :   0.9309 B(  6-C ,  8-H ) :   0.9339 B(  6-C ,  9-C ) :   1.0472
B(  9-C , 10-H ) :   0.9572 B(  9-C , 11-H ) :   0.9573 B(  9-C , 12-C ) :   1.0831
B( 12-C , 13-H ) :   0.9722 B( 12-C , 14-H ) :   0.9750 B( 12-C , 15-H ) :   0.9770
B( 16-S , 17-C ) :   1.1466 B( 16-S , 20-C ) :   1.1163 B( 17-C , 18-C ) :   1.6674
B( 17-C , 20-C ) :   0.1010 B( 17-C , 33-H ) :   0.9575 B( 18-C , 19-C ) :   1.1912
B( 18-C , 21-H ) :   0.9795 B( 19-C , 20-C ) :   1.6475 B( 19-C , 22-C ) :   1.0378
B( 22-C , 23-H ) :   0.9432 B( 22-C , 24-H ) :   0.9417 B( 22-C , 25-C ) :   1.0596
B( 25-C , 26-H ) :   0.9611 B( 25-C , 27-H ) :   0.9532 B( 25-C , 28-C ) :   1.0800
B( 28-C , 29-H ) :   0.9712 B( 28-C , 30-H ) :   0.9751 B( 28-C , 31-H ) :   0.9709

Dispersion correction           -0.014326610
FINAL SINGLE POINT ENERGY     -1339.856298815770

DIPOLE MOMENT
-------------
                                X             Y             Z
Electronic contribution:     -5.05055       2.89796      11.12574
Nuclear contribution   :      5.19503      -3.00791     -11.35694
                        -----------------------------------------
Total Dipole Moment    :      0.14448      -0.10994      -0.23120
                        -----------------------------------------
Magnitude (a.u.)       :      0.29396
Magnitude (Debye)      :      0.74719

Rotational constants in cm-1:     0.025362     0.007007     0.006261
Rotational constants in MHz :   760.342934   210.061270   187.689086

                             ****ORCA TERMINATED NORMALLY****
TOTAL RUN TIME: 0 days 0 hours 0 minutes 33 seconds 164 msec
