                         Program Version 4.2.1 -  RELEASE  -
|  1> ! wB97X-D3 SP def2-SVP
|  2> %pal
|  3> nprocs 16
|  4> end
|  5>
|  6> * xyz 0 1
|  7> S 	 -39.3624 	 18.4347 	 73.1908
|  8> C 	 -37.6397 	 18.7022 	 73.3738
|  9> C 	 -36.8422 	 17.6044 	 72.9754
| 10> C 	 -37.6552 	 16.5461 	 72.4774
| 11> C 	 -38.9773 	 16.9426 	 72.2305
| 12> H 	 -37.2512 	 15.6957 	 71.8756
| 13> C 	 -35.3073 	 17.6162 	 73.0889
| 14> H 	 -34.9258 	 16.6103 	 73.4185
| 15> H 	 -35.0373 	 18.3862 	 73.8828
| 16> C 	 -34.5675 	 18.2279 	 71.8659
| 17> H 	 -35.0338 	 19.2259 	 71.6543
| 18> H 	 -33.5354 	 18.4229 	 72.1589
| 19> C 	 -34.6921 	 17.2634 	 70.608
| 20> H 	 -34.0372 	 16.4227 	 70.8243
| 21> H 	 -35.6366 	 16.745 	 70.5878
| 22> H 	 -34.4401 	 17.7457 	 69.6874
| 23> S 	 -41.5311 	 15.8221 	 72.563
| 24> C 	 -42.2178 	 14.7585 	 71.3265
| 25> C 	 -41.2957 	 14.5744 	 70.3151
| 26> C 	 -40.0903 	 15.2943 	 70.5377
| 27> C 	 -40.0473 	 16.1467 	 71.6369
| 28> H 	 -41.5136 	 13.905 	 69.5187
| 29> C 	 -38.9475 	 15.2223 	 69.5192
| 30> H 	 -38.1414 	 15.9701 	 69.8002
| 31> H 	 -39.375 	 15.3389 	 68.5517
| 32> C 	 -38.0908 	 13.8953 	 69.541
| 33> H 	 -38.7671 	 13.0042 	 69.5832
| 34> H 	 -37.4745 	 13.9234 	 70.4606
| 35> C 	 -37.1713 	 13.9132 	 68.2737
| 36> H 	 -36.7593 	 14.9442 	 68.2062
| 37> H 	 -37.6685 	 13.7854 	 67.2846
| 38> H 	 -36.4411 	 13.1274 	 68.4181
| 39> H 	 -37.2008 	 19.5456 	 73.8831
| 40> H 	 -43.2066 	 14.2273 	 71.36
| 41> *
| 42>
| 43>                          ****END OF INPUT****

CARTESIAN COORDINATES (ANGSTROEM)
---------------------------------
  S    -39.362400   18.434700   73.190800
  C    -37.639700   18.702200   73.373800
  C    -36.842200   17.604400   72.975400
  C    -37.655200   16.546100   72.477400
  C    -38.977300   16.942600   72.230500
  H    -37.251200   15.695700   71.875600
  C    -35.307300   17.616200   73.088900
  H    -34.925800   16.610300   73.418500
  H    -35.037300   18.386200   73.882800
  C    -34.567500   18.227900   71.865900
  H    -35.033800   19.225900   71.654300
  H    -33.535400   18.422900   72.158900
  C    -34.692100   17.263400   70.608000
  H    -34.037200   16.422700   70.824300
  H    -35.636600   16.745000   70.587800
  H    -34.440100   17.745700   69.687400
  S    -41.531100   15.822100   72.563000
  C    -42.217800   14.758500   71.326500
  C    -41.295700   14.574400   70.315100
  C    -40.090300   15.294300   70.537700
  C    -40.047300   16.146700   71.636900
  H    -41.513600   13.905000   69.518700
  C    -38.947500   15.222300   69.519200
  H    -38.141400   15.970100   69.800200
  H    -39.375000   15.338900   68.551700
  C    -38.090800   13.895300   69.541000
  H    -38.767100   13.004200   69.583200
  H    -37.474500   13.923400   70.460600
  C    -37.171300   13.913200   68.273700
  H    -36.759300   14.944200   68.206200
  H    -37.668500   13.785400   67.284600
  H    -36.441100   13.127400   68.418100
  H    -37.200800   19.545600   73.883100
  H    -43.206600   14.227300   71.360000

 Total Charge           Charge          ....    0
 Multiplicity           Mult            ....    1
 Number of Electrons    NEL             ....  134
 Basis Dimension        Dim             ....  322

ORBITAL ENERGIES
----------------

  NO   OCC          E(Eh)            E(eV)
   0   2.0000     -88.972700     -2421.0702
   1   2.0000     -88.963612     -2420.8230
   2   2.0000     -10.341779      -281.4141
   3   2.0000     -10.330387      -281.1041
   4   2.0000     -10.325647      -280.9751
   5   2.0000     -10.319353      -280.8039
   6   2.0000     -10.309239      -280.5287
   7   2.0000     -10.306860      -280.4639
   8   2.0000     -10.305427      -280.4249
   9   2.0000     -10.304114      -280.3892
  10   2.0000     -10.297203      -280.2011
  11   2.0000     -10.297118      -280.1988
  12   2.0000     -10.293802      -280.1086
  13   2.0000     -10.293215      -280.0926
  14   2.0000     -10.286225      -279.9024
  15   2.0000     -10.278246      -279.6853
  16   2.0000      -8.086205      -220.0368
  17   2.0000      -8.077696      -219.8053
  18   2.0000      -6.044642      -164.4831
  19   2.0000      -6.041102      -164.3867
  20   2.0000      -6.036892      -164.2722
  21   2.0000      -6.036354      -164.2575
  22   2.0000      -6.032243      -164.1457
  23   2.0000      -6.028364      -164.0401
  24   2.0000      -1.001330       -27.2476
  25   2.0000      -0.979612       -26.6566
  26   2.0000      -0.905065       -24.6281
  27   2.0000      -0.901711       -24.5368
  28   2.0000      -0.867879       -23.6162
  29   2.0000      -0.848197       -23.0806
  30   2.0000      -0.841456       -22.8972
  31   2.0000      -0.814657       -22.1679
  32   2.0000      -0.779866       -21.2212
  33   2.0000      -0.764922       -20.8146
  34   2.0000      -0.704714       -19.1762
  35   2.0000      -0.701346       -19.0846
  36   2.0000      -0.691629       -18.8202
  37   2.0000      -0.662865       -18.0375
  38   2.0000      -0.636989       -17.3334
  39   2.0000      -0.615117       -16.7382
  40   2.0000      -0.590992       -16.0817
  41   2.0000      -0.572293       -15.5729
  42   2.0000      -0.564792       -15.3688
  43   2.0000      -0.544109       -14.8060
  44   2.0000      -0.540130       -14.6977
  45   2.0000      -0.523054       -14.2330
  46   2.0000      -0.515821       -14.0362
  47   2.0000      -0.513069       -13.9613
  48   2.0000      -0.506293       -13.7769
  49   2.0000      -0.497819       -13.5463
  50   2.0000      -0.492219       -13.3940
  51   2.0000      -0.476286       -12.9604
  52   2.0000      -0.470116       -12.7925
  53   2.0000      -0.464658       -12.6440
  54   2.0000      -0.455423       -12.3927
  55   2.0000      -0.448548       -12.2056
  56   2.0000      -0.443247       -12.0614
  57   2.0000      -0.438161       -11.9230
  58   2.0000      -0.434239       -11.8162
  59   2.0000      -0.425881       -11.5888
  60   2.0000      -0.421525       -11.4703
  61   2.0000      -0.415820       -11.3150
  62   2.0000      -0.406307       -11.0562
  63   2.0000      -0.352426        -9.5900
  64   2.0000      -0.334674        -9.1070
  65   2.0000      -0.327097        -8.9008
  66   2.0000      -0.288145        -7.8408
  67   0.0000       0.016689         0.4541
  68   0.0000       0.063370         1.7244
  69   0.0000       0.099053         2.6954
  70   0.0000       0.114482         3.1152
  71   0.0000       0.122132         3.3234

MULLIKEN ATOMIC CHARGES
-----------------------
   0 S :    0.110881
   1 C :   -0.093428
   2 C :   -0.104058
   3 C :    0.051140
   4 C :   -0.182069
   5 H :    0.023276
   6 C :    0.000957
   7 H :    0.046707
   8 H :    0.033022
   9 C :   -0.071840
  10 H :    0.035238
  11 H :    0.038723
  12 C :   -0.021120
  13 H :    0.017215
  14 H :    0.009881
  15 H :    0.043763
  16 S :    0.083119
  17 C :   -0.108829
  18 C :   -0.013008
  19 C :   -0.043196
  20 C :   -0.101751
  21 H :    0.010680
  22 C :    0.012304
  23 H :    0.040351
  24 H :    0.027083
  25 C :   -0.107169
  26 H :    0.037480
  27 H :    0.036975
  28 C :   -0.053497
  29 H :    0.033637
  30 H :    0.040933
  31 H :    0.042242
  32 H :    0.044233
  33 H :    0.080128
Sum of atomic charges:   -0.0000000

LOEWDIN ATOMIC CHARGES
----------------------
   0 S :    0.386234
   1 C :   -0.190269
   2 C :   -0.064233
   3 C :   -0.063703
   4 C :   -0.166729
   5 H :    0.034614
   6 C :   -0.038764
   7 H :    0.034476
   8 H :    0.038021
   9 C :   -0.036936
  10 H :    0.027346
  11 H :    0.022995
  12 C :   -0.065229
  13 H :    0.025877
  14 H :    0.019545
  15 H :    0.023713
  16 S :    0.382090
  17 C :   -0.180290
  18 C :   -0.073904
  19 C :   -0.059446
  20 C :   -0.195433
  21 H :    0.028886
  22 C :   -0.034218
  23 H :    0.034064
  24 H :    0.024048
  25 C :   -0.039923
  26 H :    0.022557
  27 H :    0.020953
  28 C :   -0.069994
  29 H :    0.029055
  30 H :    0.029362
  31 H :    0.025257
  32 H :    0.024563
  33 H :    0.045415

  Mayer bond orders larger than 0.100000
B(  0-S ,  1-C ) :   1.1426 B(  0-S ,  4-C ) :   1.1383 B(  1-C ,  2-C ) :   1.6103
B(  1-C ,  4-C ) :   0.1067 B(  1-C , 32-H ) :   0.9621 B(  2-C ,  3-C ) :   1.2539
B(  2-C ,  6-C ) :   1.0237 B(  3-C ,  4-C ) :   1.5636 B(  3-C ,  5-H ) :   0.9658
B(  4-C , 20-C ) :   1.0655 B(  6-C ,  7-H ) :   0.9488 B(  6-C ,  8-H ) :   0.9409
B(  6-C ,  9-C ) :   1.0618 B(  9-C , 10-H ) :   0.9558 B(  9-C , 11-H ) :   0.9612
B(  9-C , 12-C ) :   1.0583 B( 12-C , 13-H ) :   0.9702 B( 12-C , 14-H ) :   0.9791
B( 12-C , 15-H ) :   0.9773 B( 16-S , 17-C ) :   1.1569 B( 16-S , 20-C ) :   1.1136
B( 17-C , 18-C ) :   1.5963 B( 17-C , 33-H ) :   0.9599 B( 18-C , 19-C ) :   1.2414
B( 18-C , 21-H ) :   0.9993 B( 19-C , 20-C ) :   1.5980 B( 19-C , 22-C ) :   1.0457
B( 22-C , 23-H ) :   0.9366 B( 22-C , 24-H ) :   0.9468 B( 22-C , 25-C ) :   1.0503
B( 25-C , 26-H ) :   0.9580 B( 25-C , 27-H ) :   0.9541 B( 25-C , 28-C ) :   1.0662
B( 28-C , 29-H ) :   0.9707 B( 28-C , 30-H ) :   0.9765 B( 28-C , 31-H ) :   0.9760

Dispersion correction           -0.015096002
FINAL SINGLE POINT ENERGY     -1339.866565192592

DIPOLE MOMENT
-------------
                                X             Y             Z
Electronic contribution:    -26.66010       7.65354      16.83021
Nuclear contribution   :     27.21002      -7.96117     -17.19693
                        -----------------------------------------
Total Dipole Moment    :      0.54993      -0.30763      -0.36672
                        -----------------------------------------
Magnitude (a.u.)       :      0.72907
Magnitude (Debye)      :      1.85314

Rotational constants in cm-1:     0.016621     0.010547     0.006772
Rotational constants in MHz :   498.270654   316.180901   203.010654

                             ****ORCA TERMINATED NORMALLY****
TOTAL RUN TIME: 0 days 0 hours 0 minutes 31 seconds 777 msec
