                         Program Version 4.2.1 -  RELEASE  -
|  1> ! wB97X-D3 SP def2-SVP
|  2> %pal
|  3> nprocs 16
|  4> end
|  5>
|  6> * xyz 0 1
|  7> S 	 -59.1828 	 37.3678 	 117.701
|  8> C 	 -58.1504 	 38.2252 	 118.798
|  9> C 	 -58.5406 	 39.5722 	 119.008
| 10> C 	 -59.5888 	 39.9398 	 118.153
| 11> C 	 -60.0571 	 38.8739 	 117.379
| 12> H 	 -60.1763 	 40.8661 	 118.053
| 13> C 	 -58.0469 	 40.533 	 119.995
| 14> H 	 -57.5062 	 41.3615 	 119.499
| 15> H 	 -57.2336 	 40.0481 	 120.582
| 16> C 	 -59.02 	 41.1073 	 121.064
| 17> H 	 -58.5581 	 41.9962 	 121.501
| 18> H 	 -59.8463 	 41.564 	 120.609
| 19> C 	 -59.3347 	 40.2391 	 122.249
| 20> H 	 -60.0704 	 40.7145 	 122.981
| 21> H 	 -59.5507 	 39.2075 	 122.037
| 22> H 	 -58.467 	 40.1393 	 122.891
| 23> S 	 -61.1528 	 38.8687 	 114.805
| 24> C 	 -62.8463 	 39.0838 	 114.678
| 25> C 	 -63.486 	 39.3092 	 115.892
| 26> C 	 -62.5737 	 39.1796 	 117.009
| 27> C 	 -61.2897 	 38.9286 	 116.569
| 28> H 	 -64.4692 	 39.6525 	 115.919
| 29> C 	 -63.1214 	 39.2721 	 118.417
| 30> H 	 -62.3286 	 39.114 	 119.134
| 31> H 	 -63.8898 	 38.4822 	 118.52
| 32> C 	 -63.8219 	 40.6066 	 118.672
| 33> H 	 -64.4427 	 40.47 	 119.548
| 34> H 	 -64.5015 	 40.8337 	 117.844
| 35> C 	 -62.8282 	 41.7124 	 118.888
| 36> H 	 -62.2773 	 41.9684 	 117.953
| 37> H 	 -62.165 	 41.5721 	 119.726
| 38> H 	 -63.4409 	 42.5869 	 119.04
| 39> H 	 -57.5304 	 37.6897 	 119.545
| 40> H 	 -63.3625 	 39.2369 	 113.719
| 41> *
| 42>
| 43>                          ****END OF INPUT****

CARTESIAN COORDINATES (ANGSTROEM)
---------------------------------
  S    -59.182800   37.367800  117.701000
  C    -58.150400   38.225200  118.798000
  C    -58.540600   39.572200  119.008000
  C    -59.588800   39.939800  118.153000
  C    -60.057100   38.873900  117.379000
  H    -60.176300   40.866100  118.053000
  C    -58.046900   40.533000  119.995000
  H    -57.506200   41.361500  119.499000
  H    -57.233600   40.048100  120.582000
  C    -59.020000   41.107300  121.064000
  H    -58.558100   41.996200  121.501000
  H    -59.846300   41.564000  120.609000
  C    -59.334700   40.239100  122.249000
  H    -60.070400   40.714500  122.981000
  H    -59.550700   39.207500  122.037000
  H    -58.467000   40.139300  122.891000
  S    -61.152800   38.868700  114.805000
  C    -62.846300   39.083800  114.678000
  C    -63.486000   39.309200  115.892000
  C    -62.573700   39.179600  117.009000
  C    -61.289700   38.928600  116.569000
  H    -64.469200   39.652500  115.919000
  C    -63.121400   39.272100  118.417000
  H    -62.328600   39.114000  119.134000
  H    -63.889800   38.482200  118.520000
  C    -63.821900   40.606600  118.672000
  H    -64.442700   40.470000  119.548000
  H    -64.501500   40.833700  117.844000
  C    -62.828200   41.712400  118.888000
  H    -62.277300   41.968400  117.953000
  H    -62.165000   41.572100  119.726000
  H    -63.440900   42.586900  119.040000
  H    -57.530400   37.689700  119.545000
  H    -63.362500   39.236900  113.719000

 Total Charge           Charge          ....    0
 Multiplicity           Mult            ....    1
 Number of Electrons    NEL             ....  134
 Basis Dimension        Dim             ....  322

ORBITAL ENERGIES
----------------

  NO   OCC          E(Eh)            E(eV)
   0   2.0000     -88.968883     -2420.9664
   1   2.0000     -88.964328     -2420.8424
   2   2.0000     -10.326674      -281.0031
   3   2.0000     -10.322875      -280.8997
   4   2.0000     -10.317041      -280.7410
   5   2.0000     -10.315802      -280.7073
   6   2.0000     -10.302670      -280.3499
   7   2.0000     -10.300361      -280.2871
   8   2.0000     -10.293819      -280.1090
   9   2.0000     -10.292053      -280.0610
  10   2.0000     -10.289000      -279.9779
  11   2.0000     -10.288623      -279.9677
  12   2.0000     -10.285206      -279.8747
  13   2.0000     -10.285148      -279.8731
  14   2.0000     -10.280155      -279.7372
  15   2.0000     -10.276867      -279.6478
  16   2.0000      -8.083303      -219.9579
  17   2.0000      -8.079595      -219.8570
  18   2.0000      -6.041623      -164.4009
  19   2.0000      -6.037975      -164.3017
  20   2.0000      -6.037862      -164.2986
  21   2.0000      -6.034287      -164.2013
  22   2.0000      -6.034175      -164.1983
  23   2.0000      -6.030322      -164.0934
  24   2.0000      -1.002647       -27.2834
  25   2.0000      -0.982695       -26.7405
  26   2.0000      -0.916843       -24.9486
  27   2.0000      -0.913227       -24.8502
  28   2.0000      -0.864320       -23.5193
  29   2.0000      -0.855453       -23.2781
  30   2.0000      -0.850352       -23.1392
  31   2.0000      -0.810091       -22.0437
  32   2.0000      -0.785479       -21.3740
  33   2.0000      -0.770687       -20.9715
  34   2.0000      -0.712124       -19.3779
  35   2.0000      -0.699832       -19.0434
  36   2.0000      -0.688432       -18.7332
  37   2.0000      -0.656481       -17.8637
  38   2.0000      -0.640015       -17.4157
  39   2.0000      -0.619267       -16.8511
  40   2.0000      -0.600811       -16.3489
  41   2.0000      -0.565342       -15.3837
  42   2.0000      -0.556206       -15.1351
  43   2.0000      -0.551585       -15.0094
  44   2.0000      -0.543766       -14.7966
  45   2.0000      -0.534048       -14.5322
  46   2.0000      -0.522456       -14.2167
  47   2.0000      -0.513547       -13.9743
  48   2.0000      -0.498548       -13.5662
  49   2.0000      -0.490726       -13.3533
  50   2.0000      -0.485848       -13.2206
  51   2.0000      -0.478399       -13.0179
  52   2.0000      -0.473308       -12.8794
  53   2.0000      -0.463557       -12.6140
  54   2.0000      -0.459131       -12.4936
  55   2.0000      -0.450644       -12.2626
  56   2.0000      -0.448800       -12.2125
  57   2.0000      -0.438451       -11.9309
  58   2.0000      -0.434490       -11.8231
  59   2.0000      -0.428273       -11.6539
  60   2.0000      -0.424427       -11.5493
  61   2.0000      -0.417800       -11.3689
  62   2.0000      -0.411923       -11.2090
  63   2.0000      -0.337327        -9.1791
  64   2.0000      -0.327975        -8.9246
  65   2.0000      -0.325841        -8.8666
  66   2.0000      -0.297658        -8.0997
  67   0.0000       0.039998         1.0884
  68   0.0000       0.058985         1.6051
  69   0.0000       0.115010         3.1296
  70   0.0000       0.119031         3.2390
  71   0.0000       0.125712         3.4208

MULLIKEN ATOMIC CHARGES
-----------------------
   0 S :    0.122322
   1 C :   -0.112866
   2 C :   -0.078919
   3 C :    0.036696
   4 C :   -0.181556
   5 H :    0.011649
   6 C :    0.036765
   7 H :    0.044402
   8 H :    0.007466
   9 C :   -0.027543
  10 H :    0.015577
  11 H :    0.004058
  12 C :   -0.051037
  13 H :    0.042895
  14 H :    0.033287
  15 H :    0.014756
  16 S :    0.119465
  17 C :   -0.091954
  18 C :   -0.036444
  19 C :   -0.023094
  20 C :   -0.200556
  21 H :    0.000500
  22 C :    0.095150
  23 H :    0.024303
  24 H :    0.038445
  25 C :   -0.088759
  26 H :    0.025222
  27 H :    0.027677
  28 C :   -0.043972
  29 H :    0.050469
  30 H :    0.039550
  31 H :    0.022691
  32 H :    0.060897
  33 H :    0.062456
Sum of atomic charges:    0.0000000

LOEWDIN ATOMIC CHARGES
----------------------
   0 S :    0.413030
   1 C :   -0.214314
   2 C :   -0.069335
   3 C :   -0.057761
   4 C :   -0.192568
   5 H :    0.037599
   6 C :   -0.037369
   7 H :    0.040682
   8 H :    0.030245
   9 C :   -0.040118
  10 H :    0.030895
  11 H :    0.011582
  12 C :   -0.071547
  13 H :    0.038013
  14 H :    0.021741
  15 H :    0.023423
  16 S :    0.411032
  17 C :   -0.193833
  18 C :   -0.070203
  19 C :   -0.047539
  20 C :   -0.207538
  21 H :    0.018946
  22 C :   -0.026870
  23 H :    0.027401
  24 H :    0.037016
  25 C :   -0.038290
  26 H :    0.023367
  27 H :    0.023978
  28 C :   -0.065351
  29 H :    0.030841
  30 H :    0.022209
  31 H :    0.026647
  32 H :    0.032042
  33 H :    0.031945

  Mayer bond orders larger than 0.100000
B(  0-S ,  1-C ) :   1.1537 B(  0-S ,  4-C ) :   1.1660 B(  1-C ,  2-C ) :   1.5844
B(  1-C ,  4-C ) :   0.1003 B(  1-C , 32-H ) :   0.9555 B(  2-C ,  3-C ) :   1.2355
B(  2-C ,  6-C ) :   1.0485 B(  3-C ,  4-C ) :   1.5749 B(  3-C ,  5-H ) :   0.9898
B(  4-C , 20-C ) :   1.0085 B(  6-C ,  7-H ) :   0.9318 B(  6-C ,  8-H ) :   0.9369
B(  6-C ,  9-C ) :   1.0718 B(  9-C , 10-H ) :   0.9430 B(  9-C , 11-H ) :   0.9562
B(  9-C , 12-C ) :   1.0769 B( 12-C , 13-H ) :   0.9706 B( 12-C , 14-H ) :   0.9798
B( 12-C , 15-H ) :   0.9676 B( 16-S , 17-C ) :   1.1653 B( 16-S , 20-C ) :   1.1364
B( 17-C , 18-C ) :   1.6268 B( 17-C , 33-H ) :   0.9611 B( 18-C , 19-C ) :   1.2095
B( 18-C , 21-H ) :   0.9951 B( 19-C , 20-C ) :   1.6215 B( 19-C , 22-C ) :   1.0419
B( 22-C , 23-H ) :   0.9335 B( 22-C , 24-H ) :   0.9337 B( 22-C , 25-C ) :   1.0729
B( 25-C , 26-H ) :   0.9513 B( 25-C , 27-H ) :   0.9551 B( 25-C , 28-C ) :   1.0891
B( 28-C , 29-H ) :   0.9634 B( 28-C , 30-H ) :   0.9714 B( 28-C , 31-H ) :   0.9631

Dispersion correction           -0.016104739
FINAL SINGLE POINT ENERGY     -1339.883340979874

DIPOLE MOMENT
-------------
                                X             Y             Z
Electronic contribution:      5.85210     -16.97089     -25.03048
Nuclear contribution   :     -6.26017      17.50747      25.62690
                        -----------------------------------------
Total Dipole Moment    :     -0.40807       0.53658       0.59642
                        -----------------------------------------
Magnitude (a.u.)       :      0.90008
Magnitude (Debye)      :      2.28783

Rotational constants in cm-1:     0.018931     0.010282     0.007514
Rotational constants in MHz :   567.548428   308.253968   225.256773

                             ****ORCA TERMINATED NORMALLY****
TOTAL RUN TIME: 0 days 0 hours 0 minutes 32 seconds 908 msec
