                         Program Version 4.2.1 -  RELEASE  -
|  1> ! wB97X-D3 SP def2-SVP
|  2> %pal
|  3> nprocs 16
|  4> end
|  5>
|  6> * xyz 0 1
|  7> S 	 -24.0387 	 -7.98748 	 84.8998
|  8> C 	 -24.1482 	 -9.60032 	 84.4308
|  9> C 	 -23.0128 	 -10.3174 	 84.6798
| 10> C 	 -21.9995 	 -9.51676 	 85.3569
| 11> C 	 -22.4176 	 -8.27799 	 85.5694
| 12> H 	 -20.9772 	 -9.83437 	 85.6811
| 13> C 	 -22.7925 	 -11.7753 	 84.2483
| 14> H 	 -21.7557 	 -12.1331 	 84.4983
| 15> H 	 -22.9387 	 -11.8351 	 83.1638
| 16> C 	 -23.8358 	 -12.7904 	 84.8333
| 17> H 	 -24.7861 	 -12.6523 	 84.2064
| 18> H 	 -23.558 	 -13.7726 	 84.6056
| 19> C 	 -24.1644 	 -12.4341 	 86.2821
| 20> H 	 -23.3273 	 -12.0463 	 86.8315
| 21> H 	 -24.8947 	 -11.6185 	 86.2791
| 22> H 	 -24.5483 	 -13.3565 	 86.7455
| 23> S 	 -21.2305 	 -7.08136 	 87.7034
| 24> C 	 -20.383 	 -5.59247 	 87.5605
| 25> C 	 -20.2942 	 -5.20204 	 86.247
| 26> C 	 -20.9617 	 -6.0851 	 85.3515
| 27> C 	 -21.6059 	 -7.14338 	 86.0574
| 28> H 	 -19.6536 	 -4.36874 	 86.059
| 29> C 	 -21.222 	 -5.85115 	 83.8705
| 30> H 	 -21.0167 	 -4.81132 	 83.7346
| 31> H 	 -22.2854 	 -5.94717 	 83.5841
| 32> C 	 -20.6179 	 -6.76719 	 82.8794
| 33> H 	 -20.9358 	 -7.80561 	 83.0182
| 34> H 	 -19.5673 	 -6.65856 	 82.9827
| 35> C 	 -21.0724 	 -6.53684 	 81.4265
| 36> H 	 -22.0503 	 -6.25931 	 81.4375
| 37> H 	 -21.0394 	 -7.46454 	 80.9587
| 38> H 	 -20.4453 	 -5.83286 	 80.8692
| 39> H 	 -24.9739 	 -10.029 	 83.8948
| 40> H 	 -19.9496 	 -5.0072 	 88.3989
| 41> *
| 42>
| 43>                          ****END OF INPUT****

CARTESIAN COORDINATES (ANGSTROEM)
---------------------------------
  S    -24.038700   -7.987480   84.899800
  C    -24.148200   -9.600320   84.430800
  C    -23.012800  -10.317400   84.679800
  C    -21.999500   -9.516760   85.356900
  C    -22.417600   -8.277990   85.569400
  H    -20.977200   -9.834370   85.681100
  C    -22.792500  -11.775300   84.248300
  H    -21.755700  -12.133100   84.498300
  H    -22.938700  -11.835100   83.163800
  C    -23.835800  -12.790400   84.833300
  H    -24.786100  -12.652300   84.206400
  H    -23.558000  -13.772600   84.605600
  C    -24.164400  -12.434100   86.282100
  H    -23.327300  -12.046300   86.831500
  H    -24.894700  -11.618500   86.279100
  H    -24.548300  -13.356500   86.745500
  S    -21.230500   -7.081360   87.703400
  C    -20.383000   -5.592470   87.560500
  C    -20.294200   -5.202040   86.247000
  C    -20.961700   -6.085100   85.351500
  C    -21.605900   -7.143380   86.057400
  H    -19.653600   -4.368740   86.059000
  C    -21.222000   -5.851150   83.870500
  H    -21.016700   -4.811320   83.734600
  H    -22.285400   -5.947170   83.584100
  C    -20.617900   -6.767190   82.879400
  H    -20.935800   -7.805610   83.018200
  H    -19.567300   -6.658560   82.982700
  C    -21.072400   -6.536840   81.426500
  H    -22.050300   -6.259310   81.437500
  H    -21.039400   -7.464540   80.958700
  H    -20.445300   -5.832860   80.869200
  H    -24.973900  -10.029000   83.894800
  H    -19.949600   -5.007200   88.398900

 Total Charge           Charge          ....    0
 Multiplicity           Mult            ....    1
 Number of Electrons    NEL             ....  134
 Basis Dimension        Dim             ....  322

ORBITAL ENERGIES
----------------

  NO   OCC          E(Eh)            E(eV)
   0   2.0000     -88.966420     -2420.8994
   1   2.0000     -88.965461     -2420.8733
   2   2.0000     -10.325886      -280.9817
   3   2.0000     -10.321732      -280.8686
   4   2.0000     -10.313623      -280.6479
   5   2.0000     -10.308506      -280.5087
   6   2.0000     -10.304173      -280.3908
   7   2.0000     -10.302216      -280.3376
   8   2.0000     -10.297488      -280.2089
   9   2.0000     -10.296951      -280.1943
  10   2.0000     -10.291197      -280.0377
  11   2.0000     -10.287251      -279.9303
  12   2.0000     -10.280247      -279.7397
  13   2.0000     -10.272346      -279.5248
  14   2.0000     -10.271191      -279.4933
  15   2.0000     -10.259994      -279.1886
  16   2.0000      -8.081862      -219.9186
  17   2.0000      -8.081592      -219.9113
  18   2.0000      -6.040299      -164.3649
  19   2.0000      -6.039763      -164.3503
  20   2.0000      -6.036347      -164.2574
  21   2.0000      -6.035725      -164.2404
  22   2.0000      -6.032815      -164.1613
  23   2.0000      -6.032574      -164.1547
  24   2.0000      -1.014027       -27.5931
  25   2.0000      -0.993279       -27.0285
  26   2.0000      -0.913740       -24.8641
  27   2.0000      -0.907230       -24.6870
  28   2.0000      -0.874253       -23.7896
  29   2.0000      -0.851512       -23.1708
  30   2.0000      -0.847263       -23.0552
  31   2.0000      -0.818279       -22.2665
  32   2.0000      -0.782378       -21.2896
  33   2.0000      -0.770819       -20.9750
  34   2.0000      -0.703742       -19.1498
  35   2.0000      -0.699877       -19.0446
  36   2.0000      -0.686915       -18.6919
  37   2.0000      -0.658670       -17.9233
  38   2.0000      -0.644983       -17.5509
  39   2.0000      -0.614045       -16.7090
  40   2.0000      -0.595345       -16.2002
  41   2.0000      -0.573220       -15.5981
  42   2.0000      -0.570643       -15.5280
  43   2.0000      -0.547192       -14.8899
  44   2.0000      -0.546002       -14.8575
  45   2.0000      -0.526464       -14.3258
  46   2.0000      -0.513233       -13.9658
  47   2.0000      -0.510393       -13.8885
  48   2.0000      -0.504122       -13.7179
  49   2.0000      -0.497059       -13.5257
  50   2.0000      -0.493980       -13.4419
  51   2.0000      -0.482355       -13.1255
  52   2.0000      -0.475694       -12.9443
  53   2.0000      -0.469281       -12.7698
  54   2.0000      -0.464747       -12.6464
  55   2.0000      -0.450378       -12.2554
  56   2.0000      -0.444279       -12.0895
  57   2.0000      -0.433502       -11.7962
  58   2.0000      -0.429210       -11.6794
  59   2.0000      -0.420905       -11.4534
  60   2.0000      -0.417824       -11.3696
  61   2.0000      -0.409962       -11.1556
  62   2.0000      -0.405629       -11.0377
  63   2.0000      -0.346390        -9.4257
  64   2.0000      -0.335769        -9.1367
  65   2.0000      -0.320233        -8.7140
  66   2.0000      -0.302674        -8.2362
  67   0.0000       0.044208         1.2030
  68   0.0000       0.062602         1.7035
  69   0.0000       0.114658         3.1200
  70   0.0000       0.126581         3.4445
  71   0.0000       0.129661         3.5283

MULLIKEN ATOMIC CHARGES
-----------------------
   0 S :    0.121223
   1 C :   -0.106904
   2 C :   -0.124213
   3 C :    0.040979
   4 C :   -0.160581
   5 H :    0.033842
   6 C :    0.055401
   7 H :    0.033956
   8 H :    0.036932
   9 C :   -0.103004
  10 H :    0.023723
  11 H :    0.020860
  12 C :   -0.009357
  13 H :    0.027947
  14 H :    0.033146
  15 H :    0.039268
  16 S :    0.131433
  17 C :   -0.117249
  18 C :   -0.041776
  19 C :    0.006426
  20 C :   -0.192843
  21 H :    0.013379
  22 C :    0.074779
  23 H :    0.006448
  24 H :    0.012917
  25 C :   -0.086502
  26 H :    0.037114
  27 H :    0.015180
  28 C :    0.025239
  29 H :   -0.001661
  30 H :    0.011778
  31 H :    0.032088
  32 H :    0.041373
  33 H :    0.068660
Sum of atomic charges:    0.0000000

LOEWDIN ATOMIC CHARGES
----------------------
   0 S :    0.422748
   1 C :   -0.211604
   2 C :   -0.067511
   3 C :   -0.059461
   4 C :   -0.189698
   5 H :    0.044535
   6 C :   -0.035250
   7 H :    0.031196
   8 H :    0.032329
   9 C :   -0.041254
  10 H :    0.025468
  11 H :    0.012950
  12 C :   -0.065819
  13 H :    0.022534
  14 H :    0.030015
  15 H :    0.028538
  16 S :    0.455395
  17 C :   -0.208775
  18 C :   -0.074494
  19 C :   -0.053600
  20 C :   -0.223666
  21 H :    0.030755
  22 C :   -0.040586
  23 H :    0.024682
  24 H :    0.026077
  25 C :   -0.037016
  26 H :    0.029866
  27 H :    0.015792
  28 C :   -0.047292
  29 H :    0.010512
  30 H :    0.020700
  31 H :    0.026253
  32 H :    0.026957
  33 H :    0.038725

  Mayer bond orders larger than 0.100000
B(  0-S ,  1-C ) :   1.1466 B(  0-S ,  4-C ) :   1.1360 B(  1-C ,  2-C ) :   1.6392
B(  1-C , 32-H ) :   0.9658 B(  2-C ,  3-C ) :   1.2085 B(  2-C ,  6-C ) :   1.0133
B(  3-C ,  4-C ) :   1.6488 B(  3-C ,  5-H ) :   0.9871 B(  4-C , 20-C ) :   0.9765
B(  6-C ,  7-H ) :   0.9496 B(  6-C ,  8-H ) :   0.9436 B(  6-C ,  9-C ) :   1.0653
B(  9-C , 10-H ) :   0.9551 B(  9-C , 11-H ) :   0.9653 B(  9-C , 12-C ) :   1.0747
B( 12-C , 13-H ) :   0.9778 B( 12-C , 14-H ) :   0.9631 B( 12-C , 15-H ) :   0.9745
B( 16-S , 17-C ) :   1.1775 B( 16-S , 20-C ) :   1.1977 B( 17-C , 18-C ) :   1.5805
B( 17-C , 20-C ) :   0.1035 B( 17-C , 33-H ) :   0.9623 B( 18-C , 19-C ) :   1.2706
B( 18-C , 21-H ) :   0.9956 B( 19-C , 20-C ) :   1.5340 B( 19-C , 22-C ) :   1.0398
B( 22-C , 23-H ) :   0.9335 B( 22-C , 24-H ) :   0.9330 B( 22-C , 25-C ) :   1.0649
B( 25-C , 26-H ) :   0.9591 B( 25-C , 27-H ) :   0.9534 B( 25-C , 28-C ) :   1.0846
B( 28-C , 29-H ) :   0.9670 B( 28-C , 30-H ) :   0.9755 B( 28-C , 31-H ) :   0.9747

Dispersion correction           -0.015471849
FINAL SINGLE POINT ENERGY     -1339.869336712040

DIPOLE MOMENT
-------------
                                X             Y             Z
Electronic contribution:     -0.64904      12.21871      15.73622
Nuclear contribution   :      0.84441     -12.45282     -16.07025
                        -----------------------------------------
Total Dipole Moment    :      0.19537      -0.23411      -0.33402
                        -----------------------------------------
Magnitude (a.u.)       :      0.45227
Magnitude (Debye)      :      1.14958

Rotational constants in cm-1:     0.019896     0.009153     0.007209
Rotational constants in MHz :   596.456873   274.391083   216.115497

                             ****ORCA TERMINATED NORMALLY****
TOTAL RUN TIME: 0 days 0 hours 0 minutes 34 seconds 632 msec
