                         Program Version 4.2.1 -  RELEASE  -
|  1> ! wB97X-D3 SP def2-SVP
|  2> %pal
|  3> nprocs 16
|  4> end
|  5>
|  6> * xyz 0 1
|  7> S 	 41.5547 	 30.2301 	 81.8846
|  8> C 	 39.9012 	 30.2574 	 82.5234
|  9> C 	 39.7115 	 29.3423 	 83.5471
| 10> C 	 40.882 	 28.5594 	 83.6588
| 11> C 	 41.8825 	 28.78 	 82.76
| 12> H 	 41.0002 	 27.8013 	 84.3495
| 13> C 	 38.4323 	 29.2228 	 84.4362
| 14> H 	 37.5919 	 29.0012 	 83.8445
| 15> H 	 38.3806 	 30.1979 	 84.9159
| 16> C 	 38.4639 	 28.2918 	 85.7146
| 17> H 	 39.0809 	 27.3522 	 85.5813
| 18> H 	 39.038 	 28.7997 	 86.4232
| 19> C 	 37.1182 	 27.8053 	 86.3401
| 20> H 	 36.4082 	 28.7008 	 86.5641
| 21> H 	 36.5418 	 27.1814 	 85.7104
| 22> H 	 37.2671 	 27.1766 	 87.2729
| 23> S 	 44.3706 	 28.8753 	 81.7319
| 24> C 	 45.3783 	 27.565 	 82.0497
| 25> C 	 44.8708 	 26.4655 	 82.6615
| 26> C 	 43.4676 	 26.7465 	 82.9431
| 27> C 	 43.0907 	 28.0054 	 82.5025
| 28> H 	 45.4126 	 25.5358 	 82.8947
| 29> C 	 42.6167 	 25.7324 	 83.6097
| 30> H 	 41.5725 	 25.6935 	 83.1637
| 31> H 	 42.5703 	 26.0966 	 84.6983
| 32> C 	 43.1823 	 24.2852 	 83.5773
| 33> H 	 43.9446 	 24.1785 	 84.3037
| 34> H 	 43.6656 	 24.104 	 82.6964
| 35> C 	 42.0613 	 23.1922 	 83.6022
| 36> H 	 41.4587 	 23.297 	 84.517
| 37> H 	 42.4368 	 22.0897 	 83.6776
| 38> H 	 41.3035 	 23.2095 	 82.8866
| 39> H 	 39.1829 	 31.0434 	 82.289
| 40> H 	 46.4363 	 27.6345 	 81.8095
| 41> *
| 42>
| 43>                          ****END OF INPUT****

CARTESIAN COORDINATES (ANGSTROEM)
---------------------------------
  S     41.554700   30.230100   81.884600
  C     39.901200   30.257400   82.523400
  C     39.711500   29.342300   83.547100
  C     40.882000   28.559400   83.658800
  C     41.882500   28.780000   82.760000
  H     41.000200   27.801300   84.349500
  C     38.432300   29.222800   84.436200
  H     37.591900   29.001200   83.844500
  H     38.380600   30.197900   84.915900
  C     38.463900   28.291800   85.714600
  H     39.080900   27.352200   85.581300
  H     39.038000   28.799700   86.423200
  C     37.118200   27.805300   86.340100
  H     36.408200   28.700800   86.564100
  H     36.541800   27.181400   85.710400
  H     37.267100   27.176600   87.272900
  S     44.370600   28.875300   81.731900
  C     45.378300   27.565000   82.049700
  C     44.870800   26.465500   82.661500
  C     43.467600   26.746500   82.943100
  C     43.090700   28.005400   82.502500
  H     45.412600   25.535800   82.894700
  C     42.616700   25.732400   83.609700
  H     41.572500   25.693500   83.163700
  H     42.570300   26.096600   84.698300
  C     43.182300   24.285200   83.577300
  H     43.944600   24.178500   84.303700
  H     43.665600   24.104000   82.696400
  C     42.061300   23.192200   83.602200
  H     41.458700   23.297000   84.517000
  H     42.436800   22.089700   83.677600
  H     41.303500   23.209500   82.886600
  H     39.182900   31.043400   82.289000
  H     46.436300   27.634500   81.809500

 Total Charge           Charge          ....    0
 Multiplicity           Mult            ....    1
 Number of Electrons    NEL             ....  134
 Basis Dimension        Dim             ....  322

ORBITAL ENERGIES
----------------

  NO   OCC          E(Eh)            E(eV)
   0   2.0000     -88.966774     -2420.9090
   1   2.0000     -88.962512     -2420.7930
   2   2.0000     -10.322380      -280.8862
   3   2.0000     -10.321080      -280.8509
   4   2.0000     -10.311749      -280.5970
   5   2.0000     -10.311277      -280.5841
   6   2.0000     -10.303938      -280.3844
   7   2.0000     -10.303530      -280.3733
   8   2.0000     -10.303109      -280.3619
   9   2.0000     -10.299048      -280.2513
  10   2.0000     -10.295663      -280.1592
  11   2.0000     -10.293903      -280.1113
  12   2.0000     -10.293003      -280.0869
  13   2.0000     -10.285633      -279.8863
  14   2.0000     -10.284842      -279.8648
  15   2.0000     -10.278970      -279.7050
  16   2.0000      -8.083671      -219.9679
  17   2.0000      -8.077620      -219.8032
  18   2.0000      -6.041920      -164.4090
  19   2.0000      -6.038188      -164.3074
  20   2.0000      -6.036173      -164.2526
  21   2.0000      -6.034270      -164.2008
  22   2.0000      -6.032290      -164.1470
  23   2.0000      -6.028130      -164.0337
  24   2.0000      -1.015923       -27.6447
  25   2.0000      -0.988962       -26.9110
  26   2.0000      -0.914180       -24.8761
  27   2.0000      -0.903271       -24.5793
  28   2.0000      -0.869212       -23.6525
  29   2.0000      -0.856424       -23.3045
  30   2.0000      -0.841719       -22.9043
  31   2.0000      -0.815185       -22.1823
  32   2.0000      -0.785511       -21.3748
  33   2.0000      -0.772875       -21.0310
  34   2.0000      -0.722010       -19.6469
  35   2.0000      -0.705670       -19.2023
  36   2.0000      -0.688301       -18.7296
  37   2.0000      -0.659191       -17.9375
  38   2.0000      -0.636632       -17.3236
  39   2.0000      -0.625080       -17.0093
  40   2.0000      -0.601990       -16.3810
  41   2.0000      -0.570743       -15.5307
  42   2.0000      -0.566201       -15.4071
  43   2.0000      -0.560512       -15.2523
  44   2.0000      -0.525427       -14.2976
  45   2.0000      -0.517571       -14.0838
  46   2.0000      -0.514586       -14.0026
  47   2.0000      -0.508602       -13.8398
  48   2.0000      -0.499669       -13.5967
  49   2.0000      -0.494401       -13.4533
  50   2.0000      -0.489226       -13.3125
  51   2.0000      -0.484892       -13.1946
  52   2.0000      -0.472663       -12.8618
  53   2.0000      -0.470485       -12.8025
  54   2.0000      -0.463946       -12.6246
  55   2.0000      -0.456036       -12.4094
  56   2.0000      -0.451381       -12.2827
  57   2.0000      -0.441949       -12.0260
  58   2.0000      -0.436695       -11.8831
  59   2.0000      -0.426256       -11.5990
  60   2.0000      -0.420660       -11.4467
  61   2.0000      -0.417552       -11.3622
  62   2.0000      -0.409966       -11.1557
  63   2.0000      -0.359251        -9.7757
  64   2.0000      -0.336626        -9.1600
  65   2.0000      -0.327779        -8.9193
  66   2.0000      -0.277593        -7.5537
  67   0.0000       0.025773         0.7013
  68   0.0000       0.081668         2.2223
  69   0.0000       0.095214         2.5909
  70   0.0000       0.125699         3.4205
  71   0.0000       0.135083         3.6758

MULLIKEN ATOMIC CHARGES
-----------------------
   0 S :    0.087705
   1 C :   -0.137967
   2 C :   -0.073929
   3 C :   -0.000788
   4 C :   -0.095451
   5 H :   -0.053186
   6 C :    0.102130
   7 H :    0.037900
   8 H :    0.042831
   9 C :   -0.102819
  10 H :    0.037829
  11 H :    0.020479
  12 C :   -0.077052
  13 H :    0.040580
  14 H :    0.027617
  15 H :    0.048919
  16 S :    0.114220
  17 C :   -0.063238
  18 C :   -0.039370
  19 C :   -0.106767
  20 C :   -0.092257
  21 H :    0.032925
  22 C :   -0.027175
  23 H :    0.058667
  24 H :    0.069781
  25 C :   -0.007632
  26 H :    0.023337
  27 H :    0.016017
  28 C :   -0.065501
  29 H :    0.019088
  30 H :    0.043456
  31 H :    0.026936
  32 H :    0.044572
  33 H :    0.048142
Sum of atomic charges:   -0.0000000

LOEWDIN ATOMIC CHARGES
----------------------
   0 S :    0.390785
   1 C :   -0.192882
   2 C :   -0.055829
   3 C :   -0.073462
   4 C :   -0.188499
   5 H :    0.010423
   6 C :   -0.020754
   7 H :    0.025976
   8 H :    0.040631
   9 C :   -0.046084
  10 H :    0.026744
  11 H :    0.015654
  12 C :   -0.072552
  13 H :    0.032571
  14 H :    0.015861
  15 H :    0.037715
  16 S :    0.435057
  17 C :   -0.192963
  18 C :   -0.077765
  19 C :   -0.053626
  20 C :   -0.205881
  21 H :    0.040956
  22 C :   -0.042177
  23 H :    0.042437
  24 H :    0.046225
  25 C :   -0.032095
  26 H :    0.021467
  27 H :    0.012960
  28 C :   -0.069397
  29 H :    0.023584
  30 H :    0.038152
  31 H :    0.015899
  32 H :    0.026089
  33 H :    0.024783

  Mayer bond orders larger than 0.100000
B(  0-S ,  1-C ) :   1.1329 B(  0-S ,  4-C ) :   1.1361 B(  1-C ,  2-C ) :   1.6235
B(  1-C ,  4-C ) :   0.1003 B(  1-C , 32-H ) :   0.9706 B(  2-C ,  3-C ) :   1.2538
B(  2-C ,  6-C ) :   0.9835 B(  3-C ,  4-C ) :   1.5734 B(  3-C ,  5-H ) :   1.0048
B(  4-C , 20-C ) :   1.0667 B(  6-C ,  7-H ) :   0.9522 B(  6-C ,  8-H ) :   0.9419
B(  6-C ,  9-C ) :   1.0588 B(  9-C , 10-H ) :   0.9544 B(  9-C , 11-H ) :   0.9606
B(  9-C , 12-C ) :   1.0767 B( 12-C , 13-H ) :   0.9751 B( 12-C , 14-H ) :   0.9775
B( 12-C , 15-H ) :   0.9732 B( 16-S , 17-C ) :   1.1818 B( 16-S , 20-C ) :   1.1209
B( 17-C , 18-C ) :   1.6111 B( 17-C , 33-H ) :   0.9548 B( 18-C , 19-C ) :   1.2280
B( 18-C , 21-H ) :   0.9865 B( 19-C , 20-C ) :   1.6274 B( 19-C , 22-C ) :   1.0392
B( 22-C , 23-H ) :   0.9469 B( 22-C , 24-H ) :   0.9100 B( 22-C , 25-C ) :   1.0665
B( 25-C , 26-H ) :   0.9449 B( 25-C , 27-H ) :   0.9555 B( 25-C , 28-C ) :   1.0714
B( 28-C , 29-H ) :   0.9741 B( 28-C , 30-H ) :   0.9751 B( 28-C , 31-H ) :   0.9778

Dispersion correction           -0.013288697
FINAL SINGLE POINT ENERGY     -1339.849356614942

DIPOLE MOMENT
-------------
                                X             Y             Z
Electronic contribution:     18.20009      21.68690     -18.83746
Nuclear contribution   :    -18.36683     -22.20532      19.34722
                        -----------------------------------------
Total Dipole Moment    :     -0.16674      -0.51842       0.50976
                        -----------------------------------------
Magnitude (a.u.)       :      0.74594
Magnitude (Debye)      :      1.89602

Rotational constants in cm-1:     0.015542     0.009385     0.006115
Rotational constants in MHz :   465.952345   281.356750   183.312604

                             ****ORCA TERMINATED NORMALLY****
TOTAL RUN TIME: 0 days 0 hours 0 minutes 29 seconds 311 msec
