                         Program Version 4.2.1 -  RELEASE  -
|  1> ! wB97X-D3 SP def2-SVP
|  2> %pal
|  3> nprocs 16
|  4> end
|  5>
|  6> * xyz 0 1
|  7> S 	 -47.7205 	 66.5352 	 125.125
|  8> C 	 -47.5931 	 65.5269 	 123.717
|  9> C 	 -47.3242 	 64.1987 	 123.995
| 10> C 	 -47.0683 	 64.0706 	 125.359
| 11> C 	 -47.2281 	 65.2109 	 126.105
| 12> H 	 -46.7574 	 63.1439 	 125.834
| 13> C 	 -47.4382 	 63.1184 	 122.989
| 14> H 	 -48.2579 	 63.3161 	 122.344
| 15> H 	 -47.7175 	 62.2703 	 123.602
| 16> C 	 -46.2481 	 62.7699 	 122.221
| 17> H 	 -45.8198 	 63.6807 	 121.824
| 18> H 	 -45.4734 	 62.2946 	 122.914
| 19> C 	 -46.4565 	 61.7656 	 121.127
| 20> H 	 -46.6528 	 60.7262 	 121.451
| 21> H 	 -47.2077 	 62.018 	 120.319
| 22> H 	 -45.4562 	 61.6317 	 120.612
| 23> S 	 -45.2632 	 64.967 	 127.93
| 24> C 	 -45.5957 	 65.2711 	 129.639
| 25> C 	 -46.8891 	 65.7336 	 129.82
| 26> C 	 -47.5771 	 65.9311 	 128.597
| 27> C 	 -46.887 	 65.3594 	 127.517
| 28> H 	 -47.2362 	 66.0347 	 130.801
| 29> C 	 -49.0196 	 66.4629 	 128.546
| 30> H 	 -49.3085 	 66.6851 	 127.519
| 31> H 	 -48.8676 	 67.3401 	 129.193
| 32> C 	 -50.0345 	 65.4578 	 129.072
| 33> H 	 -49.8159 	 65.1203 	 130.054
| 34> H 	 -50.0663 	 64.566 	 128.476
| 35> C 	 -51.4959 	 65.9121 	 129.09
| 36> H 	 -52.2063 	 65.2044 	 129.524
| 37> H 	 -51.8072 	 65.9523 	 128.095
| 38> H 	 -51.5817 	 66.9235 	 129.484
| 39> H 	 -47.9823 	 65.7904 	 122.734
| 40> H 	 -44.9022 	 65.143 	 130.477
| 41> *
| 42>
| 43>                          ****END OF INPUT****

CARTESIAN COORDINATES (ANGSTROEM)
---------------------------------
  S    -47.720500   66.535200  125.125000
  C    -47.593100   65.526900  123.717000
  C    -47.324200   64.198700  123.995000
  C    -47.068300   64.070600  125.359000
  C    -47.228100   65.210900  126.105000
  H    -46.757400   63.143900  125.834000
  C    -47.438200   63.118400  122.989000
  H    -48.257900   63.316100  122.344000
  H    -47.717500   62.270300  123.602000
  C    -46.248100   62.769900  122.221000
  H    -45.819800   63.680700  121.824000
  H    -45.473400   62.294600  122.914000
  C    -46.456500   61.765600  121.127000
  H    -46.652800   60.726200  121.451000
  H    -47.207700   62.018000  120.319000
  H    -45.456200   61.631700  120.612000
  S    -45.263200   64.967000  127.930000
  C    -45.595700   65.271100  129.639000
  C    -46.889100   65.733600  129.820000
  C    -47.577100   65.931100  128.597000
  C    -46.887000   65.359400  127.517000
  H    -47.236200   66.034700  130.801000
  C    -49.019600   66.462900  128.546000
  H    -49.308500   66.685100  127.519000
  H    -48.867600   67.340100  129.193000
  C    -50.034500   65.457800  129.072000
  H    -49.815900   65.120300  130.054000
  H    -50.066300   64.566000  128.476000
  C    -51.495900   65.912100  129.090000
  H    -52.206300   65.204400  129.524000
  H    -51.807200   65.952300  128.095000
  H    -51.581700   66.923500  129.484000
  H    -47.982300   65.790400  122.734000
  H    -44.902200   65.143000  130.477000

 Total Charge           Charge          ....    0
 Multiplicity           Mult            ....    1
 Number of Electrons    NEL             ....  134
 Basis Dimension        Dim             ....  322

ORBITAL ENERGIES
----------------

  NO   OCC          E(Eh)            E(eV)
   0   2.0000     -88.969212     -2420.9753
   1   2.0000     -88.965891     -2420.8850
   2   2.0000     -10.323807      -280.9251
   3   2.0000     -10.322716      -280.8954
   4   2.0000     -10.317706      -280.7591
   5   2.0000     -10.309235      -280.5285
   6   2.0000     -10.301653      -280.3222
   7   2.0000     -10.293883      -280.1108
   8   2.0000     -10.293680      -280.1053
   9   2.0000     -10.293457      -280.0992
  10   2.0000     -10.288714      -279.9701
  11   2.0000     -10.286692      -279.9151
  12   2.0000     -10.285468      -279.8818
  13   2.0000     -10.281396      -279.7710
  14   2.0000     -10.276181      -279.6291
  15   2.0000     -10.268151      -279.4106
  16   2.0000      -8.084252      -219.9837
  17   2.0000      -8.080600      -219.8843
  18   2.0000      -6.042629      -164.4283
  19   2.0000      -6.039071      -164.3315
  20   2.0000      -6.038759      -164.3230
  21   2.0000      -6.035104      -164.2235
  22   2.0000      -6.035071      -164.2226
  23   2.0000      -6.031434      -164.1237
  24   2.0000      -1.013033       -27.5660
  25   2.0000      -0.988348       -26.8943
  26   2.0000      -0.927237       -25.2314
  27   2.0000      -0.909244       -24.7418
  28   2.0000      -0.871301       -23.7093
  29   2.0000      -0.857888       -23.3443
  30   2.0000      -0.847641       -23.0655
  31   2.0000      -0.815160       -22.1816
  32   2.0000      -0.786573       -21.4037
  33   2.0000      -0.769914       -20.9504
  34   2.0000      -0.704321       -19.1655
  35   2.0000      -0.698484       -19.0067
  36   2.0000      -0.692815       -18.8525
  37   2.0000      -0.665425       -18.1071
  38   2.0000      -0.638280       -17.3685
  39   2.0000      -0.623478       -16.9657
  40   2.0000      -0.594326       -16.1724
  41   2.0000      -0.577137       -15.7047
  42   2.0000      -0.567584       -15.4447
  43   2.0000      -0.563290       -15.3279
  44   2.0000      -0.530419       -14.4334
  45   2.0000      -0.526396       -14.3240
  46   2.0000      -0.522015       -14.2047
  47   2.0000      -0.510883       -13.9018
  48   2.0000      -0.504700       -13.7336
  49   2.0000      -0.502663       -13.6782
  50   2.0000      -0.486637       -13.2421
  51   2.0000      -0.479544       -13.0491
  52   2.0000      -0.470687       -12.8080
  53   2.0000      -0.462154       -12.5758
  54   2.0000      -0.460321       -12.5260
  55   2.0000      -0.452419       -12.3109
  56   2.0000      -0.448267       -12.1980
  57   2.0000      -0.437165       -11.8959
  58   2.0000      -0.433178       -11.7874
  59   2.0000      -0.430999       -11.7281
  60   2.0000      -0.419450       -11.4138
  61   2.0000      -0.412651       -11.2288
  62   2.0000      -0.411465       -11.1965
  63   2.0000      -0.341549        -9.2940
  64   2.0000      -0.337709        -9.1895
  65   2.0000      -0.329894        -8.9769
  66   2.0000      -0.290643        -7.9088
  67   0.0000       0.032761         0.8915
  68   0.0000       0.072547         1.9741
  69   0.0000       0.108485         2.9520
  70   0.0000       0.113970         3.1013
  71   0.0000       0.135307         3.6819

MULLIKEN ATOMIC CHARGES
-----------------------
   0 S :    0.131419
   1 C :   -0.124632
   2 C :   -0.090556
   3 C :    0.002222
   4 C :   -0.144532
   5 H :    0.005322
   6 C :    0.117231
   7 H :    0.009745
   8 H :    0.010328
   9 C :   -0.065180
  10 H :    0.024139
  11 H :    0.034571
  12 C :   -0.074589
  13 H :    0.032616
  14 H :    0.040823
  15 H :    0.037492
  16 S :    0.122939
  17 C :   -0.101748
  18 C :   -0.036020
  19 C :   -0.051911
  20 C :   -0.159875
  21 H :    0.017438
  22 C :    0.088875
  23 H :    0.015472
  24 H :    0.035590
  25 C :   -0.057321
  26 H :    0.010654
  27 H :    0.022042
  28 C :   -0.023019
  29 H :    0.035084
  30 H :    0.008309
  31 H :    0.025552
  32 H :    0.041194
  33 H :    0.060328
Sum of atomic charges:   -0.0000000

LOEWDIN ATOMIC CHARGES
----------------------
   0 S :    0.433593
   1 C :   -0.202806
   2 C :   -0.061528
   3 C :   -0.066340
   4 C :   -0.209498
   5 H :    0.029836
   6 C :   -0.033260
   7 H :    0.027080
   8 H :    0.033281
   9 C :   -0.047306
  10 H :    0.023391
  11 H :    0.035785
  12 C :   -0.076978
  13 H :    0.025583
  14 H :    0.028069
  15 H :    0.035044
  16 S :    0.422131
  17 C :   -0.188093
  18 C :   -0.069488
  19 C :   -0.058844
  20 C :   -0.209030
  21 H :    0.031346
  22 C :   -0.026458
  23 H :    0.022019
  24 H :    0.036985
  25 C :   -0.037491
  26 H :    0.014730
  27 H :    0.025990
  28 C :   -0.062726
  29 H :    0.029858
  30 H :    0.015295
  31 H :    0.023122
  32 H :    0.024160
  33 H :    0.032549

  Mayer bond orders larger than 0.100000
B(  0-S ,  1-C ) :   1.1549 B(  0-S ,  4-C ) :   1.1595 B(  1-C ,  2-C ) :   1.5902
B(  1-C , 32-H ) :   0.9593 B(  2-C ,  3-C ) :   1.2728 B(  2-C ,  6-C ) :   1.0176
B(  3-C ,  4-C ) :   1.5455 B(  3-C ,  5-H ) :   0.9986 B(  4-C , 20-C ) :   1.0290
B(  6-C ,  7-H ) :   0.9315 B(  6-C ,  8-H ) :   0.9256 B(  6-C ,  9-C ) :   1.0848
B(  9-C , 10-H ) :   0.9513 B(  9-C , 11-H ) :   0.9456 B(  9-C , 12-C ) :   1.0912
B( 12-C , 13-H ) :   0.9725 B( 12-C , 14-H ) :   0.9716 B( 12-C , 15-H ) :   0.9713
B( 16-S , 17-C ) :   1.1511 B( 16-S , 20-C ) :   1.1631 B( 17-C , 18-C ) :   1.6037
B( 17-C , 20-C ) :   0.1017 B( 17-C , 33-H ) :   0.9664 B( 18-C , 19-C ) :   1.2556
B( 18-C , 21-H ) :   0.9867 B( 19-C , 20-C ) :   1.5573 B( 19-C , 22-C ) :   1.0430
B( 22-C , 23-H ) :   0.9322 B( 22-C , 24-H ) :   0.9258 B( 22-C , 25-C ) :   1.0757
B( 25-C , 26-H ) :   0.9558 B( 25-C , 27-H ) :   0.9538 B( 25-C , 28-C ) :   1.0862
B( 28-C , 29-H ) :   0.9724 B( 28-C , 30-H ) :   0.9740 B( 28-C , 31-H ) :   0.9738

Dispersion correction           -0.013599886
FINAL SINGLE POINT ENERGY     -1339.881022018242

DIPOLE MOMENT
-------------
                                X             Y             Z
Electronic contribution:     13.17411      10.96727       7.71187
Nuclear contribution   :    -13.45195     -11.27154      -7.75373
                        -----------------------------------------
Total Dipole Moment    :     -0.27784      -0.30428      -0.04186
                        -----------------------------------------
Magnitude (a.u.)       :      0.41417
Magnitude (Debye)      :      1.05273

Rotational constants in cm-1:     0.020926     0.007365     0.006244
Rotational constants in MHz :   627.343501   220.799592   187.197214

                             ****ORCA TERMINATED NORMALLY****
TOTAL RUN TIME: 0 days 0 hours 0 minutes 34 seconds 612 msec
