                         Program Version 4.2.1 -  RELEASE  -
|  1> ! wB97X-D3 SP def2-SVP
|  2> %pal
|  3> nprocs 16
|  4> end
|  5>
|  6> * xyz 0 1
|  7> S 	 48.8616 	 19.685 	 84.5517
|  8> C 	 47.9492 	 20.8117 	 83.5932
|  9> C 	 47.646 	 20.3568 	 82.3318
| 10> C 	 48.244 	 19.0453 	 82.0966
| 11> C 	 48.8902 	 18.5697 	 83.1706
| 12> H 	 48.318 	 18.3432 	 81.3197
| 13> C 	 46.9509 	 21.1 	 81.2485
| 14> H 	 46.4413 	 21.8973 	 81.7615
| 15> H 	 46.117 	 20.4845 	 80.8065
| 16> C 	 47.9025 	 21.7009 	 80.2733
| 17> H 	 48.7089 	 21.0601 	 79.9739
| 18> H 	 47.3193 	 21.8995 	 79.3945
| 19> C 	 48.5414 	 23.0467 	 80.7155
| 20> H 	 47.9027 	 23.902 	 80.6358
| 21> H 	 49.0168 	 22.9547 	 81.6899
| 22> H 	 49.4021 	 23.1639 	 80.0318
| 23> S 	 48.5375 	 15.885 	 83.7613
| 24> C 	 49.9158 	 14.7976 	 83.6326
| 25> C 	 51.0243 	 15.4972 	 83.1575
| 26> C 	 50.8311 	 16.8538 	 82.928
| 27> C 	 49.5389 	 17.2455 	 83.2424
| 28> H 	 52.0346 	 14.9558 	 83.0341
| 29> C 	 51.8889 	 17.7065 	 82.3713
| 30> H 	 51.569 	 18.7874 	 82.3186
| 31> H 	 52.0931 	 17.443 	 81.3411
| 32> C 	 53.2266 	 17.6755 	 83.0691
| 33> H 	 54.016 	 18.2162 	 82.5136
| 34> H 	 53.5238 	 16.6206 	 83.0888
| 35> C 	 53.1333 	 18.2942 	 84.5122
| 36> H 	 53.9185 	 18.0116 	 85.2392
| 37> H 	 52.2498 	 17.9007 	 84.9877
| 38> H 	 52.9333 	 19.4254 	 84.3842
| 39> H 	 47.6575 	 21.7419 	 84.0059
| 40> H 	 49.9138 	 13.763 	 83.9284
| 41> *
| 42>
| 43>                          ****END OF INPUT****

CARTESIAN COORDINATES (ANGSTROEM)
---------------------------------
  S     48.861600   19.685000   84.551700
  C     47.949200   20.811700   83.593200
  C     47.646000   20.356800   82.331800
  C     48.244000   19.045300   82.096600
  C     48.890200   18.569700   83.170600
  H     48.318000   18.343200   81.319700
  C     46.950900   21.100000   81.248500
  H     46.441300   21.897300   81.761500
  H     46.117000   20.484500   80.806500
  C     47.902500   21.700900   80.273300
  H     48.708900   21.060100   79.973900
  H     47.319300   21.899500   79.394500
  C     48.541400   23.046700   80.715500
  H     47.902700   23.902000   80.635800
  H     49.016800   22.954700   81.689900
  H     49.402100   23.163900   80.031800
  S     48.537500   15.885000   83.761300
  C     49.915800   14.797600   83.632600
  C     51.024300   15.497200   83.157500
  C     50.831100   16.853800   82.928000
  C     49.538900   17.245500   83.242400
  H     52.034600   14.955800   83.034100
  C     51.888900   17.706500   82.371300
  H     51.569000   18.787400   82.318600
  H     52.093100   17.443000   81.341100
  C     53.226600   17.675500   83.069100
  H     54.016000   18.216200   82.513600
  H     53.523800   16.620600   83.088800
  C     53.133300   18.294200   84.512200
  H     53.918500   18.011600   85.239200
  H     52.249800   17.900700   84.987700
  H     52.933300   19.425400   84.384200
  H     47.657500   21.741900   84.005900
  H     49.913800   13.763000   83.928400

 Total Charge           Charge          ....    0
 Multiplicity           Mult            ....    1
 Number of Electrons    NEL             ....  134
 Basis Dimension        Dim             ....  322

ORBITAL ENERGIES
----------------

  NO   OCC          E(Eh)            E(eV)
   0   2.0000     -88.967229     -2420.9214
   1   2.0000     -88.961578     -2420.7676
   2   2.0000     -10.325483      -280.9707
   3   2.0000     -10.322291      -280.8838
   4   2.0000     -10.320084      -280.8238
   5   2.0000     -10.311742      -280.5968
   6   2.0000     -10.302631      -280.3488
   7   2.0000     -10.298809      -280.2448
   8   2.0000     -10.297789      -280.2171
   9   2.0000     -10.288039      -279.9518
  10   2.0000     -10.287991      -279.9505
  11   2.0000     -10.287914      -279.9484
  12   2.0000     -10.287550      -279.9385
  13   2.0000     -10.280922      -279.7581
  14   2.0000     -10.279903      -279.7304
  15   2.0000     -10.276643      -279.6417
  16   2.0000      -8.081439      -219.9071
  17   2.0000      -8.076517      -219.7732
  18   2.0000      -6.039889      -164.3537
  19   2.0000      -6.035961      -164.2469
  20   2.0000      -6.035018      -164.2212
  21   2.0000      -6.032354      -164.1487
  22   2.0000      -6.031090      -164.1143
  23   2.0000      -6.027190      -164.0082
  24   2.0000      -1.006380       -27.3850
  25   2.0000      -0.985547       -26.8181
  26   2.0000      -0.918036       -24.9810
  27   2.0000      -0.913092       -24.8465
  28   2.0000      -0.869465       -23.6593
  29   2.0000      -0.846826       -23.0433
  30   2.0000      -0.844337       -22.9756
  31   2.0000      -0.814122       -22.1534
  32   2.0000      -0.782169       -21.2839
  33   2.0000      -0.772441       -21.0192
  34   2.0000      -0.706646       -19.2288
  35   2.0000      -0.697574       -18.9820
  36   2.0000      -0.693066       -18.8593
  37   2.0000      -0.659982       -17.9590
  38   2.0000      -0.649094       -17.6627
  39   2.0000      -0.614382       -16.7182
  40   2.0000      -0.603122       -16.4118
  41   2.0000      -0.571680       -15.5562
  42   2.0000      -0.553396       -15.0587
  43   2.0000      -0.547607       -14.9011
  44   2.0000      -0.538029       -14.6405
  45   2.0000      -0.535228       -14.5643
  46   2.0000      -0.523778       -14.2527
  47   2.0000      -0.518010       -14.0958
  48   2.0000      -0.498757       -13.5719
  49   2.0000      -0.491780       -13.3820
  50   2.0000      -0.487255       -13.2589
  51   2.0000      -0.474179       -12.9031
  52   2.0000      -0.470537       -12.8040
  53   2.0000      -0.461562       -12.5598
  54   2.0000      -0.459506       -12.5038
  55   2.0000      -0.442625       -12.0445
  56   2.0000      -0.439972       -11.9723
  57   2.0000      -0.438670       -11.9368
  58   2.0000      -0.432591       -11.7714
  59   2.0000      -0.423307       -11.5188
  60   2.0000      -0.419912       -11.4264
  61   2.0000      -0.415735       -11.3127
  62   2.0000      -0.414890       -11.2897
  63   2.0000      -0.339045        -9.2259
  64   2.0000      -0.331589        -9.0230
  65   2.0000      -0.317172        -8.6307
  66   2.0000      -0.314185        -8.5494
  67   0.0000       0.046355         1.2614
  68   0.0000       0.057202         1.5565
  69   0.0000       0.116586         3.1725
  70   0.0000       0.117963         3.2099
  71   0.0000       0.126922         3.4537

MULLIKEN ATOMIC CHARGES
-----------------------
   0 S :    0.105874
   1 C :   -0.105384
   2 C :   -0.084511
   3 C :    0.073758
   4 C :   -0.190013
   5 H :   -0.009112
   6 C :    0.091734
   7 H :    0.004234
   8 H :    0.042976
   9 C :   -0.054176
  10 H :    0.027243
  11 H :    0.021424
  12 C :   -0.053560
  13 H :    0.036739
  14 H :    0.032454
  15 H :    0.028114
  16 S :    0.118442
  17 C :   -0.099852
  18 C :   -0.073941
  19 C :    0.028107
  20 C :   -0.219732
  21 H :    0.049226
  22 C :    0.062219
  23 H :    0.030499
  24 H :    0.033782
  25 C :   -0.084803
  26 H :    0.036419
  27 H :    0.020541
  28 C :   -0.075435
  29 H :    0.044470
  30 H :    0.027055
  31 H :    0.045217
  32 H :    0.032648
  33 H :    0.057345
Sum of atomic charges:   -0.0000000

LOEWDIN ATOMIC CHARGES
----------------------
   0 S :    0.385657
   1 C :   -0.188282
   2 C :   -0.057713
   3 C :   -0.052207
   4 C :   -0.188097
   5 H :    0.029444
   6 C :   -0.038122
   7 H :    0.027946
   8 H :    0.039341
   9 C :   -0.036533
  10 H :    0.022495
  11 H :    0.024047
  12 C :   -0.061774
  13 H :    0.020431
  14 H :    0.024102
  15 H :    0.030940
  16 S :    0.404168
  17 C :   -0.182250
  18 C :   -0.080438
  19 C :   -0.063124
  20 C :   -0.197098
  21 H :    0.044230
  22 C :   -0.036789
  23 H :    0.035519
  24 H :    0.035329
  25 C :   -0.041725
  26 H :    0.026759
  27 H :    0.017514
  28 C :   -0.077486
  29 H :    0.029128
  30 H :    0.020615
  31 H :    0.036890
  32 H :    0.018350
  33 H :    0.028732

  Mayer bond orders larger than 0.100000
B(  0-S ,  1-C ) :   1.1311 B(  0-S ,  4-C ) :   1.1189 B(  1-C ,  2-C ) :   1.6520
B(  1-C , 32-H ) :   0.9700 B(  2-C ,  3-C ) :   1.1446 B(  2-C ,  6-C ) :   1.0406
B(  3-C ,  4-C ) :   1.6748 B(  3-C ,  5-H ) :   0.9951 B(  4-C , 20-C ) :   1.0019
B(  6-C ,  7-H ) :   0.9288 B(  6-C ,  8-H ) :   0.9375 B(  6-C ,  9-C ) :   1.0631
B(  9-C , 10-H ) :   0.9634 B(  9-C , 11-H ) :   0.9499 B(  9-C , 12-C ) :   1.0817
B( 12-C , 13-H ) :   0.9769 B( 12-C , 14-H ) :   0.9744 B( 12-C , 15-H ) :   0.9742
B( 16-S , 17-C ) :   1.1605 B( 16-S , 20-C ) :   1.1588 B( 17-C , 18-C ) :   1.5943
B( 17-C , 20-C ) :   0.1096 B( 17-C , 33-H ) :   0.9701 B( 18-C , 19-C ) :   1.2553
B( 18-C , 21-H ) :   0.9706 B( 19-C , 20-C ) :   1.5743 B( 19-C , 22-C ) :   1.0554
B( 22-C , 23-H ) :   0.9302 B( 22-C , 24-H ) :   0.9255 B( 22-C , 25-C ) :   1.0739
B( 25-C , 26-H ) :   0.9563 B( 25-C , 27-H ) :   0.9533 B( 25-C , 28-C ) :   1.0605
B( 28-C , 29-H ) :   0.9751 B( 28-C , 30-H ) :   0.9769 B( 28-C , 31-H ) :   0.9721

Dispersion correction           -0.015181909
FINAL SINGLE POINT ENERGY     -1339.883277441946

DIPOLE MOMENT
-------------
                                X             Y             Z
Electronic contribution:    -11.71260     -15.30280      11.79314
Nuclear contribution   :     11.89298      15.42892     -12.27374
                        -----------------------------------------
Total Dipole Moment    :      0.18038       0.12612      -0.48060
                        -----------------------------------------
Magnitude (a.u.)       :      0.52860
Magnitude (Debye)      :      1.34360

Rotational constants in cm-1:     0.020648     0.008410     0.007343
Rotational constants in MHz :   619.014190   252.112868   220.134949

                             ****ORCA TERMINATED NORMALLY****
TOTAL RUN TIME: 0 days 0 hours 0 minutes 30 seconds 611 msec
