                         Program Version 4.2.1 -  RELEASE  -
|  1> ! wB97X-D3 SP def2-SVP
|  2> %pal
|  3> nprocs 16
|  4> end
|  5>
|  6> * xyz 0 1
|  7> S 	 49.6703 	 10.473 	 90.3124
|  8> C 	 50.265 	 11.2703 	 91.808
|  9> C 	 51.1265 	 12.3392 	 91.5255
| 10> C 	 51.3994 	 12.4716 	 90.0998
| 11> C 	 50.8477 	 11.4628 	 89.3878
| 12> H 	 51.9171 	 13.2764 	 89.5609
| 13> C 	 51.5061 	 13.362 	 92.6002
| 14> H 	 50.6725 	 13.6578 	 93.2559
| 15> H 	 51.7651 	 14.3062 	 92.0344
| 16> C 	 52.7565 	 12.8232 	 93.4411
| 17> H 	 53.1662 	 13.7307 	 94.0977
| 18> H 	 52.4826 	 11.9693 	 94.0989
| 19> C 	 54.0223 	 12.4317 	 92.6049
| 20> H 	 54.2056 	 13.2745 	 91.9215
| 21> H 	 54.7562 	 12.3987 	 93.3892
| 22> H 	 53.7723 	 11.4956 	 92.1703
| 23> S 	 52.389 	 10.3747 	 87.3635
| 24> C 	 51.91 	 10.6655 	 85.6492
| 25> C 	 50.7382 	 11.3632 	 85.6427
| 26> C 	 50.1897 	 11.6781 	 86.9376
| 27> C 	 50.9792 	 11.2469 	 87.9757
| 28> H 	 50.2447 	 11.4804 	 84.7268
| 29> C 	 48.8143 	 12.3244 	 87.0762
| 30> H 	 48.6291 	 12.94 	 86.22
| 31> H 	 48.7166 	 12.9835 	 87.9614
| 32> C 	 47.6706 	 11.3085 	 87.0129
| 33> H 	 47.7385 	 10.6548 	 87.9118
| 34> H 	 47.8031 	 10.7605 	 86.1554
| 35> C 	 46.2889 	 11.9812 	 87.077
| 36> H 	 45.4843 	 11.1763 	 86.9511
| 37> H 	 46.1646 	 12.597 	 86.1415
| 38> H 	 46.2324 	 12.5378 	 87.9364
| 39> H 	 49.8662 	 11.1255 	 92.7723
| 40> H 	 52.1954 	 10.1372 	 84.7292
| 41> *
| 42>
| 43>                          ****END OF INPUT****

CARTESIAN COORDINATES (ANGSTROEM)
---------------------------------
  S     49.670300   10.473000   90.312400
  C     50.265000   11.270300   91.808000
  C     51.126500   12.339200   91.525500
  C     51.399400   12.471600   90.099800
  C     50.847700   11.462800   89.387800
  H     51.917100   13.276400   89.560900
  C     51.506100   13.362000   92.600200
  H     50.672500   13.657800   93.255900
  H     51.765100   14.306200   92.034400
  C     52.756500   12.823200   93.441100
  H     53.166200   13.730700   94.097700
  H     52.482600   11.969300   94.098900
  C     54.022300   12.431700   92.604900
  H     54.205600   13.274500   91.921500
  H     54.756200   12.398700   93.389200
  H     53.772300   11.495600   92.170300
  S     52.389000   10.374700   87.363500
  C     51.910000   10.665500   85.649200
  C     50.738200   11.363200   85.642700
  C     50.189700   11.678100   86.937600
  C     50.979200   11.246900   87.975700
  H     50.244700   11.480400   84.726800
  C     48.814300   12.324400   87.076200
  H     48.629100   12.940000   86.220000
  H     48.716600   12.983500   87.961400
  C     47.670600   11.308500   87.012900
  H     47.738500   10.654800   87.911800
  H     47.803100   10.760500   86.155400
  C     46.288900   11.981200   87.077000
  H     45.484300   11.176300   86.951100
  H     46.164600   12.597000   86.141500
  H     46.232400   12.537800   87.936400
  H     49.866200   11.125500   92.772300
  H     52.195400   10.137200   84.729200

 Total Charge           Charge          ....    0
 Multiplicity           Mult            ....    1
 Number of Electrons    NEL             ....  134
 Basis Dimension        Dim             ....  322

ORBITAL ENERGIES
----------------

  NO   OCC          E(Eh)            E(eV)
   0   2.0000     -88.969216     -2420.9754
   1   2.0000     -88.963715     -2420.8258
   2   2.0000     -10.328859      -281.0625
   3   2.0000     -10.323682      -280.9217
   4   2.0000     -10.320113      -280.8246
   5   2.0000     -10.317332      -280.7489
   6   2.0000     -10.309362      -280.5320
   7   2.0000     -10.303662      -280.3769
   8   2.0000     -10.303374      -280.3691
   9   2.0000     -10.301717      -280.3240
  10   2.0000     -10.301309      -280.3129
  11   2.0000     -10.290015      -280.0055
  12   2.0000     -10.288239      -279.9572
  13   2.0000     -10.279667      -279.7240
  14   2.0000     -10.277470      -279.6642
  15   2.0000     -10.274375      -279.5799
  16   2.0000      -8.082263      -219.9296
  17   2.0000      -8.077358      -219.7961
  18   2.0000      -6.040879      -164.3807
  19   2.0000      -6.037261      -164.2822
  20   2.0000      -6.036151      -164.2520
  21   2.0000      -6.032745      -164.1593
  22   2.0000      -6.031983      -164.1386
  23   2.0000      -6.027890      -164.0272
  24   2.0000      -1.002246       -27.2725
  25   2.0000      -0.976210       -26.5640
  26   2.0000      -0.909220       -24.7411
  27   2.0000      -0.900927       -24.5155
  28   2.0000      -0.869405       -23.6577
  29   2.0000      -0.844454       -22.9788
  30   2.0000      -0.843170       -22.9438
  31   2.0000      -0.819484       -22.2993
  32   2.0000      -0.779719       -21.2172
  33   2.0000      -0.766645       -20.8615
  34   2.0000      -0.706325       -19.2201
  35   2.0000      -0.693221       -18.8635
  36   2.0000      -0.685845       -18.6628
  37   2.0000      -0.661637       -18.0040
  38   2.0000      -0.642659       -17.4877
  39   2.0000      -0.610098       -16.6016
  40   2.0000      -0.592893       -16.1334
  41   2.0000      -0.573514       -15.6061
  42   2.0000      -0.569582       -15.4991
  43   2.0000      -0.546529       -14.8718
  44   2.0000      -0.543800       -14.7975
  45   2.0000      -0.525298       -14.2941
  46   2.0000      -0.514861       -14.0101
  47   2.0000      -0.511781       -13.9263
  48   2.0000      -0.504596       -13.7308
  49   2.0000      -0.498494       -13.5647
  50   2.0000      -0.489447       -13.3185
  51   2.0000      -0.474499       -12.9118
  52   2.0000      -0.470140       -12.7932
  53   2.0000      -0.462458       -12.5841
  54   2.0000      -0.457484       -12.4488
  55   2.0000      -0.446399       -12.1471
  56   2.0000      -0.439315       -11.9544
  57   2.0000      -0.437511       -11.9053
  58   2.0000      -0.430526       -11.7152
  59   2.0000      -0.421258       -11.4630
  60   2.0000      -0.417729       -11.3670
  61   2.0000      -0.412412       -11.2223
  62   2.0000      -0.406346       -11.0572
  63   2.0000      -0.337969        -9.1966
  64   2.0000      -0.333093        -9.0639
  65   2.0000      -0.320937        -8.7332
  66   2.0000      -0.308623        -8.3981
  67   0.0000       0.038890         1.0583
  68   0.0000       0.048040         1.3072
  69   0.0000       0.089763         2.4426
  70   0.0000       0.116533         3.1710
  71   0.0000       0.129688         3.5290

MULLIKEN ATOMIC CHARGES
-----------------------
   0 S :    0.102130
   1 C :   -0.088632
   2 C :   -0.102144
   3 C :    0.053601
   4 C :   -0.184704
   5 H :    0.033828
   6 C :    0.051583
   7 H :    0.045885
   8 H :    0.030272
   9 C :   -0.173760
  10 H :    0.040721
  11 H :    0.046170
  12 C :   -0.018720
  13 H :    0.036024
  14 H :    0.036621
  15 H :    0.051376
  16 S :    0.099451
  17 C :   -0.091845
  18 C :   -0.025033
  19 C :   -0.004385
  20 C :   -0.181104
  21 H :    0.001402
  22 C :    0.065744
  23 H :    0.002202
  24 H :    0.032017
  25 C :   -0.056352
  26 H :    0.025586
  27 H :    0.004544
  28 C :   -0.036767
  29 H :    0.046284
  30 H :    0.028523
  31 H :    0.027166
  32 H :    0.032703
  33 H :    0.069616
Sum of atomic charges:    0.0000000

LOEWDIN ATOMIC CHARGES
----------------------
   0 S :    0.371915
   1 C :   -0.174920
   2 C :   -0.059659
   3 C :   -0.053390
   4 C :   -0.178984
   5 H :    0.042909
   6 C :   -0.040473
   7 H :    0.033008
   8 H :    0.034258
   9 C :   -0.047666
  10 H :    0.028583
  11 H :    0.023302
  12 C :   -0.058515
  13 H :    0.027566
  14 H :    0.026948
  15 H :    0.023229
  16 S :    0.378269
  17 C :   -0.177250
  18 C :   -0.065352
  19 C :   -0.051837
  20 C :   -0.199643
  21 H :    0.021794
  22 C :   -0.031797
  23 H :    0.023511
  24 H :    0.031328
  25 C :   -0.032986
  26 H :    0.019502
  27 H :    0.009170
  28 C :   -0.058794
  29 H :    0.036634
  30 H :    0.026927
  31 H :    0.012645
  32 H :    0.017732
  33 H :    0.042035

  Mayer bond orders larger than 0.100000
B(  0-S ,  1-C ) :   1.1187 B(  0-S ,  4-C ) :   1.1218 B(  1-C ,  2-C ) :   1.6425
B(  1-C , 32-H ) :   0.9716 B(  2-C ,  3-C ) :   1.1865 B(  2-C ,  6-C ) :   1.0093
B(  3-C ,  4-C ) :   1.6520 B(  3-C ,  5-H ) :   0.9863 B(  4-C , 20-C ) :   1.0213
B(  6-C ,  7-H ) :   0.9529 B(  6-C ,  8-H ) :   0.9463 B(  6-C ,  9-C ) :   1.0437
B(  9-C , 10-H ) :   0.9649 B(  9-C , 11-H ) :   0.9618 B(  9-C , 12-C ) :   1.0561
B( 12-C , 13-H ) :   0.9784 B( 12-C , 14-H ) :   0.9771 B( 12-C , 15-H ) :   0.9740
B( 16-S , 17-C ) :   1.1285 B( 16-S , 20-C ) :   1.1253 B( 17-C , 18-C ) :   1.6542
B( 17-C , 33-H ) :   0.9577 B( 18-C , 19-C ) :   1.2216 B( 18-C , 21-H ) :   0.9881
B( 19-C , 20-C ) :   1.6252 B( 19-C , 22-C ) :   1.0544 B( 22-C , 23-H ) :   0.9276
B( 22-C , 24-H ) :   0.9317 B( 22-C , 25-C ) :   1.0716 B( 25-C , 26-H ) :   0.9490
B( 25-C , 27-H ) :   0.9545 B( 25-C , 28-C ) :   1.0846 B( 28-C , 29-H ) :   0.9733
B( 28-C , 30-H ) :   0.9740 B( 28-C , 31-H ) :   0.9763

Dispersion correction           -0.014864822
FINAL SINGLE POINT ENERGY     -1339.857450579938

DIPOLE MOMENT
-------------
                                X             Y             Z
Electronic contribution:      5.98820     -11.40721      -7.16197
Nuclear contribution   :     -6.30994      11.82829       7.15092
                        -----------------------------------------
Total Dipole Moment    :     -0.32175       0.42108      -0.01105
                        -----------------------------------------
Magnitude (a.u.)       :      0.53005
Magnitude (Debye)      :      1.34728

Rotational constants in cm-1:     0.020185     0.008544     0.006761
Rotational constants in MHz :   605.116941   256.128632   202.689610

                             ****ORCA TERMINATED NORMALLY****
TOTAL RUN TIME: 0 days 0 hours 0 minutes 28 seconds 405 msec
