                         Program Version 4.2.1 -  RELEASE  -
|  1> ! wB97X-D3 SP def2-SVP
|  2> %pal
|  3> nprocs 16
|  4> end
|  5>
|  6> * xyz 0 1
|  7> S 	 46.2223 	 10.7903 	 53.9116
|  8> C 	 44.9236 	 9.62552 	 53.6583
|  9> C 	 44.015 	 10.0744 	 52.6738
| 10> C 	 44.273 	 11.4471 	 52.3699
| 11> C 	 45.3663 	 11.9856 	 53.0122
| 12> H 	 43.6643 	 12.0707 	 51.7403
| 13> C 	 42.8063 	 9.30827 	 52.267
| 14> H 	 43.0966 	 8.26119 	 52.6049
| 15> H 	 42.666 	 9.39833 	 51.1654
| 16> C 	 41.497 	 9.90545 	 52.8429
| 17> H 	 41.1698 	 10.9022 	 52.4751
| 18> H 	 40.6968 	 9.24717 	 52.5408
| 19> C 	 41.381 	 9.78325 	 54.3812
| 20> H 	 41.82 	 10.6749 	 54.8936
| 21> H 	 40.3609 	 9.59963 	 54.7323
| 22> H 	 42.1047 	 9.03261 	 54.7859
| 23> S 	 47.1664 	 13.5675 	 51.6359
| 24> C 	 47.1857 	 15.3019 	 51.8279
| 25> C 	 46.0811 	 15.6522 	 52.6612
| 26> C 	 45.3582 	 14.5743 	 53.2164
| 27> C 	 45.8909 	 13.3277 	 52.8574
| 28> H 	 45.8583 	 16.6337 	 52.8297
| 29> C 	 44.0462 	 14.6882 	 53.9319
| 30> H 	 43.3363 	 13.9808 	 53.4534
| 31> H 	 43.6024 	 15.5627 	 53.6581
| 32> C 	 44.2435 	 14.6024 	 55.4324
| 33> H 	 43.6341 	 15.3399 	 55.8704
| 34> H 	 45.3008 	 14.7441 	 55.8148
| 35> C 	 43.8097 	 13.2319 	 55.9592
| 36> H 	 42.6962 	 13.0454 	 55.9746
| 37> H 	 44.2235 	 13.1269 	 56.9795
| 38> H 	 44.2101 	 12.4551 	 55.3563
| 39> H 	 44.767 	 8.68191 	 54.1689
| 40> H 	 47.7616 	 15.9978 	 51.2071
| 41> *
| 42>
| 43>                          ****END OF INPUT****

CARTESIAN COORDINATES (ANGSTROEM)
---------------------------------
  S     46.222300   10.790300   53.911600
  C     44.923600    9.625520   53.658300
  C     44.015000   10.074400   52.673800
  C     44.273000   11.447100   52.369900
  C     45.366300   11.985600   53.012200
  H     43.664300   12.070700   51.740300
  C     42.806300    9.308270   52.267000
  H     43.096600    8.261190   52.604900
  H     42.666000    9.398330   51.165400
  C     41.497000    9.905450   52.842900
  H     41.169800   10.902200   52.475100
  H     40.696800    9.247170   52.540800
  C     41.381000    9.783250   54.381200
  H     41.820000   10.674900   54.893600
  H     40.360900    9.599630   54.732300
  H     42.104700    9.032610   54.785900
  S     47.166400   13.567500   51.635900
  C     47.185700   15.301900   51.827900
  C     46.081100   15.652200   52.661200
  C     45.358200   14.574300   53.216400
  C     45.890900   13.327700   52.857400
  H     45.858300   16.633700   52.829700
  C     44.046200   14.688200   53.931900
  H     43.336300   13.980800   53.453400
  H     43.602400   15.562700   53.658100
  C     44.243500   14.602400   55.432400
  H     43.634100   15.339900   55.870400
  H     45.300800   14.744100   55.814800
  C     43.809700   13.231900   55.959200
  H     42.696200   13.045400   55.974600
  H     44.223500   13.126900   56.979500
  H     44.210100   12.455100   55.356300
  H     44.767000    8.681910   54.168900
  H     47.761600   15.997800   51.207100

 Total Charge           Charge          ....    0
 Multiplicity           Mult            ....    1
 Number of Electrons    NEL             ....  134
 Basis Dimension        Dim             ....  322

ORBITAL ENERGIES
----------------

  NO   OCC          E(Eh)            E(eV)
   0   2.0000     -88.968792     -2420.9639
   1   2.0000     -88.963968     -2420.8326
   2   2.0000     -10.326026      -280.9854
   3   2.0000     -10.323566      -280.9185
   4   2.0000     -10.323341      -280.9124
   5   2.0000     -10.317966      -280.7661
   6   2.0000     -10.303934      -280.3843
   7   2.0000     -10.302475      -280.3446
   8   2.0000     -10.301276      -280.3120
   9   2.0000     -10.293721      -280.1064
  10   2.0000     -10.293186      -280.0918
  11   2.0000     -10.289722      -279.9976
  12   2.0000     -10.281774      -279.7813
  13   2.0000     -10.281082      -279.7625
  14   2.0000     -10.280697      -279.7520
  15   2.0000     -10.269479      -279.4467
  16   2.0000      -8.083180      -219.9545
  17   2.0000      -8.078065      -219.8153
  18   2.0000      -6.041668      -164.4021
  19   2.0000      -6.037660      -164.2931
  20   2.0000      -6.036481      -164.2610
  21   2.0000      -6.034037      -164.1945
  22   2.0000      -6.032544      -164.1539
  23   2.0000      -6.029072      -164.0594
  24   2.0000      -1.005919       -27.3724
  25   2.0000      -0.980966       -26.6934
  26   2.0000      -0.914237       -24.8776
  27   2.0000      -0.912236       -24.8232
  28   2.0000      -0.864546       -23.5255
  29   2.0000      -0.848381       -23.0856
  30   2.0000      -0.845108       -22.9966
  31   2.0000      -0.810181       -22.0462
  32   2.0000      -0.783186       -21.3116
  33   2.0000      -0.770918       -20.9777
  34   2.0000      -0.709021       -19.2935
  35   2.0000      -0.696573       -18.9547
  36   2.0000      -0.692230       -18.8365
  37   2.0000      -0.664237       -18.0748
  38   2.0000      -0.639971       -17.4145
  39   2.0000      -0.618717       -16.8361
  40   2.0000      -0.597910       -16.2700
  41   2.0000      -0.566888       -15.4258
  42   2.0000      -0.557951       -15.1826
  43   2.0000      -0.548310       -14.9203
  44   2.0000      -0.547159       -14.8890
  45   2.0000      -0.528510       -14.3815
  46   2.0000      -0.526729       -14.3330
  47   2.0000      -0.514285       -13.9944
  48   2.0000      -0.499777       -13.5996
  49   2.0000      -0.495847       -13.4927
  50   2.0000      -0.487912       -13.2768
  51   2.0000      -0.485402       -13.2084
  52   2.0000      -0.466528       -12.6949
  53   2.0000      -0.463466       -12.6116
  54   2.0000      -0.458085       -12.4651
  55   2.0000      -0.444126       -12.0853
  56   2.0000      -0.438376       -11.9288
  57   2.0000      -0.436648       -11.8818
  58   2.0000      -0.432047       -11.7566
  59   2.0000      -0.425372       -11.5750
  60   2.0000      -0.414385       -11.2760
  61   2.0000      -0.412091       -11.2136
  62   2.0000      -0.409019       -11.1300
  63   2.0000      -0.335731        -9.1357
  64   2.0000      -0.325828        -8.8662
  65   2.0000      -0.323962        -8.8155
  66   2.0000      -0.300119        -8.1667
  67   0.0000       0.038284         1.0418
  68   0.0000       0.047695         1.2978
  69   0.0000       0.109583         2.9819
  70   0.0000       0.113817         3.0971
  71   0.0000       0.126898         3.4531

MULLIKEN ATOMIC CHARGES
-----------------------
   0 S :    0.133011
   1 C :   -0.136752
   2 C :   -0.078580
   3 C :    0.061215
   4 C :   -0.205502
   5 H :    0.004477
   6 C :    0.041828
   7 H :    0.040951
   8 H :    0.043622
   9 C :   -0.069548
  10 H :    0.040754
  11 H :    0.027813
  12 C :   -0.081326
  13 H :    0.036319
  14 H :    0.045830
  15 H :    0.021542
  16 S :    0.108023
  17 C :   -0.099939
  18 C :   -0.018379
  19 C :   -0.042134
  20 C :   -0.165786
  21 H :   -0.019752
  22 C :    0.130048
  23 H :    0.024627
  24 H :   -0.021417
  25 C :   -0.048612
  26 H :    0.016114
  27 H :    0.052869
  28 C :   -0.056472
  29 H :    0.038373
  30 H :    0.029959
  31 H :    0.024683
  32 H :    0.049722
  33 H :    0.072418
Sum of atomic charges:    0.0000000

LOEWDIN ATOMIC CHARGES
----------------------
   0 S :    0.422824
   1 C :   -0.201784
   2 C :   -0.062916
   3 C :   -0.055247
   4 C :   -0.212044
   5 H :    0.027010
   6 C :   -0.036469
   7 H :    0.041566
   8 H :    0.040388
   9 C :   -0.045582
  10 H :    0.029468
  11 H :    0.024994
  12 C :   -0.077415
  13 H :    0.029166
  14 H :    0.026729
  15 H :    0.027166
  16 S :    0.406623
  17 C :   -0.192381
  18 C :   -0.064142
  19 C :   -0.044973
  20 C :   -0.204667
  21 H :    0.012256
  22 C :   -0.026319
  23 H :    0.037997
  24 H :    0.015364
  25 C :   -0.035118
  26 H :    0.016486
  27 H :    0.038289
  28 C :   -0.065001
  29 H :    0.025695
  30 H :    0.026152
  31 H :    0.013843
  32 H :    0.026299
  33 H :    0.035744

  Mayer bond orders larger than 0.100000
B(  0-S ,  1-C ) :   1.1466 B(  0-S ,  4-C ) :   1.1505 B(  1-C ,  2-C ) :   1.5846
B(  1-C ,  4-C ) :   0.1030 B(  1-C , 32-H ) :   0.9653 B(  2-C ,  3-C ) :   1.2281
B(  2-C ,  6-C ) :   1.0412 B(  3-C ,  4-C ) :   1.5904 B(  3-C ,  5-H ) :   0.9955
B(  4-C , 20-C ) :   1.0064 B(  6-C ,  7-H ) :   0.9420 B(  6-C ,  8-H ) :   0.9306
B(  6-C ,  9-C ) :   1.0749 B(  9-C , 10-H ) :   0.9552 B(  9-C , 11-H ) :   0.9593
B(  9-C , 12-C ) :   1.0548 B( 12-C , 13-H ) :   0.9717 B( 12-C , 14-H ) :   0.9789
B( 12-C , 15-H ) :   0.9736 B( 16-S , 17-C ) :   1.1803 B( 16-S , 20-C ) :   1.1600
B( 17-C , 18-C ) :   1.5430 B( 17-C , 20-C ) :   0.1189 B( 17-C , 33-H ) :   0.9680
B( 18-C , 19-C ) :   1.2905 B( 18-C , 21-H ) :   1.0016 B( 19-C , 20-C ) :   1.5490
B( 19-C , 22-C ) :   1.0461 B( 22-C , 23-H ) :   0.9345 B( 22-C , 24-H ) :   0.9215
B( 22-C , 25-C ) :   1.0335 B( 25-C , 26-H ) :   0.9529 B( 25-C , 27-H ) :   0.9633
B( 25-C , 28-C ) :   1.0840 B( 28-C , 29-H ) :   0.9735 B( 28-C , 30-H ) :   0.9718
B( 28-C , 31-H ) :   0.9765

Dispersion correction           -0.016815640
FINAL SINGLE POINT ENERGY     -1339.859736338086

DIPOLE MOMENT
-------------
                                X             Y             Z
Electronic contribution:     24.53137       2.99642     -11.11103
Nuclear contribution   :    -25.30491      -2.82938      11.02356
                        -----------------------------------------
Total Dipole Moment    :     -0.77354       0.16704      -0.08748
                        -----------------------------------------
Magnitude (a.u.)       :      0.79619
Magnitude (Debye)      :      2.02375

Rotational constants in cm-1:     0.021006     0.009634     0.008144
Rotational constants in MHz :   629.736934   288.822536   244.157030

                             ****ORCA TERMINATED NORMALLY****
TOTAL RUN TIME: 0 days 0 hours 0 minutes 35 seconds 534 msec
