                         Program Version 4.2.1 -  RELEASE  -
|  1> ! wB97X-D3 SP def2-SVP
|  2> %pal
|  3> nprocs 16
|  4> end
|  5>
|  6> * xyz 0 1
|  7> S 	 -4.8824 	 21.1763 	 55.0366
|  8> C 	 -4.69983 	 20.4979 	 53.4755
|  9> C 	 -3.40224 	 20.0653 	 53.1863
| 10> C 	 -2.55611 	 20.7219 	 54.1156
| 11> C 	 -3.14428 	 21.4628 	 55.0564
| 12> H 	 -1.49342 	 20.6331 	 53.9906
| 13> C 	 -2.96261 	 19.0797 	 52.1322
| 14> H 	 -3.76549 	 18.7458 	 51.5225
| 15> H 	 -2.64816 	 18.2249 	 52.6674
| 16> C 	 -1.91193 	 19.7249 	 51.2708
| 17> H 	 -2.27334 	 20.6518 	 50.8188
| 18> H 	 -1.10516 	 20.037 	 51.9407
| 19> C 	 -1.41562 	 18.7518 	 50.1284
| 20> H 	 -2.11527 	 18.2735 	 49.4444
| 21> H 	 -0.658847 	 19.3515 	 49.4808
| 22> H 	 -0.795345 	 17.9369 	 50.5582
| 23> S 	 -2.76832 	 21.4923 	 57.6544
| 24> C 	 -1.8278 	 22.7472 	 58.4463
| 25> C 	 -1.21164 	 23.5593 	 57.5563
| 26> C 	 -1.6156 	 23.3053 	 56.2118
| 27> C 	 -2.49735 	 22.2148 	 56.1437
| 28> H 	 -0.49165 	 24.3418 	 57.7816
| 29> C 	 -1.14739 	 24.074 	 54.9954
| 30> H 	 -1.53825 	 25.0985 	 55.2196
| 31> H 	 -1.57661 	 23.6124 	 54.117
| 32> C 	 0.393118 	 24.0648 	 54.8026
| 33> H 	 0.947138 	 24.4347 	 55.6829
| 34> H 	 0.525433 	 24.6906 	 53.9576
| 35> C 	 0.904354 	 22.604 	 54.6578
| 36> H 	 0.738989 	 21.9363 	 55.5218
| 37> H 	 1.97256 	 22.5431 	 54.6019
| 38> H 	 0.474073 	 22.1417 	 53.7564
| 39> H 	 -5.50262 	 20.1298 	 52.8915
| 40> H 	 -1.39193 	 22.7103 	 59.4347
| 41> *
| 42>
| 43>                          ****END OF INPUT****

CARTESIAN COORDINATES (ANGSTROEM)
---------------------------------
  S     -4.882400   21.176300   55.036600
  C     -4.699830   20.497900   53.475500
  C     -3.402240   20.065300   53.186300
  C     -2.556110   20.721900   54.115600
  C     -3.144280   21.462800   55.056400
  H     -1.493420   20.633100   53.990600
  C     -2.962610   19.079700   52.132200
  H     -3.765490   18.745800   51.522500
  H     -2.648160   18.224900   52.667400
  C     -1.911930   19.724900   51.270800
  H     -2.273340   20.651800   50.818800
  H     -1.105160   20.037000   51.940700
  C     -1.415620   18.751800   50.128400
  H     -2.115270   18.273500   49.444400
  H     -0.658847   19.351500   49.480800
  H     -0.795345   17.936900   50.558200
  S     -2.768320   21.492300   57.654400
  C     -1.827800   22.747200   58.446300
  C     -1.211640   23.559300   57.556300
  C     -1.615600   23.305300   56.211800
  C     -2.497350   22.214800   56.143700
  H     -0.491650   24.341800   57.781600
  C     -1.147390   24.074000   54.995400
  H     -1.538250   25.098500   55.219600
  H     -1.576610   23.612400   54.117000
  C      0.393118   24.064800   54.802600
  H      0.947138   24.434700   55.682900
  H      0.525433   24.690600   53.957600
  C      0.904354   22.604000   54.657800
  H      0.738989   21.936300   55.521800
  H      1.972560   22.543100   54.601900
  H      0.474073   22.141700   53.756400
  H     -5.502620   20.129800   52.891500
  H     -1.391930   22.710300   59.434700

 Total Charge           Charge          ....    0
 Multiplicity           Mult            ....    1
 Number of Electrons    NEL             ....  134
 Basis Dimension        Dim             ....  322

ORBITAL ENERGIES
----------------

  NO   OCC          E(Eh)            E(eV)
   0   2.0000     -88.963836     -2420.8290
   1   2.0000     -88.963048     -2420.8076
   2   2.0000     -10.322662      -280.8939
   3   2.0000     -10.319645      -280.8118
   4   2.0000     -10.309119      -280.5254
   5   2.0000     -10.305944      -280.4390
   6   2.0000     -10.297873      -280.2194
   7   2.0000     -10.296653      -280.1862
   8   2.0000     -10.293012      -280.0871
   9   2.0000     -10.291711      -280.0517
  10   2.0000     -10.291325      -280.0412
  11   2.0000     -10.289875      -280.0017
  12   2.0000     -10.289822      -280.0003
  13   2.0000     -10.287671      -279.9418
  14   2.0000     -10.285851      -279.8922
  15   2.0000     -10.278721      -279.6982
  16   2.0000      -8.079317      -219.8494
  17   2.0000      -8.078658      -219.8314
  18   2.0000      -6.037726      -164.2949
  19   2.0000      -6.037146      -164.2791
  20   2.0000      -6.034150      -164.1976
  21   2.0000      -6.033039      -164.1673
  22   2.0000      -6.029707      -164.0767
  23   2.0000      -6.029390      -164.0681
  24   2.0000      -1.013514       -27.5791
  25   2.0000      -0.990217       -26.9452
  26   2.0000      -0.918442       -24.9921
  27   2.0000      -0.908152       -24.7121
  28   2.0000      -0.871122       -23.7044
  29   2.0000      -0.848120       -23.0785
  30   2.0000      -0.842471       -22.9248
  31   2.0000      -0.817499       -22.2453
  32   2.0000      -0.781838       -21.2749
  33   2.0000      -0.770287       -20.9606
  34   2.0000      -0.712925       -19.3997
  35   2.0000      -0.700686       -19.0666
  36   2.0000      -0.691786       -18.8245
  37   2.0000      -0.658467       -17.9178
  38   2.0000      -0.644110       -17.5271
  39   2.0000      -0.630300       -17.1513
  40   2.0000      -0.594351       -16.1731
  41   2.0000      -0.569523       -15.4975
  42   2.0000      -0.561875       -15.2894
  43   2.0000      -0.553178       -15.0527
  44   2.0000      -0.540383       -14.7046
  45   2.0000      -0.525953       -14.3119
  46   2.0000      -0.517175       -14.0731
  47   2.0000      -0.511084       -13.9073
  48   2.0000      -0.499653       -13.5963
  49   2.0000      -0.495511       -13.4835
  50   2.0000      -0.486536       -13.2393
  51   2.0000      -0.483796       -13.1648
  52   2.0000      -0.471867       -12.8402
  53   2.0000      -0.465977       -12.6799
  54   2.0000      -0.458947       -12.4886
  55   2.0000      -0.452485       -12.3127
  56   2.0000      -0.445833       -12.1317
  57   2.0000      -0.439623       -11.9628
  58   2.0000      -0.433881       -11.8065
  59   2.0000      -0.429827       -11.6962
  60   2.0000      -0.422272       -11.4906
  61   2.0000      -0.416573       -11.3355
  62   2.0000      -0.414881       -11.2895
  63   2.0000      -0.347442        -9.4544
  64   2.0000      -0.329666        -8.9707
  65   2.0000      -0.322830        -8.7847
  66   2.0000      -0.291582        -7.9343
  67   0.0000       0.041933         1.1410
  68   0.0000       0.059770         1.6264
  69   0.0000       0.106555         2.8995
  70   0.0000       0.127940         3.4814
  71   0.0000       0.129869         3.5339

MULLIKEN ATOMIC CHARGES
-----------------------
   0 S :    0.119927
   1 C :   -0.095436
   2 C :   -0.130298
   3 C :    0.042596
   4 C :   -0.146470
   5 H :   -0.011818
   6 C :    0.156979
   7 H :    0.002668
   8 H :    0.030086
   9 C :   -0.110786
  10 H :    0.038958
  11 H :    0.033356
  12 C :   -0.076720
  13 H :    0.044044
  14 H :    0.040595
  15 H :    0.033735
  16 S :    0.106367
  17 C :   -0.062674
  18 C :   -0.058996
  19 C :   -0.062425
  20 C :   -0.179804
  21 H :    0.019314
  22 C :    0.074256
  23 H :    0.046050
  24 H :    0.026643
  25 C :   -0.056512
  26 H :    0.031773
  27 H :    0.032965
  28 C :   -0.072521
  29 H :    0.049229
  30 H :    0.024308
  31 H :    0.031481
  32 H :    0.024261
  33 H :    0.054865
Sum of atomic charges:   -0.0000000

LOEWDIN ATOMIC CHARGES
----------------------
   0 S :    0.410007
   1 C :   -0.198495
   2 C :   -0.056806
   3 C :   -0.061269
   4 C :   -0.198052
   5 H :    0.024163
   6 C :   -0.023912
   7 H :    0.025968
   8 H :    0.032321
   9 C :   -0.038086
  10 H :    0.027888
  11 H :    0.024292
  12 C :   -0.078405
  13 H :    0.024485
  14 H :    0.034873
  15 H :    0.026577
  16 S :    0.426106
  17 C :   -0.193671
  18 C :   -0.069159
  19 C :   -0.062137
  20 C :   -0.212715
  21 H :    0.032684
  22 C :   -0.029203
  23 H :    0.039228
  24 H :    0.029388
  25 C :   -0.033677
  26 H :    0.024249
  27 H :    0.022138
  28 C :   -0.070477
  29 H :    0.032839
  30 H :    0.021948
  31 H :    0.021402
  32 H :    0.014679
  33 H :    0.030833

  Mayer bond orders larger than 0.100000
B(  0-S ,  1-C ) :   1.1538 B(  0-S ,  4-C ) :   1.1306 B(  1-C ,  2-C ) :   1.6169
B(  1-C , 32-H ) :   0.9664 B(  2-C ,  3-C ) :   1.2326 B(  2-C ,  6-C ) :   1.0248
B(  3-C ,  4-C ) :   1.6024 B(  3-C ,  5-H ) :   0.9993 B(  4-C , 20-C ) :   0.9944
B(  6-C ,  7-H ) :   0.9324 B(  6-C ,  8-H ) :   0.9294 B(  6-C ,  9-C ) :   1.0576
B(  9-C , 10-H ) :   0.9605 B(  9-C , 11-H ) :   0.9559 B(  9-C , 12-C ) :   1.0711
B( 12-C , 13-H ) :   0.9781 B( 12-C , 14-H ) :   0.9765 B( 12-C , 15-H ) :   0.9752
B( 16-S , 17-C ) :   1.1377 B( 16-S , 20-C ) :   1.1806 B( 17-C , 18-C ) :   1.6244
B( 17-C , 33-H ) :   0.9604 B( 18-C , 19-C ) :   1.2487 B( 18-C , 21-H ) :   0.9858
B( 19-C , 20-C ) :   1.5928 B( 19-C , 22-C ) :   1.0348 B( 22-C , 23-H ) :   0.9330
B( 22-C , 24-H ) :   0.9372 B( 22-C , 25-C ) :   1.0680 B( 25-C , 26-H ) :   0.9577
B( 25-C , 27-H ) :   0.9599 B( 25-C , 28-C ) :   1.0673 B( 28-C , 29-H ) :   0.9701
B( 28-C , 30-H ) :   0.9718 B( 28-C , 31-H ) :   0.9737

Dispersion correction           -0.015078752
FINAL SINGLE POINT ENERGY     -1339.865399582463

DIPOLE MOMENT
-------------
                                X             Y             Z
Electronic contribution:    -19.93279       1.94535      22.26512
Nuclear contribution   :     20.56037      -2.09996     -22.72653
                        -----------------------------------------
Total Dipole Moment    :      0.62758      -0.15461      -0.46141
                        -----------------------------------------
Magnitude (a.u.)       :      0.79414
Magnitude (Debye)      :      2.01854

Rotational constants in cm-1:     0.018850     0.009332     0.006962
Rotational constants in MHz :   565.114249   279.771818   208.718267

                             ****ORCA TERMINATED NORMALLY****
TOTAL RUN TIME: 0 days 0 hours 0 minutes 36 seconds 374 msec
