                         Program Version 4.2.1 -  RELEASE  -
|  1> ! wB97X-D3 SP def2-SVP
|  2> %pal
|  3> nprocs 16
|  4> end
|  5>
|  6> * xyz 0 1
|  7> S 	 -36.2684 	 69.3388 	 109.883
|  8> C 	 -35.857 	 68.5457 	 108.419
|  9> C 	 -35.2172 	 69.3994 	 107.507
| 10> C 	 -34.9605 	 70.7085 	 108.104
| 11> C 	 -35.6064 	 70.9195 	 109.342
| 12> H 	 -34.2748 	 71.4686 	 107.705
| 13> C 	 -34.7373 	 69.0348 	 106.103
| 14> H 	 -34.7838 	 69.9918 	 105.667
| 15> H 	 -35.3677 	 68.3513 	 105.597
| 16> C 	 -33.2944 	 68.5469 	 106.202
| 17> H 	 -32.641 	 69.2794 	 106.776
| 18> H 	 -33.1196 	 67.4928 	 106.56
| 19> C 	 -32.7472 	 68.5495 	 104.774
| 20> H 	 -31.7163 	 68.2103 	 104.681
| 21> H 	 -33.3616 	 67.9527 	 104.145
| 22> H 	 -32.5556 	 69.5966 	 104.432
| 23> S 	 -34.8134 	 71.6296 	 111.847
| 24> C 	 -34.5779 	 73.3019 	 112.289
| 25> C 	 -34.8518 	 74.1229 	 111.198
| 26> C 	 -35.3324 	 73.4434 	 110.033
| 27> C 	 -35.405 	 72.0315 	 110.255
| 28> H 	 -34.6571 	 75.1109 	 111.283
| 29> C 	 -35.8687 	 74.1391 	 108.739
| 30> H 	 -36.0921 	 73.4347 	 107.994
| 31> H 	 -34.9809 	 74.7011 	 108.412
| 32> C 	 -37.0112 	 75.0729 	 109.107
| 33> H 	 -37.4279 	 75.4534 	 108.169
| 34> H 	 -36.6481 	 75.8946 	 109.729
| 35> C 	 -38.2539 	 74.3671 	 109.725
| 36> H 	 -39.0729 	 75.0671 	 109.661
| 37> H 	 -38.0321 	 74.0138 	 110.714
| 38> H 	 -38.3636 	 73.5207 	 109.076
| 39> H 	 -36.189 	 67.511 	 108.294
| 40> H 	 -34.059 	 73.6457 	 113.184
| 41> *
| 42>
| 43>                          ****END OF INPUT****

CARTESIAN COORDINATES (ANGSTROEM)
---------------------------------
  S    -36.268400   69.338800  109.883000
  C    -35.857000   68.545700  108.419000
  C    -35.217200   69.399400  107.507000
  C    -34.960500   70.708500  108.104000
  C    -35.606400   70.919500  109.342000
  H    -34.274800   71.468600  107.705000
  C    -34.737300   69.034800  106.103000
  H    -34.783800   69.991800  105.667000
  H    -35.367700   68.351300  105.597000
  C    -33.294400   68.546900  106.202000
  H    -32.641000   69.279400  106.776000
  H    -33.119600   67.492800  106.560000
  C    -32.747200   68.549500  104.774000
  H    -31.716300   68.210300  104.681000
  H    -33.361600   67.952700  104.145000
  H    -32.555600   69.596600  104.432000
  S    -34.813400   71.629600  111.847000
  C    -34.577900   73.301900  112.289000
  C    -34.851800   74.122900  111.198000
  C    -35.332400   73.443400  110.033000
  C    -35.405000   72.031500  110.255000
  H    -34.657100   75.110900  111.283000
  C    -35.868700   74.139100  108.739000
  H    -36.092100   73.434700  107.994000
  H    -34.980900   74.701100  108.412000
  C    -37.011200   75.072900  109.107000
  H    -37.427900   75.453400  108.169000
  H    -36.648100   75.894600  109.729000
  C    -38.253900   74.367100  109.725000
  H    -39.072900   75.067100  109.661000
  H    -38.032100   74.013800  110.714000
  H    -38.363600   73.520700  109.076000
  H    -36.189000   67.511000  108.294000
  H    -34.059000   73.645700  113.184000

 Total Charge           Charge          ....    0
 Multiplicity           Mult            ....    1
 Number of Electrons    NEL             ....  134
 Basis Dimension        Dim             ....  322

ORBITAL ENERGIES
----------------

  NO   OCC          E(Eh)            E(eV)
   0   2.0000     -88.964665     -2420.8516
   1   2.0000     -88.963836     -2420.8290
   2   2.0000     -10.335294      -281.2377
   3   2.0000     -10.328997      -281.0663
   4   2.0000     -10.318514      -280.7810
   5   2.0000     -10.315751      -280.7059
   6   2.0000     -10.309316      -280.5307
   7   2.0000     -10.307148      -280.4718
   8   2.0000     -10.303589      -280.3749
   9   2.0000     -10.294654      -280.1318
  10   2.0000     -10.291291      -280.0403
  11   2.0000     -10.289884      -280.0020
  12   2.0000     -10.289477      -279.9909
  13   2.0000     -10.283274      -279.8221
  14   2.0000     -10.274664      -279.5878
  15   2.0000     -10.267277      -279.3868
  16   2.0000      -8.079438      -219.8527
  17   2.0000      -8.078524      -219.8278
  18   2.0000      -6.037894      -164.2995
  19   2.0000      -6.037137      -164.2789
  20   2.0000      -6.033787      -164.1877
  21   2.0000      -6.032896      -164.1634
  22   2.0000      -6.030383      -164.0951
  23   2.0000      -6.029333      -164.0665
  24   2.0000      -1.000699       -27.2304
  25   2.0000      -0.978307       -26.6211
  26   2.0000      -0.916322       -24.9344
  27   2.0000      -0.908004       -24.7081
  28   2.0000      -0.869566       -23.6621
  29   2.0000      -0.848036       -23.0762
  30   2.0000      -0.841183       -22.8898
  31   2.0000      -0.811453       -22.0808
  32   2.0000      -0.782288       -21.2871
  33   2.0000      -0.768438       -20.9103
  34   2.0000      -0.700642       -19.0654
  35   2.0000      -0.695666       -18.9300
  36   2.0000      -0.691489       -18.8164
  37   2.0000      -0.659225       -17.9384
  38   2.0000      -0.642143       -17.4736
  39   2.0000      -0.622113       -16.9286
  40   2.0000      -0.596955       -16.2440
  41   2.0000      -0.569840       -15.5061
  42   2.0000      -0.562796       -15.3145
  43   2.0000      -0.552384       -15.0311
  44   2.0000      -0.548482       -14.9250
  45   2.0000      -0.527743       -14.3606
  46   2.0000      -0.518630       -14.1126
  47   2.0000      -0.515876       -14.0377
  48   2.0000      -0.502884       -13.6842
  49   2.0000      -0.499657       -13.5964
  50   2.0000      -0.484598       -13.1866
  51   2.0000      -0.478793       -13.0286
  52   2.0000      -0.471073       -12.8185
  53   2.0000      -0.465678       -12.6717
  54   2.0000      -0.454911       -12.3788
  55   2.0000      -0.446174       -12.1410
  56   2.0000      -0.442751       -12.0479
  57   2.0000      -0.436863       -11.8876
  58   2.0000      -0.433346       -11.7919
  59   2.0000      -0.427523       -11.6335
  60   2.0000      -0.424173       -11.5423
  61   2.0000      -0.410628       -11.1738
  62   2.0000      -0.401187       -10.9169
  63   2.0000      -0.353130        -9.6091
  64   2.0000      -0.329307        -8.9609
  65   2.0000      -0.322510        -8.7760
  66   2.0000      -0.284956        -7.7540
  67   0.0000       0.024508         0.6669
  68   0.0000       0.071498         1.9455
  69   0.0000       0.110010         2.9935
  70   0.0000       0.118793         3.2325
  71   0.0000       0.134891         3.6706

MULLIKEN ATOMIC CHARGES
-----------------------
   0 S :    0.092118
   1 C :   -0.129621
   2 C :   -0.109215
   3 C :    0.009430
   4 C :   -0.150152
   5 H :    0.034066
   6 C :    0.128051
   7 H :    0.013552
   8 H :    0.022729
   9 C :   -0.109416
  10 H :    0.042808
  11 H :    0.047758
  12 C :   -0.045687
  13 H :    0.022259
  14 H :    0.027382
  15 H :    0.027145
  16 S :    0.106357
  17 C :   -0.097177
  18 C :   -0.007959
  19 C :   -0.076023
  20 C :   -0.149723
  21 H :   -0.023033
  22 C :    0.114742
  23 H :    0.010174
  24 H :    0.031633
  25 C :   -0.103509
  26 H :    0.025110
  27 H :    0.032868
  28 C :   -0.016658
  29 H :    0.037190
  30 H :    0.042783
  31 H :    0.022110
  32 H :    0.061795
  33 H :    0.066112
Sum of atomic charges:   -0.0000000

LOEWDIN ATOMIC CHARGES
----------------------
   0 S :    0.397252
   1 C :   -0.208853
   2 C :   -0.060239
   3 C :   -0.062967
   4 C :   -0.189318
   5 H :    0.034449
   6 C :   -0.020683
   7 H :    0.028790
   8 H :    0.027305
   9 C :   -0.041510
  10 H :    0.032836
  11 H :    0.032147
  12 C :   -0.071745
  13 H :    0.022455
  14 H :    0.017175
  15 H :    0.027195
  16 S :    0.415475
  17 C :   -0.190615
  18 C :   -0.061940
  19 C :   -0.050522
  20 C :   -0.208541
  21 H :    0.011651
  22 C :   -0.024333
  23 H :    0.019610
  24 H :    0.035812
  25 C :   -0.040277
  26 H :    0.024042
  27 H :    0.020036
  28 C :   -0.052702
  29 H :    0.025257
  30 H :    0.023190
  31 H :    0.024607
  32 H :    0.030644
  33 H :    0.034315

  Mayer bond orders larger than 0.100000
B(  0-S ,  1-C ) :   1.1549 B(  0-S ,  4-C ) :   1.1436 B(  1-C ,  2-C ) :   1.5848
B(  1-C , 32-H ) :   0.9698 B(  2-C ,  3-C ) :   1.2518 B(  2-C ,  6-C ) :   1.0157
B(  3-C ,  4-C ) :   1.5608 B(  3-C ,  5-H ) :   0.9775 B(  4-C , 20-C ) :   1.0621
B(  6-C ,  7-H ) :   0.9380 B(  6-C ,  8-H ) :   0.9415 B(  6-C ,  9-C ) :   1.0641
B(  9-C , 10-H ) :   0.9587 B(  9-C , 11-H ) :   0.9568 B(  9-C , 12-C ) :   1.0801
B( 12-C , 13-H ) :   0.9716 B( 12-C , 14-H ) :   0.9721 B( 12-C , 15-H ) :   0.9760
B( 16-S , 17-C ) :   1.1600 B( 16-S , 20-C ) :   1.1624 B( 17-C , 18-C ) :   1.5820
B( 17-C , 20-C ) :   0.1005 B( 17-C , 33-H ) :   0.9673 B( 18-C , 19-C ) :   1.2617
B( 18-C , 21-H ) :   1.0064 B( 19-C , 20-C ) :   1.5421 B( 19-C , 22-C ) :   1.0238
B( 22-C , 23-H ) :   0.9358 B( 22-C , 24-H ) :   0.9312 B( 22-C , 25-C ) :   1.0857
B( 25-C , 26-H ) :   0.9574 B( 25-C , 27-H ) :   0.9552 B( 25-C , 28-C ) :   1.0629
B( 28-C , 29-H ) :   0.9766 B( 28-C , 30-H ) :   0.9741 B( 28-C , 31-H ) :   0.9770

Dispersion correction           -0.014252479
FINAL SINGLE POINT ENERGY     -1339.866989691605

DIPOLE MOMENT
-------------
                                X             Y             Z
Electronic contribution:     -2.10457      -6.46876      21.51400
Nuclear contribution   :      2.45569       6.69863     -22.09185
                        -----------------------------------------
Total Dipole Moment    :      0.35113       0.22987      -0.57785
                        -----------------------------------------
Magnitude (a.u.)       :      0.71418
Magnitude (Debye)      :      1.81529

Rotational constants in cm-1:     0.020614     0.007566     0.006847
Rotational constants in MHz :   618.003337   226.819170   205.270154

                             ****ORCA TERMINATED NORMALLY****
TOTAL RUN TIME: 0 days 0 hours 0 minutes 29 seconds 579 msec
