                         Program Version 4.2.1 -  RELEASE  -
|  1> ! wB97X-D3 SP def2-SVP
|  2> %pal
|  3> nprocs 16
|  4> end
|  5>
|  6> * xyz 0 1
|  7> S 	 -2.00684 	 -24.1462 	 58.7585
|  8> C 	 -2.56412 	 -23.1549 	 60.1033
|  9> C 	 -2.99962 	 -21.8692 	 59.6047
| 10> C 	 -2.97979 	 -21.7585 	 58.2101
| 11> C 	 -2.59201 	 -22.9567 	 57.5964
| 12> H 	 -3.2402 	 -20.9427 	 57.6979
| 13> C 	 -3.52411 	 -20.726 	 60.4961
| 14> H 	 -3.17388 	 -19.7715 	 60.1494
| 15> H 	 -3.11398 	 -20.8245 	 61.5119
| 16> C 	 -5.0466 	 -20.6612 	 60.5075
| 17> H 	 -5.3375 	 -19.6097 	 60.7906
| 18> H 	 -5.44591 	 -20.717 	 59.515
| 19> C 	 -5.77641 	 -21.7098 	 61.3955
| 20> H 	 -6.79368 	 -21.6078 	 61.1417
| 21> H 	 -5.46553 	 -22.7622 	 61.2935
| 22> H 	 -5.59448 	 -21.3911 	 62.4357
| 23> S 	 -0.896852 	 -23.9503 	 55.6768
| 24> C 	 -1.39142 	 -24.0297 	 53.9803
| 25> C 	 -2.53578 	 -23.3027 	 53.8265
| 26> C 	 -3.10879 	 -22.8107 	 55.0375
| 27> C 	 -2.42222 	 -23.2319 	 56.1713
| 28> H 	 -2.94114 	 -23.2112 	 52.7871
| 29> C 	 -4.39565 	 -22.0309 	 54.9987
| 30> H 	 -4.75376 	 -21.8857 	 56.0396
| 31> H 	 -5.15197 	 -22.6379 	 54.3956
| 32> C 	 -4.23797 	 -20.6031 	 54.4751
| 33> H 	 -3.76844 	 -20.5082 	 53.3924
| 34> H 	 -3.55815 	 -20.1141 	 55.1251
| 35> C 	 -5.56661 	 -19.8392 	 54.4411
| 36> H 	 -6.00215 	 -19.7003 	 55.5147
| 37> H 	 -6.28353 	 -20.2929 	 53.7677
| 38> H 	 -5.33016 	 -18.8434 	 54.0071
| 39> H 	 -2.44514 	 -23.5732 	 61.1012
| 40> H 	 -0.926931 	 -24.6995 	 53.2441
| 41> *
| 42>
| 43>                          ****END OF INPUT****

CARTESIAN COORDINATES (ANGSTROEM)
---------------------------------
  S     -2.006840  -24.146200   58.758500
  C     -2.564120  -23.154900   60.103300
  C     -2.999620  -21.869200   59.604700
  C     -2.979790  -21.758500   58.210100
  C     -2.592010  -22.956700   57.596400
  H     -3.240200  -20.942700   57.697900
  C     -3.524110  -20.726000   60.496100
  H     -3.173880  -19.771500   60.149400
  H     -3.113980  -20.824500   61.511900
  C     -5.046600  -20.661200   60.507500
  H     -5.337500  -19.609700   60.790600
  H     -5.445910  -20.717000   59.515000
  C     -5.776410  -21.709800   61.395500
  H     -6.793680  -21.607800   61.141700
  H     -5.465530  -22.762200   61.293500
  H     -5.594480  -21.391100   62.435700
  S     -0.896852  -23.950300   55.676800
  C     -1.391420  -24.029700   53.980300
  C     -2.535780  -23.302700   53.826500
  C     -3.108790  -22.810700   55.037500
  C     -2.422220  -23.231900   56.171300
  H     -2.941140  -23.211200   52.787100
  C     -4.395650  -22.030900   54.998700
  H     -4.753760  -21.885700   56.039600
  H     -5.151970  -22.637900   54.395600
  C     -4.237970  -20.603100   54.475100
  H     -3.768440  -20.508200   53.392400
  H     -3.558150  -20.114100   55.125100
  C     -5.566610  -19.839200   54.441100
  H     -6.002150  -19.700300   55.514700
  H     -6.283530  -20.292900   53.767700
  H     -5.330160  -18.843400   54.007100
  H     -2.445140  -23.573200   61.101200
  H     -0.926931  -24.699500   53.244100

 Total Charge           Charge          ....    0
 Multiplicity           Mult            ....    1
 Number of Electrons    NEL             ....  134
 Basis Dimension        Dim             ....  322

ORBITAL ENERGIES
----------------

  NO   OCC          E(Eh)            E(eV)
   0   2.0000     -88.969975     -2420.9961
   1   2.0000     -88.959208     -2420.7031
   2   2.0000     -10.334798      -281.2242
   3   2.0000     -10.327782      -281.0332
   4   2.0000     -10.324303      -280.9386
   5   2.0000     -10.316995      -280.7397
   6   2.0000     -10.310532      -280.5638
   7   2.0000     -10.302350      -280.3412
   8   2.0000     -10.297141      -280.1995
   9   2.0000     -10.295364      -280.1511
  10   2.0000     -10.293888      -280.1109
  11   2.0000     -10.292987      -280.0864
  12   2.0000     -10.291152      -280.0365
  13   2.0000     -10.289047      -279.9792
  14   2.0000     -10.288406      -279.9618
  15   2.0000     -10.276649      -279.6418
  16   2.0000      -8.084207      -219.9825
  17   2.0000      -8.074001      -219.7047
  18   2.0000      -6.042571      -164.4267
  19   2.0000      -6.038700      -164.3214
  20   2.0000      -6.035233      -164.2270
  21   2.0000      -6.032624      -164.1560
  22   2.0000      -6.028586      -164.0462
  23   2.0000      -6.024541      -163.9361
  24   2.0000      -1.005030       -27.3482
  25   2.0000      -0.981104       -26.6972
  26   2.0000      -0.910782       -24.7836
  27   2.0000      -0.908355       -24.7176
  28   2.0000      -0.865756       -23.5584
  29   2.0000      -0.854972       -23.2650
  30   2.0000      -0.845058       -22.9952
  31   2.0000      -0.812493       -22.1090
  32   2.0000      -0.781748       -21.2725
  33   2.0000      -0.768417       -20.9097
  34   2.0000      -0.704996       -19.1839
  35   2.0000      -0.693383       -18.8679
  36   2.0000      -0.689033       -18.7495
  37   2.0000      -0.662469       -18.0267
  38   2.0000      -0.646118       -17.5818
  39   2.0000      -0.628190       -17.0939
  40   2.0000      -0.595264       -16.1980
  41   2.0000      -0.564738       -15.3673
  42   2.0000      -0.563907       -15.3447
  43   2.0000      -0.548498       -14.9254
  44   2.0000      -0.537159       -14.6168
  45   2.0000      -0.526008       -14.3134
  46   2.0000      -0.521345       -14.1865
  47   2.0000      -0.515330       -14.0228
  48   2.0000      -0.503758       -13.7079
  49   2.0000      -0.501237       -13.6394
  50   2.0000      -0.490180       -13.3385
  51   2.0000      -0.481011       -13.0890
  52   2.0000      -0.466892       -12.7048
  53   2.0000      -0.462014       -12.5720
  54   2.0000      -0.459899       -12.5145
  55   2.0000      -0.449766       -12.2388
  56   2.0000      -0.445564       -12.1244
  57   2.0000      -0.438360       -11.9284
  58   2.0000      -0.434674       -11.8281
  59   2.0000      -0.424396       -11.5484
  60   2.0000      -0.417228       -11.3534
  61   2.0000      -0.412956       -11.2371
  62   2.0000      -0.410944       -11.1823
  63   2.0000      -0.350089        -9.5264
  64   2.0000      -0.335303        -9.1241
  65   2.0000      -0.325810        -8.8657
  66   2.0000      -0.285836        -7.7780
  67   0.0000       0.017961         0.4887
  68   0.0000       0.072029         1.9600
  69   0.0000       0.104252         2.8368
  70   0.0000       0.121775         3.3137
  71   0.0000       0.125078         3.4036

MULLIKEN ATOMIC CHARGES
-----------------------
   0 S :    0.109585
   1 C :   -0.136588
   2 C :   -0.081594
   3 C :    0.091500
   4 C :   -0.151998
   5 H :   -0.051676
   6 C :    0.088939
   7 H :    0.017551
   8 H :    0.022314
   9 C :   -0.094382
  10 H :    0.025996
  11 H :    0.015150
  12 C :   -0.036710
  13 H :    0.029667
  14 H :    0.045759
  15 H :    0.030879
  16 S :    0.075062
  17 C :   -0.106329
  18 C :   -0.042714
  19 C :   -0.033441
  20 C :   -0.107910
  21 H :    0.036173
  22 C :    0.037987
  23 H :    0.020457
  24 H :    0.044811
  25 C :   -0.111781
  26 H :    0.041969
  27 H :    0.023369
  28 C :   -0.056880
  29 H :    0.044182
  30 H :    0.036451
  31 H :    0.039392
  32 H :    0.063035
  33 H :    0.071773
Sum of atomic charges:   -0.0000000

LOEWDIN ATOMIC CHARGES
----------------------
   0 S :    0.410874
   1 C :   -0.201883
   2 C :   -0.049468
   3 C :   -0.045426
   4 C :   -0.181582
   5 H :    0.009268
   6 C :   -0.030745
   7 H :    0.027948
   8 H :    0.030131
   9 C :   -0.042299
  10 H :    0.027430
  11 H :    0.015900
  12 C :   -0.061821
  13 H :    0.021861
  14 H :    0.029016
  15 H :    0.026369
  16 S :    0.380020
  17 C :   -0.182584
  18 C :   -0.074984
  19 C :   -0.066096
  20 C :   -0.192658
  21 H :    0.040358
  22 C :   -0.038422
  23 H :    0.030884
  24 H :    0.037671
  25 C :   -0.047900
  26 H :    0.032848
  27 H :    0.016358
  28 C :   -0.071738
  29 H :    0.033325
  30 H :    0.022573
  31 H :    0.030093
  32 H :    0.027927
  33 H :    0.036752

  Mayer bond orders larger than 0.100000
B(  0-S ,  1-C ) :   1.1555 B(  0-S ,  4-C ) :   1.1781 B(  1-C ,  2-C ) :   1.5295
B(  1-C ,  4-C ) :   0.1167 B(  1-C , 32-H ) :   0.9769 B(  2-C ,  3-C ) :   1.2886
B(  2-C ,  6-C ) :   1.0310 B(  3-C ,  4-C ) :   1.4983 B(  3-C ,  5-H ) :   1.0145
B(  4-C , 20-C ) :   1.0470 B(  6-C ,  7-H ) :   0.9381 B(  6-C ,  8-H ) :   0.9455
B(  6-C ,  9-C ) :   1.0674 B(  9-C , 10-H ) :   0.9548 B(  9-C , 11-H ) :   0.9587
B(  9-C , 12-C ) :   1.0695 B( 12-C , 13-H ) :   0.9748 B( 12-C , 14-H ) :   0.9764
B( 12-C , 15-H ) :   0.9775 B( 16-S , 17-C ) :   1.1349 B( 16-S , 20-C ) :   1.1349
B( 17-C , 18-C ) :   1.6259 B( 17-C , 33-H ) :   0.9656 B( 18-C , 19-C ) :   1.2198
B( 18-C , 21-H ) :   0.9843 B( 19-C , 20-C ) :   1.5978 B( 19-C , 22-C ) :   1.0575
B( 22-C , 23-H ) :   0.9300 B( 22-C , 24-H ) :   0.9389 B( 22-C , 25-C ) :   1.0582
B( 25-C , 26-H ) :   0.9529 B( 25-C , 27-H ) :   0.9507 B( 25-C , 28-C ) :   1.0874
B( 28-C , 29-H ) :   0.9701 B( 28-C , 30-H ) :   0.9743 B( 28-C , 31-H ) :   0.9733

Dispersion correction           -0.014281970
FINAL SINGLE POINT ENERGY     -1339.874533565125

DIPOLE MOMENT
-------------
                                X             Y             Z
Electronic contribution:     22.59827     -20.24121      -3.69551
Nuclear contribution   :    -23.04170      20.73215       3.63916
                        -----------------------------------------
Total Dipole Moment    :     -0.44343       0.49094      -0.05636
                        -----------------------------------------
Magnitude (a.u.)       :      0.66395
Magnitude (Debye)      :      1.68763

Rotational constants in cm-1:     0.017377     0.009556     0.006557
Rotational constants in MHz :   520.947790   286.491605   196.587421

                             ****ORCA TERMINATED NORMALLY****
TOTAL RUN TIME: 0 days 0 hours 0 minutes 35 seconds 282 msec
