                         Program Version 4.2.1 -  RELEASE  -
|  1> ! wB97X-D3 SP def2-SVP
|  2> %pal
|  3> nprocs 16
|  4> end
|  5>
|  6> * xyz 0 1
|  7> S 	 55.2014 	 4.26664 	 80.9872
|  8> C 	 54.7323 	 2.79468 	 80.1091
|  9> C 	 53.4661 	 2.37767 	 80.5049
| 10> C 	 52.8216 	 3.32026 	 81.3509
| 11> C 	 53.5714 	 4.37003 	 81.6675
| 12> H 	 51.8533 	 3.14444 	 81.7264
| 13> C 	 52.7473 	 1.17305 	 79.9834
| 14> H 	 52.9935 	 1.08842 	 78.9252
| 15> H 	 51.6803 	 1.25985 	 80.0664
| 16> C 	 53.2394 	 -0.163443 	 80.6019
| 17> H 	 52.6668 	 -0.932129 	 80.2494
| 18> H 	 54.2834 	 -0.296432 	 80.262
| 19> C 	 52.8976 	 -0.132875 	 82.1282
| 20> H 	 51.9597 	 0.262733 	 82.47
| 21> H 	 52.9921 	 -1.129 	 82.593
| 22> H 	 53.5847 	 0.464179 	 82.6872
| 23> S 	 54.5181 	 6.41837 	 83.3415
| 24> C 	 53.2719 	 7.24958 	 84.334
| 25> C 	 52.0206 	 6.90315 	 83.9926
| 26> C 	 51.9829 	 5.9982 	 82.9077
| 27> C 	 53.1929 	 5.45893 	 82.576
| 28> H 	 51.2567 	 7.49129 	 84.4831
| 29> C 	 50.681 	 5.59894 	 82.2499
| 30> H 	 50.975 	 5.28483 	 81.2157
| 31> H 	 50.1272 	 6.4401 	 82.1463
| 32> C 	 49.8521 	 4.61272 	 83.1139
| 33> H 	 49.7845 	 5.09901 	 84.0666
| 34> H 	 50.3757 	 3.74836 	 83.357
| 35> C 	 48.5279 	 4.15621 	 82.4776
| 36> H 	 48.6366 	 3.6742 	 81.4707
| 37> H 	 47.9045 	 4.99376 	 82.322
| 38> H 	 47.8406 	 3.53435 	 83.1214
| 39> H 	 55.3451 	 2.132 	 79.5661
| 40> H 	 53.3215 	 7.82914 	 85.2122
| 41> *
| 42>
| 43>                          ****END OF INPUT****

CARTESIAN COORDINATES (ANGSTROEM)
---------------------------------
  S     55.201400    4.266640   80.987200
  C     54.732300    2.794680   80.109100
  C     53.466100    2.377670   80.504900
  C     52.821600    3.320260   81.350900
  C     53.571400    4.370030   81.667500
  H     51.853300    3.144440   81.726400
  C     52.747300    1.173050   79.983400
  H     52.993500    1.088420   78.925200
  H     51.680300    1.259850   80.066400
  C     53.239400   -0.163443   80.601900
  H     52.666800   -0.932129   80.249400
  H     54.283400   -0.296432   80.262000
  C     52.897600   -0.132875   82.128200
  H     51.959700    0.262733   82.470000
  H     52.992100   -1.129000   82.593000
  H     53.584700    0.464179   82.687200
  S     54.518100    6.418370   83.341500
  C     53.271900    7.249580   84.334000
  C     52.020600    6.903150   83.992600
  C     51.982900    5.998200   82.907700
  C     53.192900    5.458930   82.576000
  H     51.256700    7.491290   84.483100
  C     50.681000    5.598940   82.249900
  H     50.975000    5.284830   81.215700
  H     50.127200    6.440100   82.146300
  C     49.852100    4.612720   83.113900
  H     49.784500    5.099010   84.066600
  H     50.375700    3.748360   83.357000
  C     48.527900    4.156210   82.477600
  H     48.636600    3.674200   81.470700
  H     47.904500    4.993760   82.322000
  H     47.840600    3.534350   83.121400
  H     55.345100    2.132000   79.566100
  H     53.321500    7.829140   85.212200

 Total Charge           Charge          ....    0
 Multiplicity           Mult            ....    1
 Number of Electrons    NEL             ....  134
 Basis Dimension        Dim             ....  322

ORBITAL ENERGIES
----------------

  NO   OCC          E(Eh)            E(eV)
   0   2.0000     -88.968308     -2420.9507
   1   2.0000     -88.965092     -2420.8632
   2   2.0000     -10.330117      -281.0968
   3   2.0000     -10.329000      -281.0664
   4   2.0000     -10.312603      -280.6202
   5   2.0000     -10.312313      -280.6123
   6   2.0000     -10.300081      -280.2794
   7   2.0000     -10.298252      -280.2297
   8   2.0000     -10.288345      -279.9601
   9   2.0000     -10.288340      -279.9600
  10   2.0000     -10.287007      -279.9237
  11   2.0000     -10.286602      -279.9127
  12   2.0000     -10.285226      -279.8752
  13   2.0000     -10.284706      -279.8611
  14   2.0000     -10.284139      -279.8457
  15   2.0000     -10.273857      -279.5659
  16   2.0000      -8.082183      -219.9274
  17   2.0000      -8.078431      -219.8253
  18   2.0000      -6.040924      -164.3819
  19   2.0000      -6.037188      -164.2802
  20   2.0000      -6.036989      -164.2748
  21   2.0000      -6.033444      -164.1784
  22   2.0000      -6.032586      -164.1550
  23   2.0000      -6.028706      -164.0494
  24   2.0000      -1.007627       -27.4189
  25   2.0000      -0.984756       -26.7966
  26   2.0000      -0.913810       -24.8660
  27   2.0000      -0.910545       -24.7772
  28   2.0000      -0.871425       -23.7127
  29   2.0000      -0.852903       -23.2087
  30   2.0000      -0.843289       -22.9471
  31   2.0000      -0.823523       -22.4092
  32   2.0000      -0.783707       -21.3257
  33   2.0000      -0.774430       -21.0733
  34   2.0000      -0.715657       -19.4740
  35   2.0000      -0.713507       -19.4155
  36   2.0000      -0.705656       -19.2019
  37   2.0000      -0.663949       -18.0670
  38   2.0000      -0.639175       -17.3928
  39   2.0000      -0.624152       -16.9840
  40   2.0000      -0.590863       -16.0782
  41   2.0000      -0.579316       -15.7640
  42   2.0000      -0.567723       -15.4485
  43   2.0000      -0.548948       -14.9376
  44   2.0000      -0.544249       -14.8098
  45   2.0000      -0.526279       -14.3208
  46   2.0000      -0.512713       -13.9516
  47   2.0000      -0.511793       -13.9266
  48   2.0000      -0.503850       -13.7105
  49   2.0000      -0.502333       -13.6692
  50   2.0000      -0.492278       -13.3956
  51   2.0000      -0.480307       -13.0698
  52   2.0000      -0.477148       -12.9839
  53   2.0000      -0.468148       -12.7390
  54   2.0000      -0.457977       -12.4622
  55   2.0000      -0.451353       -12.2819
  56   2.0000      -0.441028       -12.0010
  57   2.0000      -0.438981       -11.9453
  58   2.0000      -0.435803       -11.8588
  59   2.0000      -0.428336       -11.6556
  60   2.0000      -0.423327       -11.5193
  61   2.0000      -0.418654       -11.3922
  62   2.0000      -0.415830       -11.3153
  63   2.0000      -0.360465        -9.8087
  64   2.0000      -0.337594        -9.1864
  65   2.0000      -0.327162        -8.9025
  66   2.0000      -0.285025        -7.7559
  67   0.0000       0.020540         0.5589
  68   0.0000       0.075671         2.0591
  69   0.0000       0.088264         2.4018
  70   0.0000       0.125795         3.4231
  71   0.0000       0.126733         3.4486

MULLIKEN ATOMIC CHARGES
-----------------------
   0 S :    0.096790
   1 C :   -0.082814
   2 C :   -0.085504
   3 C :   -0.006131
   4 C :   -0.065835
   5 H :   -0.026195
   6 C :    0.033146
   7 H :    0.028912
   8 H :    0.021558
   9 C :   -0.013398
  10 H :    0.012861
  11 H :    0.036229
  12 C :   -0.067949
  13 H :    0.022567
  14 H :    0.030365
  15 H :    0.031244
  16 S :    0.080118
  17 C :   -0.046625
  18 C :   -0.049447
  19 C :   -0.085739
  20 C :   -0.112924
  21 H :    0.021701
  22 C :    0.096312
  23 H :    0.036431
  24 H :   -0.008557
  25 C :   -0.029821
  26 H :    0.012000
  27 H :    0.011317
  28 C :   -0.044462
  29 H :    0.041399
  30 H :    0.013134
  31 H :    0.040107
  32 H :    0.025431
  33 H :    0.033778
Sum of atomic charges:    0.0000000

LOEWDIN ATOMIC CHARGES
----------------------
   0 S :    0.380848
   1 C :   -0.184124
   2 C :   -0.052657
   3 C :   -0.063579
   4 C :   -0.171294
   5 H :    0.025080
   6 C :   -0.030929
   7 H :    0.032616
   8 H :    0.025153
   9 C :   -0.023126
  10 H :    0.011367
  11 H :    0.029074
  12 C :   -0.070718
  13 H :    0.022873
  14 H :    0.027139
  15 H :    0.023758
  16 S :    0.348319
  17 C :   -0.158522
  18 C :   -0.074112
  19 C :   -0.057428
  20 C :   -0.164358
  21 H :    0.036621
  22 C :   -0.021594
  23 H :    0.035376
  24 H :    0.014978
  25 C :   -0.033393
  26 H :    0.025580
  27 H :    0.012181
  28 C :   -0.072436
  29 H :    0.032243
  30 H :    0.016722
  31 H :    0.033722
  32 H :    0.018703
  33 H :    0.025916

  Mayer bond orders larger than 0.100000
B(  0-S ,  1-C ) :   1.1139 B(  0-S ,  4-C ) :   1.1204 B(  1-C ,  2-C ) :   1.6365
B(  1-C , 32-H ) :   0.9660 B(  2-C ,  3-C ) :   1.2216 B(  2-C ,  6-C ) :   1.0213
B(  3-C ,  4-C ) :   1.5832 B(  3-C ,  5-H ) :   1.0083 B(  4-C , 20-C ) :   1.0687
B(  6-C ,  7-H ) :   0.9407 B(  6-C ,  8-H ) :   0.9492 B(  6-C ,  9-C ) :   1.0814
B(  9-C , 10-H ) :   0.9579 B(  9-C , 11-H ) :   0.9591 B(  9-C , 12-C ) :   1.0544
B( 12-C , 13-H ) :   0.9772 B( 12-C , 14-H ) :   0.9769 B( 12-C , 15-H ) :   0.9745
B( 16-S , 17-C ) :   1.1146 B( 16-S , 20-C ) :   1.0939 B( 17-C , 18-C ) :   1.7035
B( 17-C , 33-H ) :   0.9596 B( 18-C , 19-C ) :   1.1827 B( 18-C , 21-H ) :   0.9844
B( 19-C , 20-C ) :   1.6499 B( 19-C , 22-C ) :   1.0493 B( 22-C , 23-H ) :   0.9337
B( 22-C , 24-H ) :   0.9198 B( 22-C , 25-C ) :   1.0517 B( 25-C , 26-H ) :   0.9468
B( 25-C , 27-H ) :   0.9564 B( 25-C , 28-C ) :   1.0737 B( 28-C , 29-H ) :   0.9739
B( 28-C , 30-H ) :   0.9730 B( 28-C , 31-H ) :   0.9735

Dispersion correction           -0.014858627
FINAL SINGLE POINT ENERGY     -1339.850779638847

DIPOLE MOMENT
-------------
                                X             Y             Z
Electronic contribution:     23.07774      19.25476       0.84678
Nuclear contribution   :    -23.85675     -19.61032      -0.76741
                        -----------------------------------------
Total Dipole Moment    :     -0.77901      -0.35556       0.07937
                        -----------------------------------------
Magnitude (a.u.)       :      0.85999
Magnitude (Debye)      :      2.18591

Rotational constants in cm-1:     0.017119     0.010135     0.007079
Rotational constants in MHz :   513.229222   303.828841   212.219315

                             ****ORCA TERMINATED NORMALLY****
TOTAL RUN TIME: 0 days 0 hours 0 minutes 30 seconds 106 msec
