                         Program Version 4.2.1 -  RELEASE  -
|  1> ! wB97X-D3 SP def2-SVP
|  2> %pal
|  3> nprocs 16
|  4> end
|  5>
|  6> * xyz 0 1
|  7> S 	 14.3948 	 -12.6375 	 80.1259
|  8> C 	 14.909 	 -12.5769 	 78.5032
|  9> C 	 13.8489 	 -12.1051 	 77.6398
| 10> C 	 12.5877 	 -12.1124 	 78.3565
| 11> C 	 12.7083 	 -12.4572 	 79.6686
| 12> H 	 11.583 	 -11.9264 	 78.0315
| 13> C 	 13.9814 	 -11.7764 	 76.1603
| 14> H 	 12.981 	 -11.8447 	 75.768
| 15> H 	 14.615 	 -12.4974 	 75.6638
| 16> C 	 14.4556 	 -10.3403 	 76.0019
| 17> H 	 13.7539 	 -9.57061 	 76.3437
| 18> H 	 15.4269 	 -10.1343 	 76.5035
| 19> C 	 14.7498 	 -10.0871 	 74.464
| 20> H 	 15.3306 	 -10.9889 	 74.1004
| 21> H 	 13.8357 	 -10.1968 	 73.8218
| 22> H 	 15.4047 	 -9.18905 	 74.2881
| 23> S 	 11.6256 	 -14.1931 	 81.4906
| 24> C 	 10.1061 	 -13.79 	 82.2561
| 25> C 	 9.5727 	 -12.6662 	 81.7175
| 26> C 	 10.5288 	 -11.9018 	 80.9395
| 27> C 	 11.6137 	 -12.6882 	 80.6393
| 28> H 	 8.54865 	 -12.4153 	 82.0526
| 29> C 	 10.1847 	 -10.5138 	 80.4186
| 30> H 	 11.124 	 -10.1512 	 80.001
| 31> H 	 9.88105 	 -9.92255 	 81.2511
| 32> C 	 9.14568 	 -10.5259 	 79.2404
| 33> H 	 8.23175 	 -10.8001 	 79.6276
| 34> H 	 9.31531 	 -11.2641 	 78.468
| 35> C 	 9.01343 	 -9.14914 	 78.5607
| 36> H 	 9.99364 	 -8.74329 	 78.356
| 37> H 	 8.55181 	 -8.41594 	 79.2318
| 38> H 	 8.38369 	 -9.33453 	 77.6693
| 39> H 	 15.937 	 -12.4374 	 78.2406
| 40> H 	 9.51443 	 -14.48 	 82.88
| 41> *
| 42>
| 43>                          ****END OF INPUT****

CARTESIAN COORDINATES (ANGSTROEM)
---------------------------------
  S     14.394800  -12.637500   80.125900
  C     14.909000  -12.576900   78.503200
  C     13.848900  -12.105100   77.639800
  C     12.587700  -12.112400   78.356500
  C     12.708300  -12.457200   79.668600
  H     11.583000  -11.926400   78.031500
  C     13.981400  -11.776400   76.160300
  H     12.981000  -11.844700   75.768000
  H     14.615000  -12.497400   75.663800
  C     14.455600  -10.340300   76.001900
  H     13.753900   -9.570610   76.343700
  H     15.426900  -10.134300   76.503500
  C     14.749800  -10.087100   74.464000
  H     15.330600  -10.988900   74.100400
  H     13.835700  -10.196800   73.821800
  H     15.404700   -9.189050   74.288100
  S     11.625600  -14.193100   81.490600
  C     10.106100  -13.790000   82.256100
  C      9.572700  -12.666200   81.717500
  C     10.528800  -11.901800   80.939500
  C     11.613700  -12.688200   80.639300
  H      8.548650  -12.415300   82.052600
  C     10.184700  -10.513800   80.418600
  H     11.124000  -10.151200   80.001000
  H      9.881050   -9.922550   81.251100
  C      9.145680  -10.525900   79.240400
  H      8.231750  -10.800100   79.627600
  H      9.315310  -11.264100   78.468000
  C      9.013430   -9.149140   78.560700
  H      9.993640   -8.743290   78.356000
  H      8.551810   -8.415940   79.231800
  H      8.383690   -9.334530   77.669300
  H     15.937000  -12.437400   78.240600
  H      9.514430  -14.480000   82.880000

 Total Charge           Charge          ....    0
 Multiplicity           Mult            ....    1
 Number of Electrons    NEL             ....  134
 Basis Dimension        Dim             ....  322

ORBITAL ENERGIES
----------------

  NO   OCC          E(Eh)            E(eV)
   0   2.0000     -88.965211     -2420.8665
   1   2.0000     -88.962163     -2420.7835
   2   2.0000     -10.326254      -280.9917
   3   2.0000     -10.324187      -280.9354
   4   2.0000     -10.313042      -280.6321
   5   2.0000     -10.312587      -280.6198
   6   2.0000     -10.309778      -280.5433
   7   2.0000     -10.302673      -280.3500
   8   2.0000     -10.293874      -280.1105
   9   2.0000     -10.293068      -280.0886
  10   2.0000     -10.292988      -280.0865
  11   2.0000     -10.292980      -280.0862
  12   2.0000     -10.292470      -280.0723
  13   2.0000     -10.289798      -279.9996
  14   2.0000     -10.283497      -279.8282
  15   2.0000     -10.281146      -279.7642
  16   2.0000      -8.080524      -219.8822
  17   2.0000      -8.077588      -219.8023
  18   2.0000      -6.038885      -164.3264
  19   2.0000      -6.036092      -164.2504
  20   2.0000      -6.034950      -164.2193
  21   2.0000      -6.032101      -164.1418
  22   2.0000      -6.031412      -164.1231
  23   2.0000      -6.028189      -164.0354
  24   2.0000      -1.008316       -27.4377
  25   2.0000      -0.985181       -26.8082
  26   2.0000      -0.911502       -24.8032
  27   2.0000      -0.908266       -24.7152
  28   2.0000      -0.867848       -23.6153
  29   2.0000      -0.852136       -23.1878
  30   2.0000      -0.844707       -22.9857
  31   2.0000      -0.815207       -22.1829
  32   2.0000      -0.778378       -21.1807
  33   2.0000      -0.764949       -20.8153
  34   2.0000      -0.707914       -19.2633
  35   2.0000      -0.699347       -19.0302
  36   2.0000      -0.691904       -18.8277
  37   2.0000      -0.660425       -17.9711
  38   2.0000      -0.644780       -17.5453
  39   2.0000      -0.616870       -16.7859
  40   2.0000      -0.591428       -16.0936
  41   2.0000      -0.570065       -15.5123
  42   2.0000      -0.568269       -15.4634
  43   2.0000      -0.555380       -15.1127
  44   2.0000      -0.535172       -14.5628
  45   2.0000      -0.525354       -14.2956
  46   2.0000      -0.517695       -14.0872
  47   2.0000      -0.508716       -13.8429
  48   2.0000      -0.501931       -13.6582
  49   2.0000      -0.498781       -13.5725
  50   2.0000      -0.488055       -13.2806
  51   2.0000      -0.476850       -12.9757
  52   2.0000      -0.470397       -12.8001
  53   2.0000      -0.468372       -12.7451
  54   2.0000      -0.457161       -12.4400
  55   2.0000      -0.446528       -12.1507
  56   2.0000      -0.443142       -12.0585
  57   2.0000      -0.440758       -11.9936
  58   2.0000      -0.435416       -11.8483
  59   2.0000      -0.426118       -11.5953
  60   2.0000      -0.425674       -11.5832
  61   2.0000      -0.420464       -11.4414
  62   2.0000      -0.413182       -11.2433
  63   2.0000      -0.349697        -9.5157
  64   2.0000      -0.327413        -8.9094
  65   2.0000      -0.325851        -8.8669
  66   2.0000      -0.293344        -7.9823
  67   0.0000       0.033085         0.9003
  68   0.0000       0.071966         1.9583
  69   0.0000       0.114617         3.1189
  70   0.0000       0.119132         3.2418
  71   0.0000       0.128241         3.4896

MULLIKEN ATOMIC CHARGES
-----------------------
   0 S :    0.122956
   1 C :   -0.094472
   2 C :   -0.133714
   3 C :    0.057416
   4 C :   -0.169526
   5 H :   -0.012918
   6 C :    0.090067
   7 H :    0.019618
   8 H :    0.035199
   9 C :   -0.093434
  10 H :    0.041112
  11 H :    0.036048
  12 C :   -0.085288
  13 H :    0.022231
  14 H :    0.037110
  15 H :    0.054437
  16 S :    0.111283
  17 C :   -0.099027
  18 C :   -0.051910
  19 C :   -0.057555
  20 C :   -0.151376
  21 H :    0.030118
  22 C :    0.095662
  23 H :    0.021462
  24 H :    0.030035
  25 C :   -0.062407
  26 H :    0.003581
  27 H :    0.027594
  28 C :   -0.040123
  29 H :    0.026921
  30 H :    0.030744
  31 H :    0.044599
  32 H :    0.050520
  33 H :    0.063040
Sum of atomic charges:    0.0000000

LOEWDIN ATOMIC CHARGES
----------------------
   0 S :    0.424659
   1 C :   -0.219656
   2 C :   -0.050472
   3 C :   -0.064067
   4 C :   -0.192971
   5 H :    0.028530
   6 C :   -0.029587
   7 H :    0.031260
   8 H :    0.032730
   9 C :   -0.040255
  10 H :    0.026688
  11 H :    0.026454
  12 C :   -0.083558
  13 H :    0.025222
  14 H :    0.027280
  15 H :    0.031350
  16 S :    0.408550
  17 C :   -0.190780
  18 C :   -0.074990
  19 C :   -0.057392
  20 C :   -0.205354
  21 H :    0.035610
  22 C :   -0.022573
  23 H :    0.028563
  24 H :    0.030094
  25 C :   -0.031744
  26 H :    0.011070
  27 H :    0.021914
  28 C :   -0.062074
  29 H :    0.021367
  30 H :    0.025288
  31 H :    0.032496
  32 H :    0.022192
  33 H :    0.034156

  Mayer bond orders larger than 0.100000
B(  0-S ,  1-C ) :   1.1625 B(  0-S ,  4-C ) :   1.1655 B(  1-C ,  2-C ) :   1.5730
B(  1-C , 32-H ) :   0.9663 B(  2-C ,  3-C ) :   1.2403 B(  2-C ,  6-C ) :   1.0289
B(  3-C ,  4-C ) :   1.5861 B(  3-C ,  5-H ) :   0.9944 B(  4-C , 20-C ) :   1.0059
B(  6-C ,  7-H ) :   0.9376 B(  6-C ,  8-H ) :   0.9460 B(  6-C ,  9-C ) :   1.0597
B(  9-C , 10-H ) :   0.9566 B(  9-C , 11-H ) :   0.9618 B(  9-C , 12-C ) :   1.0667
B( 12-C , 13-H ) :   0.9745 B( 12-C , 14-H ) :   0.9735 B( 12-C , 15-H ) :   0.9754
B( 16-S , 17-C ) :   1.1344 B( 16-S , 20-C ) :   1.1470 B( 17-C , 18-C ) :   1.6700
B( 17-C , 33-H ) :   0.9612 B( 18-C , 19-C ) :   1.1884 B( 18-C , 21-H ) :   0.9798
B( 19-C , 20-C ) :   1.6248 B( 19-C , 22-C ) :   1.0539 B( 22-C , 23-H ) :   0.9318
B( 22-C , 24-H ) :   0.9309 B( 22-C , 25-C ) :   1.0554 B( 25-C , 26-H ) :   0.9488
B( 25-C , 27-H ) :   0.9587 B( 25-C , 28-C ) :   1.0832 B( 28-C , 29-H ) :   0.9768
B( 28-C , 30-H ) :   0.9747 B( 28-C , 31-H ) :   0.9750

Dispersion correction           -0.014113127
FINAL SINGLE POINT ENERGY     -1339.874272795867

DIPOLE MOMENT
-------------
                                X             Y             Z
Electronic contribution:      6.62273     -20.34335      23.48477
Nuclear contribution   :     -7.05499      20.77233     -23.88815
                        -----------------------------------------
Total Dipole Moment    :     -0.43225       0.42898      -0.40338
                        -----------------------------------------
Magnitude (a.u.)       :      0.73046
Magnitude (Debye)      :      1.85669

Rotational constants in cm-1:     0.018252     0.008798     0.006324
Rotational constants in MHz :   547.188750   263.766585   189.577285

                             ****ORCA TERMINATED NORMALLY****
TOTAL RUN TIME: 0 days 0 hours 0 minutes 28 seconds 128 msec
