                         Program Version 4.2.1 -  RELEASE  -
|  1> ! wB97X-D3 SP def2-SVP
|  2> %pal
|  3> nprocs 16
|  4> end
|  5>
|  6> * xyz 0 1
|  7> S 	 -103.879 	 41.6804 	 127.984
|  8> C 	 -103.56 	 40.7098 	 129.405
|  9> C 	 -103.132 	 39.431 	 129.137
| 10> C 	 -103.319 	 39.1484 	 127.735
| 11> C 	 -103.538 	 40.3263 	 126.992
| 12> H 	 -103.043 	 38.2404 	 127.206
| 13> C 	 -102.852 	 38.4232 	 130.227
| 14> H 	 -103.416 	 37.5759 	 129.97
| 15> H 	 -103.248 	 38.8426 	 131.148
| 16> C 	 -101.348 	 38.1433 	 130.489
| 17> H 	 -101.294 	 37.2203 	 131.078
| 18> H 	 -100.662 	 38.1874 	 129.631
| 19> C 	 -100.794 	 39.2672 	 131.399
| 20> H 	 -100.898 	 40.214 	 130.954
| 21> H 	 -101.309 	 39.3099 	 132.307
| 22> H 	 -99.7444 	 38.8951 	 131.512
| 23> S 	 -103.398 	 41.8514 	 124.635
| 24> C 	 -104.05 	 41.1835 	 123.123
| 25> C 	 -104.555 	 39.9671 	 123.31
| 26> C 	 -104.496 	 39.4711 	 124.679
| 27> C 	 -103.88 	 40.4149 	 125.583
| 28> H 	 -104.997 	 39.4886 	 122.44
| 29> C 	 -105.089 	 38.1384 	 125.003
| 30> H 	 -104.409 	 37.4733 	 125.503
| 31> H 	 -105.068 	 37.6331 	 123.975
| 32> C 	 -106.382 	 38.2462 	 125.819
| 33> H 	 -107.194 	 38.8803 	 125.4
| 34> H 	 -106.158 	 38.8213 	 126.77
| 35> C 	 -106.975 	 36.8232 	 126.09
| 36> H 	 -106.918 	 36.2399 	 125.138
| 37> H 	 -108.042 	 36.8619 	 126.438
| 38> H 	 -106.395 	 36.456 	 126.916
| 39> H 	 -103.709 	 41.0501 	 130.43
| 40> H 	 -104.155 	 41.6533 	 122.108
| 41> *
| 42>
| 43>                          ****END OF INPUT****

CARTESIAN COORDINATES (ANGSTROEM)
---------------------------------
  S    -103.879000   41.680400  127.984000
  C    -103.560000   40.709800  129.405000
  C    -103.132000   39.431000  129.137000
  C    -103.319000   39.148400  127.735000
  C    -103.538000   40.326300  126.992000
  H    -103.043000   38.240400  127.206000
  C    -102.852000   38.423200  130.227000
  H    -103.416000   37.575900  129.970000
  H    -103.248000   38.842600  131.148000
  C    -101.348000   38.143300  130.489000
  H    -101.294000   37.220300  131.078000
  H    -100.662000   38.187400  129.631000
  C    -100.794000   39.267200  131.399000
  H    -100.898000   40.214000  130.954000
  H    -101.309000   39.309900  132.307000
  H    -99.744400   38.895100  131.512000
  S    -103.398000   41.851400  124.635000
  C    -104.050000   41.183500  123.123000
  C    -104.555000   39.967100  123.310000
  C    -104.496000   39.471100  124.679000
  C    -103.880000   40.414900  125.583000
  H    -104.997000   39.488600  122.440000
  C    -105.089000   38.138400  125.003000
  H    -104.409000   37.473300  125.503000
  H    -105.068000   37.633100  123.975000
  C    -106.382000   38.246200  125.819000
  H    -107.194000   38.880300  125.400000
  H    -106.158000   38.821300  126.770000
  C    -106.975000   36.823200  126.090000
  H    -106.918000   36.239900  125.138000
  H    -108.042000   36.861900  126.438000
  H    -106.395000   36.456000  126.916000
  H    -103.709000   41.050100  130.430000
  H    -104.155000   41.653300  122.108000

 Total Charge           Charge          ....    0
 Multiplicity           Mult            ....    1
 Number of Electrons    NEL             ....  134
 Basis Dimension        Dim             ....  322

ORBITAL ENERGIES
----------------

  NO   OCC          E(Eh)            E(eV)
   0   2.0000     -88.970481     -2421.0099
   1   2.0000     -88.963752     -2420.8268
   2   2.0000     -10.334530      -281.2168
   3   2.0000     -10.331691      -281.1396
   4   2.0000     -10.316281      -280.7203
   5   2.0000     -10.313922      -280.6561
   6   2.0000     -10.308440      -280.5069
   7   2.0000     -10.303582      -280.3747
   8   2.0000     -10.300492      -280.2906
   9   2.0000     -10.294425      -280.1255
  10   2.0000     -10.291156      -280.0366
  11   2.0000     -10.290496      -280.0186
  12   2.0000     -10.290286      -280.0129
  13   2.0000     -10.289436      -279.9898
  14   2.0000     -10.282291      -279.7954
  15   2.0000     -10.270414      -279.4722
  16   2.0000      -8.085873      -220.0278
  17   2.0000      -8.077474      -219.7992
  18   2.0000      -6.044263      -164.4728
  19   2.0000      -6.040365      -164.3667
  20   2.0000      -6.036624      -164.2649
  21   2.0000      -6.036283      -164.2556
  22   2.0000      -6.032083      -164.1413
  23   2.0000      -6.028021      -164.0308
  24   2.0000      -1.007057       -27.4034
  25   2.0000      -0.979474       -26.6529
  26   2.0000      -0.917291       -24.9608
  27   2.0000      -0.904424       -24.6106
  28   2.0000      -0.872302       -23.7366
  29   2.0000      -0.850944       -23.1554
  30   2.0000      -0.841226       -22.8909
  31   2.0000      -0.816031       -22.2053
  32   2.0000      -0.785186       -21.3660
  33   2.0000      -0.763775       -20.7834
  34   2.0000      -0.710462       -19.3327
  35   2.0000      -0.696829       -18.9617
  36   2.0000      -0.687681       -18.7127
  37   2.0000      -0.656188       -17.8558
  38   2.0000      -0.636042       -17.3076
  39   2.0000      -0.621759       -16.9189
  40   2.0000      -0.592824       -16.1316
  41   2.0000      -0.575509       -15.6604
  42   2.0000      -0.557283       -15.1644
  43   2.0000      -0.551901       -15.0180
  44   2.0000      -0.545620       -14.8471
  45   2.0000      -0.524718       -14.2783
  46   2.0000      -0.520927       -14.1752
  47   2.0000      -0.506742       -13.7891
  48   2.0000      -0.500934       -13.6311
  49   2.0000      -0.496501       -13.5105
  50   2.0000      -0.491922       -13.3859
  51   2.0000      -0.485057       -13.1991
  52   2.0000      -0.469680       -12.7806
  53   2.0000      -0.460394       -12.5279
  54   2.0000      -0.456404       -12.4194
  55   2.0000      -0.447656       -12.1813
  56   2.0000      -0.442199       -12.0329
  57   2.0000      -0.439797       -11.9675
  58   2.0000      -0.438059       -11.9202
  59   2.0000      -0.423800       -11.5322
  60   2.0000      -0.418806       -11.3963
  61   2.0000      -0.412545       -11.2259
  62   2.0000      -0.404128       -10.9969
  63   2.0000      -0.355215        -9.6659
  64   2.0000      -0.335315        -9.1244
  65   2.0000      -0.327182        -8.9031
  66   2.0000      -0.283970        -7.7272
  67   0.0000       0.021150         0.5755
  68   0.0000       0.076218         2.0740
  69   0.0000       0.106634         2.9016
  70   0.0000       0.111701         3.0396
  71   0.0000       0.135611         3.6902

MULLIKEN ATOMIC CHARGES
-----------------------
   0 S :    0.122351
   1 C :   -0.126674
   2 C :   -0.094336
   3 C :   -0.010313
   4 C :   -0.127350
   5 H :    0.025263
   6 C :    0.097159
   7 H :    0.018668
   8 H :    0.009112
   9 C :   -0.078035
  10 H :    0.035612
  11 H :    0.045497
  12 C :   -0.049516
  13 H :    0.031113
  14 H :    0.013571
  15 H :    0.043418
  16 S :    0.082311
  17 C :   -0.095284
  18 C :   -0.038649
  19 C :   -0.059108
  20 C :   -0.128328
  21 H :    0.021434
  22 C :    0.053208
  23 H :    0.012245
  24 H :    0.026709
  25 C :   -0.102300
  26 H :    0.034254
  27 H :    0.052180
  28 C :   -0.053615
  29 H :    0.046022
  30 H :    0.041486
  31 H :    0.033881
  32 H :    0.047354
  33 H :    0.070662
Sum of atomic charges:   -0.0000000

LOEWDIN ATOMIC CHARGES
----------------------
   0 S :    0.427808
   1 C :   -0.200493
   2 C :   -0.058844
   3 C :   -0.062870
   4 C :   -0.203842
   5 H :    0.031746
   6 C :   -0.024548
   7 H :    0.023630
   8 H :    0.029468
   9 C :   -0.035283
  10 H :    0.026084
  11 H :    0.028964
  12 C :   -0.057279
  13 H :    0.017537
  14 H :    0.011405
  15 H :    0.035145
  16 S :    0.369230
  17 C :   -0.187567
  18 C :   -0.079916
  19 C :   -0.053955
  20 C :   -0.190722
  21 H :    0.035123
  22 C :   -0.045098
  23 H :    0.023226
  24 H :    0.039526
  25 C :   -0.046086
  26 H :    0.025506
  27 H :    0.034926
  28 C :   -0.070525
  29 H :    0.030802
  30 H :    0.030587
  31 H :    0.022505
  32 H :    0.026306
  33 H :    0.047505

  Mayer bond orders larger than 0.100000
B(  0-S ,  1-C ) :   1.1425 B(  0-S ,  4-C ) :   1.1633 B(  1-C ,  2-C ) :   1.6114
B(  1-C , 32-H ) :   0.9605 B(  2-C ,  3-C ) :   1.2387 B(  2-C ,  6-C ) :   1.0226
B(  3-C ,  4-C ) :   1.5644 B(  3-C ,  5-H ) :   0.9853 B(  4-C , 20-C ) :   1.0593
B(  6-C ,  7-H ) :   0.9404 B(  6-C ,  8-H ) :   0.9436 B(  6-C ,  9-C ) :   1.0517
B(  9-C , 10-H ) :   0.9575 B(  9-C , 11-H ) :   0.9660 B(  9-C , 12-C ) :   1.0654
B( 12-C , 13-H ) :   0.9796 B( 12-C , 14-H ) :   0.9760 B( 12-C , 15-H ) :   0.9767
B( 16-S , 17-C ) :   1.1231 B( 16-S , 20-C ) :   1.1214 B( 17-C , 18-C ) :   1.6728
B( 17-C , 33-H ) :   0.9524 B( 18-C , 19-C ) :   1.2323 B( 18-C , 21-H ) :   0.9814
B( 19-C , 20-C ) :   1.5683 B( 19-C , 22-C ) :   1.0483 B( 22-C , 23-H ) :   0.9321
B( 22-C , 24-H ) :   0.9306 B( 22-C , 25-C ) :   1.0411 B( 25-C , 26-H ) :   0.9601
B( 25-C , 27-H ) :   0.9563 B( 25-C , 28-C ) :   1.0638 B( 28-C , 29-H ) :   0.9754
B( 28-C , 30-H ) :   0.9766 B( 28-C , 31-H ) :   0.9779

Dispersion correction           -0.014432260
FINAL SINGLE POINT ENERGY     -1339.861024265251

DIPOLE MOMENT
-------------
                                X             Y             Z
Electronic contribution:      1.86034      22.20694     -13.27678
Nuclear contribution   :     -2.05040     -22.85646      13.46502
                        -----------------------------------------
Total Dipole Moment    :     -0.19006      -0.64952       0.18824
                        -----------------------------------------
Magnitude (a.u.)       :      0.70245
Magnitude (Debye)      :      1.78548

Rotational constants in cm-1:     0.019319     0.008510     0.006730
Rotational constants in MHz :   579.161265   255.118323   201.767786

                             ****ORCA TERMINATED NORMALLY****
TOTAL RUN TIME: 0 days 0 hours 0 minutes 34 seconds 48 msec
