                         Program Version 4.2.1 -  RELEASE  -
|  1> ! wB97X-D3 SP def2-SVP
|  2> %pal
|  3> nprocs 16
|  4> end
|  5>
|  6> * xyz 0 1
|  7> S 	 46.1106 	 22.0925 	 91.227
|  8> C 	 46.7091 	 21.5989 	 92.8029
|  9> C 	 47.9803 	 21.1212 	 92.6581
| 10> C 	 48.2815 	 20.7801 	 91.2786
| 11> C 	 47.3763 	 21.262 	 90.3332
| 12> H 	 49.2116 	 20.3219 	 90.9303
| 13> C 	 48.892 	 20.7045 	 93.7317
| 14> H 	 48.9891 	 19.6751 	 93.6162
| 15> H 	 48.3246 	 20.9757 	 94.6013
| 16> C 	 50.2791 	 21.4218 	 93.7026
| 17> H 	 50.6512 	 21.1017 	 94.6754
| 18> H 	 50.8282 	 21.1439 	 92.8228
| 19> C 	 50.1991 	 22.9285 	 93.8083
| 20> H 	 49.7631 	 23.4067 	 92.8643
| 21> H 	 49.6594 	 23.3085 	 94.6462
| 22> H 	 51.2821 	 23.244 	 93.86
| 23> S 	 47.3179 	 19.4898 	 88.2784
| 24> C 	 47.1634 	 20.043 	 86.6213
| 25> C 	 46.9695 	 21.4137 	 86.5494
| 26> C 	 47.2203 	 22.0195 	 87.8096
| 27> C 	 47.3447 	 21.1006 	 88.9021
| 28> H 	 46.754 	 21.9699 	 85.627
| 29> C 	 47.0398 	 23.5072 	 87.9233
| 30> H 	 47.3863 	 23.6024 	 88.9687
| 31> H 	 46.0273 	 23.8277 	 87.8186
| 32> C 	 47.8818 	 24.3528 	 86.9788
| 33> H 	 47.5643 	 24.1921 	 86.001
| 34> H 	 48.9558 	 24.1297 	 87.0121
| 35> C 	 47.7266 	 25.8542 	 87.1203
| 36> H 	 46.6915 	 26.0334 	 87.1396
| 37> H 	 48.1463 	 26.4963 	 86.3146
| 38> H 	 48.2346 	 26.1814 	 88.0124
| 39> H 	 46.1237 	 21.5591 	 93.6974
| 40> H 	 46.7873 	 19.3274 	 85.8746
| 41> *
| 42>
| 43>                          ****END OF INPUT****

CARTESIAN COORDINATES (ANGSTROEM)
---------------------------------
  S     46.110600   22.092500   91.227000
  C     46.709100   21.598900   92.802900
  C     47.980300   21.121200   92.658100
  C     48.281500   20.780100   91.278600
  C     47.376300   21.262000   90.333200
  H     49.211600   20.321900   90.930300
  C     48.892000   20.704500   93.731700
  H     48.989100   19.675100   93.616200
  H     48.324600   20.975700   94.601300
  C     50.279100   21.421800   93.702600
  H     50.651200   21.101700   94.675400
  H     50.828200   21.143900   92.822800
  C     50.199100   22.928500   93.808300
  H     49.763100   23.406700   92.864300
  H     49.659400   23.308500   94.646200
  H     51.282100   23.244000   93.860000
  S     47.317900   19.489800   88.278400
  C     47.163400   20.043000   86.621300
  C     46.969500   21.413700   86.549400
  C     47.220300   22.019500   87.809600
  C     47.344700   21.100600   88.902100
  H     46.754000   21.969900   85.627000
  C     47.039800   23.507200   87.923300
  H     47.386300   23.602400   88.968700
  H     46.027300   23.827700   87.818600
  C     47.881800   24.352800   86.978800
  H     47.564300   24.192100   86.001000
  H     48.955800   24.129700   87.012100
  C     47.726600   25.854200   87.120300
  H     46.691500   26.033400   87.139600
  H     48.146300   26.496300   86.314600
  H     48.234600   26.181400   88.012400
  H     46.123700   21.559100   93.697400
  H     46.787300   19.327400   85.874600

 Total Charge           Charge          ....    0
 Multiplicity           Mult            ....    1
 Number of Electrons    NEL             ....  134
 Basis Dimension        Dim             ....  322

ORBITAL ENERGIES
----------------

  NO   OCC          E(Eh)            E(eV)
   0   2.0000     -88.967800     -2420.9369
   1   2.0000     -88.961105     -2420.7547
   2   2.0000     -10.333443      -281.1873
   3   2.0000     -10.331096      -281.1234
   4   2.0000     -10.317924      -280.7650
   5   2.0000     -10.313099      -280.6337
   6   2.0000     -10.303508      -280.3727
   7   2.0000     -10.297648      -280.2132
   8   2.0000     -10.297162      -280.2000
   9   2.0000     -10.296491      -280.1818
  10   2.0000     -10.288477      -279.9637
  11   2.0000     -10.284888      -279.8660
  12   2.0000     -10.281232      -279.7666
  13   2.0000     -10.281076      -279.7623
  14   2.0000     -10.275694      -279.6158
  15   2.0000     -10.269867      -279.4573
  16   2.0000      -8.082717      -219.9419
  17   2.0000      -8.075691      -219.7507
  18   2.0000      -6.041159      -164.3883
  19   2.0000      -6.037106      -164.2780
  20   2.0000      -6.034374      -164.2037
  21   2.0000      -6.033618      -164.1831
  22   2.0000      -6.030129      -164.0881
  23   2.0000      -6.026338      -163.9850
  24   2.0000      -1.006949       -27.4005
  25   2.0000      -0.985556       -26.8183
  26   2.0000      -0.918413       -24.9913
  27   2.0000      -0.913353       -24.8536
  28   2.0000      -0.873937       -23.7810
  29   2.0000      -0.854307       -23.2469
  30   2.0000      -0.843768       -22.9601
  31   2.0000      -0.816055       -22.2060
  32   2.0000      -0.783090       -21.3090
  33   2.0000      -0.768838       -20.9212
  34   2.0000      -0.709345       -19.3023
  35   2.0000      -0.700362       -19.0578
  36   2.0000      -0.690873       -18.7996
  37   2.0000      -0.660985       -17.9863
  38   2.0000      -0.637161       -17.3380
  39   2.0000      -0.619857       -16.8672
  40   2.0000      -0.597073       -16.2472
  41   2.0000      -0.577317       -15.7096
  42   2.0000      -0.569637       -15.5006
  43   2.0000      -0.561845       -15.2886
  44   2.0000      -0.542181       -14.7535
  45   2.0000      -0.526238       -14.3197
  46   2.0000      -0.522502       -14.2180
  47   2.0000      -0.517854       -14.0915
  48   2.0000      -0.514957       -14.0127
  49   2.0000      -0.503918       -13.7123
  50   2.0000      -0.487139       -13.2557
  51   2.0000      -0.477476       -12.9928
  52   2.0000      -0.469730       -12.7820
  53   2.0000      -0.463241       -12.6054
  54   2.0000      -0.454393       -12.3647
  55   2.0000      -0.447381       -12.1739
  56   2.0000      -0.442372       -12.0375
  57   2.0000      -0.434331       -11.8188
  58   2.0000      -0.429995       -11.7008
  59   2.0000      -0.429074       -11.6757
  60   2.0000      -0.424293       -11.5456
  61   2.0000      -0.405644       -11.0381
  62   2.0000      -0.403379       -10.9765
  63   2.0000      -0.348397        -9.4804
  64   2.0000      -0.331602        -9.0234
  65   2.0000      -0.322591        -8.7781
  66   2.0000      -0.290787        -7.9127
  67   0.0000       0.029755         0.8097
  68   0.0000       0.055800         1.5184
  69   0.0000       0.104734         2.8500
  70   0.0000       0.114627         3.1192
  71   0.0000       0.133427         3.6307

MULLIKEN ATOMIC CHARGES
-----------------------
   0 S :    0.101049
   1 C :   -0.129320
   2 C :   -0.108308
   3 C :    0.005184
   4 C :   -0.154356
   5 H :    0.019348
   6 C :    0.113184
   7 H :    0.026857
   8 H :   -0.000974
   9 C :   -0.061388
  10 H :    0.033207
  11 H :    0.039380
  12 C :   -0.082896
  13 H :    0.051749
  14 H :    0.030812
  15 H :    0.041373
  16 S :    0.115702
  17 C :   -0.101603
  18 C :   -0.039618
  19 C :   -0.054217
  20 C :   -0.142153
  21 H :    0.040283
  22 C :    0.074181
  23 H :    0.022098
  24 H :    0.032150
  25 C :   -0.074597
  26 H :    0.004059
  27 H :    0.029292
  28 C :   -0.030362
  29 H :    0.012069
  30 H :    0.035310
  31 H :    0.027108
  32 H :    0.051647
  33 H :    0.073751
Sum of atomic charges:    0.0000000

LOEWDIN ATOMIC CHARGES
----------------------
   0 S :    0.394997
   1 C :   -0.193045
   2 C :   -0.063223
   3 C :   -0.067137
   4 C :   -0.195338
   5 H :    0.030417
   6 C :   -0.028650
   7 H :    0.026927
   8 H :    0.025792
   9 C :   -0.032830
  10 H :    0.030028
  11 H :    0.024212
  12 C :   -0.069763
  13 H :    0.033587
  14 H :    0.019100
  15 H :    0.034121
  16 S :    0.430848
  17 C :   -0.196389
  18 C :   -0.064610
  19 C :   -0.059159
  20 C :   -0.212852
  21 H :    0.038336
  22 C :   -0.034108
  23 H :    0.030103
  24 H :    0.029206
  25 C :   -0.039131
  26 H :    0.010903
  27 H :    0.026520
  28 C :   -0.059145
  29 H :    0.015652
  30 H :    0.030979
  31 H :    0.021834
  32 H :    0.029324
  33 H :    0.032493

  Mayer bond orders larger than 0.100000
B(  0-S ,  1-C ) :   1.1328 B(  0-S ,  4-C ) :   1.1322 B(  1-C ,  2-C ) :   1.6075
B(  1-C , 32-H ) :   0.9711 B(  2-C ,  3-C ) :   1.2060 B(  2-C ,  6-C ) :   1.0303
B(  3-C ,  4-C ) :   1.5851 B(  3-C ,  5-H ) :   0.9920 B(  4-C , 20-C ) :   1.0466
B(  6-C ,  7-H ) :   0.9359 B(  6-C ,  8-H ) :   0.9341 B(  6-C ,  9-C ) :   1.0682
B(  9-C , 10-H ) :   0.9563 B(  9-C , 11-H ) :   0.9572 B(  9-C , 12-C ) :   1.0846
B( 12-C , 13-H ) :   0.9697 B( 12-C , 14-H ) :   0.9763 B( 12-C , 15-H ) :   0.9730
B( 16-S , 17-C ) :   1.1682 B( 16-S , 20-C ) :   1.1687 B( 17-C , 18-C ) :   1.5789
B( 17-C , 20-C ) :   0.1064 B( 17-C , 33-H ) :   0.9584 B( 18-C , 19-C ) :   1.2748
B( 18-C , 21-H ) :   0.9828 B( 19-C , 20-C ) :   1.5304 B( 19-C , 22-C ) :   1.0488
B( 22-C , 23-H ) :   0.9289 B( 22-C , 24-H ) :   0.9360 B( 22-C , 25-C ) :   1.0674
B( 25-C , 26-H ) :   0.9514 B( 25-C , 27-H ) :   0.9571 B( 25-C , 28-C ) :   1.0897
B( 28-C , 29-H ) :   0.9708 B( 28-C , 30-H ) :   0.9744 B( 28-C , 31-H ) :   0.9770

Dispersion correction           -0.013970931
FINAL SINGLE POINT ENERGY     -1339.856672909294

DIPOLE MOMENT
-------------
                                X             Y             Z
Electronic contribution:    -12.64458     -17.72659      -4.66649
Nuclear contribution   :     12.79505      17.81055       4.80395
                        -----------------------------------------
Total Dipole Moment    :      0.15047       0.08395       0.13747
                        -----------------------------------------
Magnitude (a.u.)       :      0.22042
Magnitude (Debye)      :      0.56027

Rotational constants in cm-1:     0.018360     0.008267     0.006832
Rotational constants in MHz :   550.425346   247.851481   204.828481

                             ****ORCA TERMINATED NORMALLY****
TOTAL RUN TIME: 0 days 0 hours 0 minutes 29 seconds 568 msec
