                         Program Version 4.2.1 -  RELEASE  -
|  1> ! wB97X-D3 SP def2-SVP
|  2> %pal
|  3> nprocs 16
|  4> end
|  5>
|  6> * xyz 0 1
|  7> S 	 5.52795 	 9.01824 	 83.0998
|  8> C 	 6.68009 	 7.88958 	 82.4697
|  9> C 	 7.11275 	 6.97936 	 83.4778
| 10> C 	 6.51236 	 7.31861 	 84.7647
| 11> C 	 5.76988 	 8.46646 	 84.7477
| 12> H 	 6.68919 	 6.71512 	 85.6215
| 13> C 	 7.97924 	 5.75694 	 83.2431
| 14> H 	 7.40886 	 5.0237 	 82.5915
| 15> H 	 8.04285 	 5.17666 	 84.2238
| 16> C 	 9.31954 	 6.04268 	 82.6303
| 17> H 	 9.18621 	 6.57461 	 81.6971
| 18> H 	 9.89865 	 6.69156 	 83.275
| 19> C 	 10.1577 	 4.78944 	 82.3225
| 20> H 	 11.0683 	 5.0393 	 81.7867
| 21> H 	 10.2812 	 4.27345 	 83.2628
| 22> H 	 9.62766 	 4.03595 	 81.6957
| 23> S 	 5.93099 	 10.9513 	 85.9818
| 24> C 	 4.92587 	 11.1775 	 87.4051
| 25> C 	 4.43118 	 9.99571 	 87.9995
| 26> C 	 4.74731 	 8.83179 	 87.2036
| 27> C 	 5.40218 	 9.21477 	 85.9716
| 28> H 	 3.87441 	 10.0768 	 88.9438
| 29> C 	 4.12955 	 7.47617 	 87.4639
| 30> H 	 4.61982 	 6.77304 	 86.7907
| 31> H 	 3.16929 	 7.50454 	 87.0402
| 32> C 	 4.11641 	 7.14233 	 89.0151
| 33> H 	 3.58845 	 6.18206 	 89.2182
| 34> H 	 3.61653 	 7.93848 	 89.5967
| 35> C 	 5.5526 	 6.95117 	 89.6505
| 36> H 	 6.11424 	 6.30761 	 89.0296
| 37> H 	 5.57304 	 6.57588 	 90.6793
| 38> H 	 6.06912 	 7.87665 	 89.6
| 39> H 	 7.1188 	 7.7704 	 81.4721
| 40> H 	 4.98814 	 12.1373 	 87.9651
| 41> *
| 42>
| 43>                          ****END OF INPUT****

CARTESIAN COORDINATES (ANGSTROEM)
---------------------------------
  S      5.527950    9.018240   83.099800
  C      6.680090    7.889580   82.469700
  C      7.112750    6.979360   83.477800
  C      6.512360    7.318610   84.764700
  C      5.769880    8.466460   84.747700
  H      6.689190    6.715120   85.621500
  C      7.979240    5.756940   83.243100
  H      7.408860    5.023700   82.591500
  H      8.042850    5.176660   84.223800
  C      9.319540    6.042680   82.630300
  H      9.186210    6.574610   81.697100
  H      9.898650    6.691560   83.275000
  C     10.157700    4.789440   82.322500
  H     11.068300    5.039300   81.786700
  H     10.281200    4.273450   83.262800
  H      9.627660    4.035950   81.695700
  S      5.930990   10.951300   85.981800
  C      4.925870   11.177500   87.405100
  C      4.431180    9.995710   87.999500
  C      4.747310    8.831790   87.203600
  C      5.402180    9.214770   85.971600
  H      3.874410   10.076800   88.943800
  C      4.129550    7.476170   87.463900
  H      4.619820    6.773040   86.790700
  H      3.169290    7.504540   87.040200
  C      4.116410    7.142330   89.015100
  H      3.588450    6.182060   89.218200
  H      3.616530    7.938480   89.596700
  C      5.552600    6.951170   89.650500
  H      6.114240    6.307610   89.029600
  H      5.573040    6.575880   90.679300
  H      6.069120    7.876650   89.600000
  H      7.118800    7.770400   81.472100
  H      4.988140   12.137300   87.965100

 Total Charge           Charge          ....    0
 Multiplicity           Mult            ....    1
 Number of Electrons    NEL             ....  134
 Basis Dimension        Dim             ....  322

ORBITAL ENERGIES
----------------

  NO   OCC          E(Eh)            E(eV)
   0   2.0000     -88.971826     -2421.0465
   1   2.0000     -88.968533     -2420.9569
   2   2.0000     -10.337817      -281.3063
   3   2.0000     -10.329994      -281.0934
   4   2.0000     -10.321778      -280.8699
   5   2.0000     -10.317419      -280.7512
   6   2.0000     -10.314654      -280.6760
   7   2.0000     -10.304996      -280.4132
   8   2.0000     -10.302455      -280.3440
   9   2.0000     -10.301422      -280.3159
  10   2.0000     -10.300420      -280.2887
  11   2.0000     -10.294405      -280.1250
  12   2.0000     -10.292965      -280.0858
  13   2.0000     -10.285496      -279.8826
  14   2.0000     -10.280324      -279.7418
  15   2.0000     -10.272758      -279.5359
  16   2.0000      -8.086112      -220.0343
  17   2.0000      -8.082058      -219.9240
  18   2.0000      -6.044783      -164.4869
  19   2.0000      -6.040611      -164.3734
  20   2.0000      -6.040420      -164.3682
  21   2.0000      -6.036917      -164.2729
  22   2.0000      -6.036789      -164.2694
  23   2.0000      -6.032862      -164.1625
  24   2.0000      -0.998796       -27.1786
  25   2.0000      -0.973177       -26.4815
  26   2.0000      -0.913866       -24.8676
  27   2.0000      -0.902273       -24.5521
  28   2.0000      -0.862034       -23.4571
  29   2.0000      -0.850221       -23.1357
  30   2.0000      -0.842712       -22.9314
  31   2.0000      -0.810413       -22.0525
  32   2.0000      -0.782694       -21.2982
  33   2.0000      -0.766072       -20.8459
  34   2.0000      -0.707484       -19.2516
  35   2.0000      -0.704431       -19.1685
  36   2.0000      -0.689203       -18.7542
  37   2.0000      -0.651728       -17.7344
  38   2.0000      -0.635255       -17.2862
  39   2.0000      -0.618625       -16.8336
  40   2.0000      -0.593272       -16.1437
  41   2.0000      -0.572551       -15.5799
  42   2.0000      -0.558329       -15.1929
  43   2.0000      -0.549366       -14.9490
  44   2.0000      -0.535767       -14.5790
  45   2.0000      -0.528185       -14.3726
  46   2.0000      -0.519740       -14.1428
  47   2.0000      -0.513084       -13.9617
  48   2.0000      -0.499290       -13.5864
  49   2.0000      -0.493029       -13.4160
  50   2.0000      -0.485470       -13.2103
  51   2.0000      -0.472175       -12.8485
  52   2.0000      -0.469341       -12.7714
  53   2.0000      -0.460308       -12.5256
  54   2.0000      -0.456202       -12.4139
  55   2.0000      -0.453088       -12.3291
  56   2.0000      -0.445624       -12.1261
  57   2.0000      -0.438479       -11.9316
  58   2.0000      -0.434934       -11.8352
  59   2.0000      -0.427168       -11.6238
  60   2.0000      -0.425558       -11.5800
  61   2.0000      -0.420238       -11.4352
  62   2.0000      -0.414838       -11.2883
  63   2.0000      -0.346512        -9.4291
  64   2.0000      -0.332434        -9.0460
  65   2.0000      -0.322517        -8.7761
  66   2.0000      -0.284455        -7.7404
  67   0.0000       0.021613         0.5881
  68   0.0000       0.063027         1.7150
  69   0.0000       0.100244         2.7278
  70   0.0000       0.109202         2.9715
  71   0.0000       0.129364         3.5202

MULLIKEN ATOMIC CHARGES
-----------------------
   0 S :    0.136574
   1 C :   -0.120903
   2 C :   -0.111982
   3 C :    0.053630
   4 C :   -0.155120
   5 H :    0.003738
   6 C :    0.017277
   7 H :    0.045028
   8 H :    0.025344
   9 C :   -0.069600
  10 H :    0.021899
  11 H :    0.033510
  12 C :   -0.040288
  13 H :    0.043303
  14 H :    0.024937
  15 H :    0.024236
  16 S :    0.107820
  17 C :   -0.110205
  18 C :   -0.059884
  19 C :   -0.044066
  20 C :   -0.166504
  21 H :    0.039678
  22 C :    0.109188
  23 H :    0.009660
  24 H :    0.037667
  25 C :   -0.111762
  26 H :    0.040899
  27 H :    0.039694
  28 C :   -0.036727
  29 H :    0.015356
  30 H :    0.043088
  31 H :    0.028976
  32 H :    0.055203
  33 H :    0.070338
Sum of atomic charges:   -0.0000000

LOEWDIN ATOMIC CHARGES
----------------------
   0 S :    0.421020
   1 C :   -0.214618
   2 C :   -0.061350
   3 C :   -0.057426
   4 C :   -0.207272
   5 H :    0.023831
   6 C :   -0.044283
   7 H :    0.038201
   8 H :    0.033135
   9 C :   -0.041476
  10 H :    0.020452
  11 H :    0.026523
  12 C :   -0.064545
  13 H :    0.028138
  14 H :    0.022971
  15 H :    0.025685
  16 S :    0.384084
  17 C :   -0.190528
  18 C :   -0.076568
  19 C :   -0.048793
  20 C :   -0.176636
  21 H :    0.037736
  22 C :   -0.028617
  23 H :    0.030339
  24 H :    0.034055
  25 C :   -0.036649
  26 H :    0.027847
  27 H :    0.023833
  28 C :   -0.062502
  29 H :    0.017315
  30 H :    0.029552
  31 H :    0.020970
  32 H :    0.034020
  33 H :    0.031555

  Mayer bond orders larger than 0.100000
B(  0-S ,  1-C ) :   1.1413 B(  0-S ,  4-C ) :   1.1508 B(  1-C ,  2-C ) :   1.5908
B(  1-C , 32-H ) :   0.9642 B(  2-C ,  3-C ) :   1.2714 B(  2-C ,  6-C ) :   1.0199
B(  3-C ,  4-C ) :   1.5457 B(  3-C ,  5-H ) :   0.9914 B(  4-C , 20-C ) :   1.0491
B(  6-C ,  7-H ) :   0.9375 B(  6-C ,  8-H ) :   0.9425 B(  6-C ,  9-C ) :   1.0641
B(  9-C , 10-H ) :   0.9534 B(  9-C , 11-H ) :   0.9548 B(  9-C , 12-C ) :   1.0845
B( 12-C , 13-H ) :   0.9743 B( 12-C , 14-H ) :   0.9740 B( 12-C , 15-H ) :   0.9739
B( 16-S , 17-C ) :   1.1567 B( 16-S , 20-C ) :   1.1440 B( 17-C , 18-C ) :   1.6173
B( 17-C , 20-C ) :   0.1045 B( 17-C , 33-H ) :   0.9572 B( 18-C , 19-C ) :   1.2293
B( 18-C , 21-H ) :   0.9827 B( 19-C , 20-C ) :   1.5636 B( 19-C , 22-C ) :   1.0333
B( 22-C , 23-H ) :   0.9330 B( 22-C , 24-H ) :   0.9344 B( 22-C , 25-C ) :   1.0524
B( 25-C , 26-H ) :   0.9617 B( 25-C , 27-H ) :   0.9585 B( 25-C , 28-C ) :   1.0653
B( 28-C , 29-H ) :   0.9765 B( 28-C , 30-H ) :   0.9770 B( 28-C , 31-H ) :   0.9745

Dispersion correction           -0.013810601
FINAL SINGLE POINT ENERGY     -1339.864389853880

DIPOLE MOMENT
-------------
                                X             Y             Z
Electronic contribution:    -10.00042      23.49299      -7.60602
Nuclear contribution   :     10.15054     -24.02873       7.86550
                        -----------------------------------------
Total Dipole Moment    :      0.15012      -0.53574       0.25948
                        -----------------------------------------
Magnitude (a.u.)       :      0.61391
Magnitude (Debye)      :      1.56042

Rotational constants in cm-1:     0.019636     0.007500     0.006089
Rotational constants in MHz :   588.670377   224.831252   182.545781

                             ****ORCA TERMINATED NORMALLY****
TOTAL RUN TIME: 0 days 0 hours 0 minutes 35 seconds 66 msec
