                         Program Version 4.2.1 -  RELEASE  -
|  1> ! wB97X-D3 SP def2-SVP
|  2> %pal
|  3> nprocs 16
|  4> end
|  5>
|  6> * xyz 0 1
|  7> S 	 39.7173 	 33.1691 	 55.3303
|  8> C 	 39.3288 	 34.682 	 54.5777
|  9> C 	 37.9519 	 34.9552 	 54.71
| 10> C 	 37.2441 	 33.8589 	 55.319
| 11> C 	 38.0426 	 32.8199 	 55.7383
| 12> H 	 36.1923 	 33.7665 	 55.4883
| 13> C 	 37.1896 	 36.0006 	 54.1145
| 14> H 	 37.9018 	 36.4414 	 53.4258
| 15> H 	 36.9076 	 36.7024 	 54.9654
| 16> C 	 36.0029 	 35.5931 	 53.2427
| 17> H 	 35.2322 	 35.0568 	 53.744
| 18> H 	 35.5281 	 36.6173 	 53.1168
| 19> C 	 36.329 	 34.8621 	 51.9052
| 20> H 	 36.9701 	 35.4405 	 51.2306
| 21> H 	 36.7104 	 33.8795 	 52.1267
| 22> H 	 35.4659 	 34.7285 	 51.2788
| 23> S 	 38.5503 	 31.0887 	 57.7571
| 24> C 	 37.4246 	 29.8723 	 58.328
| 25> C 	 36.2635 	 29.9796 	 57.6483
| 26> C 	 36.4039 	 30.9111 	 56.5431
| 27> C 	 37.5679 	 31.6488 	 56.4844
| 28> H 	 35.4528 	 29.37 	 57.8055
| 29> C 	 35.2258 	 31.0283 	 55.5809
| 30> H 	 35.1921 	 30.0083 	 55.2354
| 31> H 	 35.3922 	 31.6143 	 54.6709
| 32> C 	 33.8829 	 31.3936 	 56.2647
| 33> H 	 33.8426 	 32.4264 	 56.5355
| 34> H 	 33.8205 	 30.7736 	 57.1776
| 35> C 	 32.7036 	 31.1324 	 55.277
| 36> H 	 32.5922 	 30.0944 	 55.0108
| 37> H 	 32.7327 	 31.7143 	 54.3271
| 38> H 	 31.7028 	 31.4737 	 55.5159
| 39> H 	 40.1486 	 35.2819 	 54.1252
| 40> H 	 37.4763 	 29.3071 	 59.3093
| 41> *
| 42>
| 43>                          ****END OF INPUT****

CARTESIAN COORDINATES (ANGSTROEM)
---------------------------------
  S     39.717300   33.169100   55.330300
  C     39.328800   34.682000   54.577700
  C     37.951900   34.955200   54.710000
  C     37.244100   33.858900   55.319000
  C     38.042600   32.819900   55.738300
  H     36.192300   33.766500   55.488300
  C     37.189600   36.000600   54.114500
  H     37.901800   36.441400   53.425800
  H     36.907600   36.702400   54.965400
  C     36.002900   35.593100   53.242700
  H     35.232200   35.056800   53.744000
  H     35.528100   36.617300   53.116800
  C     36.329000   34.862100   51.905200
  H     36.970100   35.440500   51.230600
  H     36.710400   33.879500   52.126700
  H     35.465900   34.728500   51.278800
  S     38.550300   31.088700   57.757100
  C     37.424600   29.872300   58.328000
  C     36.263500   29.979600   57.648300
  C     36.403900   30.911100   56.543100
  C     37.567900   31.648800   56.484400
  H     35.452800   29.370000   57.805500
  C     35.225800   31.028300   55.580900
  H     35.192100   30.008300   55.235400
  H     35.392200   31.614300   54.670900
  C     33.882900   31.393600   56.264700
  H     33.842600   32.426400   56.535500
  H     33.820500   30.773600   57.177600
  C     32.703600   31.132400   55.277000
  H     32.592200   30.094400   55.010800
  H     32.732700   31.714300   54.327100
  H     31.702800   31.473700   55.515900
  H     40.148600   35.281900   54.125200
  H     37.476300   29.307100   59.309300

 Total Charge           Charge          ....    0
 Multiplicity           Mult            ....    1
 Number of Electrons    NEL             ....  134
 Basis Dimension        Dim             ....  322

ORBITAL ENERGIES
----------------

  NO   OCC          E(Eh)            E(eV)
   0   2.0000     -88.965762     -2420.8815
   1   2.0000     -88.958848     -2420.6933
   2   2.0000     -10.332207      -281.1536
   3   2.0000     -10.325417      -280.9689
   4   2.0000     -10.320609      -280.8381
   5   2.0000     -10.319820      -280.8166
   6   2.0000     -10.302744      -280.3519
   7   2.0000     -10.299098      -280.2527
   8   2.0000     -10.294001      -280.1140
   9   2.0000     -10.292651      -280.0773
  10   2.0000     -10.289825      -280.0004
  11   2.0000     -10.289571      -279.9935
  12   2.0000     -10.289354      -279.9876
  13   2.0000     -10.289247      -279.9846
  14   2.0000     -10.280691      -279.7518
  15   2.0000     -10.279850      -279.7289
  16   2.0000      -8.080592      -219.8841
  17   2.0000      -8.074888      -219.7289
  18   2.0000      -6.039162      -164.3339
  19   2.0000      -6.034955      -164.2195
  20   2.0000      -6.033494      -164.1797
  21   2.0000      -6.031416      -164.1232
  22   2.0000      -6.029088      -164.0598
  23   2.0000      -6.025540      -163.9633
  24   2.0000      -1.011885       -27.5348
  25   2.0000      -0.989326       -26.9209
  26   2.0000      -0.920114       -25.0376
  27   2.0000      -0.906614       -24.6702
  28   2.0000      -0.875168       -23.8145
  29   2.0000      -0.849106       -23.1054
  30   2.0000      -0.843253       -22.9461
  31   2.0000      -0.822587       -22.3837
  32   2.0000      -0.781093       -21.2546
  33   2.0000      -0.770372       -20.9629
  34   2.0000      -0.716983       -19.5101
  35   2.0000      -0.706107       -19.2142
  36   2.0000      -0.693624       -18.8745
  37   2.0000      -0.666768       -18.1437
  38   2.0000      -0.639994       -17.4151
  39   2.0000      -0.627565       -17.0769
  40   2.0000      -0.594775       -16.1847
  41   2.0000      -0.572468       -15.5776
  42   2.0000      -0.564743       -15.3674
  43   2.0000      -0.560948       -15.2642
  44   2.0000      -0.534891       -14.5551
  45   2.0000      -0.526766       -14.3340
  46   2.0000      -0.520965       -14.1762
  47   2.0000      -0.509868       -13.8742
  48   2.0000      -0.506018       -13.7694
  49   2.0000      -0.499233       -13.5848
  50   2.0000      -0.491378       -13.3711
  51   2.0000      -0.482549       -13.1308
  52   2.0000      -0.471336       -12.8257
  53   2.0000      -0.466829       -12.7031
  54   2.0000      -0.458951       -12.4887
  55   2.0000      -0.454139       -12.3578
  56   2.0000      -0.446241       -12.1428
  57   2.0000      -0.439372       -11.9559
  58   2.0000      -0.434911       -11.8345
  59   2.0000      -0.425329       -11.5738
  60   2.0000      -0.422858       -11.5066
  61   2.0000      -0.411616       -11.2006
  62   2.0000      -0.402555       -10.9541
  63   2.0000      -0.361494        -9.8368
  64   2.0000      -0.329036        -8.9535
  65   2.0000      -0.321479        -8.7479
  66   2.0000      -0.290052        -7.8927
  67   0.0000       0.030705         0.8355
  68   0.0000       0.078918         2.1475
  69   0.0000       0.112477         3.0607
  70   0.0000       0.118229         3.2172
  71   0.0000       0.122970         3.3462

MULLIKEN ATOMIC CHARGES
-----------------------
   0 S :    0.111580
   1 C :   -0.144028
   2 C :   -0.077882
   3 C :    0.002410
   4 C :   -0.119133
   5 H :    0.002200
   6 C :    0.066521
   7 H :    0.010320
   8 H :    0.057781
   9 C :   -0.091879
  10 H :    0.020423
  11 H :    0.031070
  12 C :   -0.031110
  13 H :    0.029278
  14 H :    0.046394
  15 H :    0.027289
  16 S :    0.080423
  17 C :   -0.089904
  18 C :   -0.010346
  19 C :   -0.086416
  20 C :   -0.098659
  21 H :   -0.002065
  22 C :    0.028999
  23 H :    0.027142
  24 H :    0.022763
  25 C :   -0.043072
  26 H :    0.030000
  27 H :    0.033403
  28 C :   -0.060828
  29 H :    0.029557
  30 H :    0.023111
  31 H :    0.020348
  32 H :    0.071550
  33 H :    0.082759
Sum of atomic charges:    0.0000000

LOEWDIN ATOMIC CHARGES
----------------------
   0 S :    0.407502
   1 C :   -0.210198
   2 C :   -0.070224
   3 C :   -0.058888
   4 C :   -0.188557
   5 H :    0.027363
   6 C :   -0.045023
   7 H :    0.032171
   8 H :    0.048060
   9 C :   -0.040313
  10 H :    0.014759
  11 H :    0.033107
  12 C :   -0.061678
  13 H :    0.026801
  14 H :    0.028244
  15 H :    0.026891
  16 S :    0.415833
  17 C :   -0.189113
  18 C :   -0.066505
  19 C :   -0.062925
  20 C :   -0.209443
  21 H :    0.018389
  22 C :   -0.036547
  23 H :    0.032338
  24 H :    0.026394
  25 C :   -0.030850
  26 H :    0.021317
  27 H :    0.026769
  28 C :   -0.078085
  29 H :    0.021996
  30 H :    0.029928
  31 H :    0.023766
  32 H :    0.038061
  33 H :    0.048660

  Mayer bond orders larger than 0.100000
B(  0-S ,  1-C ) :   1.1435 B(  0-S ,  4-C ) :   1.1512 B(  1-C ,  2-C ) :   1.5675
B(  1-C , 32-H ) :   0.9659 B(  2-C ,  3-C ) :   1.2293 B(  2-C ,  6-C ) :   1.0496
B(  3-C ,  4-C ) :   1.5781 B(  3-C ,  5-H ) :   0.9974 B(  4-C , 20-C ) :   1.0339
B(  6-C ,  7-H ) :   0.9376 B(  6-C ,  8-H ) :   0.9180 B(  6-C ,  9-C ) :   1.0787
B(  9-C , 10-H ) :   0.9530 B(  9-C , 11-H ) :   0.9526 B(  9-C , 12-C ) :   1.0695
B( 12-C , 13-H ) :   0.9743 B( 12-C , 14-H ) :   0.9742 B( 12-C , 15-H ) :   0.9732
B( 16-S , 17-C ) :   1.1550 B( 16-S , 20-C ) :   1.1299 B( 17-C , 18-C ) :   1.6162
B( 17-C , 33-H ) :   0.9553 B( 18-C , 19-C ) :   1.2360 B( 18-C , 21-H ) :   0.9994
B( 19-C , 20-C ) :   1.6141 B( 19-C , 22-C ) :   1.0229 B( 22-C , 23-H ) :   0.9362
B( 22-C , 24-H ) :   0.9495 B( 22-C , 25-C ) :   1.0518 B( 25-C , 26-H ) :   0.9579
B( 25-C , 27-H ) :   0.9560 B( 25-C , 28-C ) :   1.0712 B( 28-C , 29-H ) :   0.9790
B( 28-C , 30-H ) :   0.9714 B( 28-C , 31-H ) :   0.9743

Dispersion correction           -0.014471464
FINAL SINGLE POINT ENERGY     -1339.862823302874

DIPOLE MOMENT
-------------
                                X             Y             Z
Electronic contribution:     26.64129      -6.84202      15.38186
Nuclear contribution   :    -27.39535       7.04391     -15.64392
                        -----------------------------------------
Total Dipole Moment    :     -0.75406       0.20189      -0.26206
                        -----------------------------------------
Magnitude (a.u.)       :      0.82344
Magnitude (Debye)      :      2.09301

Rotational constants in cm-1:     0.016290     0.010574     0.006809
Rotational constants in MHz :   488.361404   316.997258   204.117253

                             ****ORCA TERMINATED NORMALLY****
TOTAL RUN TIME: 0 days 0 hours 0 minutes 35 seconds 746 msec
