                         Program Version 4.2.1 -  RELEASE  -
|  1> ! wB97X-D3 SP def2-SVP
|  2> %pal
|  3> nprocs 16
|  4> end
|  5>
|  6> * xyz 0 1
|  7> S 	 -2.19193 	 -22.6074 	 58.7399
|  8> C 	 -1.96139 	 -22.9949 	 57.0609
|  9> C 	 -1.89581 	 -21.7955 	 56.2955
| 10> C 	 -1.91076 	 -20.6166 	 57.1622
| 11> C 	 -1.99763 	 -20.889 	 58.5578
| 12> H 	 -1.87792 	 -19.5865 	 56.809
| 13> C 	 -1.72645 	 -21.6786 	 54.7388
| 14> H 	 -0.711843 	 -21.8439 	 54.345
| 15> H 	 -1.80391 	 -20.6316 	 54.468
| 16> C 	 -2.62627 	 -22.5064 	 53.8905
| 17> H 	 -2.20904 	 -22.6231 	 52.8959
| 18> H 	 -2.69948 	 -23.4913 	 54.3432
| 19> C 	 -4.06405 	 -21.9428 	 53.8779
| 20> H 	 -4.56876 	 -22.5876 	 53.0932
| 21> H 	 -4.48231 	 -22.0986 	 54.8447
| 22> H 	 -4.1405 	 -20.9304 	 53.5543
| 23> S 	 -2.7265 	 -20.4128 	 61.1679
| 24> C 	 -2.12282 	 -19.054 	 62.0766
| 25> C 	 -1.43142 	 -18.2137 	 61.2185
| 26> C 	 -1.39113 	 -18.6674 	 59.8737
| 27> C 	 -1.93277 	 -19.9114 	 59.6542
| 28> H 	 -1.13125 	 -17.2823 	 61.6362
| 29> C 	 -0.688246 	 -17.8893 	 58.7658
| 30> H 	 -1.52571 	 -17.767 	 58.0667
| 31> H 	 0.0765991 	 -18.4021 	 58.2015
| 32> C 	 -0.0849581 	 -16.5335 	 59.0636
| 33> H 	 0.481695 	 -16.2155 	 58.196
| 34> H 	 0.591972 	 -16.6104 	 59.9521
| 35> C 	 -1.07068 	 -15.3919 	 59.1292
| 36> H 	 -0.600085 	 -14.5141 	 59.497
| 37> H 	 -1.82802 	 -15.7055 	 59.8389
| 38> H 	 -1.58808 	 -15.2844 	 58.1929
| 39> H 	 -2.02405 	 -23.9831 	 56.6117
| 40> H 	 -2.36074 	 -18.8331 	 63.1274
| 41> *
| 42>
| 43>                          ****END OF INPUT****

CARTESIAN COORDINATES (ANGSTROEM)
---------------------------------
  S     -2.191930  -22.607400   58.739900
  C     -1.961390  -22.994900   57.060900
  C     -1.895810  -21.795500   56.295500
  C     -1.910760  -20.616600   57.162200
  C     -1.997630  -20.889000   58.557800
  H     -1.877920  -19.586500   56.809000
  C     -1.726450  -21.678600   54.738800
  H     -0.711843  -21.843900   54.345000
  H     -1.803910  -20.631600   54.468000
  C     -2.626270  -22.506400   53.890500
  H     -2.209040  -22.623100   52.895900
  H     -2.699480  -23.491300   54.343200
  C     -4.064050  -21.942800   53.877900
  H     -4.568760  -22.587600   53.093200
  H     -4.482310  -22.098600   54.844700
  H     -4.140500  -20.930400   53.554300
  S     -2.726500  -20.412800   61.167900
  C     -2.122820  -19.054000   62.076600
  C     -1.431420  -18.213700   61.218500
  C     -1.391130  -18.667400   59.873700
  C     -1.932770  -19.911400   59.654200
  H     -1.131250  -17.282300   61.636200
  C     -0.688246  -17.889300   58.765800
  H     -1.525710  -17.767000   58.066700
  H      0.076599  -18.402100   58.201500
  C     -0.084958  -16.533500   59.063600
  H      0.481695  -16.215500   58.196000
  H      0.591972  -16.610400   59.952100
  C     -1.070680  -15.391900   59.129200
  H     -0.600085  -14.514100   59.497000
  H     -1.828020  -15.705500   59.838900
  H     -1.588080  -15.284400   58.192900
  H     -2.024050  -23.983100   56.611700
  H     -2.360740  -18.833100   63.127400

 Total Charge           Charge          ....    0
 Multiplicity           Mult            ....    1
 Number of Electrons    NEL             ....  134
 Basis Dimension        Dim             ....  322

ORBITAL ENERGIES
----------------

  NO   OCC          E(Eh)            E(eV)
   0   2.0000     -88.972212     -2421.0570
   1   2.0000     -88.963112     -2420.8093
   2   2.0000     -10.340088      -281.3681
   3   2.0000     -10.333724      -281.1949
   4   2.0000     -10.322829      -280.8985
   5   2.0000     -10.322432      -280.8876
   6   2.0000     -10.315420      -280.6969
   7   2.0000     -10.308766      -280.5158
   8   2.0000     -10.302914      -280.3565
   9   2.0000     -10.295032      -280.1421
  10   2.0000     -10.292532      -280.0740
  11   2.0000     -10.290400      -280.0160
  12   2.0000     -10.284948      -279.8677
  13   2.0000     -10.282655      -279.8053
  14   2.0000     -10.273691      -279.5614
  15   2.0000     -10.270579      -279.4767
  16   2.0000      -8.086644      -220.0488
  17   2.0000      -8.077809      -219.8083
  18   2.0000      -6.045290      -164.5007
  19   2.0000      -6.040969      -164.3831
  20   2.0000      -6.037465      -164.2878
  21   2.0000      -6.036410      -164.2591
  22   2.0000      -6.032184      -164.1441
  23   2.0000      -6.028608      -164.0468
  24   2.0000      -1.006183       -27.3796
  25   2.0000      -0.983305       -26.7571
  26   2.0000      -0.916801       -24.9474
  27   2.0000      -0.914265       -24.8784
  28   2.0000      -0.871025       -23.7018
  29   2.0000      -0.853209       -23.2170
  30   2.0000      -0.840351       -22.8671
  31   2.0000      -0.813182       -22.1278
  32   2.0000      -0.785949       -21.3868
  33   2.0000      -0.778780       -21.1917
  34   2.0000      -0.706818       -19.2335
  35   2.0000      -0.702179       -19.1073
  36   2.0000      -0.692097       -18.8329
  37   2.0000      -0.660712       -17.9789
  38   2.0000      -0.639306       -17.3964
  39   2.0000      -0.615351       -16.7446
  40   2.0000      -0.599908       -16.3243
  41   2.0000      -0.583989       -15.8911
  42   2.0000      -0.557655       -15.1746
  43   2.0000      -0.552152       -15.0248
  44   2.0000      -0.542987       -14.7754
  45   2.0000      -0.536678       -14.6037
  46   2.0000      -0.525900       -14.3105
  47   2.0000      -0.515012       -14.0142
  48   2.0000      -0.510883       -13.9018
  49   2.0000      -0.505722       -13.7614
  50   2.0000      -0.495278       -13.4772
  51   2.0000      -0.479536       -13.0488
  52   2.0000      -0.476405       -12.9636
  53   2.0000      -0.468295       -12.7430
  54   2.0000      -0.463689       -12.6176
  55   2.0000      -0.444779       -12.1030
  56   2.0000      -0.439843       -11.9687
  57   2.0000      -0.432508       -11.7691
  58   2.0000      -0.429504       -11.6874
  59   2.0000      -0.425033       -11.5657
  60   2.0000      -0.418468       -11.3871
  61   2.0000      -0.411528       -11.1982
  62   2.0000      -0.404629       -11.0105
  63   2.0000      -0.360375        -9.8063
  64   2.0000      -0.331843        -9.0299
  65   2.0000      -0.328367        -8.9353
  66   2.0000      -0.285473        -7.7681
  67   0.0000       0.016802         0.4572
  68   0.0000       0.076607         2.0846
  69   0.0000       0.105063         2.8589
  70   0.0000       0.119689         3.2569
  71   0.0000       0.130920         3.5625

MULLIKEN ATOMIC CHARGES
-----------------------
   0 S :    0.126168
   1 C :   -0.127400
   2 C :   -0.089363
   3 C :   -0.006234
   4 C :   -0.115218
   5 H :    0.012316
   6 C :    0.072753
   7 H :    0.035315
   8 H :    0.002827
   9 C :   -0.079623
  10 H :    0.026334
  11 H :    0.020848
  12 C :   -0.048084
  13 H :    0.036231
  14 H :    0.042468
  15 H :    0.026456
  16 S :    0.079445
  17 C :   -0.091961
  18 C :   -0.040881
  19 C :   -0.021438
  20 C :   -0.136715
  21 H :    0.013771
  22 C :    0.012789
  23 H :    0.033301
  24 H :    0.046756
  25 C :   -0.084001
  26 H :    0.023277
  27 H :    0.040658
  28 C :   -0.015959
  29 H :    0.032884
  30 H :    0.012719
  31 H :    0.026542
  32 H :    0.062681
  33 H :    0.070341
Sum of atomic charges:    0.0000000

LOEWDIN ATOMIC CHARGES
----------------------
   0 S :    0.429199
   1 C :   -0.209190
   2 C :   -0.057309
   3 C :   -0.069351
   4 C :   -0.201656
   5 H :    0.027505
   6 C :   -0.038767
   7 H :    0.035639
   8 H :    0.024924
   9 C :   -0.043138
  10 H :    0.023171
  11 H :    0.022591
  12 C :   -0.058530
  13 H :    0.032886
  14 H :    0.024222
  15 H :    0.017442
  16 S :    0.390981
  17 C :   -0.182640
  18 C :   -0.077603
  19 C :   -0.056205
  20 C :   -0.180299
  21 H :    0.028374
  22 C :   -0.036937
  23 H :    0.032715
  24 H :    0.035388
  25 C :   -0.048228
  26 H :    0.027433
  27 H :    0.027930
  28 C :   -0.059000
  29 H :    0.023495
  30 H :    0.019459
  31 H :    0.024298
  32 H :    0.032891
  33 H :    0.038314

  Mayer bond orders larger than 0.100000
B(  0-S ,  1-C ) :   1.1571 B(  0-S ,  4-C ) :   1.1624 B(  1-C ,  2-C ) :   1.5618
B(  1-C ,  4-C ) :   0.1027 B(  1-C , 32-H ) :   0.9681 B(  2-C ,  3-C ) :   1.2797
B(  2-C ,  6-C ) :   1.0038 B(  3-C ,  4-C ) :   1.5161 B(  3-C ,  5-H ) :   0.9893
B(  4-C , 20-C ) :   1.0832 B(  6-C ,  7-H ) :   0.9405 B(  6-C ,  8-H ) :   0.9430
B(  6-C ,  9-C ) :   1.0816 B(  9-C , 10-H ) :   0.9544 B(  9-C , 11-H ) :   0.9556
B(  9-C , 12-C ) :   1.0739 B( 12-C , 13-H ) :   0.9761 B( 12-C , 14-H ) :   0.9776
B( 12-C , 15-H ) :   0.9781 B( 16-S , 17-C ) :   1.1676 B( 16-S , 20-C ) :   1.1261
B( 17-C , 18-C ) :   1.5888 B( 17-C , 20-C ) :   0.1018 B( 17-C , 33-H ) :   0.9629
B( 18-C , 19-C ) :   1.2531 B( 18-C , 21-H ) :   0.9915 B( 19-C , 20-C ) :   1.5935
B( 19-C , 22-C ) :   1.0058 B( 22-C , 23-H ) :   0.9282 B( 22-C , 24-H ) :   0.9409
B( 22-C , 25-C ) :   1.0941 B( 25-C , 26-H ) :   0.9503 B( 25-C , 27-H ) :   0.9455
B( 25-C , 28-C ) :   1.0824 B( 28-C , 29-H ) :   0.9726 B( 28-C , 30-H ) :   0.9783
B( 28-C , 31-H ) :   0.9689

Dispersion correction           -0.013688884
FINAL SINGLE POINT ENERGY     -1339.868973026653

DIPOLE MOMENT
-------------
                                X             Y             Z
Electronic contribution:     -2.43348     -14.67924      21.75068
Nuclear contribution   :      2.63897      15.15423     -22.23137
                        -----------------------------------------
Total Dipole Moment    :      0.20549       0.47499      -0.48069
                        -----------------------------------------
Magnitude (a.u.)       :      0.70634
Magnitude (Debye)      :      1.79537

Rotational constants in cm-1:     0.020391     0.007709     0.006012
Rotational constants in MHz :   611.314049   231.114509   180.223128

                             ****ORCA TERMINATED NORMALLY****
TOTAL RUN TIME: 0 days 0 hours 0 minutes 34 seconds 897 msec
