                         Program Version 4.2.1 -  RELEASE  -
|  1> ! wB97X-D3 SP def2-SVP
|  2> %pal
|  3> nprocs 16
|  4> end
|  5>
|  6> * xyz 0 1
|  7> S 	 58.9698 	 -8.9189 	 88.7302
|  8> C 	 59.1884 	 -7.17995 	 89.0107
|  9> C 	 58.7691 	 -6.47882 	 87.8885
| 10> C 	 58.0604 	 -7.31543 	 86.9432
| 11> C 	 58.3514 	 -8.6714 	 87.1347
| 12> H 	 57.7464 	 -6.93727 	 85.9694
| 13> C 	 58.8402 	 -4.96753 	 87.77
| 14> H 	 58.5915 	 -4.46794 	 88.7435
| 15> H 	 57.8614 	 -4.7508 	 87.221
| 16> C 	 60.0564 	 -4.38644 	 87.101
| 17> H 	 60.1867 	 -3.41638 	 87.4692
| 18> H 	 60.955 	 -4.88341 	 87.4751
| 19> C 	 59.8883 	 -4.63851 	 85.6095
| 20> H 	 60.7231 	 -4.09629 	 85.1329
| 21> H 	 59.9673 	 -5.65432 	 85.2954
| 22> H 	 59.0276 	 -4.14884 	 85.1654
| 23> S 	 57.2081 	 -11.1897 	 87.2283
| 24> C 	 57.1711 	 -12.1883 	 85.716
| 25> C 	 57.7817 	 -11.5052 	 84.6756
| 26> C 	 58.2217 	 -10.217 	 85.0231
| 27> C 	 58.008 	 -9.84076 	 86.3348
| 28> H 	 57.8679 	 -11.9579 	 83.7039
| 29> C 	 58.9265 	 -9.27907 	 83.9719
| 30> H 	 58.689 	 -8.25473 	 84.2034
| 31> H 	 58.3289 	 -9.41173 	 83.0751
| 32> C 	 60.4223 	 -9.45996 	 83.767
| 33> H 	 60.5059 	 -10.5492 	 83.6656
| 34> H 	 61.0739 	 -9.16205 	 84.6534
| 35> C 	 61.0323 	 -8.99081 	 82.4225
| 36> H 	 60.7023 	 -7.97631 	 82.2173
| 37> H 	 60.5963 	 -9.53621 	 81.5774
| 38> H 	 62.0906 	 -8.91566 	 82.3047
| 39> H 	 59.7767 	 -6.73936 	 89.8234
| 40> H 	 56.7706 	 -13.2328 	 85.5944
| 41> *
| 42>
| 43>                          ****END OF INPUT****

CARTESIAN COORDINATES (ANGSTROEM)
---------------------------------
  S     58.969800   -8.918900   88.730200
  C     59.188400   -7.179950   89.010700
  C     58.769100   -6.478820   87.888500
  C     58.060400   -7.315430   86.943200
  C     58.351400   -8.671400   87.134700
  H     57.746400   -6.937270   85.969400
  C     58.840200   -4.967530   87.770000
  H     58.591500   -4.467940   88.743500
  H     57.861400   -4.750800   87.221000
  C     60.056400   -4.386440   87.101000
  H     60.186700   -3.416380   87.469200
  H     60.955000   -4.883410   87.475100
  C     59.888300   -4.638510   85.609500
  H     60.723100   -4.096290   85.132900
  H     59.967300   -5.654320   85.295400
  H     59.027600   -4.148840   85.165400
  S     57.208100  -11.189700   87.228300
  C     57.171100  -12.188300   85.716000
  C     57.781700  -11.505200   84.675600
  C     58.221700  -10.217000   85.023100
  C     58.008000   -9.840760   86.334800
  H     57.867900  -11.957900   83.703900
  C     58.926500   -9.279070   83.971900
  H     58.689000   -8.254730   84.203400
  H     58.328900   -9.411730   83.075100
  C     60.422300   -9.459960   83.767000
  H     60.505900  -10.549200   83.665600
  H     61.073900   -9.162050   84.653400
  C     61.032300   -8.990810   82.422500
  H     60.702300   -7.976310   82.217300
  H     60.596300   -9.536210   81.577400
  H     62.090600   -8.915660   82.304700
  H     59.776700   -6.739360   89.823400
  H     56.770600  -13.232800   85.594400

 Total Charge           Charge          ....    0
 Multiplicity           Mult            ....    1
 Number of Electrons    NEL             ....  134
 Basis Dimension        Dim             ....  322

ORBITAL ENERGIES
----------------

  NO   OCC          E(Eh)            E(eV)
   0   2.0000     -88.967373     -2420.9253
   1   2.0000     -88.965651     -2420.8785
   2   2.0000     -10.334348      -281.2119
   3   2.0000     -10.333349      -281.1847
   4   2.0000     -10.329501      -281.0800
   5   2.0000     -10.315159      -280.6898
   6   2.0000     -10.307889      -280.4919
   7   2.0000     -10.302975      -280.3582
   8   2.0000     -10.297770      -280.2166
   9   2.0000     -10.296550      -280.1834
  10   2.0000     -10.295123      -280.1445
  11   2.0000     -10.293699      -280.1058
  12   2.0000     -10.292991      -280.0865
  13   2.0000     -10.283067      -279.8165
  14   2.0000     -10.278019      -279.6791
  15   2.0000     -10.277004      -279.6515
  16   2.0000      -8.080418      -219.8794
  17   2.0000      -8.080309      -219.8764
  18   2.0000      -6.039039      -164.3306
  19   2.0000      -6.038956      -164.3284
  20   2.0000      -6.035098      -164.2234
  21   2.0000      -6.034841      -164.2164
  22   2.0000      -6.031188      -164.1170
  23   2.0000      -6.030886      -164.1087
  24   2.0000      -1.003779       -27.3142
  25   2.0000      -0.978581       -26.6286
  26   2.0000      -0.917964       -24.9791
  27   2.0000      -0.902846       -24.5677
  28   2.0000      -0.870193       -23.6792
  29   2.0000      -0.847819       -23.0703
  30   2.0000      -0.840911       -22.8824
  31   2.0000      -0.814038       -22.1511
  32   2.0000      -0.783820       -21.3288
  33   2.0000      -0.772978       -21.0338
  34   2.0000      -0.711833       -19.3700
  35   2.0000      -0.705617       -19.2008
  36   2.0000      -0.694654       -18.9025
  37   2.0000      -0.663767       -18.0620
  38   2.0000      -0.635969       -17.3056
  39   2.0000      -0.613521       -16.6947
  40   2.0000      -0.590630       -16.0719
  41   2.0000      -0.574004       -15.6194
  42   2.0000      -0.560587       -15.2543
  43   2.0000      -0.552565       -15.0361
  44   2.0000      -0.538965       -14.6660
  45   2.0000      -0.522900       -14.2288
  46   2.0000      -0.513775       -13.9805
  47   2.0000      -0.510140       -13.8816
  48   2.0000      -0.505538       -13.7564
  49   2.0000      -0.502211       -13.6659
  50   2.0000      -0.494179       -13.4473
  51   2.0000      -0.479422       -13.0457
  52   2.0000      -0.477312       -12.9883
  53   2.0000      -0.462558       -12.5868
  54   2.0000      -0.457896       -12.4600
  55   2.0000      -0.452687       -12.3182
  56   2.0000      -0.442368       -12.0374
  57   2.0000      -0.438753       -11.9391
  58   2.0000      -0.435043       -11.8381
  59   2.0000      -0.425384       -11.5753
  60   2.0000      -0.414052       -11.2669
  61   2.0000      -0.404820       -11.0157
  62   2.0000      -0.401293       -10.9197
  63   2.0000      -0.347150        -9.4464
  64   2.0000      -0.335709        -9.1351
  65   2.0000      -0.330427        -8.9914
  66   2.0000      -0.291347        -7.9280
  67   0.0000       0.021855         0.5947
  68   0.0000       0.064382         1.7519
  69   0.0000       0.099026         2.6946
  70   0.0000       0.115967         3.1556
  71   0.0000       0.123538         3.3616

MULLIKEN ATOMIC CHARGES
-----------------------
   0 S :    0.101845
   1 C :   -0.115931
   2 C :   -0.121933
   3 C :    0.056221
   4 C :   -0.153350
   5 H :    0.024008
   6 C :   -0.023566
   7 H :    0.030470
   8 H :    0.030950
   9 C :    0.021594
  10 H :    0.013340
  11 H :    0.022089
  12 C :   -0.052437
  13 H :    0.024402
  14 H :    0.044430
  15 H :    0.028270
  16 S :    0.086251
  17 C :   -0.111842
  18 C :   -0.032120
  19 C :   -0.041048
  20 C :   -0.143734
  21 H :    0.019030
  22 C :    0.095415
  23 H :   -0.001091
  24 H :    0.015402
  25 C :   -0.071348
  26 H :    0.024281
  27 H :    0.054419
  28 C :   -0.037426
  29 H :    0.010651
  30 H :    0.025708
  31 H :    0.036640
  32 H :    0.059902
  33 H :    0.080508
Sum of atomic charges:   -0.0000000

LOEWDIN ATOMIC CHARGES
----------------------
   0 S :    0.406856
   1 C :   -0.198368
   2 C :   -0.061095
   3 C :   -0.069836
   4 C :   -0.192218
   5 H :    0.028436
   6 C :   -0.044463
   7 H :    0.030919
   8 H :    0.036243
   9 C :   -0.036327
  10 H :    0.019697
  11 H :    0.029175
  12 C :   -0.061795
  13 H :    0.028568
  14 H :    0.024960
  15 H :    0.024542
  16 S :    0.359564
  17 C :   -0.171242
  18 C :   -0.073142
  19 C :   -0.054739
  20 C :   -0.178056
  21 H :    0.032820
  22 C :   -0.027253
  23 H :    0.020597
  24 H :    0.030688
  25 C :   -0.049100
  26 H :    0.025656
  27 H :    0.037238
  28 C :   -0.068783
  29 H :    0.019941
  30 H :    0.026363
  31 H :    0.025707
  32 H :    0.033738
  33 H :    0.044706

  Mayer bond orders larger than 0.100000
B(  0-S ,  1-C ) :   1.1234 B(  0-S ,  4-C ) :   1.1691 B(  1-C ,  2-C ) :   1.6212
B(  1-C ,  4-C ) :   0.1007 B(  1-C , 32-H ) :   0.9658 B(  2-C ,  3-C ) :   1.2491
B(  2-C ,  6-C ) :   1.0111 B(  3-C ,  4-C ) :   1.5624 B(  3-C ,  5-H ) :   0.9703
B(  4-C , 20-C ) :   1.0391 B(  6-C ,  7-H ) :   0.9478 B(  6-C ,  8-H ) :   0.9500
B(  6-C ,  9-C ) :   1.0577 B(  9-C , 10-H ) :   0.9530 B(  9-C , 11-H ) :   0.9503
B(  9-C , 12-C ) :   1.0735 B( 12-C , 13-H ) :   0.9700 B( 12-C , 14-H ) :   0.9747
B( 12-C , 15-H ) :   0.9762 B( 16-S , 17-C ) :   1.1365 B( 16-S , 20-C ) :   1.1177
B( 17-C , 18-C ) :   1.6197 B( 17-C , 20-C ) :   0.1061 B( 17-C , 33-H ) :   0.9592
B( 18-C , 19-C ) :   1.2425 B( 18-C , 21-H ) :   0.9895 B( 19-C , 20-C ) :   1.6281
B( 19-C , 22-C ) :   1.0227 B( 22-C , 23-H ) :   0.9297 B( 22-C , 24-H ) :   0.9349
B( 22-C , 25-C ) :   1.0569 B( 25-C , 26-H ) :   0.9597 B( 25-C , 27-H ) :   0.9546
B( 25-C , 28-C ) :   1.0716 B( 28-C , 29-H ) :   0.9745 B( 28-C , 30-H ) :   0.9746
B( 28-C , 31-H ) :   0.9766

Dispersion correction           -0.014595617
FINAL SINGLE POINT ENERGY     -1339.861120320887

DIPOLE MOMENT
-------------
                                X             Y             Z
Electronic contribution:    -12.94728     -19.69220      20.34226
Nuclear contribution   :     13.24887      20.11401     -20.93742
                        -----------------------------------------
Total Dipole Moment    :      0.30159       0.42182      -0.59516
                        -----------------------------------------
Magnitude (a.u.)       :      0.78937
Magnitude (Debye)      :      2.00642

Rotational constants in cm-1:     0.016761     0.010094     0.006889
Rotational constants in MHz :   502.491274   302.598026   206.514408

                             ****ORCA TERMINATED NORMALLY****
TOTAL RUN TIME: 0 days 0 hours 0 minutes 31 seconds 125 msec
