                         Program Version 4.2.1 -  RELEASE  -
|  1> ! wB97X-D3 SP def2-SVP
|  2> %pal
|  3> nprocs 16
|  4> end
|  5>
|  6> * xyz 0 1
|  7> S 	 -30.6466 	 32.5265 	 37.8145
|  8> C 	 -30.2063 	 33.8144 	 36.7101
|  9> C 	 -29.2926 	 34.6258 	 37.2828
| 10> C 	 -29.0261 	 34.2716 	 38.6272
| 11> C 	 -29.5597 	 33.0536 	 39.0244
| 12> H 	 -28.2611 	 34.769 	 39.1555
| 13> C 	 -28.5804 	 35.7833 	 36.6214
| 14> H 	 -28.1344 	 35.4357 	 35.7253
| 15> H 	 -27.7053 	 36.0611 	 37.1655
| 16> C 	 -29.4765 	 37.0077 	 36.3385
| 17> H 	 -28.979 	 37.584 	 35.5627
| 18> H 	 -30.4283 	 36.7617 	 35.861
| 19> C 	 -29.6468 	 37.8281 	 37.5528
| 20> H 	 -30.2378 	 38.7508 	 37.4469
| 21> H 	 -29.9777 	 37.2734 	 38.4097
| 22> H 	 -28.7463 	 38.3663 	 37.8698
| 23> S 	 -28.179 	 30.8669 	 40.0698
| 24> C 	 -28.3534 	 30.361 	 41.7574
| 25> C 	 -29.1883 	 31.2045 	 42.3975
| 26> C 	 -29.6218 	 32.3481 	 41.5828
| 27> C 	 -29.2385 	 32.2658 	 40.2363
| 28> H 	 -29.3444 	 31.0164 	 43.4361
| 29> C 	 -30.4867 	 33.4699 	 42.2264
| 30> H 	 -31.2462 	 33.0284 	 42.7457
| 31> H 	 -31.0038 	 34.0101 	 41.4632
| 32> C 	 -29.7301 	 34.4915 	 43.0825
| 33> H 	 -29.2279 	 34.1261 	 43.9655
| 34> H 	 -30.4628 	 35.2225 	 43.4292
| 35> C 	 -28.758 	 35.3015 	 42.2835
| 36> H 	 -28.0413 	 34.6558 	 41.8463
| 37> H 	 -28.139 	 35.9488 	 42.9111
| 38> H 	 -29.2607 	 35.8909 	 41.5656
| 39> H 	 -30.5753 	 33.9922 	 35.6556
| 40> H 	 -27.9776 	 29.4434 	 42.2468
| 41> *
| 42>
| 43>                          ****END OF INPUT****

CARTESIAN COORDINATES (ANGSTROEM)
---------------------------------
  S    -30.646600   32.526500   37.814500
  C    -30.206300   33.814400   36.710100
  C    -29.292600   34.625800   37.282800
  C    -29.026100   34.271600   38.627200
  C    -29.559700   33.053600   39.024400
  H    -28.261100   34.769000   39.155500
  C    -28.580400   35.783300   36.621400
  H    -28.134400   35.435700   35.725300
  H    -27.705300   36.061100   37.165500
  C    -29.476500   37.007700   36.338500
  H    -28.979000   37.584000   35.562700
  H    -30.428300   36.761700   35.861000
  C    -29.646800   37.828100   37.552800
  H    -30.237800   38.750800   37.446900
  H    -29.977700   37.273400   38.409700
  H    -28.746300   38.366300   37.869800
  S    -28.179000   30.866900   40.069800
  C    -28.353400   30.361000   41.757400
  C    -29.188300   31.204500   42.397500
  C    -29.621800   32.348100   41.582800
  C    -29.238500   32.265800   40.236300
  H    -29.344400   31.016400   43.436100
  C    -30.486700   33.469900   42.226400
  H    -31.246200   33.028400   42.745700
  H    -31.003800   34.010100   41.463200
  C    -29.730100   34.491500   43.082500
  H    -29.227900   34.126100   43.965500
  H    -30.462800   35.222500   43.429200
  C    -28.758000   35.301500   42.283500
  H    -28.041300   34.655800   41.846300
  H    -28.139000   35.948800   42.911100
  H    -29.260700   35.890900   41.565600
  H    -30.575300   33.992200   35.655600
  H    -27.977600   29.443400   42.246800

 Total Charge           Charge          ....    0
 Multiplicity           Mult            ....    1
 Number of Electrons    NEL             ....  134
 Basis Dimension        Dim             ....  322

ORBITAL ENERGIES
----------------

  NO   OCC          E(Eh)            E(eV)
   0   2.0000     -88.967290     -2420.9230
   1   2.0000     -88.960925     -2420.7498
   2   2.0000     -10.333386      -281.1857
   3   2.0000     -10.330837      -281.1164
   4   2.0000     -10.318793      -280.7886
   5   2.0000     -10.314895      -280.6826
   6   2.0000     -10.311359      -280.5863
   7   2.0000     -10.293179      -280.0916
   8   2.0000     -10.291947      -280.0581
   9   2.0000     -10.288014      -279.9511
  10   2.0000     -10.286223      -279.9024
  11   2.0000     -10.285242      -279.8757
  12   2.0000     -10.282085      -279.7898
  13   2.0000     -10.279238      -279.7123
  14   2.0000     -10.271862      -279.5116
  15   2.0000     -10.262318      -279.2519
  16   2.0000      -8.082495      -219.9359
  17   2.0000      -8.075350      -219.7414
  18   2.0000      -6.040972      -164.3832
  19   2.0000      -6.036815      -164.2701
  20   2.0000      -6.034073      -164.1955
  21   2.0000      -6.033344      -164.1756
  22   2.0000      -6.029782      -164.0787
  23   2.0000      -6.025981      -163.9753
  24   2.0000      -1.008909       -27.4538
  25   2.0000      -0.984306       -26.7843
  26   2.0000      -0.918175       -24.9848
  27   2.0000      -0.910009       -24.7626
  28   2.0000      -0.872171       -23.7330
  29   2.0000      -0.849545       -23.1173
  30   2.0000      -0.841774       -22.9058
  31   2.0000      -0.819044       -22.2873
  32   2.0000      -0.787351       -21.4249
  33   2.0000      -0.776403       -21.1270
  34   2.0000      -0.708923       -19.2908
  35   2.0000      -0.705254       -19.1909
  36   2.0000      -0.691282       -18.8107
  37   2.0000      -0.652697       -17.7608
  38   2.0000      -0.638476       -17.3738
  39   2.0000      -0.621710       -16.9176
  40   2.0000      -0.595673       -16.2091
  41   2.0000      -0.581250       -15.8166
  42   2.0000      -0.560707       -15.2576
  43   2.0000      -0.556430       -15.1412
  44   2.0000      -0.548522       -14.9260
  45   2.0000      -0.539020       -14.6675
  46   2.0000      -0.518769       -14.1164
  47   2.0000      -0.508859       -13.8468
  48   2.0000      -0.504488       -13.7278
  49   2.0000      -0.493689       -13.4340
  50   2.0000      -0.490606       -13.3501
  51   2.0000      -0.483220       -13.1491
  52   2.0000      -0.470115       -12.7925
  53   2.0000      -0.464829       -12.6486
  54   2.0000      -0.462979       -12.5983
  55   2.0000      -0.445416       -12.1204
  56   2.0000      -0.440263       -11.9802
  57   2.0000      -0.433295       -11.7906
  58   2.0000      -0.430388       -11.7114
  59   2.0000      -0.426815       -11.6142
  60   2.0000      -0.423089       -11.5128
  61   2.0000      -0.414002       -11.2656
  62   2.0000      -0.405711       -11.0399
  63   2.0000      -0.337920        -9.1953
  64   2.0000      -0.331636        -9.0243
  65   2.0000      -0.323396        -8.8000
  66   2.0000      -0.310451        -8.4478
  67   0.0000       0.039634         1.0785
  68   0.0000       0.059825         1.6279
  69   0.0000       0.120076         3.2674
  70   0.0000       0.130009         3.5377
  71   0.0000       0.131818         3.5870

MULLIKEN ATOMIC CHARGES
-----------------------
   0 S :    0.130990
   1 C :   -0.143917
   2 C :   -0.110090
   3 C :    0.075172
   4 C :   -0.168715
   5 H :   -0.009787
   6 C :    0.098481
   7 H :    0.015550
   8 H :    0.004743
   9 C :   -0.038556
  10 H :    0.018973
  11 H :    0.027608
  12 C :   -0.046677
  13 H :    0.025927
  14 H :    0.034174
  15 H :    0.013386
  16 S :    0.093949
  17 C :   -0.097372
  18 C :   -0.025623
  19 C :   -0.055979
  20 C :   -0.162144
  21 H :    0.015007
  22 C :    0.139670
  23 H :    0.000510
  24 H :    0.009164
  25 C :   -0.068573
  26 H :    0.023426
  27 H :    0.023757
  28 C :   -0.027982
  29 H :    0.028933
  30 H :    0.020484
  31 H :    0.020146
  32 H :    0.065677
  33 H :    0.069690
Sum of atomic charges:   -0.0000000

LOEWDIN ATOMIC CHARGES
----------------------
   0 S :    0.433038
   1 C :   -0.204437
   2 C :   -0.070885
   3 C :   -0.056738
   4 C :   -0.212661
   5 H :    0.021701
   6 C :   -0.022545
   7 H :    0.028478
   8 H :    0.027420
   9 C :   -0.038505
  10 H :    0.024374
  11 H :    0.024492
  12 C :   -0.073581
  13 H :    0.029014
  14 H :    0.023155
  15 H :    0.026233
  16 S :    0.387349
  17 C :   -0.180810
  18 C :   -0.075578
  19 C :   -0.046420
  20 C :   -0.200590
  21 H :    0.029517
  22 C :   -0.019394
  23 H :    0.018277
  24 H :    0.029090
  25 C :   -0.037201
  26 H :    0.019934
  27 H :    0.026356
  28 C :   -0.057637
  29 H :    0.018543
  30 H :    0.026253
  31 H :    0.017217
  32 H :    0.044421
  33 H :    0.042119

  Mayer bond orders larger than 0.100000
B(  0-S ,  1-C ) :   1.1418 B(  0-S ,  4-C ) :   1.1775 B(  1-C ,  2-C ) :   1.6154
B(  1-C , 32-H ) :   0.9573 B(  2-C ,  3-C ) :   1.2757 B(  2-C ,  6-C ) :   1.0193
B(  3-C ,  4-C ) :   1.5494 B(  3-C ,  5-H ) :   0.9965 B(  4-C , 20-C ) :   1.0085
B(  6-C ,  7-H ) :   0.9340 B(  6-C ,  8-H ) :   0.9386 B(  6-C ,  9-C ) :   1.0702
B(  9-C , 10-H ) :   0.9499 B(  9-C , 11-H ) :   0.9584 B(  9-C , 12-C ) :   1.0858
B( 12-C , 13-H ) :   0.9676 B( 12-C , 14-H ) :   0.9771 B( 12-C , 15-H ) :   0.9671
B( 16-S , 17-C ) :   1.1365 B( 16-S , 20-C ) :   1.1342 B( 17-C , 18-C ) :   1.6577
B( 17-C , 33-H ) :   0.9598 B( 18-C , 19-C ) :   1.2024 B( 18-C , 21-H ) :   0.9916
B( 19-C , 20-C ) :   1.6205 B( 19-C , 22-C ) :   1.0380 B( 22-C , 23-H ) :   0.9317
B( 22-C , 24-H ) :   0.9310 B( 22-C , 25-C ) :   1.0747 B( 25-C , 26-H ) :   0.9586
B( 25-C , 27-H ) :   0.9529 B( 25-C , 28-C ) :   1.0858 B( 28-C , 29-H ) :   0.9719
B( 28-C , 30-H ) :   0.9675 B( 28-C , 31-H ) :   0.9750

Dispersion correction           -0.015199059
FINAL SINGLE POINT ENERGY     -1339.873371287772

DIPOLE MOMENT
-------------
                                X             Y             Z
Electronic contribution:     -0.87842     -27.38357      -4.81702
Nuclear contribution   :      0.96802      27.90014       4.99156
                        -----------------------------------------
Total Dipole Moment    :      0.08960       0.51657       0.17454
                        -----------------------------------------
Magnitude (a.u.)       :      0.55258
Magnitude (Debye)      :      1.40454

Rotational constants in cm-1:     0.020321     0.008924     0.007047
Rotational constants in MHz :   609.193549   267.534650   211.278076

                             ****ORCA TERMINATED NORMALLY****
TOTAL RUN TIME: 0 days 0 hours 0 minutes 35 seconds 160 msec
