                         Program Version 4.2.1 -  RELEASE  -
|  1> ! wB97X-D3 SP def2-SVP
|  2> %pal
|  3> nprocs 16
|  4> end
|  5>
|  6> * xyz 0 1
|  7> S 	 9.13534 	 -18.953 	 55.3828
|  8> C 	 9.60883 	 -17.939 	 56.7406
|  9> C 	 10.0634 	 -16.6635 	 56.4411
| 10> C 	 9.84402 	 -16.4757 	 55.0117
| 11> C 	 9.28617 	 -17.5396 	 54.3572
| 12> H 	 10.0937 	 -15.6625 	 54.3613
| 13> C 	 10.5126 	 -15.652 	 57.5098
| 14> H 	 9.8321 	 -15.5011 	 58.2396
| 15> H 	 10.5846 	 -14.7402 	 56.8945
| 16> C 	 11.9001 	 -15.9262 	 58.1522
| 17> H 	 11.8148 	 -16.7907 	 58.7372
| 18> H 	 12.5738 	 -16.2489 	 57.3146
| 19> C 	 12.546 	 -14.814 	 58.9738
| 20> H 	 13.4449 	 -15.3095 	 59.4149
| 21> H 	 12.869 	 -14.0364 	 58.3108
| 22> H 	 12.0306 	 -14.5211 	 59.9193
| 23> S 	 10.1089 	 -18.8798 	 52.1824
| 24> C 	 9.55279 	 -18.3574 	 50.6494
| 25> C 	 8.5826 	 -17.3784 	 50.6792
| 26> C 	 8.50166 	 -16.8325 	 52.008
| 27> C 	 9.18458 	 -17.5822 	 52.8881
| 28> H 	 7.97192 	 -17.1078 	 49.9081
| 29> C 	 7.66986 	 -15.5876 	 52.2743
| 30> H 	 8.44185 	 -14.7958 	 52.4226
| 31> H 	 7.07471 	 -15.6477 	 53.2591
| 32> C 	 6.7613 	 -15.0716 	 51.1344
| 33> H 	 6.07292 	 -15.8057 	 50.7208
| 34> H 	 7.31049 	 -14.6475 	 50.2969
| 35> C 	 5.96933 	 -13.8264 	 51.5274
| 36> H 	 5.04558 	 -14.0553 	 52.1039
| 37> H 	 5.68301 	 -13.3125 	 50.6371
| 38> H 	 6.52491 	 -13.0813 	 52.1316
| 39> H 	 9.43837 	 -18.2307 	 57.7638
| 40> H 	 9.82531 	 -18.8826 	 49.8173
| 41> *
| 42>
| 43>                          ****END OF INPUT****

CARTESIAN COORDINATES (ANGSTROEM)
---------------------------------
  S      9.135340  -18.953000   55.382800
  C      9.608830  -17.939000   56.740600
  C     10.063400  -16.663500   56.441100
  C      9.844020  -16.475700   55.011700
  C      9.286170  -17.539600   54.357200
  H     10.093700  -15.662500   54.361300
  C     10.512600  -15.652000   57.509800
  H      9.832100  -15.501100   58.239600
  H     10.584600  -14.740200   56.894500
  C     11.900100  -15.926200   58.152200
  H     11.814800  -16.790700   58.737200
  H     12.573800  -16.248900   57.314600
  C     12.546000  -14.814000   58.973800
  H     13.444900  -15.309500   59.414900
  H     12.869000  -14.036400   58.310800
  H     12.030600  -14.521100   59.919300
  S     10.108900  -18.879800   52.182400
  C      9.552790  -18.357400   50.649400
  C      8.582600  -17.378400   50.679200
  C      8.501660  -16.832500   52.008000
  C      9.184580  -17.582200   52.888100
  H      7.971920  -17.107800   49.908100
  C      7.669860  -15.587600   52.274300
  H      8.441850  -14.795800   52.422600
  H      7.074710  -15.647700   53.259100
  C      6.761300  -15.071600   51.134400
  H      6.072920  -15.805700   50.720800
  H      7.310490  -14.647500   50.296900
  C      5.969330  -13.826400   51.527400
  H      5.045580  -14.055300   52.103900
  H      5.683010  -13.312500   50.637100
  H      6.524910  -13.081300   52.131600
  H      9.438370  -18.230700   57.763800
  H      9.825310  -18.882600   49.817300

 Total Charge           Charge          ....    0
 Multiplicity           Mult            ....    1
 Number of Electrons    NEL             ....  134
 Basis Dimension        Dim             ....  322

ORBITAL ENERGIES
----------------

  NO   OCC          E(Eh)            E(eV)
   0   2.0000     -88.966947     -2420.9137
   1   2.0000     -88.961262     -2420.7590
   2   2.0000     -10.322064      -280.8776
   3   2.0000     -10.315507      -280.6992
   4   2.0000     -10.311022      -280.5772
   5   2.0000     -10.305831      -280.4359
   6   2.0000     -10.304486      -280.3993
   7   2.0000     -10.302522      -280.3459
   8   2.0000     -10.296871      -280.1921
   9   2.0000     -10.291467      -280.0450
  10   2.0000     -10.289493      -279.9914
  11   2.0000     -10.288301      -279.9589
  12   2.0000     -10.285408      -279.8802
  13   2.0000     -10.284766      -279.8627
  14   2.0000     -10.283638      -279.8320
  15   2.0000     -10.279197      -279.7112
  16   2.0000      -8.081481      -219.9083
  17   2.0000      -8.077332      -219.7954
  18   2.0000      -6.039978      -164.3562
  19   2.0000      -6.036246      -164.2546
  20   2.0000      -6.035664      -164.2388
  21   2.0000      -6.032045      -164.1403
  22   2.0000      -6.031861      -164.1353
  23   2.0000      -6.028000      -164.0302
  24   2.0000      -1.009762       -27.4770
  25   2.0000      -0.983210       -26.7545
  26   2.0000      -0.909784       -24.7565
  27   2.0000      -0.908039       -24.7090
  28   2.0000      -0.867340       -23.6015
  29   2.0000      -0.857779       -23.3414
  30   2.0000      -0.846991       -23.0478
  31   2.0000      -0.813625       -22.1399
  32   2.0000      -0.784111       -21.3368
  33   2.0000      -0.773068       -21.0362
  34   2.0000      -0.705121       -19.1873
  35   2.0000      -0.700398       -19.0588
  36   2.0000      -0.690553       -18.7909
  37   2.0000      -0.664684       -18.0870
  38   2.0000      -0.643858       -17.5203
  39   2.0000      -0.613290       -16.6885
  40   2.0000      -0.603573       -16.4240
  41   2.0000      -0.570179       -15.5154
  42   2.0000      -0.569929       -15.5086
  43   2.0000      -0.561647       -15.2832
  44   2.0000      -0.525169       -14.2906
  45   2.0000      -0.523736       -14.2516
  46   2.0000      -0.515944       -14.0395
  47   2.0000      -0.514635       -14.0039
  48   2.0000      -0.509256       -13.8576
  49   2.0000      -0.490566       -13.3490
  50   2.0000      -0.485557       -13.2127
  51   2.0000      -0.475508       -12.9392
  52   2.0000      -0.466618       -12.6973
  53   2.0000      -0.464372       -12.6362
  54   2.0000      -0.462552       -12.5867
  55   2.0000      -0.454467       -12.3667
  56   2.0000      -0.449025       -12.2186
  57   2.0000      -0.434337       -11.8189
  58   2.0000      -0.429932       -11.6990
  59   2.0000      -0.426424       -11.6036
  60   2.0000      -0.421809       -11.4780
  61   2.0000      -0.419673       -11.4199
  62   2.0000      -0.417027       -11.3479
  63   2.0000      -0.343628        -9.3506
  64   2.0000      -0.331000        -9.0070
  65   2.0000      -0.328519        -8.9395
  66   2.0000      -0.289806        -7.8860
  67   0.0000       0.042080         1.1451
  68   0.0000       0.063862         1.7378
  69   0.0000       0.112806         3.0696
  70   0.0000       0.125687         3.4201
  71   0.0000       0.134354         3.6560

MULLIKEN ATOMIC CHARGES
-----------------------
   0 S :    0.111382
   1 C :   -0.118699
   2 C :   -0.078401
   3 C :    0.018479
   4 C :   -0.149003
   5 H :    0.002928
   6 C :    0.125908
   7 H :    0.009521
   8 H :    0.014351
   9 C :   -0.099203
  10 H :    0.011857
  11 H :    0.035827
  12 C :   -0.041772
  13 H :    0.032378
  14 H :    0.041606
  15 H :    0.041161
  16 S :    0.109774
  17 C :   -0.037581
  18 C :   -0.001234
  19 C :   -0.038309
  20 C :   -0.182725
  21 H :   -0.014035
  22 C :    0.037604
  23 H :    0.041968
  24 H :    0.056794
  25 C :   -0.098066
  26 H :    0.040388
  27 H :    0.031331
  28 C :   -0.052180
  29 H :    0.037018
  30 H :    0.024052
  31 H :    0.029427
  32 H :    0.042018
  33 H :    0.015436
Sum of atomic charges:   -0.0000000

LOEWDIN ATOMIC CHARGES
----------------------
   0 S :    0.390972
   1 C :   -0.185692
   2 C :   -0.056285
   3 C :   -0.060899
   4 C :   -0.196858
   5 H :    0.027204
   6 C :   -0.020625
   7 H :    0.014323
   8 H :    0.032438
   9 C :   -0.041566
  10 H :    0.012700
  11 H :    0.032498
  12 C :   -0.069481
  13 H :    0.035823
  14 H :    0.024404
  15 H :    0.031272
  16 S :    0.417051
  17 C :   -0.173899
  18 C :   -0.053140
  19 C :   -0.060173
  20 C :   -0.199403
  21 H :    0.015873
  22 C :   -0.037655
  23 H :    0.039751
  24 H :    0.042956
  25 C :   -0.048641
  26 H :    0.024913
  27 H :    0.027071
  28 C :   -0.064871
  29 H :    0.025927
  30 H :    0.021894
  31 H :    0.026725
  32 H :    0.021338
  33 H :    0.004057

  Mayer bond orders larger than 0.100000
B(  0-S ,  1-C ) :   1.1347 B(  0-S ,  4-C ) :   1.1296 B(  1-C ,  2-C ) :   1.6322
B(  1-C , 32-H ) :   0.9652 B(  2-C ,  3-C ) :   1.2054 B(  2-C ,  6-C ) :   1.0113
B(  3-C ,  4-C ) :   1.6197 B(  3-C ,  5-H ) :   0.9921 B(  4-C , 20-C ) :   1.0117
B(  6-C ,  7-H ) :   0.9422 B(  6-C ,  8-H ) :   0.9403 B(  6-C ,  9-C ) :   1.0548
B(  9-C , 10-H ) :   0.9567 B(  9-C , 11-H ) :   0.9554 B(  9-C , 12-C ) :   1.0919
B( 12-C , 13-H ) :   0.9697 B( 12-C , 14-H ) :   0.9758 B( 12-C , 15-H ) :   0.9713
B( 16-S , 17-C ) :   1.1641 B( 16-S , 20-C ) :   1.1357 B( 17-C , 18-C ) :   1.6008
B( 17-C , 33-H ) :   0.9738 B( 18-C , 19-C ) :   1.2282 B( 18-C , 21-H ) :   1.0014
B( 19-C , 20-C ) :   1.6758 B( 19-C , 22-C ) :   1.0231 B( 22-C , 23-H ) :   0.9225
B( 22-C , 24-H ) :   0.9408 B( 22-C , 25-C ) :   1.0831 B( 25-C , 26-H ) :   0.9526
B( 25-C , 27-H ) :   0.9493 B( 25-C , 28-C ) :   1.0811 B( 28-C , 29-H ) :   0.9746
B( 28-C , 30-H ) :   0.9762 B( 28-C , 31-H ) :   0.9728

Dispersion correction           -0.013170920
FINAL SINGLE POINT ENERGY     -1339.856090291606

DIPOLE MOMENT
-------------
                                X             Y             Z
Electronic contribution:      1.82687     -25.08468      -7.90983
Nuclear contribution   :     -1.89975      25.66955       7.97966
                        -----------------------------------------
Total Dipole Moment    :     -0.07288       0.58487       0.06983
                        -----------------------------------------
Magnitude (a.u.)       :      0.59352
Magnitude (Debye)      :      1.50860

Rotational constants in cm-1:     0.018596     0.007222     0.005884
Rotational constants in MHz :   557.499527   216.500186   176.386567

                             ****ORCA TERMINATED NORMALLY****
TOTAL RUN TIME: 0 days 0 hours 0 minutes 28 seconds 618 msec
