                         Program Version 4.2.1 -  RELEASE  -
|  1> ! wB97X-D3 SP def2-SVP
|  2> %pal
|  3> nprocs 16
|  4> end
|  5>
|  6> * xyz 0 1
|  7> S 	 38.5647 	 17.6349 	 48.5175
|  8> C 	 38.842 	 18.9684 	 49.6251
|  9> C 	 39.1827 	 18.4621 	 50.8791
| 10> C 	 39.3699 	 17.0008 	 50.9072
| 11> C 	 39.1615 	 16.3993 	 49.7263
| 12> H 	 39.6397 	 16.4672 	 51.837
| 13> C 	 39.2377 	 19.3999 	 52.0865
| 14> H 	 39.6083 	 20.4524 	 51.9423
| 15> H 	 40.0272 	 19.0011 	 52.744
| 16> C 	 37.8828 	 19.5018 	 52.8527
| 17> H 	 36.9864 	 19.7268 	 52.2493
| 18> H 	 37.5633 	 18.5252 	 53.2073
| 19> C 	 38.1285 	 20.5388 	 54.0096
| 20> H 	 38.1071 	 21.5756 	 53.7697
| 21> H 	 37.2999 	 20.506 	 54.7469
| 22> H 	 39.044 	 20.344 	 54.5523
| 23> S 	 37.7141 	 14.1129 	 48.9985
| 24> C 	 38.534 	 12.5477 	 48.9282
| 25> C 	 39.9062 	 12.7145 	 49.2673
| 26> C 	 40.2403 	 14.035 	 49.601
| 27> C 	 39.1825 	 14.962 	 49.4176
| 28> H 	 40.6368 	 11.9449 	 49.4173
| 29> C 	 41.6572 	 14.3633 	 50.1279
| 30> H 	 41.9188 	 13.8363 	 51.1063
| 31> H 	 41.6429 	 15.3405 	 50.5819
| 32> C 	 42.8736 	 14.0015 	 49.178
| 33> H 	 43.0213 	 12.9273 	 48.9098
| 34> H 	 43.8394 	 14.1956 	 49.7288
| 35> C 	 42.8803 	 14.8548 	 47.9676
| 36> H 	 43.2577 	 15.8682 	 48.1611
| 37> H 	 41.9576 	 15.0335 	 47.4419
| 38> H 	 43.4726 	 14.424 	 47.1677
| 39> H 	 38.6981 	 20.0039 	 49.4837
| 40> H 	 38.1061 	 11.5186 	 48.8992
| 41> *
| 42>
| 43>                          ****END OF INPUT****

CARTESIAN COORDINATES (ANGSTROEM)
---------------------------------
  S     38.564700   17.634900   48.517500
  C     38.842000   18.968400   49.625100
  C     39.182700   18.462100   50.879100
  C     39.369900   17.000800   50.907200
  C     39.161500   16.399300   49.726300
  H     39.639700   16.467200   51.837000
  C     39.237700   19.399900   52.086500
  H     39.608300   20.452400   51.942300
  H     40.027200   19.001100   52.744000
  C     37.882800   19.501800   52.852700
  H     36.986400   19.726800   52.249300
  H     37.563300   18.525200   53.207300
  C     38.128500   20.538800   54.009600
  H     38.107100   21.575600   53.769700
  H     37.299900   20.506000   54.746900
  H     39.044000   20.344000   54.552300
  S     37.714100   14.112900   48.998500
  C     38.534000   12.547700   48.928200
  C     39.906200   12.714500   49.267300
  C     40.240300   14.035000   49.601000
  C     39.182500   14.962000   49.417600
  H     40.636800   11.944900   49.417300
  C     41.657200   14.363300   50.127900
  H     41.918800   13.836300   51.106300
  H     41.642900   15.340500   50.581900
  C     42.873600   14.001500   49.178000
  H     43.021300   12.927300   48.909800
  H     43.839400   14.195600   49.728800
  C     42.880300   14.854800   47.967600
  H     43.257700   15.868200   48.161100
  H     41.957600   15.033500   47.441900
  H     43.472600   14.424000   47.167700
  H     38.698100   20.003900   49.483700
  H     38.106100   11.518600   48.899200

 Total Charge           Charge          ....    0
 Multiplicity           Mult            ....    1
 Number of Electrons    NEL             ....  134
 Basis Dimension        Dim             ....  322

ORBITAL ENERGIES
----------------

  NO   OCC          E(Eh)            E(eV)
   0   2.0000     -88.974255     -2421.1126
   1   2.0000     -88.963675     -2420.8247
   2   2.0000     -10.336297      -281.2649
   3   2.0000     -10.332814      -281.1702
   4   2.0000     -10.328057      -281.0407
   5   2.0000     -10.314105      -280.6611
   6   2.0000     -10.306740      -280.4607
   7   2.0000     -10.305801      -280.4351
   8   2.0000     -10.302530      -280.3461
   9   2.0000     -10.299707      -280.2693
  10   2.0000     -10.299611      -280.2667
  11   2.0000     -10.295017      -280.1416
  12   2.0000     -10.294518      -280.1281
  13   2.0000     -10.293341      -280.0960
  14   2.0000     -10.279846      -279.7288
  15   2.0000     -10.263758      -279.2911
  16   2.0000      -8.087983      -220.0852
  17   2.0000      -8.077272      -219.7937
  18   2.0000      -6.046591      -164.5361
  19   2.0000      -6.042462      -164.4238
  20   2.0000      -6.038853      -164.3255
  21   2.0000      -6.036120      -164.2512
  22   2.0000      -6.031957      -164.1379
  23   2.0000      -6.027698      -164.0220
  24   2.0000      -1.000139       -27.2152
  25   2.0000      -0.977569       -26.6010
  26   2.0000      -0.903268       -24.5792
  27   2.0000      -0.901475       -24.5304
  28   2.0000      -0.867868       -23.6159
  29   2.0000      -0.851184       -23.1619
  30   2.0000      -0.839145       -22.8343
  31   2.0000      -0.814330       -22.1590
  32   2.0000      -0.778553       -21.1855
  33   2.0000      -0.764848       -20.8126
  34   2.0000      -0.709296       -19.3009
  35   2.0000      -0.702878       -19.1263
  36   2.0000      -0.695725       -18.9316
  37   2.0000      -0.659289       -17.9402
  38   2.0000      -0.643509       -17.5108
  39   2.0000      -0.618973       -16.8431
  40   2.0000      -0.593978       -16.1630
  41   2.0000      -0.566043       -15.4028
  42   2.0000      -0.549026       -14.9398
  43   2.0000      -0.542748       -14.7689
  44   2.0000      -0.535163       -14.5625
  45   2.0000      -0.520167       -14.1545
  46   2.0000      -0.516852       -14.0643
  47   2.0000      -0.512468       -13.9450
  48   2.0000      -0.507055       -13.7977
  49   2.0000      -0.496974       -13.5233
  50   2.0000      -0.493218       -13.4211
  51   2.0000      -0.472092       -12.8463
  52   2.0000      -0.465766       -12.6741
  53   2.0000      -0.461169       -12.5491
  54   2.0000      -0.454923       -12.3791
  55   2.0000      -0.453504       -12.3405
  56   2.0000      -0.444933       -12.1072
  57   2.0000      -0.439259       -11.9529
  58   2.0000      -0.429556       -11.6888
  59   2.0000      -0.423289       -11.5183
  60   2.0000      -0.421352       -11.4656
  61   2.0000      -0.405350       -11.0301
  62   2.0000      -0.401971       -10.9382
  63   2.0000      -0.350161        -9.5284
  64   2.0000      -0.332882        -9.0582
  65   2.0000      -0.323296        -8.7973
  66   2.0000      -0.294730        -8.0200
  67   0.0000       0.030027         0.8171
  68   0.0000       0.057126         1.5545
  69   0.0000       0.109379         2.9764
  70   0.0000       0.120653         3.2831
  71   0.0000       0.125658         3.4193

MULLIKEN ATOMIC CHARGES
-----------------------
   0 S :    0.088544
   1 C :   -0.073351
   2 C :   -0.114168
   3 C :    0.056089
   4 C :   -0.155973
   5 H :    0.030967
   6 C :    0.002889
   7 H :    0.037455
   8 H :    0.025866
   9 C :   -0.048904
  10 H :    0.032618
  11 H :    0.021114
  12 C :   -0.053878
  13 H :    0.031201
  14 H :    0.027136
  15 H :    0.030535
  16 S :    0.129002
  17 C :   -0.110151
  18 C :   -0.021177
  19 C :   -0.032507
  20 C :   -0.156971
  21 H :    0.013787
  22 C :    0.047413
  23 H :    0.034193
  24 H :    0.009894
  25 C :   -0.078929
  26 H :    0.037112
  27 H :    0.031852
  28 C :   -0.037507
  29 H :    0.028478
  30 H :    0.030792
  31 H :    0.019419
  32 H :    0.035825
  33 H :    0.081338
Sum of atomic charges:   -0.0000000

LOEWDIN ATOMIC CHARGES
----------------------
   0 S :    0.362892
   1 C :   -0.182601
   2 C :   -0.064698
   3 C :   -0.061273
   4 C :   -0.168650
   5 H :    0.039426
   6 C :   -0.042175
   7 H :    0.035524
   8 H :    0.029283
   9 C :   -0.038105
  10 H :    0.028186
  11 H :    0.022355
  12 C :   -0.070100
  13 H :    0.021822
  14 H :    0.028702
  15 H :    0.024154
  16 S :    0.421935
  17 C :   -0.196956
  18 C :   -0.064719
  19 C :   -0.054584
  20 C :   -0.209823
  21 H :    0.028956
  22 C :   -0.039866
  23 H :    0.039206
  24 H :    0.027046
  25 C :   -0.048012
  26 H :    0.027821
  27 H :    0.032923
  28 C :   -0.075307
  29 H :    0.027934
  30 H :    0.025054
  31 H :    0.024372
  32 H :    0.025063
  33 H :    0.044213

  Mayer bond orders larger than 0.100000
B(  0-S ,  1-C ) :   1.1188 B(  0-S ,  4-C ) :   1.1128 B(  1-C ,  2-C ) :   1.6441
B(  1-C , 32-H ) :   0.9742 B(  2-C ,  3-C ) :   1.2044 B(  2-C ,  6-C ) :   1.0248
B(  3-C ,  4-C ) :   1.6226 B(  3-C ,  5-H ) :   0.9854 B(  4-C , 20-C ) :   1.0294
B(  6-C ,  7-H ) :   0.9553 B(  6-C ,  8-H ) :   0.9407 B(  6-C ,  9-C ) :   1.0435
B(  9-C , 10-H ) :   0.9601 B(  9-C , 11-H ) :   0.9572 B(  9-C , 12-C ) :   1.0635
B( 12-C , 13-H ) :   0.9777 B( 12-C , 14-H ) :   0.9737 B( 12-C , 15-H ) :   0.9760
B( 16-S , 17-C ) :   1.1667 B( 16-S , 20-C ) :   1.1613 B( 17-C , 18-C ) :   1.5492
B( 17-C , 20-C ) :   0.1122 B( 17-C , 33-H ) :   0.9624 B( 18-C , 19-C ) :   1.3116
B( 18-C , 21-H ) :   0.9856 B( 19-C , 20-C ) :   1.5355 B( 19-C , 22-C ) :   1.0420
B( 22-C , 23-H ) :   0.9375 B( 22-C , 24-H ) :   0.9342 B( 22-C , 25-C ) :   1.0572
B( 25-C , 26-H ) :   0.9605 B( 25-C , 27-H ) :   0.9511 B( 25-C , 28-C ) :   1.0784
B( 28-C , 29-H ) :   0.9734 B( 28-C , 30-H ) :   0.9757 B( 28-C , 31-H ) :   0.9708

Dispersion correction           -0.014125929
FINAL SINGLE POINT ENERGY     -1339.861312148552

DIPOLE MOMENT
-------------
                                X             Y             Z
Electronic contribution:    -14.36930      -9.44036     -14.92268
Nuclear contribution   :     14.68478       9.44098      15.61208
                        -----------------------------------------
Total Dipole Moment    :      0.31548       0.00062       0.68940
                        -----------------------------------------
Magnitude (a.u.)       :      0.75815
Magnitude (Debye)      :      1.92707

Rotational constants in cm-1:     0.020547     0.007279     0.006616
Rotational constants in MHz :   615.986959   218.206471   198.345959

                             ****ORCA TERMINATED NORMALLY****
TOTAL RUN TIME: 0 days 0 hours 0 minutes 32 seconds 148 msec
