                         Program Version 4.2.1 -  RELEASE  -
|  1> ! wB97X-D3 SP def2-SVP
|  2> %pal
|  3> nprocs 16
|  4> end
|  5>
|  6> * xyz 0 1
|  7> S 	 -44.9284 	 33.5024 	 90.6716
|  8> C 	 -45.6495 	 32.0176 	 90.1281
|  9> C 	 -46.6862 	 31.6369 	 91.0001
| 10> C 	 -46.8886 	 32.5469 	 92.1137
| 11> C 	 -45.9364 	 33.5619 	 92.1156
| 12> H 	 -47.6729 	 32.4569 	 92.9499
| 13> C 	 -47.6608 	 30.4486 	 90.6496
| 14> H 	 -47.2696 	 29.4994 	 90.9781
| 15> H 	 -47.9975 	 30.4142 	 89.6229
| 16> C 	 -48.9909 	 30.5289 	 91.4137
| 17> H 	 -48.8801 	 30.1353 	 92.4354
| 18> H 	 -49.2933 	 31.5357 	 91.5541
| 19> C 	 -50.2217 	 29.9831 	 90.7187
| 20> H 	 -50.1395 	 29.0225 	 90.2239
| 21> H 	 -51.0323 	 29.8207 	 91.4669
| 22> H 	 -50.504 	 30.6838 	 89.9368
| 23> S 	 -45.4272 	 36.2763 	 92.5966
| 24> C 	 -46.2032 	 37.0763 	 93.886
| 25> C 	 -46.6405 	 36.1022 	 94.794
| 26> C 	 -46.5978 	 34.7693 	 94.3336
| 27> C 	 -45.9327 	 34.6649 	 93.0901
| 28> H 	 -46.7692 	 36.474 	 95.7857
| 29> C 	 -47.0904 	 33.7073 	 95.2248
| 30> H 	 -47.953 	 33.1025 	 94.9694
| 31> H 	 -47.4129 	 34.3199 	 96.0543
| 32> C 	 -46.1116 	 32.6951 	 95.772
| 33> H 	 -45.2162 	 33.1991 	 96.1145
| 34> H 	 -45.7962 	 31.9822 	 95.0353
| 35> C 	 -46.6051 	 31.7985 	 96.911
| 36> H 	 -45.8009 	 31.3112 	 97.3882
| 37> H 	 -47.3368 	 31.0517 	 96.7187
| 38> H 	 -47.0579 	 32.4065 	 97.6859
| 39> H 	 -45.2841 	 31.596 	 89.1714
| 40> H 	 -46.0138 	 38.0542 	 94.2793
| 41> *
| 42>
| 43>                          ****END OF INPUT****

CARTESIAN COORDINATES (ANGSTROEM)
---------------------------------
  S    -44.928400   33.502400   90.671600
  C    -45.649500   32.017600   90.128100
  C    -46.686200   31.636900   91.000100
  C    -46.888600   32.546900   92.113700
  C    -45.936400   33.561900   92.115600
  H    -47.672900   32.456900   92.949900
  C    -47.660800   30.448600   90.649600
  H    -47.269600   29.499400   90.978100
  H    -47.997500   30.414200   89.622900
  C    -48.990900   30.528900   91.413700
  H    -48.880100   30.135300   92.435400
  H    -49.293300   31.535700   91.554100
  C    -50.221700   29.983100   90.718700
  H    -50.139500   29.022500   90.223900
  H    -51.032300   29.820700   91.466900
  H    -50.504000   30.683800   89.936800
  S    -45.427200   36.276300   92.596600
  C    -46.203200   37.076300   93.886000
  C    -46.640500   36.102200   94.794000
  C    -46.597800   34.769300   94.333600
  C    -45.932700   34.664900   93.090100
  H    -46.769200   36.474000   95.785700
  C    -47.090400   33.707300   95.224800
  H    -47.953000   33.102500   94.969400
  H    -47.412900   34.319900   96.054300
  C    -46.111600   32.695100   95.772000
  H    -45.216200   33.199100   96.114500
  H    -45.796200   31.982200   95.035300
  C    -46.605100   31.798500   96.911000
  H    -45.800900   31.311200   97.388200
  H    -47.336800   31.051700   96.718700
  H    -47.057900   32.406500   97.685900
  H    -45.284100   31.596000   89.171400
  H    -46.013800   38.054200   94.279300

 Total Charge           Charge          ....    0
 Multiplicity           Mult            ....    1
 Number of Electrons    NEL             ....  134
 Basis Dimension        Dim             ....  322

ORBITAL ENERGIES
----------------

  NO   OCC          E(Eh)            E(eV)
   0   2.0000     -88.968494     -2420.9558
   1   2.0000     -88.968436     -2420.9542
   2   2.0000     -10.336264      -281.2640
   3   2.0000     -10.334538      -281.2171
   4   2.0000     -10.321599      -280.8650
   5   2.0000     -10.313786      -280.6524
   6   2.0000     -10.313733      -280.6509
   7   2.0000     -10.306672      -280.4588
   8   2.0000     -10.304556      -280.4012
   9   2.0000     -10.293502      -280.1004
  10   2.0000     -10.291665      -280.0504
  11   2.0000     -10.286826      -279.9188
  12   2.0000     -10.279194      -279.7111
  13   2.0000     -10.278882      -279.7026
  14   2.0000     -10.278834      -279.7013
  15   2.0000     -10.269094      -279.4363
  16   2.0000      -8.083545      -219.9644
  17   2.0000      -8.083141      -219.9534
  18   2.0000      -6.042080      -164.4134
  19   2.0000      -6.041657      -164.4019
  20   2.0000      -6.037775      -164.2962
  21   2.0000      -6.037599      -164.2914
  22   2.0000      -6.034484      -164.2066
  23   2.0000      -6.033970      -164.1927
  24   2.0000      -1.008444       -27.4412
  25   2.0000      -0.985207       -26.8088
  26   2.0000      -0.918237       -24.9865
  27   2.0000      -0.910499       -24.7759
  28   2.0000      -0.870838       -23.6967
  29   2.0000      -0.858769       -23.3683
  30   2.0000      -0.844898       -22.9908
  31   2.0000      -0.814244       -22.1567
  32   2.0000      -0.786286       -21.3959
  33   2.0000      -0.774022       -21.0622
  34   2.0000      -0.713653       -19.4195
  35   2.0000      -0.699265       -19.0280
  36   2.0000      -0.686840       -18.6899
  37   2.0000      -0.663353       -18.0508
  38   2.0000      -0.638221       -17.3669
  39   2.0000      -0.621950       -16.9241
  40   2.0000      -0.602714       -16.4007
  41   2.0000      -0.576576       -15.6894
  42   2.0000      -0.567006       -15.4290
  43   2.0000      -0.564717       -15.3667
  44   2.0000      -0.527401       -14.3513
  45   2.0000      -0.520643       -14.1674
  46   2.0000      -0.514608       -14.0032
  47   2.0000      -0.508563       -13.8387
  48   2.0000      -0.507463       -13.8088
  49   2.0000      -0.500823       -13.6281
  50   2.0000      -0.494978       -13.4690
  51   2.0000      -0.488885       -13.3032
  52   2.0000      -0.478434       -13.0189
  53   2.0000      -0.465639       -12.6707
  54   2.0000      -0.459692       -12.5088
  55   2.0000      -0.450981       -12.2718
  56   2.0000      -0.448450       -12.2029
  57   2.0000      -0.433327       -11.7914
  58   2.0000      -0.429777       -11.6948
  59   2.0000      -0.427820       -11.6416
  60   2.0000      -0.417307       -11.3555
  61   2.0000      -0.412170       -11.2157
  62   2.0000      -0.405389       -11.0312
  63   2.0000      -0.361113        -9.8264
  64   2.0000      -0.335313        -9.1243
  65   2.0000      -0.328163        -8.9298
  66   2.0000      -0.283095        -7.7034
  67   0.0000       0.014608         0.3975
  68   0.0000       0.078914         2.1474
  69   0.0000       0.106083         2.8867
  70   0.0000       0.114722         3.1217
  71   0.0000       0.131884         3.5888

MULLIKEN ATOMIC CHARGES
-----------------------
   0 S :    0.104853
   1 C :   -0.143546
   2 C :   -0.084838
   3 C :   -0.036151
   4 C :   -0.102543
   5 H :    0.048972
   6 C :    0.104681
   7 H :    0.037365
   8 H :    0.031953
   9 C :   -0.128998
  10 H :    0.026480
  11 H :    0.026449
  12 C :   -0.054644
  13 H :    0.023170
  14 H :    0.038152
  15 H :    0.038132
  16 S :    0.102847
  17 C :   -0.076442
  18 C :   -0.068097
  19 C :   -0.044806
  20 C :   -0.104108
  21 H :    0.021235
  22 C :    0.051973
  23 H :    0.032798
  24 H :    0.003358
  25 C :   -0.051213
  26 H :    0.022425
  27 H :    0.027863
  28 C :   -0.032684
  29 H :    0.023871
  30 H :    0.021957
  31 H :    0.010430
  32 H :    0.071480
  33 H :    0.057628
Sum of atomic charges:    0.0000000

LOEWDIN ATOMIC CHARGES
----------------------
   0 S :    0.404707
   1 C :   -0.202945
   2 C :   -0.060221
   3 C :   -0.073837
   4 C :   -0.188752
   5 H :    0.049803
   6 C :   -0.025296
   7 H :    0.032962
   8 H :    0.029865
   9 C :   -0.051505
  10 H :    0.019984
  11 H :    0.019401
  12 C :   -0.066640
  13 H :    0.018018
  14 H :    0.034322
  15 H :    0.026481
  16 S :    0.430198
  17 C :   -0.207590
  18 C :   -0.070700
  19 C :   -0.061204
  20 C :   -0.188367
  21 H :    0.028443
  22 C :   -0.040712
  23 H :    0.028383
  24 H :    0.032675
  25 C :   -0.035423
  26 H :    0.024277
  27 H :    0.022478
  28 C :   -0.061399
  29 H :    0.024972
  30 H :    0.019201
  31 H :    0.020813
  32 H :    0.036884
  33 H :    0.030724

  Mayer bond orders larger than 0.100000
B(  0-S ,  1-C ) :   1.1467 B(  0-S ,  4-C ) :   1.1549 B(  1-C ,  2-C ) :   1.5903
B(  1-C , 32-H ) :   0.9734 B(  2-C ,  3-C ) :   1.2699 B(  2-C ,  6-C ) :   1.0020
B(  3-C ,  4-C ) :   1.5484 B(  3-C ,  5-H ) :   0.9653 B(  4-C , 20-C ) :   1.0693
B(  6-C ,  7-H ) :   0.9305 B(  6-C ,  8-H ) :   0.9601 B(  6-C ,  9-C ) :   1.0744
B(  9-C , 10-H ) :   0.9532 B(  9-C , 11-H ) :   0.9548 B(  9-C , 12-C ) :   1.0819
B( 12-C , 13-H ) :   0.9757 B( 12-C , 14-H ) :   0.9709 B( 12-C , 15-H ) :   0.9765
B( 16-S , 17-C ) :   1.1861 B( 16-S , 20-C ) :   1.1501 B( 17-C , 18-C ) :   1.5730
B( 17-C , 20-C ) :   0.1054 B( 17-C , 33-H ) :   0.9582 B( 18-C , 19-C ) :   1.3104
B( 18-C , 21-H ) :   0.9802 B( 19-C , 20-C ) :   1.5131 B( 19-C , 22-C ) :   1.0509
B( 22-C , 23-H ) :   0.9247 B( 22-C , 24-H ) :   0.9223 B( 22-C , 25-C ) :   1.0743
B( 25-C , 26-H ) :   0.9525 B( 25-C , 27-H ) :   0.9478 B( 25-C , 28-C ) :   1.0898
B( 28-C , 29-H ) :   0.9721 B( 28-C , 30-H ) :   0.9738 B( 28-C , 31-H ) :   0.9729

Dispersion correction           -0.013752999
FINAL SINGLE POINT ENERGY     -1339.856281420449

DIPOLE MOMENT
-------------
                                X             Y             Z
Electronic contribution:     18.19934      22.25957     -12.76078
Nuclear contribution   :    -18.54023     -22.61769      13.12923
                        -----------------------------------------
Total Dipole Moment    :     -0.34089      -0.35812       0.36845
                        -----------------------------------------
Magnitude (a.u.)       :      0.61661
Magnitude (Debye)      :      1.56731

Rotational constants in cm-1:     0.015936     0.009334     0.006970
Rotational constants in MHz :   477.743490   279.812721   208.946761

                             ****ORCA TERMINATED NORMALLY****
TOTAL RUN TIME: 0 days 0 hours 0 minutes 28 seconds 715 msec
