                         Program Version 4.2.1 -  RELEASE  -
|  1> ! wB97X-D3 SP def2-SVP
|  2> %pal
|  3> nprocs 16
|  4> end
|  5>
|  6> * xyz 0 1
|  7> S 	 0.700797 	 -10.9789 	 81.918
|  8> C 	 0.20234 	 -12.3789 	 82.8481
|  9> C 	 -1.12776 	 -12.7839 	 82.5333
| 10> C 	 -1.67112 	 -11.9202 	 81.5032
| 11> C 	 -0.876858 	 -10.9157 	 81.0994
| 12> H 	 -2.63401 	 -11.8489 	 81.1267
| 13> C 	 -1.79655 	 -13.995 	 83.0813
| 14> H 	 -1.22169 	 -14.8762 	 83.0285
| 15> H 	 -2.60294 	 -14.0064 	 82.333
| 16> C 	 -2.57221 	 -13.8781 	 84.3617
| 17> H 	 -1.78195 	 -13.8787 	 85.1387
| 18> H 	 -3.07366 	 -12.9005 	 84.2893
| 19> C 	 -3.45835 	 -15.1329 	 84.5748
| 20> H 	 -4.08683 	 -14.9467 	 85.4238
| 21> H 	 -4.20505 	 -15.3155 	 83.7802
| 22> H 	 -2.7727 	 -15.9741 	 84.7974
| 23> S 	 0.028782 	 -10.3235 	 78.6198
| 24> C 	 -0.691408 	 -8.98348 	 77.7421
| 25> C 	 -1.73317 	 -8.41351 	 78.4596
| 26> C 	 -1.89828 	 -8.98951 	 79.7264
| 27> C 	 -0.997731 	 -10.0366 	 79.9673
| 28> H 	 -2.34932 	 -7.64913 	 77.9763
| 29> C 	 -2.98661 	 -8.48091 	 80.6309
| 30> H 	 -3.80886 	 -9.1195 	 80.4533
| 31> H 	 -3.33794 	 -7.5161 	 80.3488
| 32> C 	 -2.69341 	 -8.37116 	 82.0704
| 33> H 	 -1.88437 	 -7.61371 	 82.2637
| 34> H 	 -2.25732 	 -9.29261 	 82.4187
| 35> C 	 -3.90903 	 -8.04493 	 82.9786
| 36> H 	 -4.15861 	 -7.05263 	 82.8069
| 37> H 	 -3.67339 	 -8.08415 	 84.0053
| 38> H 	 -4.87214 	 -8.54326 	 82.8634
| 39> H 	 0.820118 	 -12.9438 	 83.5377
| 40> H 	 -0.502819 	 -8.56406 	 76.767
| 41> *
| 42>
| 43>                          ****END OF INPUT****

CARTESIAN COORDINATES (ANGSTROEM)
---------------------------------
  S      0.700797  -10.978900   81.918000
  C      0.202340  -12.378900   82.848100
  C     -1.127760  -12.783900   82.533300
  C     -1.671120  -11.920200   81.503200
  C     -0.876858  -10.915700   81.099400
  H     -2.634010  -11.848900   81.126700
  C     -1.796550  -13.995000   83.081300
  H     -1.221690  -14.876200   83.028500
  H     -2.602940  -14.006400   82.333000
  C     -2.572210  -13.878100   84.361700
  H     -1.781950  -13.878700   85.138700
  H     -3.073660  -12.900500   84.289300
  C     -3.458350  -15.132900   84.574800
  H     -4.086830  -14.946700   85.423800
  H     -4.205050  -15.315500   83.780200
  H     -2.772700  -15.974100   84.797400
  S      0.028782  -10.323500   78.619800
  C     -0.691408   -8.983480   77.742100
  C     -1.733170   -8.413510   78.459600
  C     -1.898280   -8.989510   79.726400
  C     -0.997731  -10.036600   79.967300
  H     -2.349320   -7.649130   77.976300
  C     -2.986610   -8.480910   80.630900
  H     -3.808860   -9.119500   80.453300
  H     -3.337940   -7.516100   80.348800
  C     -2.693410   -8.371160   82.070400
  H     -1.884370   -7.613710   82.263700
  H     -2.257320   -9.292610   82.418700
  C     -3.909030   -8.044930   82.978600
  H     -4.158610   -7.052630   82.806900
  H     -3.673390   -8.084150   84.005300
  H     -4.872140   -8.543260   82.863400
  H      0.820118  -12.943800   83.537700
  H     -0.502819   -8.564060   76.767000

 Total Charge           Charge          ....    0
 Multiplicity           Mult            ....    1
 Number of Electrons    NEL             ....  134
 Basis Dimension        Dim             ....  322

ORBITAL ENERGIES
----------------

  NO   OCC          E(Eh)            E(eV)
   0   2.0000     -88.970341     -2421.0061
   1   2.0000     -88.963738     -2420.8264
   2   2.0000     -10.323714      -280.9225
   3   2.0000     -10.321961      -280.8748
   4   2.0000     -10.317063      -280.7416
   5   2.0000     -10.314731      -280.6781
   6   2.0000     -10.305427      -280.4249
   7   2.0000     -10.300021      -280.2778
   8   2.0000     -10.289994      -280.0050
   9   2.0000     -10.289011      -279.9782
  10   2.0000     -10.288650      -279.9684
  11   2.0000     -10.283562      -279.8299
  12   2.0000     -10.281824      -279.7826
  13   2.0000     -10.279132      -279.7094
  14   2.0000     -10.278336      -279.6877
  15   2.0000     -10.265861      -279.3483
  16   2.0000      -8.084948      -220.0026
  17   2.0000      -8.078023      -219.8142
  18   2.0000      -6.043482      -164.4515
  19   2.0000      -6.039338      -164.3387
  20   2.0000      -6.036500      -164.2615
  21   2.0000      -6.035796      -164.2424
  22   2.0000      -6.032537      -164.1537
  23   2.0000      -6.028889      -164.0544
  24   2.0000      -1.009667       -27.4744
  25   2.0000      -0.981854       -26.7176
  26   2.0000      -0.919085       -25.0096
  27   2.0000      -0.915081       -24.9006
  28   2.0000      -0.871363       -23.7110
  29   2.0000      -0.852194       -23.1894
  30   2.0000      -0.847897       -23.0725
  31   2.0000      -0.818632       -22.2761
  32   2.0000      -0.786714       -21.4076
  33   2.0000      -0.770775       -20.9739
  34   2.0000      -0.712732       -19.3944
  35   2.0000      -0.700380       -19.0583
  36   2.0000      -0.690420       -18.7873
  37   2.0000      -0.660536       -17.9741
  38   2.0000      -0.648188       -17.6381
  39   2.0000      -0.621645       -16.9158
  40   2.0000      -0.597924       -16.2703
  41   2.0000      -0.574144       -15.6233
  42   2.0000      -0.568971       -15.4825
  43   2.0000      -0.564475       -15.3601
  44   2.0000      -0.525509       -14.2998
  45   2.0000      -0.524087       -14.2611
  46   2.0000      -0.513253       -13.9663
  47   2.0000      -0.508206       -13.8290
  48   2.0000      -0.504002       -13.7146
  49   2.0000      -0.501409       -13.6440
  50   2.0000      -0.494427       -13.4540
  51   2.0000      -0.491083       -13.3631
  52   2.0000      -0.470094       -12.7919
  53   2.0000      -0.469070       -12.7640
  54   2.0000      -0.463378       -12.6091
  55   2.0000      -0.446056       -12.1378
  56   2.0000      -0.442605       -12.0439
  57   2.0000      -0.438764       -11.9394
  58   2.0000      -0.433658       -11.8004
  59   2.0000      -0.428505       -11.6602
  60   2.0000      -0.423650       -11.5281
  61   2.0000      -0.409191       -11.1347
  62   2.0000      -0.403248       -10.9729
  63   2.0000      -0.344809        -9.3827
  64   2.0000      -0.330177        -8.9846
  65   2.0000      -0.322528        -8.7764
  66   2.0000      -0.296757        -8.0752
  67   0.0000       0.035438         0.9643
  68   0.0000       0.061326         1.6688
  69   0.0000       0.116820         3.1788
  70   0.0000       0.122462         3.3324
  71   0.0000       0.123836         3.3698

MULLIKEN ATOMIC CHARGES
-----------------------
   0 S :    0.103706
   1 C :   -0.105584
   2 C :   -0.104554
   3 C :    0.094908
   4 C :   -0.213344
   5 H :   -0.016176
   6 C :    0.062175
   7 H :    0.024564
   8 H :    0.009228
   9 C :   -0.071480
  10 H :    0.024812
  11 H :    0.033605
  12 C :   -0.041667
  13 H :    0.029973
  14 H :    0.037254
  15 H :    0.043183
  16 S :    0.144690
  17 C :   -0.085277
  18 C :   -0.067907
  19 C :   -0.005607
  20 C :   -0.170178
  21 H :    0.023514
  22 C :    0.134953
  23 H :    0.016722
  24 H :   -0.001567
  25 C :   -0.105784
  26 H :    0.035424
  27 H :    0.040378
  28 C :   -0.008787
  29 H :    0.001184
  30 H :    0.022063
  31 H :    0.023156
  32 H :    0.046289
  33 H :    0.046130
Sum of atomic charges:    0.0000000

LOEWDIN ATOMIC CHARGES
----------------------
   0 S :    0.390447
   1 C :   -0.192824
   2 C :   -0.059600
   3 C :   -0.054778
   4 C :   -0.187891
   5 H :    0.023269
   6 C :   -0.040295
   7 H :    0.023563
   8 H :    0.034069
   9 C :   -0.038262
  10 H :    0.023125
  11 H :    0.026801
  12 C :   -0.065719
  13 H :    0.024663
  14 H :    0.028068
  15 H :    0.032949
  16 S :    0.435627
  17 C :   -0.190455
  18 C :   -0.072509
  19 C :   -0.050600
  20 C :   -0.222368
  21 H :    0.035245
  22 C :   -0.029815
  23 H :    0.029395
  24 H :    0.025458
  25 C :   -0.040055
  26 H :    0.032840
  27 H :    0.020145
  28 C :   -0.062474
  29 H :    0.014945
  30 H :    0.023854
  31 H :    0.025690
  32 H :    0.026843
  33 H :    0.030649

  Mayer bond orders larger than 0.100000
B(  0-S ,  1-C ) :   1.1465 B(  0-S ,  4-C ) :   1.1254 B(  1-C ,  2-C ) :   1.5994
B(  1-C , 32-H ) :   0.9701 B(  2-C ,  3-C ) :   1.2217 B(  2-C ,  6-C ) :   1.0135
B(  3-C ,  4-C ) :   1.6306 B(  3-C ,  5-H ) :   0.9903 B(  4-C , 20-C ) :   1.0192
B(  6-C ,  7-H ) :   0.9450 B(  6-C ,  8-H ) :   0.9386 B(  6-C ,  9-C ) :   1.0591
B(  9-C , 10-H ) :   0.9542 B(  9-C , 11-H ) :   0.9550 B(  9-C , 12-C ) :   1.0779
B( 12-C , 13-H ) :   0.9740 B( 12-C , 14-H ) :   0.9755 B( 12-C , 15-H ) :   0.9725
B( 16-S , 17-C ) :   1.1584 B( 16-S , 20-C ) :   1.1591 B( 17-C , 18-C ) :   1.6038
B( 17-C , 20-C ) :   0.1040 B( 17-C , 33-H ) :   0.9641 B( 18-C , 19-C ) :   1.2754
B( 18-C , 21-H ) :   0.9867 B( 19-C , 20-C ) :   1.5584 B( 19-C , 22-C ) :   1.0333
B( 22-C , 23-H ) :   0.9164 B( 22-C , 24-H ) :   0.9321 B( 22-C , 25-C ) :   1.0696
B( 25-C , 26-H ) :   0.9535 B( 25-C , 27-H ) :   0.9526 B( 25-C , 28-C ) :   1.0785
B( 28-C , 29-H ) :   0.9707 B( 28-C , 30-H ) :   0.9726 B( 28-C , 31-H ) :   0.9756

Dispersion correction           -0.014285895
FINAL SINGLE POINT ENERGY     -1339.859996900993

DIPOLE MOMENT
-------------
                                X             Y             Z
Electronic contribution:     21.95566       4.63736     -19.00755
Nuclear contribution   :    -22.56837      -4.72595      19.14963
                        -----------------------------------------
Total Dipole Moment    :     -0.61271      -0.08858       0.14208
                        -----------------------------------------
Magnitude (a.u.)       :      0.63517
Magnitude (Debye)      :      1.61448

Rotational constants in cm-1:     0.019181     0.008429     0.006842
Rotational constants in MHz :   575.029960   252.698887   205.129127

                             ****ORCA TERMINATED NORMALLY****
TOTAL RUN TIME: 0 days 0 hours 0 minutes 33 seconds 637 msec
