                         Program Version 4.2.1 -  RELEASE  -
|  1> ! wB97X-D3 SP def2-SVP
|  2> %pal
|  3> nprocs 16
|  4> end
|  5>
|  6> * xyz 0 1
|  7> S 	 14.3597 	 8.42829 	 87.4096
|  8> C 	 14.9091 	 8.71674 	 85.8272
|  9> C 	 14.4055 	 9.86193 	 85.2057
| 10> C 	 13.6136 	 10.6394 	 86.1629
| 11> C 	 13.6058 	 10.1002 	 87.4118
| 12> H 	 13.2406 	 11.6276 	 86.0745
| 13> C 	 14.7744 	 10.4803 	 83.8757
| 14> H 	 14.2047 	 11.4119 	 83.7044
| 15> H 	 14.4311 	 9.65949 	 83.1503
| 16> C 	 16.2205 	 10.7085 	 83.5017
| 17> H 	 16.6926 	 9.77089 	 83.7948
| 18> H 	 16.3615 	 10.8959 	 82.423
| 19> C 	 16.8473 	 11.957 	 84.1227
| 20> H 	 17.8754 	 12.0498 	 83.9332
| 21> H 	 16.2901 	 12.7718 	 83.7905
| 22> H 	 16.8593 	 12.0133 	 85.2221
| 23> S 	 13.901 	 11.286 	 89.9421
| 24> C 	 12.4288 	 11.5166 	 90.7799
| 25> C 	 11.3059 	 11.4912 	 89.9264
| 26> C 	 11.5945 	 10.9977 	 88.6681
| 27> C 	 12.9269 	 10.6842 	 88.4932
| 28> H 	 10.3572 	 11.8232 	 90.2451
| 29> C 	 10.513 	 10.781 	 87.6381
| 30> H 	 10.9559 	 10.3346 	 86.7345
| 31> H 	 10.3633 	 11.8035 	 87.3835
| 32> C 	 9.27053 	 9.95259 	 88.0426
| 33> H 	 9.0013 	 10.2081 	 89.0455
| 34> H 	 9.38504 	 8.84312 	 88.0316
| 35> C 	 8.11761 	 10.2183 	 87.1053
| 36> H 	 8.26724 	 10.1699 	 86.0472
| 37> H 	 7.59821 	 11.228 	 87.2893
| 38> H 	 7.43309 	 9.41179 	 87.3228
| 39> H 	 15.7831 	 8.20961 	 85.3987
| 40> H 	 12.3475 	 11.898 	 91.7847
| 41> *
| 42>
| 43>                          ****END OF INPUT****

CARTESIAN COORDINATES (ANGSTROEM)
---------------------------------
  S     14.359700    8.428290   87.409600
  C     14.909100    8.716740   85.827200
  C     14.405500    9.861930   85.205700
  C     13.613600   10.639400   86.162900
  C     13.605800   10.100200   87.411800
  H     13.240600   11.627600   86.074500
  C     14.774400   10.480300   83.875700
  H     14.204700   11.411900   83.704400
  H     14.431100    9.659490   83.150300
  C     16.220500   10.708500   83.501700
  H     16.692600    9.770890   83.794800
  H     16.361500   10.895900   82.423000
  C     16.847300   11.957000   84.122700
  H     17.875400   12.049800   83.933200
  H     16.290100   12.771800   83.790500
  H     16.859300   12.013300   85.222100
  S     13.901000   11.286000   89.942100
  C     12.428800   11.516600   90.779900
  C     11.305900   11.491200   89.926400
  C     11.594500   10.997700   88.668100
  C     12.926900   10.684200   88.493200
  H     10.357200   11.823200   90.245100
  C     10.513000   10.781000   87.638100
  H     10.955900   10.334600   86.734500
  H     10.363300   11.803500   87.383500
  C      9.270530    9.952590   88.042600
  H      9.001300   10.208100   89.045500
  H      9.385040    8.843120   88.031600
  C      8.117610   10.218300   87.105300
  H      8.267240   10.169900   86.047200
  H      7.598210   11.228000   87.289300
  H      7.433090    9.411790   87.322800
  H     15.783100    8.209610   85.398700
  H     12.347500   11.898000   91.784700

 Total Charge           Charge          ....    0
 Multiplicity           Mult            ....    1
 Number of Electrons    NEL             ....  134
 Basis Dimension        Dim             ....  322

ORBITAL ENERGIES
----------------

  NO   OCC          E(Eh)            E(eV)
   0   2.0000     -88.963271     -2420.8137
   1   2.0000     -88.963162     -2420.8107
   2   2.0000     -10.321320      -280.8574
   3   2.0000     -10.318696      -280.7860
   4   2.0000     -10.317766      -280.7607
   5   2.0000     -10.312302      -280.6120
   6   2.0000     -10.304667      -280.4042
   7   2.0000     -10.298141      -280.2267
   8   2.0000     -10.297090      -280.1981
   9   2.0000     -10.292199      -280.0650
  10   2.0000     -10.289099      -279.9806
  11   2.0000     -10.287968      -279.9498
  12   2.0000     -10.287952      -279.9494
  13   2.0000     -10.286426      -279.9079
  14   2.0000     -10.278203      -279.6841
  15   2.0000     -10.266985      -279.3789
  16   2.0000      -8.077733      -219.8063
  17   2.0000      -8.077618      -219.8032
  18   2.0000      -6.036285      -164.2557
  19   2.0000      -6.035915      -164.2456
  20   2.0000      -6.032445      -164.1512
  21   2.0000      -6.032391      -164.1497
  22   2.0000      -6.028419      -164.0416
  23   2.0000      -6.028271      -164.0376
  24   2.0000      -1.001937       -27.2641
  25   2.0000      -0.979890       -26.6642
  26   2.0000      -0.912718       -24.8363
  27   2.0000      -0.910806       -24.7843
  28   2.0000      -0.875242       -23.8165
  29   2.0000      -0.857038       -23.3212
  30   2.0000      -0.848940       -23.1008
  31   2.0000      -0.808345       -21.9962
  32   2.0000      -0.785470       -21.3737
  33   2.0000      -0.768084       -20.9006
  34   2.0000      -0.706547       -19.2261
  35   2.0000      -0.704285       -19.1646
  36   2.0000      -0.695711       -18.9313
  37   2.0000      -0.660929       -17.9848
  38   2.0000      -0.642340       -17.4790
  39   2.0000      -0.604917       -16.4606
  40   2.0000      -0.593710       -16.1557
  41   2.0000      -0.580136       -15.7863
  42   2.0000      -0.561716       -15.2851
  43   2.0000      -0.549025       -14.9397
  44   2.0000      -0.544156       -14.8072
  45   2.0000      -0.533553       -14.5187
  46   2.0000      -0.518311       -14.1039
  47   2.0000      -0.513356       -13.9691
  48   2.0000      -0.504402       -13.7255
  49   2.0000      -0.497327       -13.5330
  50   2.0000      -0.487486       -13.2652
  51   2.0000      -0.477911       -13.0046
  52   2.0000      -0.471010       -12.8168
  53   2.0000      -0.465290       -12.6612
  54   2.0000      -0.457595       -12.4518
  55   2.0000      -0.448150       -12.1948
  56   2.0000      -0.443377       -12.0649
  57   2.0000      -0.438026       -11.9193
  58   2.0000      -0.435423       -11.8485
  59   2.0000      -0.425415       -11.5761
  60   2.0000      -0.423123       -11.5138
  61   2.0000      -0.410941       -11.1823
  62   2.0000      -0.405334       -11.0297
  63   2.0000      -0.337193        -9.1755
  64   2.0000      -0.333962        -9.0876
  65   2.0000      -0.315141        -8.5754
  66   2.0000      -0.294110        -8.0031
  67   0.0000       0.024069         0.6550
  68   0.0000       0.061985         1.6867
  69   0.0000       0.100514         2.7351
  70   0.0000       0.115839         3.1521
  71   0.0000       0.131419         3.5761

MULLIKEN ATOMIC CHARGES
-----------------------
   0 S :    0.113295
   1 C :   -0.123853
   2 C :   -0.077144
   3 C :    0.032522
   4 C :   -0.166149
   5 H :    0.009929
   6 C :    0.025846
   7 H :    0.024066
   8 H :    0.049459
   9 C :   -0.055767
  10 H :    0.016218
  11 H :    0.037012
  12 C :   -0.019343
  13 H :    0.022447
  14 H :    0.012474
  15 H :    0.027268
  16 S :    0.106021
  17 C :   -0.074676
  18 C :   -0.051751
  19 C :    0.008262
  20 C :   -0.214730
  21 H :   -0.001673
  22 C :    0.086571
  23 H :    0.028050
  24 H :    0.028484
  25 C :   -0.047635
  26 H :    0.018387
  27 H :    0.044666
  28 C :   -0.068717
  29 H :    0.029933
  30 H :    0.039534
  31 H :    0.026488
  32 H :    0.059265
  33 H :    0.055242
Sum of atomic charges:   -0.0000000

LOEWDIN ATOMIC CHARGES
----------------------
   0 S :    0.384917
   1 C :   -0.215336
   2 C :   -0.064542
   3 C :   -0.044679
   4 C :   -0.178397
   5 H :    0.028808
   6 C :   -0.041472
   7 H :    0.028249
   8 H :    0.047565
   9 C :   -0.040226
  10 H :    0.019892
  11 H :    0.031388
  12 C :   -0.061538
  13 H :    0.020963
  14 H :    0.016402
  15 H :    0.028068
  16 S :    0.384028
  17 C :   -0.181479
  18 C :   -0.075348
  19 C :   -0.043833
  20 C :   -0.186437
  21 H :    0.021670
  22 C :   -0.030301
  23 H :    0.033773
  24 H :    0.034342
  25 C :   -0.034869
  26 H :    0.018918
  27 H :    0.035479
  28 C :   -0.069818
  29 H :    0.020638
  30 H :    0.031209
  31 H :    0.025737
  32 H :    0.030034
  33 H :    0.026198

  Mayer bond orders larger than 0.100000
B(  0-S ,  1-C ) :   1.1465 B(  0-S ,  4-C ) :   1.0927 B(  1-C ,  2-C ) :   1.6303
B(  1-C , 32-H ) :   0.9559 B(  2-C ,  3-C ) :   1.1937 B(  2-C ,  6-C ) :   1.0216
B(  3-C ,  4-C ) :   1.6206 B(  3-C ,  5-H ) :   0.9967 B(  4-C , 20-C ) :   1.1055
B(  6-C ,  7-H ) :   0.9489 B(  6-C ,  8-H ) :   0.9264 B(  6-C ,  9-C ) :   1.0823
B(  9-C , 10-H ) :   0.9516 B(  9-C , 11-H ) :   0.9529 B(  9-C , 12-C ) :   1.0756
B( 12-C , 13-H ) :   0.9732 B( 12-C , 14-H ) :   0.9734 B( 12-C , 15-H ) :   0.9758
B( 16-S , 17-C ) :   1.1857 B( 16-S , 20-C ) :   1.1049 B( 17-C , 18-C ) :   1.5677
B( 17-C , 20-C ) :   0.1075 B( 17-C , 33-H ) :   0.9656 B( 18-C , 19-C ) :   1.2637
B( 18-C , 21-H ) :   0.9964 B( 19-C , 20-C ) :   1.5771 B( 19-C , 22-C ) :   1.0211
B( 22-C , 23-H ) :   0.9243 B( 22-C , 24-H ) :   0.9356 B( 22-C , 25-C ) :   1.0546
B( 25-C , 26-H ) :   0.9567 B( 25-C , 27-H ) :   0.9590 B( 25-C , 28-C ) :   1.0800
B( 28-C , 29-H ) :   0.9757 B( 28-C , 30-H ) :   0.9748 B( 28-C , 31-H ) :   0.9756

Dispersion correction           -0.014033586
FINAL SINGLE POINT ENERGY     -1339.849239339023

DIPOLE MOMENT
-------------
                                X             Y             Z
Electronic contribution:      9.14865      -5.99978      18.65980
Nuclear contribution   :     -9.45631       6.38067     -19.04816
                        -----------------------------------------
Total Dipole Moment    :     -0.30766       0.38088      -0.38836
                        -----------------------------------------
Magnitude (a.u.)       :      0.62494
Magnitude (Debye)      :      1.58848

Rotational constants in cm-1:     0.018342     0.008014     0.006785
Rotational constants in MHz :   549.871486   240.248757   203.408532

                             ****ORCA TERMINATED NORMALLY****
TOTAL RUN TIME: 0 days 0 hours 0 minutes 34 seconds 507 msec
