                         Program Version 4.2.1 -  RELEASE  -
|  1> ! wB97X-D3 SP def2-SVP
|  2> %pal
|  3> nprocs 16
|  4> end
|  5>
|  6> * xyz 0 1
|  7> S 	 -8.54548 	 43.8599 	 36.9547
|  8> C 	 -7.93792 	 44.8374 	 35.6793
|  9> C 	 -7.32534 	 46.004 	 36.1017
| 10> C 	 -7.2316 	 45.9798 	 37.4924
| 11> C 	 -7.7396 	 44.8809 	 38.1211
| 12> H 	 -6.93613 	 46.7636 	 38.1585
| 13> C 	 -6.99547 	 47.1433 	 35.1884
| 14> H 	 -5.97662 	 47.0184 	 34.8833
| 15> H 	 -7.09043 	 48.0364 	 35.816
| 16> C 	 -7.93552 	 47.3603 	 34.0448
| 17> H 	 -7.562 	 48.223 	 33.4769
| 18> H 	 -7.75495 	 46.4928 	 33.3614
| 19> C 	 -9.44306 	 47.6336 	 34.4385
| 20> H 	 -9.88126 	 46.8194 	 35.0297
| 21> H 	 -9.58564 	 48.5882 	 34.976
| 22> H 	 -9.96603 	 47.7973 	 33.5243
| 23> S 	 -9.44154 	 43.9312 	 40.072
| 24> C 	 -8.73902 	 43.6842 	 41.6698
| 25> C 	 -7.4495 	 44.1722 	 41.8135
| 26> C 	 -6.93787 	 44.7191 	 40.598
| 27> C 	 -7.83155 	 44.5556 	 39.5576
| 28> H 	 -6.98044 	 43.9971 	 42.7221
| 29> C 	 -5.53973 	 45.2293 	 40.5129
| 30> H 	 -5.48457 	 45.741 	 39.528
| 31> H 	 -4.98733 	 44.2488 	 40.4253
| 32> C 	 -5.0474 	 46.0617 	 41.801
| 33> H 	 -4.66437 	 45.4525 	 42.6679
| 34> H 	 -5.76165 	 46.7366 	 42.2167
| 35> C 	 -3.80579 	 46.8591 	 41.4539
| 36> H 	 -3.99065 	 47.474 	 40.6636
| 37> H 	 -3.01073 	 46.1337 	 41.2923
| 38> H 	 -3.57149 	 47.639 	 42.2514
| 39> H 	 -8.18492 	 44.5822 	 34.5963
| 40> H 	 -9.20455 	 43.1881 	 42.4286
| 41> *
| 42>
| 43>                          ****END OF INPUT****

CARTESIAN COORDINATES (ANGSTROEM)
---------------------------------
  S     -8.545480   43.859900   36.954700
  C     -7.937920   44.837400   35.679300
  C     -7.325340   46.004000   36.101700
  C     -7.231600   45.979800   37.492400
  C     -7.739600   44.880900   38.121100
  H     -6.936130   46.763600   38.158500
  C     -6.995470   47.143300   35.188400
  H     -5.976620   47.018400   34.883300
  H     -7.090430   48.036400   35.816000
  C     -7.935520   47.360300   34.044800
  H     -7.562000   48.223000   33.476900
  H     -7.754950   46.492800   33.361400
  C     -9.443060   47.633600   34.438500
  H     -9.881260   46.819400   35.029700
  H     -9.585640   48.588200   34.976000
  H     -9.966030   47.797300   33.524300
  S     -9.441540   43.931200   40.072000
  C     -8.739020   43.684200   41.669800
  C     -7.449500   44.172200   41.813500
  C     -6.937870   44.719100   40.598000
  C     -7.831550   44.555600   39.557600
  H     -6.980440   43.997100   42.722100
  C     -5.539730   45.229300   40.512900
  H     -5.484570   45.741000   39.528000
  H     -4.987330   44.248800   40.425300
  C     -5.047400   46.061700   41.801000
  H     -4.664370   45.452500   42.667900
  H     -5.761650   46.736600   42.216700
  C     -3.805790   46.859100   41.453900
  H     -3.990650   47.474000   40.663600
  H     -3.010730   46.133700   41.292300
  H     -3.571490   47.639000   42.251400
  H     -8.184920   44.582200   34.596300
  H     -9.204550   43.188100   42.428600

 Total Charge           Charge          ....    0
 Multiplicity           Mult            ....    1
 Number of Electrons    NEL             ....  134
 Basis Dimension        Dim             ....  322

ORBITAL ENERGIES
----------------

  NO   OCC          E(Eh)            E(eV)
   0   2.0000     -88.964393     -2420.8442
   1   2.0000     -88.963588     -2420.8223
   2   2.0000     -10.326345      -280.9941
   3   2.0000     -10.323431      -280.9148
   4   2.0000     -10.311709      -280.5959
   5   2.0000     -10.309210      -280.5279
   6   2.0000     -10.302803      -280.3535
   7   2.0000     -10.301832      -280.3271
   8   2.0000     -10.295012      -280.1415
   9   2.0000     -10.294808      -280.1360
  10   2.0000     -10.291854      -280.0556
  11   2.0000     -10.286999      -279.9235
  12   2.0000     -10.286575      -279.9119
  13   2.0000     -10.285738      -279.8892
  14   2.0000     -10.280059      -279.7346
  15   2.0000     -10.273888      -279.5667
  16   2.0000      -8.079054      -219.8422
  17   2.0000      -8.078246      -219.8202
  18   2.0000      -6.037413      -164.2864
  19   2.0000      -6.036761      -164.2686
  20   2.0000      -6.033501      -164.1799
  21   2.0000      -6.033182      -164.1712
  22   2.0000      -6.029903      -164.0820
  23   2.0000      -6.028768      -164.0511
  24   2.0000      -1.008403       -27.4400
  25   2.0000      -0.982679       -26.7401
  26   2.0000      -0.916064       -24.9274
  27   2.0000      -0.905783       -24.6476
  28   2.0000      -0.863327       -23.4923
  29   2.0000      -0.858819       -23.3697
  30   2.0000      -0.848052       -23.0767
  31   2.0000      -0.812633       -22.1129
  32   2.0000      -0.785561       -21.3762
  33   2.0000      -0.769235       -20.9320
  34   2.0000      -0.707251       -19.2453
  35   2.0000      -0.703034       -19.1305
  36   2.0000      -0.694881       -18.9087
  37   2.0000      -0.661850       -18.0098
  38   2.0000      -0.638728       -17.3807
  39   2.0000      -0.610472       -16.6118
  40   2.0000      -0.589800       -16.0493
  41   2.0000      -0.574900       -15.6438
  42   2.0000      -0.572593       -15.5811
  43   2.0000      -0.563450       -15.3323
  44   2.0000      -0.540614       -14.7109
  45   2.0000      -0.528356       -14.3773
  46   2.0000      -0.518059       -14.0971
  47   2.0000      -0.506282       -13.7766
  48   2.0000      -0.502913       -13.6850
  49   2.0000      -0.493646       -13.4328
  50   2.0000      -0.487137       -13.2557
  51   2.0000      -0.474425       -12.9098
  52   2.0000      -0.467305       -12.7160
  53   2.0000      -0.459873       -12.5138
  54   2.0000      -0.456028       -12.4092
  55   2.0000      -0.453298       -12.3349
  56   2.0000      -0.445915       -12.1340
  57   2.0000      -0.437039       -11.8924
  58   2.0000      -0.433337       -11.7917
  59   2.0000      -0.429258       -11.6807
  60   2.0000      -0.427040       -11.6203
  61   2.0000      -0.419480       -11.4146
  62   2.0000      -0.410782       -11.1779
  63   2.0000      -0.348489        -9.4829
  64   2.0000      -0.332718        -9.0537
  65   2.0000      -0.329009        -8.9528
  66   2.0000      -0.281533        -7.6609
  67   0.0000       0.029138         0.7929
  68   0.0000       0.071496         1.9455
  69   0.0000       0.101693         2.7672
  70   0.0000       0.125404         3.4124
  71   0.0000       0.133209         3.6248

MULLIKEN ATOMIC CHARGES
-----------------------
   0 S :    0.110731
   1 C :   -0.161089
   2 C :   -0.089182
   3 C :    0.012856
   4 C :   -0.167992
   5 H :    0.004167
   6 C :    0.117142
   7 H :    0.039123
   8 H :    0.015614
   9 C :   -0.113090
  10 H :    0.029862
  11 H :    0.029838
  12 C :   -0.043895
  13 H :    0.055748
  14 H :    0.033092
  15 H :    0.029905
  16 S :    0.089752
  17 C :   -0.044022
  18 C :   -0.017990
  19 C :   -0.044236
  20 C :   -0.139364
  21 H :   -0.005773
  22 C :    0.059313
  23 H :    0.023066
  24 H :    0.060671
  25 C :   -0.094667
  26 H :    0.041258
  27 H :    0.033491
  28 C :   -0.029734
  29 H :    0.007074
  30 H :    0.039195
  31 H :    0.034344
  32 H :    0.069955
  33 H :    0.014836
Sum of atomic charges:    0.0000000

LOEWDIN ATOMIC CHARGES
----------------------
   0 S :    0.416947
   1 C :   -0.214511
   2 C :   -0.069592
   3 C :   -0.070966
   4 C :   -0.194316
   5 H :    0.028054
   6 C :   -0.032045
   7 H :    0.033849
   8 H :    0.031093
   9 C :   -0.044864
  10 H :    0.027641
  11 H :    0.023382
  12 C :   -0.063668
  13 H :    0.029657
  14 H :    0.029666
  15 H :    0.024021
  16 S :    0.367963
  17 C :   -0.156927
  18 C :   -0.058585
  19 C :   -0.057824
  20 C :   -0.183527
  21 H :    0.022102
  22 C :   -0.034662
  23 H :    0.033430
  24 H :    0.051088
  25 C :   -0.040619
  26 H :    0.033097
  27 H :    0.020347
  28 C :   -0.061183
  29 H :    0.006539
  30 H :    0.027190
  31 H :    0.034559
  32 H :    0.036269
  33 H :    0.006395

  Mayer bond orders larger than 0.100000
B(  0-S ,  1-C ) :   1.1579 B(  0-S ,  4-C ) :   1.1550 B(  1-C ,  2-C ) :   1.5842
B(  1-C ,  4-C ) :   0.1004 B(  1-C , 32-H ) :   0.9558 B(  2-C ,  3-C ) :   1.2665
B(  2-C ,  6-C ) :   0.9963 B(  3-C ,  4-C ) :   1.5768 B(  3-C ,  5-H ) :   0.9892
B(  4-C , 20-C ) :   1.0309 B(  6-C ,  7-H ) :   0.9251 B(  6-C ,  8-H ) :   0.9425
B(  6-C ,  9-C ) :   1.0941 B(  9-C , 10-H ) :   0.9523 B(  9-C , 11-H ) :   0.9491
B(  9-C , 12-C ) :   1.0671 B( 12-C , 13-H ) :   0.9756 B( 12-C , 14-H ) :   0.9731
B( 12-C , 15-H ) :   0.9746 B( 16-S , 17-C ) :   1.1336 B( 16-S , 20-C ) :   1.1177
B( 17-C , 18-C ) :   1.6519 B( 17-C , 33-H ) :   0.9739 B( 18-C , 19-C ) :   1.1884
B( 18-C , 21-H ) :   1.0010 B( 19-C , 20-C ) :   1.6344 B( 19-C , 22-C ) :   1.0456
B( 22-C , 23-H ) :   0.9395 B( 22-C , 24-H ) :   0.9228 B( 22-C , 25-C ) :   1.0347
B( 25-C , 26-H ) :   0.9525 B( 25-C , 27-H ) :   0.9677 B( 25-C , 28-C ) :   1.0915
B( 28-C , 29-H ) :   0.9753 B( 28-C , 30-H ) :   0.9761 B( 28-C , 31-H ) :   0.9718

Dispersion correction           -0.013916378
FINAL SINGLE POINT ENERGY     -1339.860041732473

DIPOLE MOMENT
-------------
                                X             Y             Z
Electronic contribution:    -14.58243     -18.69937       4.02559
Nuclear contribution   :     14.99316      19.16292      -3.96907
                        -----------------------------------------
Total Dipole Moment    :      0.41074       0.46356       0.05652
                        -----------------------------------------
Magnitude (a.u.)       :      0.62192
Magnitude (Debye)      :      1.58079

Rotational constants in cm-1:     0.019360     0.008219     0.006278
Rotational constants in MHz :   580.412205   246.406475   188.197408

                             ****ORCA TERMINATED NORMALLY****
TOTAL RUN TIME: 0 days 0 hours 0 minutes 33 seconds 679 msec
