                         Program Version 4.2.1 -  RELEASE  -
|  1> ! wB97X-D3 SP def2-SVP
|  2> %pal
|  3> nprocs 16
|  4> end
|  5>
|  6> * xyz 0 1
|  7> S 	 -21.6815 	 34.687 	 38.4758
|  8> C 	 -20.6528 	 33.2706 	 38.465
|  9> C 	 -20.8029 	 32.4491 	 39.549
| 10> C 	 -21.7684 	 33.0148 	 40.4564
| 11> C 	 -22.3957 	 34.168 	 40.0595
| 12> H 	 -22.0864 	 32.6013 	 41.3589
| 13> C 	 -20.1163 	 31.1178 	 39.8214
| 14> H 	 -20.4009 	 30.759 	 40.8289
| 15> H 	 -19.0343 	 31.1833 	 39.9689
| 16> C 	 -20.4864 	 29.9187 	 38.8775
| 17> H 	 -21.4159 	 30.0979 	 38.4092
| 18> H 	 -19.7903 	 29.9583 	 38.0195
| 19> C 	 -20.5178 	 28.5476 	 39.6494
| 20> H 	 -20.7354 	 27.767 	 38.9049
| 21> H 	 -19.651 	 28.3348 	 40.1714
| 22> H 	 -21.3337 	 28.6661 	 40.409
| 23> S 	 -24.9784 	 34.6066 	 39.383
| 24> C 	 -26.0477 	 35.2831 	 40.6181
| 25> C 	 -25.4808 	 35.3017 	 41.8788
| 26> C 	 -24.0572 	 35.0364 	 41.7605
| 27> C 	 -23.6389 	 34.7497 	 40.4575
| 28> H 	 -26.0375 	 35.4956 	 42.7707
| 29> C 	 -23.2179 	 35.0957 	 42.9993
| 30> H 	 -22.9233 	 36.2132 	 43.1349
| 31> H 	 -22.2295 	 34.6262 	 42.8498
| 32> C 	 -23.9423 	 34.5304 	 44.1966
| 33> H 	 -24.3785 	 33.6151 	 44.0032
| 34> H 	 -24.707 	 35.2628 	 44.3862
| 35> C 	 -23.0021 	 34.4581 	 45.4091
| 36> H 	 -23.4725 	 33.9996 	 46.3039
| 37> H 	 -22.648 	 35.4812 	 45.6897
| 38> H 	 -21.9989 	 34.0514 	 45.2374
| 39> H 	 -19.9443 	 33.158 	 37.6639
| 40> H 	 -27.1273 	 35.4517 	 40.5059
| 41> *
| 42>
| 43>                          ****END OF INPUT****

CARTESIAN COORDINATES (ANGSTROEM)
---------------------------------
  S    -21.681500   34.687000   38.475800
  C    -20.652800   33.270600   38.465000
  C    -20.802900   32.449100   39.549000
  C    -21.768400   33.014800   40.456400
  C    -22.395700   34.168000   40.059500
  H    -22.086400   32.601300   41.358900
  C    -20.116300   31.117800   39.821400
  H    -20.400900   30.759000   40.828900
  H    -19.034300   31.183300   39.968900
  C    -20.486400   29.918700   38.877500
  H    -21.415900   30.097900   38.409200
  H    -19.790300   29.958300   38.019500
  C    -20.517800   28.547600   39.649400
  H    -20.735400   27.767000   38.904900
  H    -19.651000   28.334800   40.171400
  H    -21.333700   28.666100   40.409000
  S    -24.978400   34.606600   39.383000
  C    -26.047700   35.283100   40.618100
  C    -25.480800   35.301700   41.878800
  C    -24.057200   35.036400   41.760500
  C    -23.638900   34.749700   40.457500
  H    -26.037500   35.495600   42.770700
  C    -23.217900   35.095700   42.999300
  H    -22.923300   36.213200   43.134900
  H    -22.229500   34.626200   42.849800
  C    -23.942300   34.530400   44.196600
  H    -24.378500   33.615100   44.003200
  H    -24.707000   35.262800   44.386200
  C    -23.002100   34.458100   45.409100
  H    -23.472500   33.999600   46.303900
  H    -22.648000   35.481200   45.689700
  H    -21.998900   34.051400   45.237400
  H    -19.944300   33.158000   37.663900
  H    -27.127300   35.451700   40.505900

 Total Charge           Charge          ....    0
 Multiplicity           Mult            ....    1
 Number of Electrons    NEL             ....  134
 Basis Dimension        Dim             ....  322

ORBITAL ENERGIES
----------------

  NO   OCC          E(Eh)            E(eV)
   0   2.0000     -88.966681     -2420.9065
   1   2.0000     -88.960212     -2420.7304
   2   2.0000     -10.327291      -281.0199
   3   2.0000     -10.320611      -280.8381
   4   2.0000     -10.319256      -280.8012
   5   2.0000     -10.313773      -280.6520
   6   2.0000     -10.303787      -280.3803
   7   2.0000     -10.302599      -280.3480
   8   2.0000     -10.296468      -280.1811
   9   2.0000     -10.294866      -280.1376
  10   2.0000     -10.294059      -280.1156
  11   2.0000     -10.291934      -280.0578
  12   2.0000     -10.288034      -279.9516
  13   2.0000     -10.283764      -279.8354
  14   2.0000     -10.282845      -279.8104
  15   2.0000     -10.282420      -279.7989
  16   2.0000      -8.081461      -219.9077
  17   2.0000      -8.074574      -219.7203
  18   2.0000      -6.040074      -164.3588
  19   2.0000      -6.036088      -164.2503
  20   2.0000      -6.033046      -164.1675
  21   2.0000      -6.031955      -164.1379
  22   2.0000      -6.029135      -164.0611
  23   2.0000      -6.025396      -163.9594
  24   2.0000      -1.005904       -27.3720
  25   2.0000      -0.979822       -26.6623
  26   2.0000      -0.917074       -24.9549
  27   2.0000      -0.903481       -24.5850
  28   2.0000      -0.871547       -23.7160
  29   2.0000      -0.849888       -23.1266
  30   2.0000      -0.843477       -22.9522
  31   2.0000      -0.814730       -22.1699
  32   2.0000      -0.779426       -21.2093
  33   2.0000      -0.766298       -20.8520
  34   2.0000      -0.712149       -19.3786
  35   2.0000      -0.707637       -19.2558
  36   2.0000      -0.696644       -18.9566
  37   2.0000      -0.660569       -17.9750
  38   2.0000      -0.646333       -17.5876
  39   2.0000      -0.617965       -16.8157
  40   2.0000      -0.596551       -16.2330
  41   2.0000      -0.570406       -15.5215
  42   2.0000      -0.566724       -15.4214
  43   2.0000      -0.555684       -15.1209
  44   2.0000      -0.531076       -14.4513
  45   2.0000      -0.526959       -14.3393
  46   2.0000      -0.520969       -14.1763
  47   2.0000      -0.510776       -13.8989
  48   2.0000      -0.503282       -13.6950
  49   2.0000      -0.497992       -13.5510
  50   2.0000      -0.483192       -13.1483
  51   2.0000      -0.477273       -12.9873
  52   2.0000      -0.468742       -12.7551
  53   2.0000      -0.460429       -12.5289
  54   2.0000      -0.457019       -12.4361
  55   2.0000      -0.455030       -12.3820
  56   2.0000      -0.446288       -12.1441
  57   2.0000      -0.439114       -11.9489
  58   2.0000      -0.436003       -11.8643
  59   2.0000      -0.425211       -11.5706
  60   2.0000      -0.421757       -11.4766
  61   2.0000      -0.415237       -11.2992
  62   2.0000      -0.413880       -11.2622
  63   2.0000      -0.349142        -9.5006
  64   2.0000      -0.327216        -8.9040
  65   2.0000      -0.326597        -8.8872
  66   2.0000      -0.290527        -7.9056
  67   0.0000       0.030085         0.8187
  68   0.0000       0.065056         1.7703
  69   0.0000       0.105110         2.8602
  70   0.0000       0.115137         3.1330
  71   0.0000       0.128634         3.5003

MULLIKEN ATOMIC CHARGES
-----------------------
   0 S :    0.081008
   1 C :   -0.121697
   2 C :   -0.058544
   3 C :    0.072208
   4 C :   -0.199834
   5 H :   -0.015462
   6 C :    0.048618
   7 H :    0.004267
   8 H :    0.040135
   9 C :   -0.066583
  10 H :    0.026130
  11 H :    0.028654
  12 C :   -0.057718
  13 H :    0.046550
  14 H :    0.026290
  15 H :    0.042443
  16 S :    0.120910
  17 C :   -0.090929
  18 C :   -0.038164
  19 C :   -0.056464
  20 C :   -0.096451
  21 H :    0.021690
  22 C :    0.012438
  23 H :    0.054242
  24 H :    0.018735
  25 C :   -0.048682
  26 H :    0.023906
  27 H :    0.035656
  28 C :   -0.044505
  29 H :    0.045248
  30 H :    0.016050
  31 H :    0.025159
  32 H :    0.045280
  33 H :    0.059417
Sum of atomic charges:   -0.0000000

LOEWDIN ATOMIC CHARGES
----------------------
   0 S :    0.368961
   1 C :   -0.179069
   2 C :   -0.067490
   3 C :   -0.043818
   4 C :   -0.176197
   5 H :    0.019618
   6 C :   -0.036293
   7 H :    0.027395
   8 H :    0.033195
   9 C :   -0.036131
  10 H :    0.018881
  11 H :    0.021986
  12 C :   -0.057653
  13 H :    0.032314
  14 H :    0.012668
  15 H :    0.032225
  16 S :    0.417199
  17 C :   -0.179280
  18 C :   -0.067442
  19 C :   -0.051702
  20 C :   -0.223854
  21 H :    0.030153
  22 C :   -0.040387
  23 H :    0.046364
  24 H :    0.024786
  25 C :   -0.033657
  26 H :    0.016109
  27 H :    0.026041
  28 C :   -0.072285
  29 H :    0.029367
  30 H :    0.028611
  31 H :    0.024883
  32 H :    0.022822
  33 H :    0.031680

  Mayer bond orders larger than 0.100000
B(  0-S ,  1-C ) :   1.1456 B(  0-S ,  4-C ) :   1.1190 B(  1-C ,  2-C ) :   1.6147
B(  1-C , 32-H ) :   0.9734 B(  2-C ,  3-C ) :   1.2319 B(  2-C ,  6-C ) :   1.0209
B(  3-C ,  4-C ) :   1.6042 B(  3-C ,  5-H ) :   0.9962 B(  4-C , 20-C ) :   1.0406
B(  6-C ,  7-H ) :   0.9484 B(  6-C ,  8-H ) :   0.9378 B(  6-C ,  9-C ) :   1.0416
B(  9-C , 10-H ) :   0.9642 B(  9-C , 11-H ) :   0.9559 B(  9-C , 12-C ) :   1.0751
B( 12-C , 13-H ) :   0.9755 B( 12-C , 14-H ) :   0.9809 B( 12-C , 15-H ) :   0.9757
B( 16-S , 17-C ) :   1.1557 B( 16-S , 20-C ) :   1.1339 B( 17-C , 18-C ) :   1.6181
B( 17-C , 33-H ) :   0.9608 B( 18-C , 19-C ) :   1.2254 B( 18-C , 21-H ) :   0.9923
B( 19-C , 20-C ) :   1.5894 B( 19-C , 22-C ) :   1.0500 B( 22-C , 23-H ) :   0.9275
B( 22-C , 24-H ) :   0.9393 B( 22-C , 25-C ) :   1.0555 B( 25-C , 26-H ) :   0.9663
B( 25-C , 27-H ) :   0.9393 B( 25-C , 28-C ) :   1.0868 B( 28-C , 29-H ) :   0.9742
B( 28-C , 30-H ) :   0.9675 B( 28-C , 31-H ) :   0.9739

Dispersion correction           -0.013493706
FINAL SINGLE POINT ENERGY     -1339.866059263573

DIPOLE MOMENT
-------------
                                X             Y             Z
Electronic contribution:     -8.92794      17.02068     -19.29530
Nuclear contribution   :      8.96074     -17.51519      19.86420
                        -----------------------------------------
Total Dipole Moment    :      0.03279      -0.49451       0.56890
                        -----------------------------------------
Magnitude (a.u.)       :      0.75449
Magnitude (Debye)      :      1.91777

Rotational constants in cm-1:     0.016951     0.008120     0.006555
Rotational constants in MHz :   508.169466   243.431338   196.522425

                             ****ORCA TERMINATED NORMALLY****
TOTAL RUN TIME: 0 days 0 hours 0 minutes 32 seconds 657 msec
