                         Program Version 4.2.1 -  RELEASE  -
|  1> ! wB97X-D3 SP def2-SVP
|  2> %pal
|  3> nprocs 16
|  4> end
|  5>
|  6> * xyz 0 1
|  7> S 	 10.0108 	 -15.2772 	 102.659
|  8> C 	 11.2861 	 -15.1525 	 103.822
|  9> C 	 11.2116 	 -13.9453 	 104.596
| 10> C 	 9.88151 	 -13.4615 	 104.451
| 11> C 	 9.11548 	 -14.0878 	 103.478
| 12> H 	 9.5199 	 -12.6479 	 104.998
| 13> C 	 12.2411 	 -13.3588 	 105.528
| 14> H 	 11.8118 	 -12.3895 	 105.82
| 15> H 	 13.1611 	 -13.1072 	 104.926
| 16> C 	 12.6075 	 -14.1089 	 106.802
| 17> H 	 13.4403 	 -13.5919 	 107.303
| 18> H 	 11.9575 	 -14.1065 	 107.685
| 19> C 	 13.289 	 -15.4429 	 106.633
| 20> H 	 14.0168 	 -15.4486 	 105.811
| 21> H 	 13.6998 	 -15.658 	 107.595
| 22> H 	 12.4419 	 -16.1089 	 106.3
| 23> S 	 7.19433 	 -12.3599 	 102.362
| 24> C 	 5.53968 	 -12.7774 	 102.321
| 25> C 	 5.31316 	 -13.9247 	 102.935
| 26> C 	 6.47343 	 -14.6609 	 103.244
| 27> C 	 7.65803 	 -13.8693 	 103.192
| 28> H 	 4.28728 	 -14.2473 	 103.133
| 29> C 	 6.41421 	 -16.028 	 103.939
| 30> H 	 5.42117 	 -16.2279 	 104.275
| 31> H 	 7.11704 	 -15.9966 	 104.825
| 32> C 	 6.63579 	 -17.1189 	 102.853
| 33> H 	 7.54191 	 -16.7867 	 102.346
| 34> H 	 5.85399 	 -17.0213 	 102.114
| 35> C 	 6.48753 	 -18.4635 	 103.497
| 36> H 	 6.3907 	 -19.2539 	 102.742
| 37> H 	 5.60203 	 -18.6285 	 104.104
| 38> H 	 7.2824 	 -18.7747 	 104.137
| 39> H 	 12.2515 	 -15.719 	 103.807
| 40> H 	 4.72434 	 -12.1934 	 101.887
| 41> *
| 42>
| 43>                          ****END OF INPUT****

CARTESIAN COORDINATES (ANGSTROEM)
---------------------------------
  S     10.010800  -15.277200  102.659000
  C     11.286100  -15.152500  103.822000
  C     11.211600  -13.945300  104.596000
  C      9.881510  -13.461500  104.451000
  C      9.115480  -14.087800  103.478000
  H      9.519900  -12.647900  104.998000
  C     12.241100  -13.358800  105.528000
  H     11.811800  -12.389500  105.820000
  H     13.161100  -13.107200  104.926000
  C     12.607500  -14.108900  106.802000
  H     13.440300  -13.591900  107.303000
  H     11.957500  -14.106500  107.685000
  C     13.289000  -15.442900  106.633000
  H     14.016800  -15.448600  105.811000
  H     13.699800  -15.658000  107.595000
  H     12.441900  -16.108900  106.300000
  S      7.194330  -12.359900  102.362000
  C      5.539680  -12.777400  102.321000
  C      5.313160  -13.924700  102.935000
  C      6.473430  -14.660900  103.244000
  C      7.658030  -13.869300  103.192000
  H      4.287280  -14.247300  103.133000
  C      6.414210  -16.028000  103.939000
  H      5.421170  -16.227900  104.275000
  H      7.117040  -15.996600  104.825000
  C      6.635790  -17.118900  102.853000
  H      7.541910  -16.786700  102.346000
  H      5.853990  -17.021300  102.114000
  C      6.487530  -18.463500  103.497000
  H      6.390700  -19.253900  102.742000
  H      5.602030  -18.628500  104.104000
  H      7.282400  -18.774700  104.137000
  H     12.251500  -15.719000  103.807000
  H      4.724340  -12.193400  101.887000

 Total Charge           Charge          ....    0
 Multiplicity           Mult            ....    1
 Number of Electrons    NEL             ....  134
 Basis Dimension        Dim             ....  322

ORBITAL ENERGIES
----------------

  NO   OCC          E(Eh)            E(eV)
   0   2.0000     -88.972899     -2421.0757
   1   2.0000     -88.959522     -2420.7117
   2   2.0000     -10.331902      -281.1453
   3   2.0000     -10.328652      -281.0569
   4   2.0000     -10.319170      -280.7989
   5   2.0000     -10.307198      -280.4731
   6   2.0000     -10.305985      -280.4401
   7   2.0000     -10.303327      -280.3678
   8   2.0000     -10.302730      -280.3515
   9   2.0000     -10.290395      -280.0159
  10   2.0000     -10.287036      -279.9245
  11   2.0000     -10.286471      -279.9091
  12   2.0000     -10.283484      -279.8278
  13   2.0000     -10.279700      -279.7249
  14   2.0000     -10.279025      -279.7065
  15   2.0000     -10.270048      -279.4622
  16   2.0000      -8.087953      -220.0844
  17   2.0000      -8.074695      -219.7236
  18   2.0000      -6.046255      -164.5270
  19   2.0000      -6.042337      -164.4204
  20   2.0000      -6.038992      -164.3293
  21   2.0000      -6.033094      -164.1688
  22   2.0000      -6.029051      -164.0588
  23   2.0000      -6.025629      -163.9657
  24   2.0000      -1.008414       -27.4404
  25   2.0000      -0.990728       -26.9591
  26   2.0000      -0.917537       -24.9674
  27   2.0000      -0.908041       -24.7091
  28   2.0000      -0.866694       -23.5839
  29   2.0000      -0.856229       -23.2992
  30   2.0000      -0.845831       -23.0162
  31   2.0000      -0.813149       -22.1269
  32   2.0000      -0.786728       -21.4080
  33   2.0000      -0.768358       -20.9081
  34   2.0000      -0.704461       -19.1694
  35   2.0000      -0.696029       -18.9399
  36   2.0000      -0.689634       -18.7659
  37   2.0000      -0.654495       -17.8097
  38   2.0000      -0.639522       -17.4023
  39   2.0000      -0.619471       -16.8567
  40   2.0000      -0.593600       -16.1527
  41   2.0000      -0.572339       -15.5741
  42   2.0000      -0.563136       -15.3237
  43   2.0000      -0.556380       -15.1399
  44   2.0000      -0.545713       -14.8496
  45   2.0000      -0.522277       -14.2119
  46   2.0000      -0.519315       -14.1313
  47   2.0000      -0.513697       -13.9784
  48   2.0000      -0.500874       -13.6295
  49   2.0000      -0.499571       -13.5940
  50   2.0000      -0.483351       -13.1526
  51   2.0000      -0.477447       -12.9920
  52   2.0000      -0.472998       -12.8709
  53   2.0000      -0.470589       -12.8054
  54   2.0000      -0.457811       -12.4577
  55   2.0000      -0.455905       -12.4058
  56   2.0000      -0.450647       -12.2627
  57   2.0000      -0.445961       -12.1352
  58   2.0000      -0.431512       -11.7420
  59   2.0000      -0.423205       -11.5160
  60   2.0000      -0.414578       -11.2812
  61   2.0000      -0.400092       -10.8871
  62   2.0000      -0.394817       -10.7435
  63   2.0000      -0.338036        -9.1984
  64   2.0000      -0.333622        -9.0783
  65   2.0000      -0.322045        -8.7633
  66   2.0000      -0.298495        -8.1225
  67   0.0000       0.032605         0.8872
  68   0.0000       0.063605         1.7308
  69   0.0000       0.102620         2.7924
  70   0.0000       0.122898         3.3442
  71   0.0000       0.137709         3.7473

MULLIKEN ATOMIC CHARGES
-----------------------
   0 S :    0.155771
   1 C :   -0.149480
   2 C :   -0.107711
   3 C :    0.054139
   4 C :   -0.152038
   5 H :   -0.013982
   6 C :    0.077869
   7 H :    0.022235
   8 H :    0.050271
   9 C :   -0.080815
  10 H :    0.012933
  11 H :    0.030338
  12 C :   -0.061635
  13 H :    0.029779
  14 H :    0.037083
  15 H :    0.044968
  16 S :    0.099204
  17 C :   -0.077355
  18 C :   -0.036316
  19 C :   -0.052011
  20 C :   -0.166503
  21 H :    0.020165
  22 C :    0.042766
  23 H :   -0.000382
  24 H :    0.057205
  25 C :   -0.060741
  26 H :    0.023683
  27 H :    0.020368
  28 C :   -0.006770
  29 H :    0.022785
  30 H :    0.019451
  31 H :    0.024734
  32 H :    0.063047
  33 H :    0.056946
Sum of atomic charges:   -0.0000000

LOEWDIN ATOMIC CHARGES
----------------------
   0 S :    0.460568
   1 C :   -0.219094
   2 C :   -0.060937
   3 C :   -0.052521
   4 C :   -0.223684
   5 H :    0.020813
   6 C :   -0.036007
   7 H :    0.036514
   8 H :    0.044412
   9 C :   -0.053523
  10 H :    0.026501
  11 H :    0.028440
  12 C :   -0.064783
  13 H :    0.021789
  14 H :    0.025700
  15 H :    0.029106
  16 S :    0.406554
  17 C :   -0.196846
  18 C :   -0.085388
  19 C :   -0.051073
  20 C :   -0.198231
  21 H :    0.034741
  22 C :   -0.028085
  23 H :    0.019017
  24 H :    0.039178
  25 C :   -0.037762
  26 H :    0.014571
  27 H :    0.024324
  28 C :   -0.067876
  29 H :    0.025943
  30 H :    0.026165
  31 H :    0.022768
  32 H :    0.031912
  33 H :    0.036791

  Mayer bond orders larger than 0.100000
B(  0-S ,  1-C ) :   1.1786 B(  0-S ,  4-C ) :   1.1753 B(  1-C ,  2-C ) :   1.5443
B(  1-C ,  4-C ) :   0.1009 B(  1-C , 32-H ) :   0.9589 B(  2-C ,  3-C ) :   1.2853
B(  2-C ,  6-C ) :   1.0263 B(  3-C ,  4-C ) :   1.5503 B(  3-C ,  5-H ) :   0.9993
B(  4-C , 20-C ) :   1.0031 B(  6-C ,  7-H ) :   0.9334 B(  6-C ,  8-H ) :   0.9349
B(  6-C ,  9-C ) :   1.0790 B(  9-C , 10-H ) :   0.9499 B(  9-C , 11-H ) :   0.9556
B(  9-C , 12-C ) :   1.0762 B( 12-C , 13-H ) :   0.9740 B( 12-C , 14-H ) :   0.9737
B( 12-C , 15-H ) :   0.9713 B( 16-S , 17-C ) :   1.1679 B( 16-S , 20-C ) :   1.1426
B( 17-C , 18-C ) :   1.6151 B( 17-C , 33-H ) :   0.9587 B( 18-C , 19-C ) :   1.2621
B( 18-C , 21-H ) :   0.9843 B( 19-C , 20-C ) :   1.5648 B( 19-C , 22-C ) :   1.0419
B( 22-C , 23-H ) :   0.9389 B( 22-C , 24-H ) :   0.9513 B( 22-C , 25-C ) :   1.0404
B( 25-C , 26-H ) :   0.9571 B( 25-C , 27-H ) :   0.9547 B( 25-C , 28-C ) :   1.0780
B( 28-C , 29-H ) :   0.9714 B( 28-C , 30-H ) :   0.9672 B( 28-C , 31-H ) :   0.9728

Dispersion correction           -0.014341508
FINAL SINGLE POINT ENERGY     -1339.849884525509

DIPOLE MOMENT
-------------
                                X             Y             Z
Electronic contribution:     -7.12122      14.87742     -15.30090
Nuclear contribution   :      7.16125     -14.94827      15.74074
                        -----------------------------------------
Total Dipole Moment    :      0.04002      -0.07085       0.43984
                        -----------------------------------------
Magnitude (a.u.)       :      0.44731
Magnitude (Debye)      :      1.13697

Rotational constants in cm-1:     0.020125     0.008072     0.006522
Rotational constants in MHz :   603.336408   241.984547   195.522203

                             ****ORCA TERMINATED NORMALLY****
TOTAL RUN TIME: 0 days 0 hours 0 minutes 33 seconds 529 msec
