                         Program Version 4.2.1 -  RELEASE  -
|  1> ! wB97X-D3 SP def2-SVP
|  2> %pal
|  3> nprocs 16
|  4> end
|  5>
|  6> * xyz 0 1
|  7> S 	 -12.0123 	 -9.13161 	 83.9914
|  8> C 	 -12.5294 	 -10.7256 	 83.5252
|  9> C 	 -12.2443 	 -11.6863 	 84.5032
| 10> C 	 -11.7005 	 -11.0674 	 85.6437
| 11> C 	 -11.4517 	 -9.69938 	 85.5883
| 12> H 	 -11.6323 	 -11.4012 	 86.6723
| 13> C 	 -12.7396 	 -13.0931 	 84.5106
| 14> H 	 -12.6336 	 -13.5171 	 85.5138
| 15> H 	 -12.1424 	 -13.6788 	 83.8447
| 16> C 	 -14.1784 	 -13.2493 	 84.0328
| 17> H 	 -14.8362 	 -12.6275 	 84.5877
| 18> H 	 -14.1485 	 -12.9393 	 82.941
| 19> C 	 -14.6394 	 -14.7536 	 84.2082
| 20> H 	 -15.6929 	 -14.8586 	 84.0377
| 21> H 	 -14.1248 	 -15.543 	 83.6899
| 22> H 	 -14.4786 	 -14.9846 	 85.2418
| 23> S 	 -11.9607 	 -7.47215 	 86.9263
| 24> C 	 -10.9629 	 -7.07939 	 88.2522
| 25> C 	 -9.84911 	 -7.82519 	 88.3739
| 26> C 	 -9.84071 	 -8.95113 	 87.4521
| 27> C 	 -10.8699 	 -8.83641 	 86.5529
| 28> H 	 -9.07247 	 -7.72986 	 89.0769
| 29> C 	 -8.89992 	 -10.1737 	 87.5499
| 30> H 	 -9.47135 	 -11.0801 	 87.3396
| 31> H 	 -8.79877 	 -10.2577 	 88.6014
| 32> C 	 -7.56962 	 -10.2275 	 86.8919
| 33> H 	 -7.63097 	 -10.0448 	 85.8075
| 34> H 	 -7.11107 	 -11.2102 	 87.0767
| 35> C 	 -6.66477 	 -9.15284 	 87.5673
| 36> H 	 -6.38951 	 -9.34221 	 88.5993
| 37> H 	 -7.24152 	 -8.18559 	 87.6031
| 38> H 	 -5.74879 	 -8.93994 	 87.1124
| 39> H 	 -12.8787 	 -10.941 	 82.5074
| 40> H 	 -11.137 	 -6.29473 	 88.9509
| 41> *
| 42>
| 43>                          ****END OF INPUT****

CARTESIAN COORDINATES (ANGSTROEM)
---------------------------------
  S    -12.012300   -9.131610   83.991400
  C    -12.529400  -10.725600   83.525200
  C    -12.244300  -11.686300   84.503200
  C    -11.700500  -11.067400   85.643700
  C    -11.451700   -9.699380   85.588300
  H    -11.632300  -11.401200   86.672300
  C    -12.739600  -13.093100   84.510600
  H    -12.633600  -13.517100   85.513800
  H    -12.142400  -13.678800   83.844700
  C    -14.178400  -13.249300   84.032800
  H    -14.836200  -12.627500   84.587700
  H    -14.148500  -12.939300   82.941000
  C    -14.639400  -14.753600   84.208200
  H    -15.692900  -14.858600   84.037700
  H    -14.124800  -15.543000   83.689900
  H    -14.478600  -14.984600   85.241800
  S    -11.960700   -7.472150   86.926300
  C    -10.962900   -7.079390   88.252200
  C     -9.849110   -7.825190   88.373900
  C     -9.840710   -8.951130   87.452100
  C    -10.869900   -8.836410   86.552900
  H     -9.072470   -7.729860   89.076900
  C     -8.899920  -10.173700   87.549900
  H     -9.471350  -11.080100   87.339600
  H     -8.798770  -10.257700   88.601400
  C     -7.569620  -10.227500   86.891900
  H     -7.630970  -10.044800   85.807500
  H     -7.111070  -11.210200   87.076700
  C     -6.664770   -9.152840   87.567300
  H     -6.389510   -9.342210   88.599300
  H     -7.241520   -8.185590   87.603100
  H     -5.748790   -8.939940   87.112400
  H    -12.878700  -10.941000   82.507400
  H    -11.137000   -6.294730   88.950900

 Total Charge           Charge          ....    0
 Multiplicity           Mult            ....    1
 Number of Electrons    NEL             ....  134
 Basis Dimension        Dim             ....  322

ORBITAL ENERGIES
----------------

  NO   OCC          E(Eh)            E(eV)
   0   2.0000     -88.964220     -2420.8395
   1   2.0000     -88.963689     -2420.8251
   2   2.0000     -10.325616      -280.9743
   3   2.0000     -10.323453      -280.9154
   4   2.0000     -10.315097      -280.6880
   5   2.0000     -10.311811      -280.5986
   6   2.0000     -10.307923      -280.4928
   7   2.0000     -10.299290      -280.2579
   8   2.0000     -10.291454      -280.0447
   9   2.0000     -10.290552      -280.0202
  10   2.0000     -10.289573      -279.9935
  11   2.0000     -10.288931      -279.9761
  12   2.0000     -10.288461      -279.9633
  13   2.0000     -10.286593      -279.9124
  14   2.0000     -10.275544      -279.6118
  15   2.0000     -10.273770      -279.5635
  16   2.0000      -8.079803      -219.8626
  17   2.0000      -8.078035      -219.8145
  18   2.0000      -6.038316      -164.3109
  19   2.0000      -6.036436      -164.2598
  20   2.0000      -6.034314      -164.2020
  21   2.0000      -6.032475      -164.1520
  22   2.0000      -6.030348      -164.0941
  23   2.0000      -6.029064      -164.0592
  24   2.0000      -1.009374       -27.4665
  25   2.0000      -0.984362       -26.7858
  26   2.0000      -0.914877       -24.8951
  27   2.0000      -0.913782       -24.8653
  28   2.0000      -0.873024       -23.7562
  29   2.0000      -0.851668       -23.1751
  30   2.0000      -0.844368       -22.9764
  31   2.0000      -0.813131       -22.1264
  32   2.0000      -0.787379       -21.4257
  33   2.0000      -0.772148       -21.0112
  34   2.0000      -0.712811       -19.3966
  35   2.0000      -0.707416       -19.2498
  36   2.0000      -0.692133       -18.8339
  37   2.0000      -0.670583       -18.2475
  38   2.0000      -0.643988       -17.5238
  39   2.0000      -0.612929       -16.6786
  40   2.0000      -0.599695       -16.3185
  41   2.0000      -0.570925       -15.5357
  42   2.0000      -0.562219       -15.2988
  43   2.0000      -0.551855       -15.0168
  44   2.0000      -0.548673       -14.9302
  45   2.0000      -0.525495       -14.2995
  46   2.0000      -0.520966       -14.1762
  47   2.0000      -0.513128       -13.9629
  48   2.0000      -0.501422       -13.6444
  49   2.0000      -0.496250       -13.5036
  50   2.0000      -0.483200       -13.1485
  51   2.0000      -0.479818       -13.0565
  52   2.0000      -0.477316       -12.9884
  53   2.0000      -0.464833       -12.6487
  54   2.0000      -0.456743       -12.4286
  55   2.0000      -0.446681       -12.1548
  56   2.0000      -0.444512       -12.0958
  57   2.0000      -0.441113       -12.0033
  58   2.0000      -0.435361       -11.8468
  59   2.0000      -0.425229       -11.5711
  60   2.0000      -0.421984       -11.4828
  61   2.0000      -0.416906       -11.3446
  62   2.0000      -0.414632       -11.2827
  63   2.0000      -0.351207        -9.5568
  64   2.0000      -0.334040        -9.0897
  65   2.0000      -0.329407        -8.9636
  66   2.0000      -0.285826        -7.7777
  67   0.0000       0.029063         0.7909
  68   0.0000       0.065780         1.7900
  69   0.0000       0.110664         3.0113
  70   0.0000       0.119022         3.2388
  71   0.0000       0.135156         3.6778

MULLIKEN ATOMIC CHARGES
-----------------------
   0 S :    0.105385
   1 C :   -0.143869
   2 C :   -0.048898
   3 C :    0.006540
   4 C :   -0.169945
   5 H :    0.023272
   6 C :    0.077461
   7 H :    0.017306
   8 H :    0.025756
   9 C :   -0.095106
  10 H :    0.034100
  11 H :    0.038448
  12 C :   -0.027472
  13 H :    0.031333
  14 H :    0.028210
  15 H :    0.013571
  16 S :    0.105359
  17 C :   -0.049647
  18 C :   -0.010131
  19 C :   -0.085646
  20 C :   -0.147007
  21 H :   -0.001940
  22 C :    0.081198
  23 H :    0.012458
  24 H :    0.003387
  25 C :   -0.011278
  26 H :    0.046771
  27 H :    0.034824
  28 C :   -0.071177
  29 H :    0.020007
  30 H :    0.032249
  31 H :    0.018802
  32 H :    0.061713
  33 H :    0.043966
Sum of atomic charges:   -0.0000000

LOEWDIN ATOMIC CHARGES
----------------------
   0 S :    0.394852
   1 C :   -0.202826
   2 C :   -0.066387
   3 C :   -0.071573
   4 C :   -0.191535
   5 H :    0.031597
   6 C :   -0.032223
   7 H :    0.027970
   8 H :    0.030513
   9 C :   -0.028902
  10 H :    0.020935
  11 H :    0.027467
  12 C :   -0.063896
  13 H :    0.024284
  14 H :    0.023325
  15 H :    0.021781
  16 S :    0.407556
  17 C :   -0.183826
  18 C :   -0.069008
  19 C :   -0.044049
  20 C :   -0.187061
  21 H :    0.021989
  22 C :   -0.033182
  23 H :    0.031133
  24 H :    0.027344
  25 C :   -0.032395
  26 H :    0.032343
  27 H :    0.029867
  28 C :   -0.069897
  29 H :    0.021826
  30 H :    0.031260
  31 H :    0.014859
  32 H :    0.030017
  33 H :    0.025845

  Mayer bond orders larger than 0.100000
B(  0-S ,  1-C ) :   1.1554 B(  0-S ,  4-C ) :   1.1417 B(  1-C ,  2-C ) :   1.5710
B(  1-C ,  4-C ) :   0.1116 B(  1-C , 32-H ) :   0.9654 B(  2-C ,  3-C ) :   1.2608
B(  2-C ,  6-C ) :   1.0286 B(  3-C ,  4-C ) :   1.5834 B(  3-C ,  5-H ) :   0.9784
B(  4-C , 20-C ) :   1.0451 B(  6-C ,  7-H ) :   0.9500 B(  6-C ,  8-H ) :   0.9220
B(  6-C ,  9-C ) :   1.0744 B(  9-C , 10-H ) :   0.9611 B(  9-C , 11-H ) :   0.9492
B(  9-C , 12-C ) :   1.0743 B( 12-C , 13-H ) :   0.9763 B( 12-C , 14-H ) :   0.9771
B( 12-C , 15-H ) :   0.9736 B( 16-S , 17-C ) :   1.1514 B( 16-S , 20-C ) :   1.1172
B( 17-C , 18-C ) :   1.6323 B( 17-C , 33-H ) :   0.9649 B( 18-C , 19-C ) :   1.2089
B( 18-C , 21-H ) :   0.9933 B( 19-C , 20-C ) :   1.6529 B( 19-C , 22-C ) :   1.0166
B( 22-C , 23-H ) :   0.9313 B( 22-C , 24-H ) :   0.9239 B( 22-C , 25-C ) :   1.0820
B( 25-C , 26-H ) :   0.9552 B( 25-C , 27-H ) :   0.9493 B( 25-C , 28-C ) :   1.0674
B( 28-C , 29-H ) :   0.9751 B( 28-C , 30-H ) :   0.9754 B( 28-C , 31-H ) :   0.9740

Dispersion correction           -0.013846163
FINAL SINGLE POINT ENERGY     -1339.869444517608

DIPOLE MOMENT
-------------
                                X             Y             Z
Electronic contribution:     -6.71412      22.11456      -2.48489
Nuclear contribution   :      6.88511     -22.67376       2.88487
                        -----------------------------------------
Total Dipole Moment    :      0.17099      -0.55919       0.39999
                        -----------------------------------------
Magnitude (a.u.)       :      0.70847
Magnitude (Debye)      :      1.80078

Rotational constants in cm-1:     0.021402     0.007374     0.006326
Rotational constants in MHz :   641.624028   221.067269   189.649763

                             ****ORCA TERMINATED NORMALLY****
TOTAL RUN TIME: 0 days 0 hours 0 minutes 33 seconds 306 msec
