                         Program Version 4.2.1 -  RELEASE  -
|  1> ! wB97X-D3 SP def2-SVP
|  2> %pal
|  3> nprocs 16
|  4> end
|  5>
|  6> * xyz 0 1
|  7> S 	 -3.25263 	 7.27846 	 83.935
|  8> C 	 -4.17539 	 6.88581 	 82.4441
|  9> C 	 -4.3118 	 8.06273 	 81.7359
| 10> C 	 -4.01111 	 9.24353 	 82.4673
| 11> C 	 -3.49297 	 8.97481 	 83.7494
| 12> H 	 -4.24694 	 10.283 	 82.258
| 13> C 	 -4.93489 	 8.02063 	 80.3005
| 14> H 	 -5.3704 	 9.00552 	 80.0289
| 15> H 	 -5.77187 	 7.29837 	 80.3477
| 16> C 	 -4.07319 	 7.57842 	 79.0374
| 17> H 	 -4.72993 	 7.54164 	 78.0949
| 18> H 	 -3.38688 	 8.43653 	 78.8671
| 19> C 	 -3.30754 	 6.21443 	 79.1734
| 20> H 	 -3.97045 	 5.3797 	 79.2238
| 21> H 	 -2.86955 	 6.10735 	 78.1708
| 22> H 	 -2.47003 	 6.22395 	 79.8841
| 23> S 	 -1.3451 	 10.2298 	 85.0214
| 24> C 	 -1.58071 	 11.7403 	 85.9044
| 25> C 	 -2.90443 	 11.9681 	 86.0347
| 26> C 	 -3.72661 	 10.9545 	 85.4254
| 27> C 	 -3.05739 	 9.93442 	 84.7682
| 28> H 	 -3.24465 	 12.8575 	 86.5751
| 29> C 	 -5.19467 	 11.1425 	 85.4829
| 30> H 	 -5.49909 	 10.7179 	 84.4944
| 31> H 	 -5.35094 	 12.2438 	 85.2991
| 32> C 	 -5.98688 	 10.5019 	 86.6063
| 33> H 	 -5.59611 	 10.9326 	 87.5522
| 34> H 	 -5.6413 	 9.44895 	 86.7017
| 35> C 	 -7.5018 	 10.6321 	 86.6195
| 36> H 	 -7.72375 	 11.7021 	 86.7436
| 37> H 	 -7.91255 	 10.0993 	 87.4333
| 38> H 	 -7.84998 	 10.3562 	 85.6021
| 39> H 	 -4.45007 	 5.82319 	 82.2244
| 40> H 	 -0.762848 	 12.3592 	 86.3043
| 41> *
| 42>
| 43>                          ****END OF INPUT****

CARTESIAN COORDINATES (ANGSTROEM)
---------------------------------
  S     -3.252630    7.278460   83.935000
  C     -4.175390    6.885810   82.444100
  C     -4.311800    8.062730   81.735900
  C     -4.011110    9.243530   82.467300
  C     -3.492970    8.974810   83.749400
  H     -4.246940   10.283000   82.258000
  C     -4.934890    8.020630   80.300500
  H     -5.370400    9.005520   80.028900
  H     -5.771870    7.298370   80.347700
  C     -4.073190    7.578420   79.037400
  H     -4.729930    7.541640   78.094900
  H     -3.386880    8.436530   78.867100
  C     -3.307540    6.214430   79.173400
  H     -3.970450    5.379700   79.223800
  H     -2.869550    6.107350   78.170800
  H     -2.470030    6.223950   79.884100
  S     -1.345100   10.229800   85.021400
  C     -1.580710   11.740300   85.904400
  C     -2.904430   11.968100   86.034700
  C     -3.726610   10.954500   85.425400
  C     -3.057390    9.934420   84.768200
  H     -3.244650   12.857500   86.575100
  C     -5.194670   11.142500   85.482900
  H     -5.499090   10.717900   84.494400
  H     -5.350940   12.243800   85.299100
  C     -5.986880   10.501900   86.606300
  H     -5.596110   10.932600   87.552200
  H     -5.641300    9.448950   86.701700
  C     -7.501800   10.632100   86.619500
  H     -7.723750   11.702100   86.743600
  H     -7.912550   10.099300   87.433300
  H     -7.849980   10.356200   85.602100
  H     -4.450070    5.823190   82.224400
  H     -0.762848   12.359200   86.304300

 Total Charge           Charge          ....    0
 Multiplicity           Mult            ....    1
 Number of Electrons    NEL             ....  134
 Basis Dimension        Dim             ....  322

ORBITAL ENERGIES
----------------

  NO   OCC          E(Eh)            E(eV)
   0   2.0000     -88.964426     -2420.8451
   1   2.0000     -88.959612     -2420.7141
   2   2.0000     -10.334510      -281.2163
   3   2.0000     -10.328849      -281.0623
   4   2.0000     -10.324695      -280.9492
   5   2.0000     -10.319761      -280.8150
   6   2.0000     -10.311353      -280.5862
   7   2.0000     -10.302268      -280.3390
   8   2.0000     -10.301492      -280.3178
   9   2.0000     -10.301248      -280.3112
  10   2.0000     -10.300167      -280.2818
  11   2.0000     -10.292220      -280.0655
  12   2.0000     -10.288611      -279.9673
  13   2.0000     -10.284792      -279.8634
  14   2.0000     -10.280251      -279.7398
  15   2.0000     -10.277059      -279.6530
  16   2.0000      -8.079222      -219.8468
  17   2.0000      -8.074524      -219.7190
  18   2.0000      -6.037629      -164.2922
  19   2.0000      -6.033641      -164.1837
  20   2.0000      -6.033143      -164.1702
  21   2.0000      -6.030148      -164.0887
  22   2.0000      -6.028922      -164.0553
  23   2.0000      -6.025200      -163.9540
  24   2.0000      -1.006756       -27.3952
  25   2.0000      -0.985088       -26.8056
  26   2.0000      -0.907839       -24.7036
  27   2.0000      -0.897961       -24.4348
  28   2.0000      -0.867968       -23.6186
  29   2.0000      -0.850566       -23.1451
  30   2.0000      -0.842632       -22.9292
  31   2.0000      -0.816600       -22.2208
  32   2.0000      -0.782271       -21.2867
  33   2.0000      -0.769813       -20.9477
  34   2.0000      -0.706861       -19.2347
  35   2.0000      -0.691383       -18.8135
  36   2.0000      -0.689498       -18.7622
  37   2.0000      -0.659365       -17.9422
  38   2.0000      -0.643901       -17.5214
  39   2.0000      -0.612560       -16.6686
  40   2.0000      -0.591719       -16.1015
  41   2.0000      -0.565932       -15.3998
  42   2.0000      -0.553318       -15.0566
  43   2.0000      -0.547749       -14.9050
  44   2.0000      -0.536688       -14.6040
  45   2.0000      -0.534112       -14.5339
  46   2.0000      -0.517825       -14.0907
  47   2.0000      -0.515424       -14.0254
  48   2.0000      -0.506197       -13.7743
  49   2.0000      -0.502733       -13.6801
  50   2.0000      -0.489732       -13.3263
  51   2.0000      -0.485259       -13.2046
  52   2.0000      -0.470181       -12.7943
  53   2.0000      -0.461887       -12.5686
  54   2.0000      -0.455215       -12.3870
  55   2.0000      -0.449593       -12.2340
  56   2.0000      -0.443001       -12.0547
  57   2.0000      -0.432358       -11.7651
  58   2.0000      -0.425763       -11.5856
  59   2.0000      -0.417488       -11.3604
  60   2.0000      -0.414435       -11.2774
  61   2.0000      -0.409659       -11.1474
  62   2.0000      -0.400494       -10.8980
  63   2.0000      -0.343072        -9.3355
  64   2.0000      -0.331306        -9.0153
  65   2.0000      -0.324009        -8.8167
  66   2.0000      -0.301415        -8.2019
  67   0.0000       0.033885         0.9220
  68   0.0000       0.054878         1.4933
  69   0.0000       0.111356         3.0301
  70   0.0000       0.120291         3.2733
  71   0.0000       0.127967         3.4821

MULLIKEN ATOMIC CHARGES
-----------------------
   0 S :    0.099665
   1 C :   -0.149853
   2 C :   -0.055093
   3 C :    0.062278
   4 C :   -0.197349
   5 H :    0.021265
   6 C :    0.032970
   7 H :    0.026678
   8 H :    0.032413
   9 C :   -0.117468
  10 H :    0.044192
  11 H :    0.037290
  12 C :   -0.046126
  13 H :    0.026563
  14 H :    0.028457
  15 H :    0.057271
  16 S :    0.083383
  17 C :   -0.100380
  18 C :   -0.020513
  19 C :   -0.092416
  20 C :   -0.100444
  21 H :    0.026757
  22 C :    0.044938
  23 H :    0.007474
  24 H :    0.023470
  25 C :   -0.065658
  26 H :    0.012171
  27 H :    0.030484
  28 C :   -0.001834
  29 H :    0.025004
  30 H :    0.038122
  31 H :    0.034466
  32 H :    0.081276
  33 H :    0.070546
Sum of atomic charges:   -0.0000000

LOEWDIN ATOMIC CHARGES
----------------------
   0 S :    0.401011
   1 C :   -0.182879
   2 C :   -0.065121
   3 C :   -0.062126
   4 C :   -0.201142
   5 H :    0.035315
   6 C :   -0.039051
   7 H :    0.028999
   8 H :    0.029711
   9 C :   -0.044916
  10 H :    0.033210
  11 H :    0.024501
  12 C :   -0.072172
  13 H :    0.019604
  14 H :    0.032013
  15 H :    0.031060
  16 S :    0.390899
  17 C :   -0.175158
  18 C :   -0.079669
  19 C :   -0.057874
  20 C :   -0.205257
  21 H :    0.036558
  22 C :   -0.047328
  23 H :    0.029261
  24 H :    0.032690
  25 C :   -0.047543
  26 H :    0.021650
  27 H :    0.029045
  28 C :   -0.057149
  29 H :    0.027150
  30 H :    0.024763
  31 H :    0.029182
  32 H :    0.041787
  33 H :    0.038977

  Mayer bond orders larger than 0.100000
B(  0-S ,  1-C ) :   1.1357 B(  0-S ,  4-C ) :   1.1768 B(  1-C ,  2-C ) :   1.5829
B(  1-C ,  4-C ) :   0.1111 B(  1-C , 32-H ) :   0.9715 B(  2-C ,  3-C ) :   1.2448
B(  2-C ,  6-C ) :   1.0030 B(  3-C ,  4-C ) :   1.5548 B(  3-C ,  5-H ) :   0.9951
B(  4-C , 20-C ) :   1.0088 B(  6-C ,  7-H ) :   0.9500 B(  6-C ,  8-H ) :   0.9506
B(  6-C ,  9-C ) :   1.0587 B(  9-C , 10-H ) :   0.9580 B(  9-C , 11-H ) :   0.9593
B(  9-C , 12-C ) :   1.0745 B( 12-C , 13-H ) :   0.9758 B( 12-C , 14-H ) :   0.9709
B( 12-C , 15-H ) :   0.9728 B( 16-S , 17-C ) :   1.1558 B( 16-S , 20-C ) :   1.1226
B( 17-C , 18-C ) :   1.6087 B( 17-C , 33-H ) :   0.9640 B( 18-C , 19-C ) :   1.2380
B( 18-C , 21-H ) :   0.9921 B( 19-C , 20-C ) :   1.6104 B( 19-C , 22-C ) :   1.0490
B( 22-C , 23-H ) :   0.9185 B( 22-C , 24-H ) :   0.9324 B( 22-C , 25-C ) :   1.0636
B( 25-C , 26-H ) :   0.9494 B( 25-C , 27-H ) :   0.9495 B( 25-C , 28-C ) :   1.0817
B( 28-C , 29-H ) :   0.9731 B( 28-C , 30-H ) :   0.9722 B( 28-C , 31-H ) :   0.9756

Dispersion correction           -0.014000143
FINAL SINGLE POINT ENERGY     -1339.869268234561

DIPOLE MOMENT
-------------
                                X             Y             Z
Electronic contribution:     18.09293      -0.25729      10.84630
Nuclear contribution   :    -18.52884       0.54097     -11.13911
                        -----------------------------------------
Total Dipole Moment    :     -0.43591       0.28368      -0.29282
                        -----------------------------------------
Magnitude (a.u.)       :      0.59685
Magnitude (Debye)      :      1.51707

Rotational constants in cm-1:     0.019968     0.007626     0.006411
Rotational constants in MHz :   598.634081   228.628895   192.190673

                             ****ORCA TERMINATED NORMALLY****
TOTAL RUN TIME: 0 days 0 hours 0 minutes 32 seconds 788 msec
