                         Program Version 4.2.1 -  RELEASE  -
|  1> ! wB97X-D3 SP def2-SVP
|  2> %pal
|  3> nprocs 16
|  4> end
|  5>
|  6> * xyz 0 1
|  7> S 	 -100.956 	 52.2966 	 126.074
|  8> C 	 -99.5157 	 51.3846 	 126.086
|  9> C 	 -99.7449 	 50.0088 	 126.205
| 10> C 	 -101.161 	 49.6799 	 126.369
| 11> C 	 -101.985 	 50.8209 	 126.372
| 12> H 	 -101.573 	 48.6782 	 126.408
| 13> C 	 -98.6634 	 48.9433 	 126.255
| 14> H 	 -99.0785 	 47.9488 	 126.219
| 15> H 	 -98.1854 	 48.8936 	 127.232
| 16> C 	 -97.6074 	 49.1259 	 125.168
| 17> H 	 -98.1739 	 49.1088 	 124.276
| 18> H 	 -97.2529 	 50.1505 	 125.36
| 19> C 	 -96.352 	 48.2232 	 125.21
| 20> H 	 -95.5422 	 48.4314 	 124.482
| 21> H 	 -95.8845 	 48.003 	 126.155
| 22> H 	 -96.5916 	 47.1605 	 124.99
| 23> S 	 -104.274 	 51.9126 	 125.415
| 24> C 	 -105.779 	 51.5779 	 126.211
| 25> C 	 -105.621 	 50.8058 	 127.327
| 26> C 	 -104.216 	 50.4186 	 127.542
| 27> C 	 -103.385 	 50.9946 	 126.569
| 28> H 	 -106.49 	 50.5427 	 127.847
| 29> C 	 -103.759 	 49.514 	 128.671
| 30> H 	 -104.199 	 49.7967 	 129.623
| 31> H 	 -102.689 	 49.6598 	 128.811
| 32> C 	 -104.069 	 48.066 	 128.54
| 33> H 	 -103.69 	 47.6782 	 127.549
| 34> H 	 -105.146 	 47.8736 	 128.501
| 35> C 	 -103.623 	 47.0625 	 129.69
| 36> H 	 -104.044 	 46.0224 	 129.647
| 37> H 	 -104.165 	 47.2954 	 130.618
| 38> H 	 -102.51 	 47.033 	 129.836
| 39> H 	 -98.553 	 51.8683 	 125.938
| 40> H 	 -106.686 	 52.0232 	 125.848
| 41> *
| 42>
| 43>                          ****END OF INPUT****

CARTESIAN COORDINATES (ANGSTROEM)
---------------------------------
  S    -100.956000   52.296600  126.074000
  C    -99.515700   51.384600  126.086000
  C    -99.744900   50.008800  126.205000
  C    -101.161000   49.679900  126.369000
  C    -101.985000   50.820900  126.372000
  H    -101.573000   48.678200  126.408000
  C    -98.663400   48.943300  126.255000
  H    -99.078500   47.948800  126.219000
  H    -98.185400   48.893600  127.232000
  C    -97.607400   49.125900  125.168000
  H    -98.173900   49.108800  124.276000
  H    -97.252900   50.150500  125.360000
  C    -96.352000   48.223200  125.210000
  H    -95.542200   48.431400  124.482000
  H    -95.884500   48.003000  126.155000
  H    -96.591600   47.160500  124.990000
  S    -104.274000   51.912600  125.415000
  C    -105.779000   51.577900  126.211000
  C    -105.621000   50.805800  127.327000
  C    -104.216000   50.418600  127.542000
  C    -103.385000   50.994600  126.569000
  H    -106.490000   50.542700  127.847000
  C    -103.759000   49.514000  128.671000
  H    -104.199000   49.796700  129.623000
  H    -102.689000   49.659800  128.811000
  C    -104.069000   48.066000  128.540000
  H    -103.690000   47.678200  127.549000
  H    -105.146000   47.873600  128.501000
  C    -103.623000   47.062500  129.690000
  H    -104.044000   46.022400  129.647000
  H    -104.165000   47.295400  130.618000
  H    -102.510000   47.033000  129.836000
  H    -98.553000   51.868300  125.938000
  H    -106.686000   52.023200  125.848000

 Total Charge           Charge          ....    0
 Multiplicity           Mult            ....    1
 Number of Electrons    NEL             ....  134
 Basis Dimension        Dim             ....  322

ORBITAL ENERGIES
----------------

  NO   OCC          E(Eh)            E(eV)
   0   2.0000     -88.965077     -2420.8628
   1   2.0000     -88.964503     -2420.8472
   2   2.0000     -10.335340      -281.2389
   3   2.0000     -10.325738      -280.9776
   4   2.0000     -10.316538      -280.7273
   5   2.0000     -10.315529      -280.6998
   6   2.0000     -10.311856      -280.5999
   7   2.0000     -10.307367      -280.4777
   8   2.0000     -10.304876      -280.4099
   9   2.0000     -10.295351      -280.1508
  10   2.0000     -10.292524      -280.0738
  11   2.0000     -10.290529      -280.0195
  12   2.0000     -10.289418      -279.9893
  13   2.0000     -10.289283      -279.9856
  14   2.0000     -10.287188      -279.9286
  15   2.0000     -10.282972      -279.8139
  16   2.0000      -8.080356      -219.8777
  17   2.0000      -8.079784      -219.8621
  18   2.0000      -6.038798      -164.3241
  19   2.0000      -6.038277      -164.3099
  20   2.0000      -6.034687      -164.2122
  21   2.0000      -6.034269      -164.2008
  22   2.0000      -6.031136      -164.1155
  23   2.0000      -6.030588      -164.1007
  24   2.0000      -1.006782       -27.3959
  25   2.0000      -0.980656       -26.6850
  26   2.0000      -0.911065       -24.7914
  27   2.0000      -0.909909       -24.7599
  28   2.0000      -0.873869       -23.7792
  29   2.0000      -0.849096       -23.1051
  30   2.0000      -0.842876       -22.9358
  31   2.0000      -0.815605       -22.1937
  32   2.0000      -0.785184       -21.3659
  33   2.0000      -0.770718       -20.9723
  34   2.0000      -0.711397       -19.3581
  35   2.0000      -0.703754       -19.1501
  36   2.0000      -0.693155       -18.8617
  37   2.0000      -0.666405       -18.1338
  38   2.0000      -0.643187       -17.5020
  39   2.0000      -0.616160       -16.7666
  40   2.0000      -0.599851       -16.3228
  41   2.0000      -0.571536       -15.5523
  42   2.0000      -0.566750       -15.4221
  43   2.0000      -0.558763       -15.2047
  44   2.0000      -0.524022       -14.2594
  45   2.0000      -0.523861       -14.2550
  46   2.0000      -0.519710       -14.1420
  47   2.0000      -0.516246       -14.0478
  48   2.0000      -0.506311       -13.7774
  49   2.0000      -0.496647       -13.5144
  50   2.0000      -0.492063       -13.3897
  51   2.0000      -0.477615       -12.9966
  52   2.0000      -0.475461       -12.9379
  53   2.0000      -0.466054       -12.6820
  54   2.0000      -0.458402       -12.4738
  55   2.0000      -0.453868       -12.3504
  56   2.0000      -0.444627       -12.0989
  57   2.0000      -0.435117       -11.8401
  58   2.0000      -0.432595       -11.7715
  59   2.0000      -0.425079       -11.5670
  60   2.0000      -0.415654       -11.3105
  61   2.0000      -0.412736       -11.2311
  62   2.0000      -0.410058       -11.1582
  63   2.0000      -0.353846        -9.6286
  64   2.0000      -0.331023        -9.0076
  65   2.0000      -0.328631        -8.9425
  66   2.0000      -0.289846        -7.8871
  67   0.0000       0.027162         0.7391
  68   0.0000       0.068927         1.8756
  69   0.0000       0.112979         3.0743
  70   0.0000       0.119959         3.2643
  71   0.0000       0.125361         3.4113

MULLIKEN ATOMIC CHARGES
-----------------------
   0 S :    0.102373
   1 C :   -0.125959
   2 C :   -0.108856
   3 C :    0.043665
   4 C :   -0.168414
   5 H :    0.019381
   6 C :    0.090240
   7 H :    0.004102
   8 H :    0.029212
   9 C :   -0.075433
  10 H :    0.033646
  11 H :    0.029800
  12 C :   -0.047287
  13 H :    0.044459
  14 H :    0.020603
  15 H :    0.013642
  16 S :    0.110602
  17 C :   -0.092041
  18 C :   -0.002956
  19 C :   -0.031574
  20 C :   -0.143032
  21 H :    0.001360
  22 C :    0.107234
  23 H :    0.013452
  24 H :    0.027277
  25 C :   -0.093689
  26 H :    0.027258
  27 H :    0.023743
  28 C :   -0.085453
  29 H :    0.038714
  30 H :    0.024255
  31 H :    0.051006
  32 H :    0.063756
  33 H :    0.054913
Sum of atomic charges:    0.0000000

LOEWDIN ATOMIC CHARGES
----------------------
   0 S :    0.396452
   1 C :   -0.207468
   2 C :   -0.064547
   3 C :   -0.053250
   4 C :   -0.172125
   5 H :    0.033735
   6 C :   -0.033118
   7 H :    0.022617
   8 H :    0.030837
   9 C :   -0.036238
  10 H :    0.023930
  11 H :    0.024398
  12 C :   -0.080438
  13 H :    0.032883
  14 H :    0.024441
  15 H :    0.026525
  16 S :    0.420059
  17 C :   -0.180479
  18 C :   -0.061610
  19 C :   -0.042493
  20 C :   -0.216020
  21 H :    0.024653
  22 C :   -0.037862
  23 H :    0.031478
  24 H :    0.032497
  25 C :   -0.046139
  26 H :    0.021614
  27 H :    0.023634
  28 C :   -0.082027
  29 H :    0.035159
  30 H :    0.024924
  31 H :    0.028508
  32 H :    0.029589
  33 H :    0.025879

  Mayer bond orders larger than 0.100000
B(  0-S ,  1-C ) :   1.1565 B(  0-S ,  4-C ) :   1.1372 B(  1-C ,  2-C ) :   1.5931
B(  1-C , 32-H ) :   0.9652 B(  2-C ,  3-C ) :   1.2369 B(  2-C ,  6-C ) :   1.0241
B(  3-C ,  4-C ) :   1.5638 B(  3-C ,  5-H ) :   0.9950 B(  4-C , 20-C ) :   1.0623
B(  6-C ,  7-H ) :   0.9406 B(  6-C ,  8-H ) :   0.9332 B(  6-C ,  9-C ) :   1.0515
B(  9-C , 10-H ) :   0.9653 B(  9-C , 11-H ) :   0.9571 B(  9-C , 12-C ) :   1.0698
B( 12-C , 13-H ) :   0.9771 B( 12-C , 14-H ) :   0.9729 B( 12-C , 15-H ) :   0.9695
B( 16-S , 17-C ) :   1.1521 B( 16-S , 20-C ) :   1.1485 B( 17-C , 18-C ) :   1.6219
B( 17-C , 33-H ) :   0.9701 B( 18-C , 19-C ) :   1.2013 B( 18-C , 21-H ) :   1.0046
B( 19-C , 20-C ) :   1.5840 B( 19-C , 22-C ) :   1.0617 B( 22-C , 23-H ) :   0.9247
B( 22-C , 24-H ) :   0.9255 B( 22-C , 25-C ) :   1.0630 B( 25-C , 26-H ) :   0.9525
B( 25-C , 27-H ) :   0.9537 B( 25-C , 28-C ) :   1.0739 B( 28-C , 29-H ) :   0.9735
B( 28-C , 30-H ) :   0.9708 B( 28-C , 31-H ) :   0.9773

Dispersion correction           -0.013715541
FINAL SINGLE POINT ENERGY     -1339.879124979164

DIPOLE MOMENT
-------------
                                X             Y             Z
Electronic contribution:    -14.19278      24.92114      -9.53453
Nuclear contribution   :     14.18451     -25.47068       9.83095
                        -----------------------------------------
Total Dipole Moment    :     -0.00828      -0.54954       0.29642
                        -----------------------------------------
Magnitude (a.u.)       :      0.62444
Magnitude (Debye)      :      1.58719

Rotational constants in cm-1:     0.018590     0.007987     0.005962
Rotational constants in MHz :   557.325440   239.437783   178.735324

                             ****ORCA TERMINATED NORMALLY****
TOTAL RUN TIME: 0 days 0 hours 0 minutes 32 seconds 375 msec
