                         Program Version 4.2.1 -  RELEASE  -
|  1> ! wB97X-D3 SP def2-SVP
|  2> %pal
|  3> nprocs 16
|  4> end
|  5>
|  6> * xyz 0 1
|  7> S 	 10.3424 	 -11.0095 	 100.177
|  8> C 	 11.0886 	 -11.3213 	 101.7
|  9> C 	 10.3537 	 -12.1525 	 102.523
| 10> C 	 9.12428 	 -12.5497 	 101.836
| 11> C 	 9.07016 	 -12.2092 	 100.5
| 12> H 	 8.40754 	 -13.314 	 102.251
| 13> C 	 10.8129 	 -12.5845 	 103.895
| 14> H 	 10.0041 	 -12.5386 	 104.596
| 15> H 	 11.4428 	 -11.6984 	 104.237
| 16> C 	 11.425 	 -14.012 	 103.991
| 17> H 	 11.7737 	 -14.0917 	 105.045
| 18> H 	 10.6706 	 -14.7625 	 103.806
| 19> C 	 12.6353 	 -14.3717 	 103.104
| 20> H 	 12.3422 	 -14.4166 	 102.104
| 21> H 	 13.3568 	 -13.5667 	 103.3
| 22> H 	 13.0521 	 -15.3258 	 103.378
| 23> S 	 7.67479 	 -10.9335 	 98.6234
| 24> C 	 6.32892 	 -11.582 	 97.8072
| 25> C 	 6.16374 	 -12.8596 	 98.2116
| 26> C 	 7.07631 	 -13.3317 	 99.2564
| 27> C 	 8.05879 	 -12.3535 	 99.5382
| 28> H 	 5.28552 	 -13.5031 	 97.7921
| 29> C 	 6.99702 	 -14.6873 	 99.9001
| 30> H 	 6.0102 	 -15.0942 	 99.8881
| 31> H 	 7.29481 	 -14.7492 	 100.946
| 32> C 	 7.93138 	 -15.7275 	 99.1507
| 33> H 	 9.07802 	 -15.4057 	 99.1893
| 34> H 	 7.72506 	 -15.7278 	 98.111
| 35> C 	 7.69368 	 -17.1876 	 99.5203
| 36> H 	 7.34769 	 -17.5289 	 100.463
| 37> H 	 8.60758 	 -17.7678 	 99.2164
| 38> H 	 6.85297 	 -17.5675 	 98.9809
| 39> H 	 12.1428 	 -10.9577 	 101.925
| 40> H 	 5.75386 	 -10.9999 	 97.0461
| 41> *
| 42>
| 43>                          ****END OF INPUT****

CARTESIAN COORDINATES (ANGSTROEM)
---------------------------------
  S     10.342400  -11.009500  100.177000
  C     11.088600  -11.321300  101.700000
  C     10.353700  -12.152500  102.523000
  C      9.124280  -12.549700  101.836000
  C      9.070160  -12.209200  100.500000
  H      8.407540  -13.314000  102.251000
  C     10.812900  -12.584500  103.895000
  H     10.004100  -12.538600  104.596000
  H     11.442800  -11.698400  104.237000
  C     11.425000  -14.012000  103.991000
  H     11.773700  -14.091700  105.045000
  H     10.670600  -14.762500  103.806000
  C     12.635300  -14.371700  103.104000
  H     12.342200  -14.416600  102.104000
  H     13.356800  -13.566700  103.300000
  H     13.052100  -15.325800  103.378000
  S      7.674790  -10.933500   98.623400
  C      6.328920  -11.582000   97.807200
  C      6.163740  -12.859600   98.211600
  C      7.076310  -13.331700   99.256400
  C      8.058790  -12.353500   99.538200
  H      5.285520  -13.503100   97.792100
  C      6.997020  -14.687300   99.900100
  H      6.010200  -15.094200   99.888100
  H      7.294810  -14.749200  100.946000
  C      7.931380  -15.727500   99.150700
  H      9.078020  -15.405700   99.189300
  H      7.725060  -15.727800   98.111000
  C      7.693680  -17.187600   99.520300
  H      7.347690  -17.528900  100.463000
  H      8.607580  -17.767800   99.216400
  H      6.852970  -17.567500   98.980900
  H     12.142800  -10.957700  101.925000
  H      5.753860  -10.999900   97.046100

 Total Charge           Charge          ....    0
 Multiplicity           Mult            ....    1
 Number of Electrons    NEL             ....  134
 Basis Dimension        Dim             ....  322

ORBITAL ENERGIES
----------------

  NO   OCC          E(Eh)            E(eV)
   0   2.0000     -88.962410     -2420.7902
   1   2.0000     -88.959729     -2420.7173
   2   2.0000     -10.329713      -281.0858
   3   2.0000     -10.325318      -280.9662
   4   2.0000     -10.316889      -280.7368
   5   2.0000     -10.316833      -280.7353
   6   2.0000     -10.310378      -280.5597
   7   2.0000     -10.303847      -280.3819
   8   2.0000     -10.302664      -280.3497
   9   2.0000     -10.302536      -280.3463
  10   2.0000     -10.298319      -280.2315
  11   2.0000     -10.294784      -280.1353
  12   2.0000     -10.293645      -280.1043
  13   2.0000     -10.290555      -280.0202
  14   2.0000     -10.275016      -279.5974
  15   2.0000     -10.271272      -279.4955
  16   2.0000      -8.077650      -219.8040
  17   2.0000      -8.076159      -219.7635
  18   2.0000      -6.036236      -164.2543
  19   2.0000      -6.034708      -164.2128
  20   2.0000      -6.032147      -164.1431
  21   2.0000      -6.030227      -164.0908
  22   2.0000      -6.028220      -164.0362
  23   2.0000      -6.026926      -164.0010
  24   2.0000      -1.013838       -27.5879
  25   2.0000      -0.985497       -26.8167
  26   2.0000      -0.909938       -24.7607
  27   2.0000      -0.906107       -24.6564
  28   2.0000      -0.876202       -23.8427
  29   2.0000      -0.851709       -23.1762
  30   2.0000      -0.841728       -22.9046
  31   2.0000      -0.816724       -22.2242
  32   2.0000      -0.784291       -21.3416
  33   2.0000      -0.773792       -21.0559
  34   2.0000      -0.711075       -19.3493
  35   2.0000      -0.697825       -18.9888
  36   2.0000      -0.690348       -18.7853
  37   2.0000      -0.659304       -17.9406
  38   2.0000      -0.630953       -17.1691
  39   2.0000      -0.618744       -16.8369
  40   2.0000      -0.599661       -16.3176
  41   2.0000      -0.565550       -15.3894
  42   2.0000      -0.554856       -15.0984
  43   2.0000      -0.551273       -15.0009
  44   2.0000      -0.538892       -14.6640
  45   2.0000      -0.528888       -14.3918
  46   2.0000      -0.520584       -14.1658
  47   2.0000      -0.513669       -13.9776
  48   2.0000      -0.504838       -13.7373
  49   2.0000      -0.499888       -13.6026
  50   2.0000      -0.491900       -13.3853
  51   2.0000      -0.481989       -13.1156
  52   2.0000      -0.470303       -12.7976
  53   2.0000      -0.463314       -12.6074
  54   2.0000      -0.459861       -12.5135
  55   2.0000      -0.451431       -12.2841
  56   2.0000      -0.447643       -12.1810
  57   2.0000      -0.434127       -11.8132
  58   2.0000      -0.430177       -11.7057
  59   2.0000      -0.419204       -11.4071
  60   2.0000      -0.418218       -11.3803
  61   2.0000      -0.409658       -11.1474
  62   2.0000      -0.406822       -11.0702
  63   2.0000      -0.363496        -9.8912
  64   2.0000      -0.330613        -8.9964
  65   2.0000      -0.322062        -8.7638
  66   2.0000      -0.284782        -7.7493
  67   0.0000       0.022099         0.6013
  68   0.0000       0.076940         2.0937
  69   0.0000       0.110035         2.9942
  70   0.0000       0.118440         3.2229
  71   0.0000       0.127978         3.4825

MULLIKEN ATOMIC CHARGES
-----------------------
   0 S :    0.088081
   1 C :   -0.134030
   2 C :   -0.113664
   3 C :    0.012141
   4 C :   -0.137251
   5 H :    0.033272
   6 C :    0.060546
   7 H :    0.022253
   8 H :    0.033573
   9 C :   -0.085269
  10 H :    0.035012
  11 H :    0.028400
  12 C :   -0.023557
  13 H :    0.034125
  14 H :    0.027229
  15 H :    0.031718
  16 S :    0.085298
  17 C :   -0.096693
  18 C :   -0.061596
  19 C :   -0.045098
  20 C :   -0.119154
  21 H :    0.048043
  22 C :    0.078513
  23 H :    0.009938
  24 H :    0.023913
  25 C :   -0.102009
  26 H :    0.053414
  27 H :    0.023138
  28 C :   -0.040528
  29 H :    0.012854
  30 H :    0.047169
  31 H :    0.014906
  32 H :    0.074489
  33 H :    0.080823
Sum of atomic charges:   -0.0000000

LOEWDIN ATOMIC CHARGES
----------------------
   0 S :    0.393799
   1 C :   -0.208888
   2 C :   -0.070291
   3 C :   -0.064581
   4 C :   -0.183965
   5 H :    0.036811
   6 C :   -0.038744
   7 H :    0.030488
   8 H :    0.040045
   9 C :   -0.037964
  10 H :    0.028537
  11 H :    0.020761
  12 C :   -0.057126
  13 H :    0.017947
  14 H :    0.026258
  15 H :    0.026088
  16 S :    0.427191
  17 C :   -0.209673
  18 C :   -0.087301
  19 C :   -0.055542
  20 C :   -0.204564
  21 H :    0.044757
  22 C :   -0.031250
  23 H :    0.026481
  24 H :    0.029108
  25 C :   -0.041569
  26 H :    0.036920
  27 H :    0.019581
  28 C :   -0.078385
  29 H :    0.016935
  30 H :    0.038564
  31 H :    0.023207
  32 H :    0.041046
  33 H :    0.045316

  Mayer bond orders larger than 0.100000
B(  0-S ,  1-C ) :   1.1428 B(  0-S ,  4-C ) :   1.1224 B(  1-C ,  2-C ) :   1.6259
B(  1-C , 32-H ) :   0.9542 B(  2-C ,  3-C ) :   1.2250 B(  2-C ,  6-C ) :   1.0244
B(  3-C ,  4-C ) :   1.5889 B(  3-C ,  5-H ) :   0.9730 B(  4-C , 20-C ) :   1.0986
B(  6-C ,  7-H ) :   0.9353 B(  6-C ,  8-H ) :   0.9435 B(  6-C ,  9-C ) :   1.0594
B(  9-C , 10-H ) :   0.9572 B(  9-C , 11-H ) :   0.9575 B(  9-C , 12-C ) :   1.0781
B( 12-C , 13-H ) :   0.9754 B( 12-C , 14-H ) :   0.9778 B( 12-C , 15-H ) :   0.9733
B( 16-S , 17-C ) :   1.1594 B( 16-S , 20-C ) :   1.1517 B( 17-C , 18-C ) :   1.5982
B( 17-C , 33-H ) :   0.9656 B( 18-C , 19-C ) :   1.2522 B( 18-C , 21-H ) :   0.9728
B( 19-C , 20-C ) :   1.5505 B( 19-C , 22-C ) :   1.0686 B( 22-C , 23-H ) :   0.9314
B( 22-C , 24-H ) :   0.9366 B( 22-C , 25-C ) :   1.0516 B( 25-C , 26-H ) :   0.9630
B( 25-C , 27-H ) :   0.9576 B( 25-C , 28-C ) :   1.0613 B( 28-C , 29-H ) :   0.9766
B( 28-C , 30-H ) :   0.9732 B( 28-C , 31-H ) :   0.9733

Dispersion correction           -0.014129763
FINAL SINGLE POINT ENERGY     -1339.862243568617

DIPOLE MOMENT
-------------
                                X             Y             Z
Electronic contribution:     -5.63346      26.07313     -12.86827
Nuclear contribution   :      5.44486     -26.65390      13.18272
                        -----------------------------------------
Total Dipole Moment    :     -0.18859      -0.58077       0.31445
                        -----------------------------------------
Magnitude (a.u.)       :      0.68683
Magnitude (Debye)      :      1.74579

Rotational constants in cm-1:     0.017658     0.009472     0.006721
Rotational constants in MHz :   529.361248   283.974551   201.494776

                             ****ORCA TERMINATED NORMALLY****
TOTAL RUN TIME: 0 days 0 hours 0 minutes 33 seconds 656 msec
