                         Program Version 4.2.1 -  RELEASE  -
|  1> ! wB97X-D3 SP def2-SVP
|  2> %pal
|  3> nprocs 16
|  4> end
|  5>
|  6> * xyz 0 1
|  7> S 	 46.9194 	 12.4267 	 50.0735
|  8> C 	 46.829 	 11.8771 	 48.4116
|  9> C 	 47.3512 	 12.7992 	 47.5004
| 10> C 	 47.7581 	 13.9683 	 48.1813
| 11> C 	 47.5814 	 13.9689 	 49.5562
| 12> H 	 48.1436 	 14.8872 	 47.8325
| 13> C 	 47.4201 	 12.6596 	 45.9573
| 14> H 	 46.6738 	 11.9052 	 45.7011
| 15> H 	 48.5004 	 12.3797 	 45.6998
| 16> C 	 47.2998 	 14.0411 	 45.1393
| 17> H 	 48.1746 	 14.6696 	 45.1785
| 18> H 	 47.4726 	 13.7264 	 44.1384
| 19> C 	 46.0474 	 14.8525 	 45.3563
| 20> H 	 45.8788 	 15.109 	 46.3861
| 21> H 	 45.9118 	 15.7069 	 44.6697
| 22> H 	 45.1301 	 14.2949 	 45.0627
| 23> S 	 49.0324 	 14.5054 	 51.7878
| 24> C 	 48.9601 	 16.0729 	 52.5964
| 25> C 	 48.3572 	 16.9555 	 51.7816
| 26> C 	 47.8879 	 16.4384 	 50.5781
| 27> C 	 47.9216 	 15.0357 	 50.5421
| 28> H 	 48.4015 	 18.0229 	 52.0837
| 29> C 	 47.1694 	 17.3371 	 49.5398
| 30> H 	 47.5681 	 17.1116 	 48.561
| 31> H 	 47.3506 	 18.4073 	 49.6247
| 32> C 	 45.6437 	 17.2818 	 49.3866
| 33> H 	 45.2067 	 17.5457 	 50.3356
| 34> H 	 45.2699 	 16.3233 	 49.0715
| 35> C 	 44.9919 	 18.1391 	 48.2431
| 36> H 	 45.418 	 17.6954 	 47.3616
| 37> H 	 45.2528 	 19.2834 	 48.2884
| 38> H 	 43.868 	 18.0598 	 48.1018
| 39> H 	 46.4151 	 10.9348 	 48.164
| 40> H 	 49.4652 	 16.297 	 53.5444
| 41> *
| 42>
| 43>                          ****END OF INPUT****

CARTESIAN COORDINATES (ANGSTROEM)
---------------------------------
  S     46.919400   12.426700   50.073500
  C     46.829000   11.877100   48.411600
  C     47.351200   12.799200   47.500400
  C     47.758100   13.968300   48.181300
  C     47.581400   13.968900   49.556200
  H     48.143600   14.887200   47.832500
  C     47.420100   12.659600   45.957300
  H     46.673800   11.905200   45.701100
  H     48.500400   12.379700   45.699800
  C     47.299800   14.041100   45.139300
  H     48.174600   14.669600   45.178500
  H     47.472600   13.726400   44.138400
  C     46.047400   14.852500   45.356300
  H     45.878800   15.109000   46.386100
  H     45.911800   15.706900   44.669700
  H     45.130100   14.294900   45.062700
  S     49.032400   14.505400   51.787800
  C     48.960100   16.072900   52.596400
  C     48.357200   16.955500   51.781600
  C     47.887900   16.438400   50.578100
  C     47.921600   15.035700   50.542100
  H     48.401500   18.022900   52.083700
  C     47.169400   17.337100   49.539800
  H     47.568100   17.111600   48.561000
  H     47.350600   18.407300   49.624700
  C     45.643700   17.281800   49.386600
  H     45.206700   17.545700   50.335600
  H     45.269900   16.323300   49.071500
  C     44.991900   18.139100   48.243100
  H     45.418000   17.695400   47.361600
  H     45.252800   19.283400   48.288400
  H     43.868000   18.059800   48.101800
  H     46.415100   10.934800   48.164000
  H     49.465200   16.297000   53.544400

 Total Charge           Charge          ....    0
 Multiplicity           Mult            ....    1
 Number of Electrons    NEL             ....  134
 Basis Dimension        Dim             ....  322

ORBITAL ENERGIES
----------------

  NO   OCC          E(Eh)            E(eV)
   0   2.0000     -88.968334     -2420.9514
   1   2.0000     -88.962220     -2420.7851
   2   2.0000     -10.333512      -281.1891
   3   2.0000     -10.332419      -281.1594
   4   2.0000     -10.315540      -280.7001
   5   2.0000     -10.314870      -280.6819
   6   2.0000     -10.310793      -280.5709
   7   2.0000     -10.308690      -280.5137
   8   2.0000     -10.306902      -280.4651
   9   2.0000     -10.293991      -280.1137
  10   2.0000     -10.291428      -280.0440
  11   2.0000     -10.290925      -280.0303
  12   2.0000     -10.290880      -280.0291
  13   2.0000     -10.290322      -280.0139
  14   2.0000     -10.282960      -279.8136
  15   2.0000     -10.280131      -279.7366
  16   2.0000      -8.082738      -219.9425
  17   2.0000      -8.077081      -219.7885
  18   2.0000      -6.041181      -164.3889
  19   2.0000      -6.037231      -164.2814
  20   2.0000      -6.035506      -164.2345
  21   2.0000      -6.033649      -164.1839
  22   2.0000      -6.031670      -164.1301
  23   2.0000      -6.027787      -164.0244
  24   2.0000      -1.007932       -27.4272
  25   2.0000      -0.986827       -26.8529
  26   2.0000      -0.905500       -24.6399
  27   2.0000      -0.902608       -24.5612
  28   2.0000      -0.870527       -23.6882
  29   2.0000      -0.848925       -23.1004
  30   2.0000      -0.844245       -22.9731
  31   2.0000      -0.817737       -22.2518
  32   2.0000      -0.782500       -21.2929
  33   2.0000      -0.772721       -21.0268
  34   2.0000      -0.713556       -19.4168
  35   2.0000      -0.699865       -19.0443
  36   2.0000      -0.688153       -18.7256
  37   2.0000      -0.659612       -17.9490
  38   2.0000      -0.646531       -17.5930
  39   2.0000      -0.620458       -16.8835
  40   2.0000      -0.598058       -16.2740
  41   2.0000      -0.568207       -15.4617
  42   2.0000      -0.561771       -15.2866
  43   2.0000      -0.549871       -14.9627
  44   2.0000      -0.537621       -14.6294
  45   2.0000      -0.522053       -14.2058
  46   2.0000      -0.517030       -14.0691
  47   2.0000      -0.511561       -13.9203
  48   2.0000      -0.499794       -13.6001
  49   2.0000      -0.495680       -13.4881
  50   2.0000      -0.489868       -13.3300
  51   2.0000      -0.486606       -13.2412
  52   2.0000      -0.472368       -12.8538
  53   2.0000      -0.467818       -12.7300
  54   2.0000      -0.457411       -12.4468
  55   2.0000      -0.448766       -12.2115
  56   2.0000      -0.445973       -12.1355
  57   2.0000      -0.435778       -11.8581
  58   2.0000      -0.428896       -11.6708
  59   2.0000      -0.423701       -11.5295
  60   2.0000      -0.419480       -11.4146
  61   2.0000      -0.413190       -11.2435
  62   2.0000      -0.407904       -11.0996
  63   2.0000      -0.348803        -9.4914
  64   2.0000      -0.332334        -9.0433
  65   2.0000      -0.329960        -8.9787
  66   2.0000      -0.293126        -7.9764
  67   0.0000       0.024915         0.6780
  68   0.0000       0.068085         1.8527
  69   0.0000       0.109202         2.9715
  70   0.0000       0.120410         3.2765
  71   0.0000       0.128131         3.4866

MULLIKEN ATOMIC CHARGES
-----------------------
   0 S :    0.118247
   1 C :   -0.123661
   2 C :   -0.069302
   3 C :    0.044073
   4 C :   -0.169418
   5 H :   -0.013652
   6 C :    0.057184
   7 H :    0.036411
   8 H :    0.057988
   9 C :   -0.062944
  10 H :    0.021913
  11 H :    0.012519
  12 C :   -0.045087
  13 H :    0.041627
  14 H :    0.036089
  15 H :    0.021347
  16 S :    0.086870
  17 C :   -0.093336
  18 C :   -0.046762
  19 C :   -0.004404
  20 C :   -0.137501
  21 H :    0.031342
  22 C :    0.072545
  23 H :    0.003743
  24 H :    0.013904
  25 C :   -0.047039
  26 H :    0.025811
  27 H :    0.029049
  28 C :   -0.115868
  29 H :    0.024120
  30 H :    0.042226
  31 H :    0.054345
  32 H :    0.033493
  33 H :    0.064125
Sum of atomic charges:   -0.0000000

LOEWDIN ATOMIC CHARGES
----------------------
   0 S :    0.409462
   1 C :   -0.189751
   2 C :   -0.066447
   3 C :   -0.061137
   4 C :   -0.197437
   5 H :    0.023333
   6 C :   -0.023856
   7 H :    0.031316
   8 H :    0.048359
   9 C :   -0.048072
  10 H :    0.024674
  11 H :    0.024376
  12 C :   -0.074946
  13 H :    0.022762
  14 H :    0.031693
  15 H :    0.030077
  16 S :    0.400406
  17 C :   -0.181541
  18 C :   -0.079851
  19 C :   -0.059938
  20 C :   -0.187052
  21 H :    0.041292
  22 C :   -0.031922
  23 H :    0.022558
  24 H :    0.030940
  25 C :   -0.037681
  26 H :    0.018272
  27 H :    0.022039
  28 C :   -0.078309
  29 H :    0.017906
  30 H :    0.028496
  31 H :    0.036429
  32 H :    0.018270
  33 H :    0.035278

  Mayer bond orders larger than 0.100000
B(  0-S ,  1-C ) :   1.1542 B(  0-S ,  4-C ) :   1.1556 B(  1-C ,  2-C ) :   1.5903
B(  1-C ,  4-C ) :   0.1040 B(  1-C , 32-H ) :   0.9749 B(  2-C ,  3-C ) :   1.2359
B(  2-C ,  6-C ) :   1.0098 B(  3-C ,  4-C ) :   1.5830 B(  3-C ,  5-H ) :   0.9973
B(  4-C , 20-C ) :   1.0113 B(  6-C ,  7-H ) :   0.9493 B(  6-C ,  8-H ) :   0.9342
B(  6-C ,  9-C ) :   1.0708 B(  9-C , 10-H ) :   0.9469 B(  9-C , 11-H ) :   0.9481
B(  9-C , 12-C ) :   1.0765 B( 12-C , 13-H ) :   0.9721 B( 12-C , 14-H ) :   0.9709
B( 12-C , 15-H ) :   0.9682 B( 16-S , 17-C ) :   1.1451 B( 16-S , 20-C ) :   1.1683
B( 17-C , 18-C ) :   1.6057 B( 17-C , 20-C ) :   0.1098 B( 17-C , 33-H ) :   0.9671
B( 18-C , 19-C ) :   1.2577 B( 18-C , 21-H ) :   0.9871 B( 19-C , 20-C ) :   1.5594
B( 19-C , 22-C ) :   1.0417 B( 22-C , 23-H ) :   0.9296 B( 22-C , 24-H ) :   0.9397
B( 22-C , 25-C ) :   1.0649 B( 25-C , 26-H ) :   0.9581 B( 25-C , 27-H ) :   0.9552
B( 25-C , 28-C ) :   1.0605 B( 28-C , 29-H ) :   0.9768 B( 28-C , 30-H ) :   0.9738
B( 28-C , 31-H ) :   0.9753

Dispersion correction           -0.015186833
FINAL SINGLE POINT ENERGY     -1339.858487511499

DIPOLE MOMENT
-------------
                                X             Y             Z
Electronic contribution:     11.96523     -15.95832      24.52778
Nuclear contribution   :    -11.99419      16.30548     -25.14296
                        -----------------------------------------
Total Dipole Moment    :     -0.02896       0.34716      -0.61518
                        -----------------------------------------
Magnitude (a.u.)       :      0.70697
Magnitude (Debye)      :      1.79698

Rotational constants in cm-1:     0.016518     0.010525     0.007312
Rotational constants in MHz :   495.206852   315.531025   219.208060

                             ****ORCA TERMINATED NORMALLY****
TOTAL RUN TIME: 0 days 0 hours 0 minutes 36 seconds 460 msec
