                         Program Version 4.2.1 -  RELEASE  -
|  1> ! wB97X-D3 SP def2-SVP
|  2> %pal
|  3> nprocs 16
|  4> end
|  5>
|  6> * xyz 0 1
|  7> S 	 -43.3457 	 -7.19835 	 100.648
|  8> C 	 -44.7548 	 -6.32434 	 100.04
|  9> C 	 -44.4289 	 -5.13256 	 99.4593
| 10> C 	 -43.013 	 -4.87097 	 99.5508
| 11> C 	 -42.2503 	 -5.91485 	 100.099
| 12> H 	 -42.5618 	 -3.94311 	 99.2325
| 13> C 	 -45.4646 	 -4.04323 	 99.0416
| 14> H 	 -44.9566 	 -3.04898 	 99.3009
| 15> H 	 -46.4183 	 -4.23677 	 99.6026
| 16> C 	 -45.6762 	 -3.92077 	 97.5824
| 17> H 	 -46.3321 	 -3.03817 	 97.4255
| 18> H 	 -44.7596 	 -3.65807 	 97.1474
| 19> C 	 -46.3205 	 -5.18132 	 97.0089
| 20> H 	 -47.4123 	 -5.22263 	 97.0218
| 21> H 	 -46.1784 	 -5.14595 	 95.9492
| 22> H 	 -45.9848 	 -6.12192 	 97.5527
| 23> S 	 -39.8462 	 -5.53754 	 98.9442
| 24> C 	 -38.3648 	 -5.77965 	 99.8595
| 25> C 	 -38.5738 	 -5.99581 	 101.18
| 26> C 	 -40.0167 	 -5.96426 	 101.455
| 27> C 	 -40.8511 	 -5.82072 	 100.382
| 28> H 	 -37.7261 	 -6.09318 	 101.912
| 29> C 	 -40.4566 	 -6.24463 	 102.899
| 30> H 	 -39.5609 	 -6.62609 	 103.329
| 31> H 	 -41.145 	 -7.06887 	 102.828
| 32> C 	 -41.078 	 -5.12957 	 103.655
| 33> H 	 -41.8583 	 -4.71043 	 102.971
| 34> H 	 -40.4395 	 -4.27206 	 103.86
| 35> C 	 -41.7241 	 -5.56514 	 104.963
| 36> H 	 -42.5626 	 -6.24509 	 104.758
| 37> H 	 -42.3756 	 -4.82673 	 105.431
| 38> H 	 -41.0781 	 -5.85025 	 105.791
| 39> H 	 -45.7908 	 -6.68109 	 100.163
| 40> H 	 -37.3553 	 -5.5851 	 99.5047
| 41> *
| 42>
| 43>                          ****END OF INPUT****

CARTESIAN COORDINATES (ANGSTROEM)
---------------------------------
  S    -43.345700   -7.198350  100.648000
  C    -44.754800   -6.324340  100.040000
  C    -44.428900   -5.132560   99.459300
  C    -43.013000   -4.870970   99.550800
  C    -42.250300   -5.914850  100.099000
  H    -42.561800   -3.943110   99.232500
  C    -45.464600   -4.043230   99.041600
  H    -44.956600   -3.048980   99.300900
  H    -46.418300   -4.236770   99.602600
  C    -45.676200   -3.920770   97.582400
  H    -46.332100   -3.038170   97.425500
  H    -44.759600   -3.658070   97.147400
  C    -46.320500   -5.181320   97.008900
  H    -47.412300   -5.222630   97.021800
  H    -46.178400   -5.145950   95.949200
  H    -45.984800   -6.121920   97.552700
  S    -39.846200   -5.537540   98.944200
  C    -38.364800   -5.779650   99.859500
  C    -38.573800   -5.995810  101.180000
  C    -40.016700   -5.964260  101.455000
  C    -40.851100   -5.820720  100.382000
  H    -37.726100   -6.093180  101.912000
  C    -40.456600   -6.244630  102.899000
  H    -39.560900   -6.626090  103.329000
  H    -41.145000   -7.068870  102.828000
  C    -41.078000   -5.129570  103.655000
  H    -41.858300   -4.710430  102.971000
  H    -40.439500   -4.272060  103.860000
  C    -41.724100   -5.565140  104.963000
  H    -42.562600   -6.245090  104.758000
  H    -42.375600   -4.826730  105.431000
  H    -41.078100   -5.850250  105.791000
  H    -45.790800   -6.681090  100.163000
  H    -37.355300   -5.585100   99.504700

 Total Charge           Charge          ....    0
 Multiplicity           Mult            ....    1
 Number of Electrons    NEL             ....  134
 Basis Dimension        Dim             ....  322

ORBITAL ENERGIES
----------------

  NO   OCC          E(Eh)            E(eV)
   0   2.0000     -88.971133     -2421.0276
   1   2.0000     -88.961322     -2420.7606
   2   2.0000     -10.336034      -281.2578
   3   2.0000     -10.325722      -280.9772
   4   2.0000     -10.319779      -280.8155
   5   2.0000     -10.316326      -280.7215
   6   2.0000     -10.304697      -280.4051
   7   2.0000     -10.304229      -280.3923
   8   2.0000     -10.301819      -280.3267
   9   2.0000     -10.300730      -280.2971
  10   2.0000     -10.298989      -280.2497
  11   2.0000     -10.281966      -279.7865
  12   2.0000     -10.281142      -279.7641
  13   2.0000     -10.279915      -279.7307
  14   2.0000     -10.275928      -279.6222
  15   2.0000     -10.273183      -279.5475
  16   2.0000      -8.084842      -219.9997
  17   2.0000      -8.075888      -219.7561
  18   2.0000      -6.043498      -164.4519
  19   2.0000      -6.039493      -164.3430
  20   2.0000      -6.035503      -164.2344
  21   2.0000      -6.034630      -164.2106
  22   2.0000      -6.030450      -164.0969
  23   2.0000      -6.026361      -163.9856
  24   2.0000      -1.004836       -27.3430
  25   2.0000      -0.981856       -26.7177
  26   2.0000      -0.918239       -24.9866
  27   2.0000      -0.910057       -24.7639
  28   2.0000      -0.875947       -23.8357
  29   2.0000      -0.847727       -23.0678
  30   2.0000      -0.842005       -22.9121
  31   2.0000      -0.813266       -22.1301
  32   2.0000      -0.784053       -21.3352
  33   2.0000      -0.774000       -21.0616
  34   2.0000      -0.713743       -19.4219
  35   2.0000      -0.695900       -18.9364
  36   2.0000      -0.690612       -18.7925
  37   2.0000      -0.664160       -18.0727
  38   2.0000      -0.638250       -17.3677
  39   2.0000      -0.616718       -16.7817
  40   2.0000      -0.589865       -16.0510
  41   2.0000      -0.570992       -15.5375
  42   2.0000      -0.565023       -15.3750
  43   2.0000      -0.555667       -15.1205
  44   2.0000      -0.543541       -14.7905
  45   2.0000      -0.523055       -14.2330
  46   2.0000      -0.519274       -14.1302
  47   2.0000      -0.510203       -13.8833
  48   2.0000      -0.504986       -13.7414
  49   2.0000      -0.496474       -13.5097
  50   2.0000      -0.490387       -13.3441
  51   2.0000      -0.485356       -13.2072
  52   2.0000      -0.475028       -12.9262
  53   2.0000      -0.462898       -12.5961
  54   2.0000      -0.455094       -12.3838
  55   2.0000      -0.450008       -12.2453
  56   2.0000      -0.444957       -12.1079
  57   2.0000      -0.433042       -11.7837
  58   2.0000      -0.429565       -11.6891
  59   2.0000      -0.419332       -11.4106
  60   2.0000      -0.414278       -11.2731
  61   2.0000      -0.409312       -11.1380
  62   2.0000      -0.403932       -10.9916
  63   2.0000      -0.347967        -9.4687
  64   2.0000      -0.333764        -9.0822
  65   2.0000      -0.328140        -8.9291
  66   2.0000      -0.297911        -8.1066
  67   0.0000       0.026866         0.7311
  68   0.0000       0.070822         1.9272
  69   0.0000       0.101765         2.7692
  70   0.0000       0.113670         3.0931
  71   0.0000       0.129282         3.5179

MULLIKEN ATOMIC CHARGES
-----------------------
   0 S :    0.113710
   1 C :   -0.146924
   2 C :   -0.061648
   3 C :    0.015054
   4 C :   -0.126934
   5 H :    0.015243
   6 C :    0.012275
   7 H :    0.036884
   8 H :    0.039289
   9 C :   -0.022781
  10 H :    0.031960
  11 H :    0.013732
  12 C :   -0.062714
  13 H :    0.021608
  14 H :    0.026846
  15 H :    0.049737
  16 S :    0.088140
  17 C :   -0.074760
  18 C :   -0.053009
  19 C :   -0.096029
  20 C :   -0.146796
  21 H :    0.047226
  22 C :    0.123830
  23 H :   -0.004804
  24 H :    0.013435
  25 C :   -0.057082
  26 H :    0.033908
  27 H :    0.023935
  28 C :   -0.049313
  29 H :    0.024510
  30 H :    0.014614
  31 H :    0.040127
  32 H :    0.061328
  33 H :    0.055403
Sum of atomic charges:   -0.0000000

LOEWDIN ATOMIC CHARGES
----------------------
   0 S :    0.393359
   1 C :   -0.193438
   2 C :   -0.068493
   3 C :   -0.054373
   4 C :   -0.195269
   5 H :    0.027677
   6 C :   -0.029859
   7 H :    0.040215
   8 H :    0.033599
   9 C :   -0.044215
  10 H :    0.030612
  11 H :    0.016849
  12 C :   -0.075720
  13 H :    0.024889
  14 H :    0.025275
  15 H :    0.034878
  16 S :    0.388178
  17 C :   -0.177461
  18 C :   -0.080943
  19 C :   -0.049776
  20 C :   -0.192509
  21 H :    0.045222
  22 C :   -0.029389
  23 H :    0.021227
  24 H :    0.025707
  25 C :   -0.044538
  26 H :    0.033929
  27 H :    0.023490
  28 C :   -0.077499
  29 H :    0.029624
  30 H :    0.027824
  31 H :    0.025816
  32 H :    0.033521
  33 H :    0.031592

  Mayer bond orders larger than 0.100000
B(  0-S ,  1-C ) :   1.1347 B(  0-S ,  4-C ) :   1.1262 B(  1-C ,  2-C ) :   1.6200
B(  1-C , 32-H ) :   0.9602 B(  2-C ,  3-C ) :   1.2460 B(  2-C ,  6-C ) :   1.0056
B(  3-C ,  4-C ) :   1.5643 B(  3-C ,  5-H ) :   0.9868 B(  4-C , 20-C ) :   1.0655
B(  6-C ,  7-H ) :   0.9439 B(  6-C ,  8-H ) :   0.9501 B(  6-C ,  9-C ) :   1.0815
B(  9-C , 10-H ) :   0.9493 B(  9-C , 11-H ) :   0.9547 B(  9-C , 12-C ) :   1.0668
B( 12-C , 13-H ) :   0.9725 B( 12-C , 14-H ) :   0.9724 B( 12-C , 15-H ) :   0.9745
B( 16-S , 17-C ) :   1.1454 B( 16-S , 20-C ) :   1.0994 B( 17-C , 18-C ) :   1.6556
B( 17-C , 33-H ) :   0.9580 B( 18-C , 19-C ) :   1.2106 B( 18-C , 21-H ) :   0.9786
B( 19-C , 20-C ) :   1.6411 B( 19-C , 22-C ) :   1.0301 B( 22-C , 23-H ) :   0.9248
B( 22-C , 24-H ) :   0.9339 B( 22-C , 25-C ) :   1.0689 B( 25-C , 26-H ) :   0.9521
B( 25-C , 27-H ) :   0.9515 B( 25-C , 28-C ) :   1.0921 B( 28-C , 29-H ) :   0.9681
B( 28-C , 30-H ) :   0.9669 B( 28-C , 31-H ) :   0.9758

Dispersion correction           -0.014402062
FINAL SINGLE POINT ENERGY     -1339.868046543146

DIPOLE MOMENT
-------------
                                X             Y             Z
Electronic contribution:     13.65802      -8.23350      -6.85140
Nuclear contribution   :    -13.84964       8.65970       7.09325
                        -----------------------------------------
Total Dipole Moment    :     -0.19162       0.42620       0.24185
                        -----------------------------------------
Magnitude (a.u.)       :      0.52617
Magnitude (Debye)      :      1.33742

Rotational constants in cm-1:     0.020016     0.008341     0.006698
Rotational constants in MHz :   600.077104   250.068221   200.814093

                             ****ORCA TERMINATED NORMALLY****
TOTAL RUN TIME: 0 days 0 hours 0 minutes 31 seconds 597 msec
