                         Program Version 4.2.1 -  RELEASE  -
|  1> ! wB97X-D3 SP def2-SVP
|  2> %pal
|  3> nprocs 16
|  4> end
|  5>
|  6> * xyz 0 1
|  7> S 	 -24.3026 	 63.0119 	 105.525
|  8> C 	 -26.0602 	 62.8932 	 105.331
|  9> C 	 -26.6364 	 62.3945 	 106.488
| 10> C 	 -25.6383 	 62.078 	 107.512
| 11> C 	 -24.3538 	 62.4064 	 107.149
| 12> H 	 -25.8596 	 61.6831 	 108.502
| 13> C 	 -28.1186 	 62.2536 	 106.704
| 14> H 	 -28.3892 	 62.8765 	 107.678
| 15> H 	 -28.3742 	 61.2463 	 106.994
| 16> C 	 -29.1569 	 62.7937 	 105.641
| 17> H 	 -30.1322 	 62.8778 	 106.138
| 18> H 	 -28.7793 	 63.7569 	 105.379
| 19> C 	 -29.3302 	 61.8483 	 104.462
| 20> H 	 -29.6074 	 60.9374 	 104.911
| 21> H 	 -30.2216 	 62.1933 	 103.846
| 22> H 	 -28.4834 	 61.5805 	 103.774
| 23> S 	 -23.0165 	 63.4314 	 109.333
| 24> C 	 -21.4014 	 62.7992 	 109.78
| 25> C 	 -21.1344 	 61.7248 	 108.973
| 26> C 	 -22.1082 	 61.4439 	 107.961
| 27> C 	 -23.143 	 62.3663 	 107.918
| 28> H 	 -20.1944 	 61.1646 	 109
| 29> C 	 -22.0575 	 60.2731 	 106.951
| 30> H 	 -21.0342 	 60.1747 	 106.616
| 31> H 	 -22.5119 	 60.5835 	 106.083
| 32> C 	 -22.6366 	 58.9224 	 107.316
| 33> H 	 -22.1848 	 58.4417 	 108.267
| 34> H 	 -22.3678 	 58.3018 	 106.452
| 35> C 	 -24.1191 	 59.0709 	 107.48
| 36> H 	 -24.6602 	 58.154 	 107.782
| 37> H 	 -24.6261 	 59.525 	 106.601
| 38> H 	 -24.3668 	 59.7268 	 108.33
| 39> H 	 -26.5393 	 63.2199 	 104.468
| 40> H 	 -20.8124 	 63.063 	 110.623
| 41> *
| 42>
| 43>                          ****END OF INPUT****

CARTESIAN COORDINATES (ANGSTROEM)
---------------------------------
  S    -24.302600   63.011900  105.525000
  C    -26.060200   62.893200  105.331000
  C    -26.636400   62.394500  106.488000
  C    -25.638300   62.078000  107.512000
  C    -24.353800   62.406400  107.149000
  H    -25.859600   61.683100  108.502000
  C    -28.118600   62.253600  106.704000
  H    -28.389200   62.876500  107.678000
  H    -28.374200   61.246300  106.994000
  C    -29.156900   62.793700  105.641000
  H    -30.132200   62.877800  106.138000
  H    -28.779300   63.756900  105.379000
  C    -29.330200   61.848300  104.462000
  H    -29.607400   60.937400  104.911000
  H    -30.221600   62.193300  103.846000
  H    -28.483400   61.580500  103.774000
  S    -23.016500   63.431400  109.333000
  C    -21.401400   62.799200  109.780000
  C    -21.134400   61.724800  108.973000
  C    -22.108200   61.443900  107.961000
  C    -23.143000   62.366300  107.918000
  H    -20.194400   61.164600  109.000000
  C    -22.057500   60.273100  106.951000
  H    -21.034200   60.174700  106.616000
  H    -22.511900   60.583500  106.083000
  C    -22.636600   58.922400  107.316000
  H    -22.184800   58.441700  108.267000
  H    -22.367800   58.301800  106.452000
  C    -24.119100   59.070900  107.480000
  H    -24.660200   58.154000  107.782000
  H    -24.626100   59.525000  106.601000
  H    -24.366800   59.726800  108.330000
  H    -26.539300   63.219900  104.468000
  H    -20.812400   63.063000  110.623000

 Total Charge           Charge          ....    0
 Multiplicity           Mult            ....    1
 Number of Electrons    NEL             ....  134
 Basis Dimension        Dim             ....  322

ORBITAL ENERGIES
----------------

  NO   OCC          E(Eh)            E(eV)
   0   2.0000     -88.964122     -2420.8368
   1   2.0000     -88.963793     -2420.8279
   2   2.0000     -10.328074      -281.0412
   3   2.0000     -10.326064      -280.9865
   4   2.0000     -10.320365      -280.8314
   5   2.0000     -10.313297      -280.6391
   6   2.0000     -10.309431      -280.5339
   7   2.0000     -10.304292      -280.3940
   8   2.0000     -10.302476      -280.3446
   9   2.0000     -10.299406      -280.2611
  10   2.0000     -10.295620      -280.1581
  11   2.0000     -10.293119      -280.0900
  12   2.0000     -10.289417      -279.9893
  13   2.0000     -10.282543      -279.8022
  14   2.0000     -10.281397      -279.7710
  15   2.0000     -10.271077      -279.4902
  16   2.0000      -8.078754      -219.8341
  17   2.0000      -8.077474      -219.7992
  18   2.0000      -6.037321      -164.2839
  19   2.0000      -6.036133      -164.2515
  20   2.0000      -6.033202      -164.1718
  21   2.0000      -6.032096      -164.1417
  22   2.0000      -6.029524      -164.0717
  23   2.0000      -6.028145      -164.0342
  24   2.0000      -1.005263       -27.3546
  25   2.0000      -0.979837       -26.6627
  26   2.0000      -0.911776       -24.8107
  27   2.0000      -0.909749       -24.7555
  28   2.0000      -0.871685       -23.7198
  29   2.0000      -0.848826       -23.0977
  30   2.0000      -0.840281       -22.8652
  31   2.0000      -0.815334       -22.1864
  32   2.0000      -0.781258       -21.2591
  33   2.0000      -0.773314       -21.0429
  34   2.0000      -0.708277       -19.2732
  35   2.0000      -0.705913       -19.2089
  36   2.0000      -0.692638       -18.8476
  37   2.0000      -0.658648       -17.9227
  38   2.0000      -0.646127       -17.5820
  39   2.0000      -0.608118       -16.5477
  40   2.0000      -0.597202       -16.2507
  41   2.0000      -0.580457       -15.7950
  42   2.0000      -0.551336       -15.0026
  43   2.0000      -0.545082       -14.8324
  44   2.0000      -0.543644       -14.7933
  45   2.0000      -0.537326       -14.6214
  46   2.0000      -0.518098       -14.0982
  47   2.0000      -0.513339       -13.9687
  48   2.0000      -0.507329       -13.8051
  49   2.0000      -0.497295       -13.5321
  50   2.0000      -0.492269       -13.3953
  51   2.0000      -0.484012       -13.1706
  52   2.0000      -0.467469       -12.7205
  53   2.0000      -0.464401       -12.6370
  54   2.0000      -0.462079       -12.5738
  55   2.0000      -0.441833       -12.0229
  56   2.0000      -0.436524       -11.8784
  57   2.0000      -0.435468       -11.8497
  58   2.0000      -0.428740       -11.6666
  59   2.0000      -0.424847       -11.5607
  60   2.0000      -0.420463       -11.4414
  61   2.0000      -0.412257       -11.2181
  62   2.0000      -0.406645       -11.0654
  63   2.0000      -0.334281        -9.0962
  64   2.0000      -0.332852        -9.0574
  65   2.0000      -0.324488        -8.8298
  66   2.0000      -0.306670        -8.3449
  67   0.0000       0.038665         1.0521
  68   0.0000       0.056406         1.5349
  69   0.0000       0.108255         2.9458
  70   0.0000       0.117295         3.1918
  71   0.0000       0.130077         3.5396

MULLIKEN ATOMIC CHARGES
-----------------------
   0 S :    0.107312
   1 C :   -0.117418
   2 C :   -0.052615
   3 C :    0.039465
   4 C :   -0.180226
   5 H :    0.019441
   6 C :   -0.019486
   7 H :    0.050945
   8 H :    0.027638
   9 C :   -0.043352
  10 H :    0.037987
  11 H :    0.026795
  12 C :   -0.067082
  13 H :    0.012544
  14 H :    0.044282
  15 H :    0.049730
  16 S :    0.093718
  17 C :   -0.074838
  18 C :   -0.026644
  19 C :   -0.047974
  20 C :   -0.153042
  21 H :    0.022785
  22 C :    0.114715
  23 H :    0.010250
  24 H :   -0.015348
  25 C :   -0.046980
  26 H :    0.040044
  27 H :    0.035000
  28 C :   -0.067064
  29 H :    0.026979
  30 H :    0.044890
  31 H :    0.025478
  32 H :    0.029291
  33 H :    0.052781
Sum of atomic charges:   -0.0000000

LOEWDIN ATOMIC CHARGES
----------------------
   0 S :    0.405864
   1 C :   -0.184383
   2 C :   -0.059129
   3 C :   -0.055037
   4 C :   -0.200116
   5 H :    0.032136
   6 C :   -0.041721
   7 H :    0.046846
   8 H :    0.024771
   9 C :   -0.036021
  10 H :    0.034250
  11 H :    0.017213
  12 C :   -0.076288
  13 H :    0.017713
  14 H :    0.034163
  15 H :    0.030797
  16 S :    0.381283
  17 C :   -0.166382
  18 C :   -0.072395
  19 C :   -0.050930
  20 C :   -0.197934
  21 H :    0.033834
  22 C :   -0.027712
  23 H :    0.028153
  24 H :    0.014839
  25 C :   -0.041450
  26 H :    0.032262
  27 H :    0.028441
  28 C :   -0.075020
  29 H :    0.024181
  30 H :    0.029795
  31 H :    0.025361
  32 H :    0.013926
  33 H :    0.028690

  Mayer bond orders larger than 0.100000
B(  0-S ,  1-C ) :   1.1245 B(  0-S ,  4-C ) :   1.1542 B(  1-C ,  2-C ) :   1.6217
B(  1-C , 32-H ) :   0.9754 B(  2-C ,  3-C ) :   1.2098 B(  2-C ,  6-C ) :   1.0173
B(  3-C ,  4-C ) :   1.6057 B(  3-C ,  5-H ) :   0.9958 B(  4-C , 20-C ) :   1.0143
B(  6-C ,  7-H ) :   0.9409 B(  6-C ,  8-H ) :   0.9387 B(  6-C ,  9-C ) :   1.0798
B(  9-C , 10-H ) :   0.9528 B(  9-C , 11-H ) :   0.9538 B(  9-C , 12-C ) :   1.0701
B( 12-C , 13-H ) :   0.9711 B( 12-C , 14-H ) :   0.9737 B( 12-C , 15-H ) :   0.9772
B( 16-S , 17-C ) :   1.1400 B( 16-S , 20-C ) :   1.1292 B( 17-C , 18-C ) :   1.6081
B( 17-C , 20-C ) :   0.1011 B( 17-C , 33-H ) :   0.9729 B( 18-C , 19-C ) :   1.2568
B( 18-C , 21-H ) :   0.9820 B( 19-C , 20-C ) :   1.5977 B( 19-C , 22-C ) :   1.0297
B( 22-C , 23-H ) :   0.9264 B( 22-C , 24-H ) :   0.9203 B( 22-C , 25-C ) :   1.0768
B( 25-C , 26-H ) :   0.9535 B( 25-C , 27-H ) :   0.9490 B( 25-C , 28-C ) :   1.0831
B( 28-C , 29-H ) :   0.9687 B( 28-C , 30-H ) :   0.9693 B( 28-C , 31-H ) :   0.9689

Dispersion correction           -0.015862804
FINAL SINGLE POINT ENERGY     -1339.877526604421

DIPOLE MOMENT
-------------
                                X             Y             Z
Electronic contribution:     16.82156      15.44693       7.23745
Nuclear contribution   :    -17.12764     -15.87186      -7.18396
                        -----------------------------------------
Total Dipole Moment    :     -0.30609      -0.42493       0.05349
                        -----------------------------------------
Magnitude (a.u.)       :      0.52642
Magnitude (Debye)      :      1.33804

Rotational constants in cm-1:     0.024542     0.007909     0.007045
Rotational constants in MHz :   735.739733   237.113055   211.206595

                             ****ORCA TERMINATED NORMALLY****
TOTAL RUN TIME: 0 days 0 hours 0 minutes 29 seconds 508 msec
