                         Program Version 4.2.1 -  RELEASE  -
|  1> ! wB97X-D3 SP def2-SVP
|  2> %pal
|  3> nprocs 16
|  4> end
|  5>
|  6> * xyz 0 1
|  7> S 	 -99.4454 	 40.3014 	 120.959
|  8> C 	 -97.9162 	 39.7974 	 120.258
|  9> C 	 -97.2842 	 40.7754 	 119.556
| 10> C 	 -98.0656 	 41.9886 	 119.527
| 11> C 	 -99.2715 	 41.9026 	 120.259
| 12> H 	 -97.9601 	 42.9362 	 118.962
| 13> C 	 -95.955 	 40.6054 	 118.872
| 14> H 	 -95.6775 	 39.7065 	 119.475
| 15> H 	 -95.2653 	 41.389 	 119.159
| 16> C 	 -96.0442 	 40.3362 	 117.347
| 17> H 	 -96.816 	 39.6344 	 117.069
| 18> H 	 -96.2483 	 41.3245 	 116.933
| 19> C 	 -94.6394 	 40.0557 	 116.853
| 20> H 	 -94.843 	 40.0069 	 115.73
| 21> H 	 -93.9656 	 40.892 	 116.984
| 22> H 	 -94.2728 	 39.11 	 117.231
| 23> S 	 -100.835 	 43.7798 	 119.036
| 24> C 	 -101.844 	 44.8416 	 120.031
| 25> C 	 -101.629 	 44.6335 	 121.393
| 26> C 	 -100.66 	 43.6094 	 121.715
| 27> C 	 -100.218 	 42.9901 	 120.511
| 28> H 	 -101.996 	 45.2912 	 122.148
| 29> C 	 -100.252 	 43.1968 	 123.186
| 30> H 	 -100.068 	 44.1703 	 123.638
| 31> H 	 -99.2054 	 42.6815 	 123.136
| 32> C 	 -101.296 	 42.4693 	 124
| 33> H 	 -101.655 	 41.5158 	 123.622
| 34> H 	 -102.063 	 43.1877 	 124.245
| 35> C 	 -100.699 	 42.1028 	 125.4
| 36> H 	 -100.068 	 41.2454 	 125.3
| 37> H 	 -101.512 	 41.9105 	 126.074
| 38> H 	 -100.146 	 42.9797 	 125.843
| 39> H 	 -97.5337 	 38.8112 	 120.456
| 40> H 	 -102.338 	 45.702 	 119.607
| 41> *
| 42>
| 43>                          ****END OF INPUT****

CARTESIAN COORDINATES (ANGSTROEM)
---------------------------------
  S    -99.445400   40.301400  120.959000
  C    -97.916200   39.797400  120.258000
  C    -97.284200   40.775400  119.556000
  C    -98.065600   41.988600  119.527000
  C    -99.271500   41.902600  120.259000
  H    -97.960100   42.936200  118.962000
  C    -95.955000   40.605400  118.872000
  H    -95.677500   39.706500  119.475000
  H    -95.265300   41.389000  119.159000
  C    -96.044200   40.336200  117.347000
  H    -96.816000   39.634400  117.069000
  H    -96.248300   41.324500  116.933000
  C    -94.639400   40.055700  116.853000
  H    -94.843000   40.006900  115.730000
  H    -93.965600   40.892000  116.984000
  H    -94.272800   39.110000  117.231000
  S    -100.835000   43.779800  119.036000
  C    -101.844000   44.841600  120.031000
  C    -101.629000   44.633500  121.393000
  C    -100.660000   43.609400  121.715000
  C    -100.218000   42.990100  120.511000
  H    -101.996000   45.291200  122.148000
  C    -100.252000   43.196800  123.186000
  H    -100.068000   44.170300  123.638000
  H    -99.205400   42.681500  123.136000
  C    -101.296000   42.469300  124.000000
  H    -101.655000   41.515800  123.622000
  H    -102.063000   43.187700  124.245000
  C    -100.699000   42.102800  125.400000
  H    -100.068000   41.245400  125.300000
  H    -101.512000   41.910500  126.074000
  H    -100.146000   42.979700  125.843000
  H    -97.533700   38.811200  120.456000
  H    -102.338000   45.702000  119.607000

 Total Charge           Charge          ....    0
 Multiplicity           Mult            ....    1
 Number of Electrons    NEL             ....  134
 Basis Dimension        Dim             ....  322

ORBITAL ENERGIES
----------------

  NO   OCC          E(Eh)            E(eV)
   0   2.0000     -88.966583     -2420.9038
   1   2.0000     -88.964907     -2420.8582
   2   2.0000     -10.331178      -281.1256
   3   2.0000     -10.328771      -281.0601
   4   2.0000     -10.319897      -280.8187
   5   2.0000     -10.311371      -280.5867
   6   2.0000     -10.310682      -280.5679
   7   2.0000     -10.303967      -280.3852
   8   2.0000     -10.299158      -280.2543
   9   2.0000     -10.296896      -280.1928
  10   2.0000     -10.296747      -280.1887
  11   2.0000     -10.290956      -280.0311
  12   2.0000     -10.287316      -279.9321
  13   2.0000     -10.285975      -279.8956
  14   2.0000     -10.281129      -279.7638
  15   2.0000     -10.276422      -279.6357
  16   2.0000      -8.080360      -219.8778
  17   2.0000      -8.079277      -219.8483
  18   2.0000      -6.038871      -164.3260
  19   2.0000      -6.037720      -164.2947
  20   2.0000      -6.035027      -164.2214
  21   2.0000      -6.033853      -164.1895
  22   2.0000      -6.031161      -164.1162
  23   2.0000      -6.030140      -164.0885
  24   2.0000      -0.997519       -27.1439
  25   2.0000      -0.975066       -26.5329
  26   2.0000      -0.913728       -24.8638
  27   2.0000      -0.905593       -24.6424
  28   2.0000      -0.868349       -23.6290
  29   2.0000      -0.849561       -23.1177
  30   2.0000      -0.843011       -22.9395
  31   2.0000      -0.807729       -21.9794
  32   2.0000      -0.779123       -21.2010
  33   2.0000      -0.765510       -20.8306
  34   2.0000      -0.703806       -19.1515
  35   2.0000      -0.695692       -18.9307
  36   2.0000      -0.688192       -18.7267
  37   2.0000      -0.663471       -18.0540
  38   2.0000      -0.638879       -17.3848
  39   2.0000      -0.604943       -16.4613
  40   2.0000      -0.590135       -16.0584
  41   2.0000      -0.579864       -15.7789
  42   2.0000      -0.573635       -15.6094
  43   2.0000      -0.555007       -15.1025
  44   2.0000      -0.526560       -14.3284
  45   2.0000      -0.521624       -14.1941
  46   2.0000      -0.517098       -14.0709
  47   2.0000      -0.509834       -13.8733
  48   2.0000      -0.503393       -13.6980
  49   2.0000      -0.495608       -13.4862
  50   2.0000      -0.485151       -13.2016
  51   2.0000      -0.472499       -12.8573
  52   2.0000      -0.465486       -12.6665
  53   2.0000      -0.463048       -12.6002
  54   2.0000      -0.460887       -12.5414
  55   2.0000      -0.451081       -12.2746
  56   2.0000      -0.446242       -12.1429
  57   2.0000      -0.439706       -11.9650
  58   2.0000      -0.432116       -11.7585
  59   2.0000      -0.423376       -11.5207
  60   2.0000      -0.418838       -11.3972
  61   2.0000      -0.410102       -11.1595
  62   2.0000      -0.407955       -11.1010
  63   2.0000      -0.338805        -9.2194
  64   2.0000      -0.331935        -9.0324
  65   2.0000      -0.327739        -8.9182
  66   2.0000      -0.291914        -7.9434
  67   0.0000       0.030040         0.8174
  68   0.0000       0.070342         1.9141
  69   0.0000       0.102409         2.7867
  70   0.0000       0.116806         3.1785
  71   0.0000       0.131298         3.5728

MULLIKEN ATOMIC CHARGES
-----------------------
   0 S :    0.107442
   1 C :   -0.135981
   2 C :   -0.068187
   3 C :    0.019548
   4 C :   -0.174785
   5 H :    0.025308
   6 C :    0.045848
   7 H :    0.013529
   8 H :    0.032328
   9 C :   -0.058364
  10 H :    0.042396
  11 H :    0.025110
  12 C :   -0.040245
  13 H :    0.037639
  14 H :    0.035783
  15 H :    0.036634
  16 S :    0.096816
  17 C :   -0.090576
  18 C :   -0.021719
  19 C :   -0.022017
  20 C :   -0.183220
  21 H :    0.011459
  22 C :    0.020458
  23 H :    0.023930
  24 H :    0.054008
  25 C :   -0.039978
  26 H :    0.040369
  27 H :    0.026197
  28 C :   -0.063794
  29 H :    0.038417
  30 H :    0.030182
  31 H :    0.029598
  32 H :    0.043577
  33 H :    0.062292
Sum of atomic charges:   -0.0000000

LOEWDIN ATOMIC CHARGES
----------------------
   0 S :    0.398719
   1 C :   -0.195606
   2 C :   -0.066584
   3 C :   -0.069413
   4 C :   -0.199933
   5 H :    0.033418
   6 C :   -0.035867
   7 H :    0.032042
   8 H :    0.030929
   9 C :   -0.034321
  10 H :    0.027686
  11 H :    0.027180
  12 C :   -0.062831
  13 H :    0.035465
  14 H :    0.025134
  15 H :    0.021055
  16 S :    0.389418
  17 C :   -0.182530
  18 C :   -0.066614
  19 C :   -0.052523
  20 C :   -0.190475
  21 H :    0.025962
  22 C :   -0.037574
  23 H :    0.031286
  24 H :    0.041320
  25 C :   -0.036696
  26 H :    0.026846
  27 H :    0.024646
  28 C :   -0.061057
  29 H :    0.020887
  30 H :    0.021924
  31 H :    0.027293
  32 H :    0.023281
  33 H :    0.027533

  Mayer bond orders larger than 0.100000
B(  0-S ,  1-C ) :   1.1324 B(  0-S ,  4-C ) :   1.1492 B(  1-C ,  2-C ) :   1.6341
B(  1-C , 32-H ) :   0.9648 B(  2-C ,  3-C ) :   1.2146 B(  2-C ,  6-C ) :   1.0049
B(  3-C ,  4-C ) :   1.5865 B(  3-C ,  5-H ) :   0.9841 B(  4-C , 20-C ) :   1.0271
B(  6-C ,  7-H ) :   0.9443 B(  6-C ,  8-H ) :   0.9399 B(  6-C ,  9-C ) :   1.0571
B(  9-C , 10-H ) :   0.9600 B(  9-C , 11-H ) :   0.9524 B(  9-C , 12-C ) :   1.0798
B( 12-C , 13-H ) :   0.9752 B( 12-C , 14-H ) :   0.9723 B( 12-C , 15-H ) :   0.9775
B( 16-S , 17-C ) :   1.1410 B( 16-S , 20-C ) :   1.1486 B( 17-C , 18-C ) :   1.6065
B( 17-C , 20-C ) :   0.1016 B( 17-C , 33-H ) :   0.9680 B( 18-C , 19-C ) :   1.2468
B( 18-C , 21-H ) :   0.9846 B( 19-C , 20-C ) :   1.5813 B( 19-C , 22-C ) :   1.0234
B( 22-C , 23-H ) :   0.9280 B( 22-C , 24-H ) :   0.9425 B( 22-C , 25-C ) :   1.0758
B( 25-C , 26-H ) :   0.9588 B( 25-C , 27-H ) :   0.9509 B( 25-C , 28-C ) :   1.0779
B( 28-C , 29-H ) :   0.9801 B( 28-C , 30-H ) :   0.9762 B( 28-C , 31-H ) :   0.9738

Dispersion correction           -0.013663599
FINAL SINGLE POINT ENERGY     -1339.870750675656

DIPOLE MOMENT
-------------
                                X             Y             Z
Electronic contribution:    -13.48196       4.45495      -6.22882
Nuclear contribution   :     13.82016      -4.28158       6.40963
                        -----------------------------------------
Total Dipole Moment    :      0.33820       0.17338       0.18081
                        -----------------------------------------
Magnitude (a.u.)       :      0.42087
Magnitude (Debye)      :      1.06976

Rotational constants in cm-1:     0.020931     0.007464     0.005915
Rotational constants in MHz :   627.504538   223.771651   177.313907

                             ****ORCA TERMINATED NORMALLY****
TOTAL RUN TIME: 0 days 0 hours 0 minutes 32 seconds 394 msec
