                         Program Version 4.2.1 -  RELEASE  -
|  1> ! wB97X-D3 SP def2-SVP
|  2> %pal
|  3> nprocs 16
|  4> end
|  5>
|  6> * xyz 0 1
|  7> S 	 3.88699 	 17.9557 	 51.6628
|  8> C 	 3.16471 	 16.4322 	 51.3563
|  9> C 	 1.80879 	 16.4979 	 51.509
| 10> C 	 1.3686 	 17.7647 	 52.0462
| 11> C 	 2.33523 	 18.7254 	 52.1132
| 12> H 	 0.342968 	 17.9161 	 52.3271
| 13> C 	 0.854069 	 15.3327 	 51.3971
| 14> H 	 0.565594 	 14.9688 	 52.3814
| 15> H 	 1.42514 	 14.5106 	 50.9548
| 16> C 	 -0.30127 	 15.6517 	 50.4896
| 17> H 	 -0.734656 	 16.5651 	 50.7681
| 18> H 	 -0.165204 	 15.7601 	 49.4548
| 19> C 	 -1.39093 	 14.6981 	 50.8211
| 20> H 	 -2.22452 	 14.7992 	 50.0673
| 21> H 	 -1.143 	 13.6201 	 50.665
| 22> H 	 -1.67327 	 14.7589 	 51.8836
| 23> S 	 1.1498 	 20.3393 	 53.8559
| 24> C 	 1.54321 	 22.0827 	 53.8653
| 25> C 	 2.50187 	 22.4072 	 52.9324
| 26> C 	 2.85193 	 21.2933 	 52.1316
| 27> C 	 2.23708 	 20.0768 	 52.5455
| 28> H 	 2.99344 	 23.4115 	 52.9635
| 29> C 	 3.81944 	 21.5149 	 50.9337
| 30> H 	 3.40901 	 21.92 	 50.024
| 31> H 	 4.10965 	 20.5717 	 50.6147
| 32> C 	 5.16387 	 22.3457 	 51.271
| 33> H 	 4.92066 	 23.3825 	 51.5479
| 34> H 	 5.59374 	 22.6434 	 50.2895
| 35> C 	 6.19823 	 21.635 	 52.1673
| 36> H 	 7.22022 	 22.0363 	 52.025
| 37> H 	 6.11871 	 20.5706 	 51.8449
| 38> H 	 5.91572 	 21.7877 	 53.1936
| 39> H 	 3.62926 	 15.4926 	 51.1125
| 40> H 	 1.10137 	 22.7917 	 54.5046
| 41> *
| 42>
| 43>                          ****END OF INPUT****

CARTESIAN COORDINATES (ANGSTROEM)
---------------------------------
  S      3.886990   17.955700   51.662800
  C      3.164710   16.432200   51.356300
  C      1.808790   16.497900   51.509000
  C      1.368600   17.764700   52.046200
  C      2.335230   18.725400   52.113200
  H      0.342968   17.916100   52.327100
  C      0.854069   15.332700   51.397100
  H      0.565594   14.968800   52.381400
  H      1.425140   14.510600   50.954800
  C     -0.301270   15.651700   50.489600
  H     -0.734656   16.565100   50.768100
  H     -0.165204   15.760100   49.454800
  C     -1.390930   14.698100   50.821100
  H     -2.224520   14.799200   50.067300
  H     -1.143000   13.620100   50.665000
  H     -1.673270   14.758900   51.883600
  S      1.149800   20.339300   53.855900
  C      1.543210   22.082700   53.865300
  C      2.501870   22.407200   52.932400
  C      2.851930   21.293300   52.131600
  C      2.237080   20.076800   52.545500
  H      2.993440   23.411500   52.963500
  C      3.819440   21.514900   50.933700
  H      3.409010   21.920000   50.024000
  H      4.109650   20.571700   50.614700
  C      5.163870   22.345700   51.271000
  H      4.920660   23.382500   51.547900
  H      5.593740   22.643400   50.289500
  C      6.198230   21.635000   52.167300
  H      7.220220   22.036300   52.025000
  H      6.118710   20.570600   51.844900
  H      5.915720   21.787700   53.193600
  H      3.629260   15.492600   51.112500
  H      1.101370   22.791700   54.504600

 Total Charge           Charge          ....    0
 Multiplicity           Mult            ....    1
 Number of Electrons    NEL             ....  134
 Basis Dimension        Dim             ....  322

ORBITAL ENERGIES
----------------

  NO   OCC          E(Eh)            E(eV)
   0   2.0000     -88.969184     -2420.9746
   1   2.0000     -88.965000     -2420.8607
   2   2.0000     -10.331155      -281.1250
   3   2.0000     -10.329395      -281.0771
   4   2.0000     -10.316313      -280.7212
   5   2.0000     -10.309916      -280.5471
   6   2.0000     -10.308758      -280.5156
   7   2.0000     -10.296327      -280.1773
   8   2.0000     -10.294955      -280.1400
   9   2.0000     -10.292077      -280.0616
  10   2.0000     -10.291081      -280.0346
  11   2.0000     -10.290270      -280.0125
  12   2.0000     -10.289449      -279.9901
  13   2.0000     -10.279779      -279.7270
  14   2.0000     -10.278866      -279.7022
  15   2.0000     -10.272763      -279.5361
  16   2.0000      -8.083627      -219.9667
  17   2.0000      -8.079392      -219.8514
  18   2.0000      -6.042133      -164.4148
  19   2.0000      -6.038188      -164.3074
  20   2.0000      -6.038083      -164.3046
  21   2.0000      -6.034400      -164.2044
  22   2.0000      -6.033922      -164.1914
  23   2.0000      -6.030009      -164.0849
  24   2.0000      -1.009087       -27.4587
  25   2.0000      -0.984731       -26.7959
  26   2.0000      -0.923957       -25.1421
  27   2.0000      -0.895951       -24.3801
  28   2.0000      -0.879951       -23.9447
  29   2.0000      -0.850886       -23.1538
  30   2.0000      -0.840544       -22.8724
  31   2.0000      -0.818091       -22.2614
  32   2.0000      -0.780672       -21.2432
  33   2.0000      -0.766188       -20.8490
  34   2.0000      -0.715171       -19.4608
  35   2.0000      -0.702033       -19.1033
  36   2.0000      -0.695326       -18.9208
  37   2.0000      -0.664341       -18.0776
  38   2.0000      -0.636252       -17.3133
  39   2.0000      -0.622896       -16.9499
  40   2.0000      -0.598710       -16.2917
  41   2.0000      -0.578517       -15.7422
  42   2.0000      -0.565573       -15.3900
  43   2.0000      -0.547385       -14.8951
  44   2.0000      -0.531622       -14.4662
  45   2.0000      -0.527257       -14.3474
  46   2.0000      -0.521301       -14.1853
  47   2.0000      -0.513832       -13.9821
  48   2.0000      -0.506911       -13.7937
  49   2.0000      -0.500380       -13.6160
  50   2.0000      -0.489618       -13.3232
  51   2.0000      -0.479092       -13.0368
  52   2.0000      -0.467423       -12.7192
  53   2.0000      -0.459514       -12.5040
  54   2.0000      -0.456191       -12.4136
  55   2.0000      -0.452607       -12.3160
  56   2.0000      -0.449645       -12.2355
  57   2.0000      -0.442604       -12.0439
  58   2.0000      -0.435259       -11.8440
  59   2.0000      -0.425249       -11.5716
  60   2.0000      -0.412008       -11.2113
  61   2.0000      -0.406516       -11.0619
  62   2.0000      -0.405612       -11.0373
  63   2.0000      -0.358855        -9.7649
  64   2.0000      -0.333763        -9.0822
  65   2.0000      -0.327540        -8.9128
  66   2.0000      -0.284629        -7.7452
  67   0.0000       0.023559         0.6411
  68   0.0000       0.078466         2.1352
  69   0.0000       0.109116         2.9692
  70   0.0000       0.112146         3.0516
  71   0.0000       0.129428         3.5219

MULLIKEN ATOMIC CHARGES
-----------------------
   0 S :    0.104830
   1 C :   -0.101767
   2 C :   -0.106321
   3 C :    0.001085
   4 C :   -0.108615
   5 H :    0.013203
   6 C :    0.068329
   7 H :    0.039324
   8 H :    0.010840
   9 C :   -0.007698
  10 H :    0.008390
  11 H :    0.021660
  12 C :   -0.084930
  13 H :    0.032700
  14 H :    0.019426
  15 H :    0.037697
  16 S :    0.106339
  17 C :   -0.079698
  18 C :   -0.046999
  19 C :   -0.041832
  20 C :   -0.142056
  21 H :    0.047453
  22 C :    0.113055
  23 H :    0.034961
  24 H :   -0.020947
  25 C :   -0.127022
  26 H :    0.016864
  27 H :    0.018277
  28 C :   -0.032043
  29 H :    0.043524
  30 H :    0.043292
  31 H :    0.042084
  32 H :    0.038165
  33 H :    0.038429
Sum of atomic charges:   -0.0000000

LOEWDIN ATOMIC CHARGES
----------------------
   0 S :    0.405258
   1 C :   -0.204839
   2 C :   -0.067725
   3 C :   -0.065681
   4 C :   -0.180124
   5 H :    0.024599
   6 C :   -0.025225
   7 H :    0.034162
   8 H :    0.030107
   9 C :   -0.038423
  10 H :    0.019267
  11 H :    0.024096
  12 C :   -0.069216
  13 H :    0.029015
  14 H :    0.020699
  15 H :    0.025855
  16 S :    0.415729
  17 C :   -0.167814
  18 C :   -0.070725
  19 C :   -0.058032
  20 C :   -0.205514
  21 H :    0.045112
  22 C :   -0.024201
  23 H :    0.034070
  24 H :    0.005300
  25 C :   -0.049276
  26 H :    0.015845
  27 H :    0.024782
  28 C :   -0.065842
  29 H :    0.031436
  30 H :    0.032559
  31 H :    0.025583
  32 H :    0.030795
  33 H :    0.018367

  Mayer bond orders larger than 0.100000
B(  0-S ,  1-C ) :   1.1332 B(  0-S ,  4-C ) :   1.1199 B(  1-C ,  2-C ) :   1.6371
B(  1-C , 32-H ) :   0.9643 B(  2-C ,  3-C ) :   1.2314 B(  2-C ,  6-C ) :   1.0269
B(  3-C ,  4-C ) :   1.5720 B(  3-C ,  5-H ) :   0.9895 B(  4-C , 20-C ) :   1.0913
B(  6-C ,  7-H ) :   0.9490 B(  6-C ,  8-H ) :   0.9316 B(  6-C ,  9-C ) :   1.0530
B(  9-C , 10-H ) :   0.9554 B(  9-C , 11-H ) :   0.9510 B(  9-C , 12-C ) :   1.0832
B( 12-C , 13-H ) :   0.9700 B( 12-C , 14-H ) :   0.9700 B( 12-C , 15-H ) :   0.9772
B( 16-S , 17-C ) :   1.1456 B( 16-S , 20-C ) :   1.1540 B( 17-C , 18-C ) :   1.6160
B( 17-C , 20-C ) :   0.1032 B( 17-C , 33-H ) :   0.9714 B( 18-C , 19-C ) :   1.2553
B( 18-C , 21-H ) :   0.9785 B( 19-C , 20-C ) :   1.5405 B( 19-C , 22-C ) :   1.0303
B( 22-C , 23-H ) :   0.9386 B( 22-C , 24-H ) :   0.9259 B( 22-C , 25-C ) :   1.0721
B( 25-C , 26-H ) :   0.9539 B( 25-C , 27-H ) :   0.9547 B( 25-C , 28-C ) :   1.0534
B( 28-C , 29-H ) :   0.9756 B( 28-C , 30-H ) :   0.9757 B( 28-C , 31-H ) :   0.9772

Dispersion correction           -0.014042842
FINAL SINGLE POINT ENERGY     -1339.864113825323

DIPOLE MOMENT
-------------
                                X             Y             Z
Electronic contribution:      0.79486       4.91880       9.35948
Nuclear contribution   :     -0.91308      -4.92503      -9.52482
                        -----------------------------------------
Total Dipole Moment    :     -0.11822      -0.00623      -0.16534
                        -----------------------------------------
Magnitude (a.u.)       :      0.20335
Magnitude (Debye)      :      0.51688

Rotational constants in cm-1:     0.023570     0.007639     0.006282
Rotational constants in MHz :   706.615963   229.010830   188.329683

                             ****ORCA TERMINATED NORMALLY****
TOTAL RUN TIME: 0 days 0 hours 0 minutes 34 seconds 170 msec
