                         Program Version 4.2.1 -  RELEASE  -
|  1> ! wB97X-D3 SP def2-SVP
|  2> %pal
|  3> nprocs 16
|  4> end
|  5>
|  6> * xyz 0 1
|  7> S 	 12.0061 	 -14.7752 	 86.2644
|  8> C 	 13.6254 	 -15.3621 	 86.0009
|  9> C 	 14.3631 	 -15.3719 	 87.1834
| 10> C 	 13.7324 	 -14.684 	 88.2959
| 11> C 	 12.4353 	 -14.3962 	 87.9404
| 12> H 	 14.1775 	 -14.4334 	 89.2898
| 13> C 	 15.8401 	 -15.7759 	 87.3092
| 14> H 	 16.2902 	 -15.11 	 87.9561
| 15> H 	 16.2514 	 -15.5299 	 86.3819
| 16> C 	 16.1124 	 -17.2552 	 87.6342
| 17> H 	 15.7606 	 -17.4785 	 88.6352
| 18> H 	 15.6177 	 -17.966 	 86.9944
| 19> C 	 17.5661 	 -17.576 	 87.5779
| 20> H 	 18.0263 	 -17.3856 	 86.5804
| 21> H 	 18.0447 	 -17.0294 	 88.3591
| 22> H 	 17.7006 	 -18.5764 	 87.7503
| 23> S 	 10.1539 	 -14.8495 	 89.2364
| 24> C 	 9.59744 	 -13.6252 	 90.3365
| 25> C 	 10.4418 	 -12.5583 	 90.44
| 26> C 	 11.5385 	 -12.6582 	 89.5602
| 27> C 	 11.5314 	 -13.8404 	 88.8662
| 28> H 	 10.1636 	 -11.8142 	 91.1798
| 29> C 	 12.5767 	 -11.584 	 89.2559
| 30> H 	 12.0294 	 -10.6748 	 89.0774
| 31> H 	 13.1086 	 -11.7895 	 88.2955
| 32> C 	 13.6245 	 -11.4665 	 90.3518
| 33> H 	 13.9797 	 -12.4921 	 90.5312
| 34> H 	 13.1524 	 -11.1469 	 91.2249
| 35> C 	 14.7554 	 -10.4301 	 89.9761
| 36> H 	 15.0029 	 -10.3779 	 88.8945
| 37> H 	 15.7608 	 -10.4257 	 90.4881
| 38> H 	 14.3552 	 -9.44114 	 90.2215
| 39> H 	 13.9535 	 -16.04 	 85.232
| 40> H 	 8.76855 	 -13.6986 	 91.0111
| 41> *
| 42>
| 43>                          ****END OF INPUT****

CARTESIAN COORDINATES (ANGSTROEM)
---------------------------------
  S     12.006100  -14.775200   86.264400
  C     13.625400  -15.362100   86.000900
  C     14.363100  -15.371900   87.183400
  C     13.732400  -14.684000   88.295900
  C     12.435300  -14.396200   87.940400
  H     14.177500  -14.433400   89.289800
  C     15.840100  -15.775900   87.309200
  H     16.290200  -15.110000   87.956100
  H     16.251400  -15.529900   86.381900
  C     16.112400  -17.255200   87.634200
  H     15.760600  -17.478500   88.635200
  H     15.617700  -17.966000   86.994400
  C     17.566100  -17.576000   87.577900
  H     18.026300  -17.385600   86.580400
  H     18.044700  -17.029400   88.359100
  H     17.700600  -18.576400   87.750300
  S     10.153900  -14.849500   89.236400
  C      9.597440  -13.625200   90.336500
  C     10.441800  -12.558300   90.440000
  C     11.538500  -12.658200   89.560200
  C     11.531400  -13.840400   88.866200
  H     10.163600  -11.814200   91.179800
  C     12.576700  -11.584000   89.255900
  H     12.029400  -10.674800   89.077400
  H     13.108600  -11.789500   88.295500
  C     13.624500  -11.466500   90.351800
  H     13.979700  -12.492100   90.531200
  H     13.152400  -11.146900   91.224900
  C     14.755400  -10.430100   89.976100
  H     15.002900  -10.377900   88.894500
  H     15.760800  -10.425700   90.488100
  H     14.355200   -9.441140   90.221500
  H     13.953500  -16.040000   85.232000
  H      8.768550  -13.698600   91.011100

 Total Charge           Charge          ....    0
 Multiplicity           Mult            ....    1
 Number of Electrons    NEL             ....  134
 Basis Dimension        Dim             ....  322

ORBITAL ENERGIES
----------------

  NO   OCC          E(Eh)            E(eV)
   0   2.0000     -88.969528     -2420.9839
   1   2.0000     -88.963162     -2420.8107
   2   2.0000     -10.323825      -280.9256
   3   2.0000     -10.314699      -280.6772
   4   2.0000     -10.309859      -280.5455
   5   2.0000     -10.309624      -280.5391
   6   2.0000     -10.301337      -280.3136
   7   2.0000     -10.298786      -280.2442
   8   2.0000     -10.297449      -280.2078
   9   2.0000     -10.290139      -280.0089
  10   2.0000     -10.288856      -279.9740
  11   2.0000     -10.287123      -279.9269
  12   2.0000     -10.286285      -279.9040
  13   2.0000     -10.280031      -279.7339
  14   2.0000     -10.279586      -279.7217
  15   2.0000     -10.266817      -279.3743
  16   2.0000      -8.083751      -219.9701
  17   2.0000      -8.078521      -219.8277
  18   2.0000      -6.042306      -164.4195
  19   2.0000      -6.038445      -164.3144
  20   2.0000      -6.036893      -164.2722
  21   2.0000      -6.034374      -164.2037
  22   2.0000      -6.033027      -164.1670
  23   2.0000      -6.029298      -164.0656
  24   2.0000      -1.011510       -27.5246
  25   2.0000      -0.982953       -26.7475
  26   2.0000      -0.915201       -24.9039
  27   2.0000      -0.908537       -24.7225
  28   2.0000      -0.876673       -23.8555
  29   2.0000      -0.854511       -23.2524
  30   2.0000      -0.846949       -23.0467
  31   2.0000      -0.815139       -22.1811
  32   2.0000      -0.782002       -21.2794
  33   2.0000      -0.769130       -20.9291
  34   2.0000      -0.708629       -19.2828
  35   2.0000      -0.703068       -19.1315
  36   2.0000      -0.700386       -19.0585
  37   2.0000      -0.661651       -18.0044
  38   2.0000      -0.637525       -17.3479
  39   2.0000      -0.616266       -16.7695
  40   2.0000      -0.594613       -16.1803
  41   2.0000      -0.575515       -15.6606
  42   2.0000      -0.568157       -15.4603
  43   2.0000      -0.556123       -15.1329
  44   2.0000      -0.532558       -14.4916
  45   2.0000      -0.521981       -14.2038
  46   2.0000      -0.514971       -14.0131
  47   2.0000      -0.509377       -13.8609
  48   2.0000      -0.507818       -13.8184
  49   2.0000      -0.497614       -13.5408
  50   2.0000      -0.493096       -13.4178
  51   2.0000      -0.474113       -12.9013
  52   2.0000      -0.473124       -12.8744
  53   2.0000      -0.466190       -12.6857
  54   2.0000      -0.459156       -12.4943
  55   2.0000      -0.449925       -12.2431
  56   2.0000      -0.442661       -12.0454
  57   2.0000      -0.439217       -11.9517
  58   2.0000      -0.433994       -11.8096
  59   2.0000      -0.429924       -11.6988
  60   2.0000      -0.423102       -11.5132
  61   2.0000      -0.417250       -11.3539
  62   2.0000      -0.415213       -11.2985
  63   2.0000      -0.343580        -9.3493
  64   2.0000      -0.332693        -9.0530
  65   2.0000      -0.326917        -8.8959
  66   2.0000      -0.295450        -8.0396
  67   0.0000       0.035465         0.9650
  68   0.0000       0.065278         1.7763
  69   0.0000       0.114128         3.1056
  70   0.0000       0.119172         3.2428
  71   0.0000       0.133933         3.6445

MULLIKEN ATOMIC CHARGES
-----------------------
   0 S :    0.124720
   1 C :   -0.092876
   2 C :   -0.122243
   3 C :    0.010146
   4 C :   -0.155294
   5 H :    0.041700
   6 C :    0.116140
   7 H :   -0.004252
   8 H :   -0.002270
   9 C :   -0.060571
  10 H :    0.018830
  11 H :    0.019368
  12 C :   -0.002678
  13 H :    0.030305
  14 H :    0.020055
  15 H :    0.009519
  16 S :    0.115942
  17 C :   -0.074852
  18 C :   -0.059759
  19 C :    0.005086
  20 C :   -0.196787
  21 H :    0.017727
  22 C :    0.055638
  23 H :    0.023678
  24 H :    0.038284
  25 C :   -0.038388
  26 H :    0.021974
  27 H :    0.015686
  28 C :   -0.070619
  29 H :    0.034639
  30 H :    0.044638
  31 H :    0.025331
  32 H :    0.050235
  33 H :    0.040947
Sum of atomic charges:    0.0000000

LOEWDIN ATOMIC CHARGES
----------------------
   0 S :    0.402679
   1 C :   -0.215822
   2 C :   -0.048983
   3 C :   -0.059085
   4 C :   -0.191699
   5 H :    0.042401
   6 C :   -0.021606
   7 H :    0.020116
   8 H :    0.022857
   9 C :   -0.034285
  10 H :    0.023055
  11 H :    0.021014
  12 C :   -0.055606
  13 H :    0.028281
  14 H :    0.021560
  15 H :    0.014492
  16 S :    0.410047
  17 C :   -0.183986
  18 C :   -0.074315
  19 C :   -0.055317
  20 C :   -0.198944
  21 H :    0.034832
  22 C :   -0.026917
  23 H :    0.026807
  24 H :    0.034976
  25 C :   -0.031972
  26 H :    0.020824
  27 H :    0.015493
  28 C :   -0.079034
  29 H :    0.026842
  30 H :    0.032173
  31 H :    0.025760
  32 H :    0.028942
  33 H :    0.024419

  Mayer bond orders larger than 0.100000
B(  0-S ,  1-C ) :   1.1147 B(  0-S ,  4-C ) :   1.1439 B(  1-C ,  2-C ) :   1.6561
B(  1-C , 32-H ) :   0.9550 B(  2-C ,  3-C ) :   1.2133 B(  2-C ,  6-C ) :   1.0151
B(  3-C ,  4-C ) :   1.5819 B(  3-C ,  5-H ) :   0.9836 B(  4-C , 20-C ) :   1.0538
B(  6-C ,  7-H ) :   0.9390 B(  6-C ,  8-H ) :   0.9395 B(  6-C ,  9-C ) :   1.0605
B(  9-C , 10-H ) :   0.9509 B(  9-C , 11-H ) :   0.9577 B(  9-C , 12-C ) :   1.0997
B( 12-C , 13-H ) :   0.9726 B( 12-C , 14-H ) :   0.9718 B( 12-C , 15-H ) :   0.9695
B( 16-S , 17-C ) :   1.1451 B( 16-S , 20-C ) :   1.1424 B( 17-C , 18-C ) :   1.6485
B( 17-C , 20-C ) :   0.1000 B( 17-C , 33-H ) :   0.9641 B( 18-C , 19-C ) :   1.2049
B( 18-C , 21-H ) :   0.9935 B( 19-C , 20-C ) :   1.6182 B( 19-C , 22-C ) :   1.0334
B( 22-C , 23-H ) :   0.9369 B( 22-C , 24-H ) :   0.9336 B( 22-C , 25-C ) :   1.0549
B( 25-C , 26-H ) :   0.9573 B( 25-C , 27-H ) :   0.9597 B( 25-C , 28-C ) :   1.0575
B( 28-C , 29-H ) :   0.9785 B( 28-C , 30-H ) :   0.9787 B( 28-C , 31-H ) :   0.9757

Dispersion correction           -0.014169870
FINAL SINGLE POINT ENERGY     -1339.866590972257

DIPOLE MOMENT
-------------
                                X             Y             Z
Electronic contribution:    -27.76541      -4.40661      -5.96344
Nuclear contribution   :     28.24822       4.53251       6.32023
                        -----------------------------------------
Total Dipole Moment    :      0.48280       0.12590       0.35679
                        -----------------------------------------
Magnitude (a.u.)       :      0.61339
Magnitude (Debye)      :      1.55912

Rotational constants in cm-1:     0.017484     0.008565     0.006809
Rotational constants in MHz :   524.156063   256.777859   204.123500

                             ****ORCA TERMINATED NORMALLY****
TOTAL RUN TIME: 0 days 0 hours 0 minutes 33 seconds 345 msec
