                         Program Version 4.2.1 -  RELEASE  -
|  1> ! wB97X-D3 SP def2-SVP
|  2> %pal
|  3> nprocs 16
|  4> end
|  5>
|  6> * xyz 0 1
|  7> S 	 40.4301 	 16.5064 	 67.4537
|  8> C 	 38.6674 	 16.7364 	 67.7971
|  9> C 	 37.8876 	 16.0997 	 66.8133
| 10> C 	 38.6894 	 15.4861 	 65.807
| 11> C 	 40.0671 	 15.5663 	 66.0254
| 12> H 	 38.3956 	 14.937 	 64.9473
| 13> C 	 36.4477 	 16.141 	 66.787
| 14> H 	 36.0486 	 16.1917 	 65.7586
| 15> H 	 36.086 	 17.0347 	 67.2625
| 16> C 	 35.7125 	 14.9263 	 67.4878
| 17> H 	 35.8755 	 14.089 	 66.7956
| 18> H 	 36.2833 	 14.6473 	 68.308
| 19> C 	 34.1897 	 15.0708 	 67.6998
| 20> H 	 34.0711 	 16.1481 	 67.7954
| 21> H 	 33.6904 	 14.7364 	 66.77
| 22> H 	 33.7541 	 14.5526 	 68.575
| 23> S 	 41.1914 	 13.2443 	 65.2554
| 24> C 	 42.6111 	 13.2832 	 64.1716
| 25> C 	 42.7714 	 14.5346 	 63.6756
| 26> C 	 41.8636 	 15.5287 	 64.1589
| 27> C 	 41.0495 	 14.9582 	 65.1518
| 28> H 	 43.4474 	 14.7153 	 62.8203
| 29> C 	 42.0749 	 17.0011 	 63.8969
| 30> H 	 41.1952 	 17.5329 	 64.2017
| 31> H 	 42.1424 	 17.1792 	 62.7617
| 32> C 	 43.2444 	 17.4684 	 64.7379
| 33> H 	 43.8662 	 16.612 	 64.836
| 34> H 	 42.92 	 17.8115 	 65.7744
| 35> C 	 44.1106 	 18.5643 	 64.09
| 36> H 	 44.893 	 18.8507 	 64.7921
| 37> H 	 43.5576 	 19.4727 	 63.8302
| 38> H 	 44.5023 	 18.085 	 63.2502
| 39> H 	 38.3333 	 17.29 	 68.6645
| 40> H 	 43.2079 	 12.4523 	 63.9434
| 41> *
| 42>
| 43>                          ****END OF INPUT****

CARTESIAN COORDINATES (ANGSTROEM)
---------------------------------
  S     40.430100   16.506400   67.453700
  C     38.667400   16.736400   67.797100
  C     37.887600   16.099700   66.813300
  C     38.689400   15.486100   65.807000
  C     40.067100   15.566300   66.025400
  H     38.395600   14.937000   64.947300
  C     36.447700   16.141000   66.787000
  H     36.048600   16.191700   65.758600
  H     36.086000   17.034700   67.262500
  C     35.712500   14.926300   67.487800
  H     35.875500   14.089000   66.795600
  H     36.283300   14.647300   68.308000
  C     34.189700   15.070800   67.699800
  H     34.071100   16.148100   67.795400
  H     33.690400   14.736400   66.770000
  H     33.754100   14.552600   68.575000
  S     41.191400   13.244300   65.255400
  C     42.611100   13.283200   64.171600
  C     42.771400   14.534600   63.675600
  C     41.863600   15.528700   64.158900
  C     41.049500   14.958200   65.151800
  H     43.447400   14.715300   62.820300
  C     42.074900   17.001100   63.896900
  H     41.195200   17.532900   64.201700
  H     42.142400   17.179200   62.761700
  C     43.244400   17.468400   64.737900
  H     43.866200   16.612000   64.836000
  H     42.920000   17.811500   65.774400
  C     44.110600   18.564300   64.090000
  H     44.893000   18.850700   64.792100
  H     43.557600   19.472700   63.830200
  H     44.502300   18.085000   63.250200
  H     38.333300   17.290000   68.664500
  H     43.207900   12.452300   63.943400

 Total Charge           Charge          ....    0
 Multiplicity           Mult            ....    1
 Number of Electrons    NEL             ....  134
 Basis Dimension        Dim             ....  322

ORBITAL ENERGIES
----------------

  NO   OCC          E(Eh)            E(eV)
   0   2.0000     -88.968897     -2420.9668
   1   2.0000     -88.964451     -2420.8458
   2   2.0000     -10.327454      -281.0243
   3   2.0000     -10.323537      -280.9177
   4   2.0000     -10.321589      -280.8647
   5   2.0000     -10.314499      -280.6718
   6   2.0000     -10.303674      -280.3772
   7   2.0000     -10.302330      -280.3406
   8   2.0000     -10.293447      -280.0989
   9   2.0000     -10.291754      -280.0529
  10   2.0000     -10.291695      -280.0513
  11   2.0000     -10.288332      -279.9597
  12   2.0000     -10.283760      -279.8353
  13   2.0000     -10.281608      -279.7768
  14   2.0000     -10.281166      -279.7648
  15   2.0000     -10.270686      -279.4796
  16   2.0000      -8.082273      -219.9298
  17   2.0000      -8.079266      -219.8480
  18   2.0000      -6.040744      -164.3770
  19   2.0000      -6.037773      -164.2962
  20   2.0000      -6.036930      -164.2732
  21   2.0000      -6.033810      -164.1883
  22   2.0000      -6.033200      -164.1717
  23   2.0000      -6.029966      -164.0837
  24   2.0000      -1.004998       -27.3474
  25   2.0000      -0.979941       -26.6655
  26   2.0000      -0.912732       -24.8367
  27   2.0000      -0.911474       -24.8025
  28   2.0000      -0.869055       -23.6482
  29   2.0000      -0.849943       -23.1281
  30   2.0000      -0.845588       -23.0096
  31   2.0000      -0.814322       -22.1588
  32   2.0000      -0.781325       -21.2609
  33   2.0000      -0.768213       -20.9042
  34   2.0000      -0.706678       -19.2297
  35   2.0000      -0.700962       -19.0741
  36   2.0000      -0.691261       -18.8102
  37   2.0000      -0.662572       -18.0295
  38   2.0000      -0.644774       -17.5452
  39   2.0000      -0.616492       -16.7756
  40   2.0000      -0.601430       -16.3657
  41   2.0000      -0.572314       -15.5734
  42   2.0000      -0.562984       -15.3196
  43   2.0000      -0.555266       -15.1096
  44   2.0000      -0.525801       -14.3078
  45   2.0000      -0.523278       -14.2391
  46   2.0000      -0.517700       -14.0873
  47   2.0000      -0.515569       -14.0293
  48   2.0000      -0.510225       -13.8839
  49   2.0000      -0.503122       -13.6906
  50   2.0000      -0.492927       -13.4132
  51   2.0000      -0.474987       -12.9251
  52   2.0000      -0.465767       -12.6742
  53   2.0000      -0.463063       -12.6006
  54   2.0000      -0.460117       -12.5204
  55   2.0000      -0.445409       -12.1202
  56   2.0000      -0.445302       -12.1173
  57   2.0000      -0.436746       -11.8845
  58   2.0000      -0.431848       -11.7512
  59   2.0000      -0.426933       -11.6174
  60   2.0000      -0.422366       -11.4931
  61   2.0000      -0.412632       -11.2283
  62   2.0000      -0.410761       -11.1774
  63   2.0000      -0.337481        -9.1833
  64   2.0000      -0.331931        -9.0323
  65   2.0000      -0.319764        -8.7012
  66   2.0000      -0.302629        -8.2350
  67   0.0000       0.039829         1.0838
  68   0.0000       0.053305         1.4505
  69   0.0000       0.103741         2.8229
  70   0.0000       0.113305         3.0832
  71   0.0000       0.129608         3.5268

MULLIKEN ATOMIC CHARGES
-----------------------
   0 S :    0.109165
   1 C :   -0.136641
   2 C :   -0.043746
   3 C :    0.047475
   4 C :   -0.167534
   5 H :    0.001461
   6 C :    0.047376
   7 H :    0.027992
   8 H :    0.011692
   9 C :   -0.069491
  10 H :    0.019264
  11 H :    0.012937
  12 C :   -0.038275
  13 H :    0.023928
  14 H :    0.040394
  15 H :    0.051779
  16 S :    0.114079
  17 C :   -0.075409
  18 C :   -0.038363
  19 C :   -0.029777
  20 C :   -0.203729
  21 H :    0.030907
  22 C :    0.062930
  23 H :    0.024349
  24 H :    0.042375
  25 C :   -0.082619
  26 H :    0.026432
  27 H :    0.039792
  28 C :   -0.028523
  29 H :    0.034050
  30 H :    0.034499
  31 H :    0.018668
  32 H :    0.054024
  33 H :    0.038538
Sum of atomic charges:   -0.0000000

LOEWDIN ATOMIC CHARGES
----------------------
   0 S :    0.391113
   1 C :   -0.178559
   2 C :   -0.059672
   3 C :   -0.056383
   4 C :   -0.200585
   5 H :    0.027368
   6 C :   -0.035744
   7 H :    0.033857
   8 H :    0.024211
   9 C :   -0.036334
  10 H :    0.023153
  11 H :    0.011628
  12 C :   -0.067184
  13 H :    0.023150
  14 H :    0.031303
  15 H :    0.033696
  16 S :    0.405959
  17 C :   -0.166338
  18 C :   -0.073531
  19 C :   -0.054168
  20 C :   -0.209653
  21 H :    0.036061
  22 C :   -0.036796
  23 H :    0.028719
  24 H :    0.039922
  25 C :   -0.040124
  26 H :    0.019017
  27 H :    0.028195
  28 C :   -0.057355
  29 H :    0.027860
  30 H :    0.024643
  31 H :    0.015175
  32 H :    0.027228
  33 H :    0.020168

  Mayer bond orders larger than 0.100000
B(  0-S ,  1-C ) :   1.1328 B(  0-S ,  4-C ) :   1.1518 B(  1-C ,  2-C ) :   1.5756
B(  1-C ,  4-C ) :   0.1023 B(  1-C , 32-H ) :   0.9735 B(  2-C ,  3-C ) :   1.2280
B(  2-C ,  6-C ) :   1.0608 B(  3-C ,  4-C ) :   1.5810 B(  3-C ,  5-H ) :   0.9993
B(  4-C , 20-C ) :   1.0171 B(  6-C ,  7-H ) :   0.9390 B(  6-C ,  8-H ) :   0.9316
B(  6-C ,  9-C ) :   1.0471 B(  9-C , 10-H ) :   0.9590 B(  9-C , 11-H ) :   0.9619
B(  9-C , 12-C ) :   1.0584 B( 12-C , 13-H ) :   0.9794 B( 12-C , 14-H ) :   0.9772
B( 12-C , 15-H ) :   0.9767 B( 16-S , 17-C ) :   1.1301 B( 16-S , 20-C ) :   1.1623
B( 17-C , 18-C ) :   1.6330 B( 17-C , 33-H ) :   0.9781 B( 18-C , 19-C ) :   1.2274
B( 18-C , 21-H ) :   0.9752 B( 19-C , 20-C ) :   1.5811 B( 19-C , 22-C ) :   1.0697
B( 22-C , 23-H ) :   0.9205 B( 22-C , 24-H ) :   0.9409 B( 22-C , 25-C ) :   1.0433
B( 25-C , 26-H ) :   0.9678 B( 25-C , 27-H ) :   0.9457 B( 25-C , 28-C ) :   1.0776
B( 28-C , 29-H ) :   0.9730 B( 28-C , 30-H ) :   0.9759 B( 28-C , 31-H ) :   0.9807

Dispersion correction           -0.014245840
FINAL SINGLE POINT ENERGY     -1339.871254701536

DIPOLE MOMENT
-------------
                                X             Y             Z
Electronic contribution:      9.60059     -10.65601       2.71952
Nuclear contribution   :     -9.77425      10.81459      -2.96480
                        -----------------------------------------
Total Dipole Moment    :     -0.17366       0.15858      -0.24528
                        -----------------------------------------
Magnitude (a.u.)       :      0.33981
Magnitude (Debye)      :      0.86372

Rotational constants in cm-1:     0.023307     0.007223     0.006110
Rotational constants in MHz :   698.737991   216.538981   183.186607

                             ****ORCA TERMINATED NORMALLY****
TOTAL RUN TIME: 0 days 0 hours 0 minutes 28 seconds 862 msec
