                         Program Version 4.2.1 -  RELEASE  -
|  1> ! wB97X-D3 SP def2-SVP
|  2> %pal
|  3> nprocs 16
|  4> end
|  5>
|  6> * xyz 0 1
|  7> S 	 53.3 	 20.0687 	 48.8798
|  8> C 	 53.2074 	 20.9795 	 47.3687
|  9> C 	 54.1137 	 20.454 	 46.4038
| 10> C 	 54.8869 	 19.3945 	 46.9755
| 11> C 	 54.5159 	 19.0548 	 48.3423
| 12> H 	 55.7234 	 18.968 	 46.5256
| 13> C 	 54.3028 	 21.0666 	 45.0373
| 14> H 	 54.9403 	 21.8988 	 45.0329
| 15> H 	 53.3516 	 21.6314 	 44.9388
| 16> C 	 54.6122 	 20.2049 	 43.8197
| 17> H 	 55.0014 	 20.8191 	 42.9877
| 18> H 	 55.5145 	 19.6532 	 44.1098
| 19> C 	 53.4794 	 19.359 	 43.2917
| 20> H 	 53.3025 	 18.5091 	 43.9595
| 21> H 	 52.6512 	 19.949 	 42.9749
| 22> H 	 53.8282 	 18.939 	 42.3516
| 23> S 	 55.7991 	 19.2124 	 50.69
| 24> C 	 56.3948 	 17.7591 	 51.4317
| 25> C 	 56.2556 	 16.6215 	 50.6169
| 26> C 	 55.4933 	 16.8676 	 49.436
| 27> C 	 55.2585 	 18.2821 	 49.3079
| 28> H 	 56.6997 	 15.6562 	 50.9736
| 29> C 	 55.1392 	 15.8743 	 48.4028
| 30> H 	 55.2506 	 16.2353 	 47.3746
| 31> H 	 54.0402 	 15.7273 	 48.5612
| 32> C 	 55.9027 	 14.5159 	 48.4377
| 33> H 	 55.5257 	 13.9767 	 49.3578
| 34> H 	 57.0218 	 14.5148 	 48.3724
| 35> C 	 55.7335 	 13.7375 	 47.125
| 36> H 	 55.8675 	 12.6517 	 47.1702
| 37> H 	 56.4205 	 14.1502 	 46.3916
| 38> H 	 54.7303 	 13.8808 	 46.8328
| 39> H 	 52.4507 	 21.8334 	 47.2312
| 40> H 	 56.9363 	 17.7504 	 52.3445
| 41> *
| 42>
| 43>                          ****END OF INPUT****

CARTESIAN COORDINATES (ANGSTROEM)
---------------------------------
  S     53.300000   20.068700   48.879800
  C     53.207400   20.979500   47.368700
  C     54.113700   20.454000   46.403800
  C     54.886900   19.394500   46.975500
  C     54.515900   19.054800   48.342300
  H     55.723400   18.968000   46.525600
  C     54.302800   21.066600   45.037300
  H     54.940300   21.898800   45.032900
  H     53.351600   21.631400   44.938800
  C     54.612200   20.204900   43.819700
  H     55.001400   20.819100   42.987700
  H     55.514500   19.653200   44.109800
  C     53.479400   19.359000   43.291700
  H     53.302500   18.509100   43.959500
  H     52.651200   19.949000   42.974900
  H     53.828200   18.939000   42.351600
  S     55.799100   19.212400   50.690000
  C     56.394800   17.759100   51.431700
  C     56.255600   16.621500   50.616900
  C     55.493300   16.867600   49.436000
  C     55.258500   18.282100   49.307900
  H     56.699700   15.656200   50.973600
  C     55.139200   15.874300   48.402800
  H     55.250600   16.235300   47.374600
  H     54.040200   15.727300   48.561200
  C     55.902700   14.515900   48.437700
  H     55.525700   13.976700   49.357800
  H     57.021800   14.514800   48.372400
  C     55.733500   13.737500   47.125000
  H     55.867500   12.651700   47.170200
  H     56.420500   14.150200   46.391600
  H     54.730300   13.880800   46.832800
  H     52.450700   21.833400   47.231200
  H     56.936300   17.750400   52.344500

 Total Charge           Charge          ....    0
 Multiplicity           Mult            ....    1
 Number of Electrons    NEL             ....  134
 Basis Dimension        Dim             ....  322

ORBITAL ENERGIES
----------------

  NO   OCC          E(Eh)            E(eV)
   0   2.0000     -88.967957     -2420.9412
   1   2.0000     -88.967839     -2420.9380
   2   2.0000     -10.325521      -280.9717
   3   2.0000     -10.324781      -280.9516
   4   2.0000     -10.321192      -280.8539
   5   2.0000     -10.313184      -280.6360
   6   2.0000     -10.307818      -280.4900
   7   2.0000     -10.307315      -280.4763
   8   2.0000     -10.298808      -280.2448
   9   2.0000     -10.296310      -280.1768
  10   2.0000     -10.295123      -280.1445
  11   2.0000     -10.293480      -280.0998
  12   2.0000     -10.287333      -279.9326
  13   2.0000     -10.286496      -279.9098
  14   2.0000     -10.275100      -279.5997
  15   2.0000     -10.273148      -279.5466
  16   2.0000      -8.083351      -219.9592
  17   2.0000      -8.082626      -219.9394
  18   2.0000      -6.041585      -164.3999
  19   2.0000      -6.040933      -164.3821
  20   2.0000      -6.037422      -164.2866
  21   2.0000      -6.037083      -164.2774
  22   2.0000      -6.034652      -164.2112
  23   2.0000      -6.033655      -164.1841
  24   2.0000      -1.006020       -27.3752
  25   2.0000      -0.977731       -26.6054
  26   2.0000      -0.915486       -24.9116
  27   2.0000      -0.910488       -24.7756
  28   2.0000      -0.867776       -23.6134
  29   2.0000      -0.855495       -23.2792
  30   2.0000      -0.842493       -22.9254
  31   2.0000      -0.808695       -22.0057
  32   2.0000      -0.787377       -21.4256
  33   2.0000      -0.767887       -20.8953
  34   2.0000      -0.709524       -19.3071
  35   2.0000      -0.698150       -18.9976
  36   2.0000      -0.685850       -18.6629
  37   2.0000      -0.646036       -17.5795
  38   2.0000      -0.635927       -17.3045
  39   2.0000      -0.620395       -16.8818
  40   2.0000      -0.599121       -16.3029
  41   2.0000      -0.574152       -15.6235
  42   2.0000      -0.564368       -15.3572
  43   2.0000      -0.548997       -14.9390
  44   2.0000      -0.544532       -14.8175
  45   2.0000      -0.529882       -14.4188
  46   2.0000      -0.517940       -14.0939
  47   2.0000      -0.508933       -13.8488
  48   2.0000      -0.503423       -13.6988
  49   2.0000      -0.492005       -13.3881
  50   2.0000      -0.486456       -13.2371
  51   2.0000      -0.478886       -13.0311
  52   2.0000      -0.472697       -12.8627
  53   2.0000      -0.465665       -12.6714
  54   2.0000      -0.458908       -12.4875
  55   2.0000      -0.454060       -12.3556
  56   2.0000      -0.446160       -12.1406
  57   2.0000      -0.436566       -11.8796
  58   2.0000      -0.431676       -11.7465
  59   2.0000      -0.419079       -11.4037
  60   2.0000      -0.417244       -11.3538
  61   2.0000      -0.415364       -11.3026
  62   2.0000      -0.409368       -11.1395
  63   2.0000      -0.337613        -9.1869
  64   2.0000      -0.329028        -8.9533
  65   2.0000      -0.325510        -8.8576
  66   2.0000      -0.283741        -7.7210
  67   0.0000       0.028747         0.7822
  68   0.0000       0.061740         1.6800
  69   0.0000       0.117520         3.1979
  70   0.0000       0.120298         3.2735
  71   0.0000       0.129154         3.5145

MULLIKEN ATOMIC CHARGES
-----------------------
   0 S :    0.130756
   1 C :   -0.180073
   2 C :   -0.071562
   3 C :    0.052088
   4 C :   -0.174794
   5 H :   -0.011227
   6 C :    0.081795
   7 H :    0.026316
   8 H :    0.002650
   9 C :   -0.095964
  10 H :    0.023530
  11 H :    0.024728
  12 C :   -0.004394
  13 H :    0.046470
  14 H :    0.027559
  15 H :    0.017899
  16 S :    0.127037
  17 C :   -0.085276
  18 C :   -0.063926
  19 C :   -0.013761
  20 C :   -0.179521
  21 H :    0.039773
  22 C :    0.053567
  23 H :    0.030771
  24 H :    0.053824
  25 C :   -0.130627
  26 H :    0.046503
  27 H :    0.046617
  28 C :   -0.037291
  29 H :    0.037925
  30 H :    0.038337
  31 H :    0.015043
  32 H :    0.080757
  33 H :    0.044473
Sum of atomic charges:   -0.0000000

LOEWDIN ATOMIC CHARGES
----------------------
   0 S :    0.452608
   1 C :   -0.221981
   2 C :   -0.058177
   3 C :   -0.060941
   4 C :   -0.233192
   5 H :    0.015711
   6 C :   -0.040182
   7 H :    0.029509
   8 H :    0.032998
   9 C :   -0.046733
  10 H :    0.028600
  11 H :    0.024380
  12 C :   -0.060367
  13 H :    0.031456
  14 H :    0.024182
  15 H :    0.026856
  16 S :    0.425079
  17 C :   -0.192557
  18 C :   -0.075884
  19 C :   -0.051459
  20 C :   -0.211079
  21 H :    0.040528
  22 C :   -0.040192
  23 H :    0.032722
  24 H :    0.049119
  25 C :   -0.052025
  26 H :    0.027660
  27 H :    0.033178
  28 C :   -0.063071
  29 H :    0.029834
  30 H :    0.026160
  31 H :    0.014585
  32 H :    0.042416
  33 H :    0.020260

  Mayer bond orders larger than 0.100000
B(  0-S ,  1-C ) :   1.1656 B(  0-S ,  4-C ) :   1.2119 B(  1-C ,  2-C ) :   1.5332
B(  1-C ,  4-C ) :   0.1112 B(  1-C , 32-H ) :   0.9577 B(  2-C ,  3-C ) :   1.3052
B(  2-C ,  6-C ) :   1.0134 B(  3-C ,  4-C ) :   1.4782 B(  3-C ,  5-H ) :   1.0003
B(  4-C , 20-C ) :   1.0466 B(  6-C ,  7-H ) :   0.9333 B(  6-C ,  8-H ) :   0.9321
B(  6-C ,  9-C ) :   1.0765 B(  9-C , 10-H ) :   0.9512 B(  9-C , 11-H ) :   0.9504
B(  9-C , 12-C ) :   1.0891 B( 12-C , 13-H ) :   0.9750 B( 12-C , 14-H ) :   0.9710
B( 12-C , 15-H ) :   0.9700 B( 16-S , 17-C ) :   1.1713 B( 16-S , 20-C ) :   1.1660
B( 17-C , 18-C ) :   1.5783 B( 17-C , 20-C ) :   0.1091 B( 17-C , 33-H ) :   0.9674
B( 18-C , 19-C ) :   1.2748 B( 18-C , 21-H ) :   0.9787 B( 19-C , 20-C ) :   1.5387
B( 19-C , 22-C ) :   1.0404 B( 22-C , 23-H ) :   0.9459 B( 22-C , 24-H ) :   0.9051
B( 22-C , 25-C ) :   1.0700 B( 25-C , 26-H ) :   0.9476 B( 25-C , 27-H ) :   0.9693
B( 25-C , 28-C ) :   1.0656 B( 28-C , 29-H ) :   0.9724 B( 28-C , 30-H ) :   0.9802
B( 28-C , 31-H ) :   0.9728

Dispersion correction           -0.013426126
FINAL SINGLE POINT ENERGY     -1339.854751728602

DIPOLE MOMENT
-------------
                                X             Y             Z
Electronic contribution:     -1.68053      15.01490      25.53205
Nuclear contribution   :      1.88824     -15.23258     -26.02378
                        -----------------------------------------
Total Dipole Moment    :      0.20771      -0.21768      -0.49173
                        -----------------------------------------
Magnitude (a.u.)       :      0.57648
Magnitude (Debye)      :      1.46529

Rotational constants in cm-1:     0.016523     0.008956     0.006318
Rotational constants in MHz :   495.357543   268.503607   189.404072

                             ****ORCA TERMINATED NORMALLY****
TOTAL RUN TIME: 0 days 0 hours 0 minutes 28 seconds 654 msec
