                         Program Version 4.2.1 -  RELEASE  -
|  1> ! wB97X-D3 SP def2-SVP
|  2> %pal
|  3> nprocs 16
|  4> end
|  5>
|  6> * xyz 0 1
|  7> S 	 41.0461 	 29.8673 	 52.6829
|  8> C 	 41.8522 	 31.0061 	 51.7299
|  9> C 	 41.1462 	 32.1927 	 51.6635
| 10> C 	 39.8586 	 32.0896 	 52.281
| 11> C 	 39.668 	 30.9029 	 52.9279
| 12> H 	 39.1331 	 32.8873 	 52.1901
| 13> C 	 41.5962 	 33.428 	 50.919
| 14> H 	 42.6285 	 33.3519 	 50.6057
| 15> H 	 41.4627 	 34.3035 	 51.5483
| 16> C 	 40.8616 	 33.6786 	 49.5766
| 17> H 	 39.8229 	 33.848 	 49.6343
| 18> H 	 41.2028 	 34.6094 	 49.0941
| 19> C 	 40.9142 	 32.5458 	 48.4996
| 20> H 	 41.8715 	 32.4664 	 48.0309
| 21> H 	 40.8278 	 31.593 	 49.0142
| 22> H 	 40.2637 	 32.5649 	 47.6496
| 23> S 	 38.6558 	 29.8987 	 55.327
| 24> C 	 36.9495 	 29.5056 	 55.4671
| 25> C 	 36.2636 	 29.9172 	 54.3021
| 26> C 	 37.1068 	 30.4384 	 53.3103
| 27> C 	 38.4893 	 30.4164 	 53.6343
| 28> H 	 35.1779 	 29.8492 	 54.3197
| 29> C 	 36.603 	 31.0052 	 51.8951
| 30> H 	 37.4701 	 31.0875 	 51.2182
| 31> H 	 36.2753 	 31.9585 	 52.1238
| 32> C 	 35.3878 	 30.184 	 51.2903
| 33> H 	 34.5234 	 30.429 	 51.8696
| 34> H 	 35.4036 	 29.0892 	 51.3338
| 35> C 	 35.0959 	 30.4655 	 49.823
| 36> H 	 35.0554 	 31.5397 	 49.6356
| 37> H 	 34.138 	 30.1883 	 49.5028
| 38> H 	 35.8436 	 29.9249 	 49.2454
| 39> H 	 42.7595 	 30.8084 	 51.1557
| 40> H 	 36.463 	 29.2318 	 56.3852
| 41> *
| 42>
| 43>                          ****END OF INPUT****

CARTESIAN COORDINATES (ANGSTROEM)
---------------------------------
  S     41.046100   29.867300   52.682900
  C     41.852200   31.006100   51.729900
  C     41.146200   32.192700   51.663500
  C     39.858600   32.089600   52.281000
  C     39.668000   30.902900   52.927900
  H     39.133100   32.887300   52.190100
  C     41.596200   33.428000   50.919000
  H     42.628500   33.351900   50.605700
  H     41.462700   34.303500   51.548300
  C     40.861600   33.678600   49.576600
  H     39.822900   33.848000   49.634300
  H     41.202800   34.609400   49.094100
  C     40.914200   32.545800   48.499600
  H     41.871500   32.466400   48.030900
  H     40.827800   31.593000   49.014200
  H     40.263700   32.564900   47.649600
  S     38.655800   29.898700   55.327000
  C     36.949500   29.505600   55.467100
  C     36.263600   29.917200   54.302100
  C     37.106800   30.438400   53.310300
  C     38.489300   30.416400   53.634300
  H     35.177900   29.849200   54.319700
  C     36.603000   31.005200   51.895100
  H     37.470100   31.087500   51.218200
  H     36.275300   31.958500   52.123800
  C     35.387800   30.184000   51.290300
  H     34.523400   30.429000   51.869600
  H     35.403600   29.089200   51.333800
  C     35.095900   30.465500   49.823000
  H     35.055400   31.539700   49.635600
  H     34.138000   30.188300   49.502800
  H     35.843600   29.924900   49.245400
  H     42.759500   30.808400   51.155700
  H     36.463000   29.231800   56.385200

 Total Charge           Charge          ....    0
 Multiplicity           Mult            ....    1
 Number of Electrons    NEL             ....  134
 Basis Dimension        Dim             ....  322

ORBITAL ENERGIES
----------------

  NO   OCC          E(Eh)            E(eV)
   0   2.0000     -88.966254     -2420.8948
   1   2.0000     -88.965733     -2420.8807
   2   2.0000     -10.330358      -281.1033
   3   2.0000     -10.329275      -281.0739
   4   2.0000     -10.320259      -280.8285
   5   2.0000     -10.312567      -280.6192
   6   2.0000     -10.310323      -280.5582
   7   2.0000     -10.299999      -280.2772
   8   2.0000     -10.297337      -280.2048
   9   2.0000     -10.297240      -280.2021
  10   2.0000     -10.295807      -280.1631
  11   2.0000     -10.295093      -280.1437
  12   2.0000     -10.286430      -279.9080
  13   2.0000     -10.285485      -279.8823
  14   2.0000     -10.271403      -279.4991
  15   2.0000     -10.270050      -279.4623
  16   2.0000      -8.081874      -219.9190
  17   2.0000      -8.080204      -219.8735
  18   2.0000      -6.040232      -164.3631
  19   2.0000      -6.038622      -164.3193
  20   2.0000      -6.036084      -164.2502
  21   2.0000      -6.034742      -164.2137
  22   2.0000      -6.032790      -164.1606
  23   2.0000      -6.031193      -164.1171
  24   2.0000      -1.011033       -27.5116
  25   2.0000      -0.982403       -26.7325
  26   2.0000      -0.909800       -24.7569
  27   2.0000      -0.899101       -24.4658
  28   2.0000      -0.869339       -23.6559
  29   2.0000      -0.851263       -23.1640
  30   2.0000      -0.845707       -23.0129
  31   2.0000      -0.814382       -22.1605
  32   2.0000      -0.785806       -21.3829
  33   2.0000      -0.773130       -21.0379
  34   2.0000      -0.710310       -19.3285
  35   2.0000      -0.701481       -19.0883
  36   2.0000      -0.695797       -18.9336
  37   2.0000      -0.654301       -17.8044
  38   2.0000      -0.642837       -17.4925
  39   2.0000      -0.627972       -17.0880
  40   2.0000      -0.588918       -16.0253
  41   2.0000      -0.570050       -15.5118
  42   2.0000      -0.568330       -15.4650
  43   2.0000      -0.554245       -15.0818
  44   2.0000      -0.538667       -14.6579
  45   2.0000      -0.524386       -14.2693
  46   2.0000      -0.520331       -14.1589
  47   2.0000      -0.514460       -13.9992
  48   2.0000      -0.504149       -13.7186
  49   2.0000      -0.496350       -13.5064
  50   2.0000      -0.491913       -13.3856
  51   2.0000      -0.480844       -13.0844
  52   2.0000      -0.472603       -12.8602
  53   2.0000      -0.464238       -12.6325
  54   2.0000      -0.459639       -12.5074
  55   2.0000      -0.450921       -12.2702
  56   2.0000      -0.443717       -12.0741
  57   2.0000      -0.441542       -12.0150
  58   2.0000      -0.428932       -11.6718
  59   2.0000      -0.424904       -11.5622
  60   2.0000      -0.418006       -11.3745
  61   2.0000      -0.414643       -11.2830
  62   2.0000      -0.409908       -11.1542
  63   2.0000      -0.348709        -9.4889
  64   2.0000      -0.332567        -9.0496
  65   2.0000      -0.330563        -8.9951
  66   2.0000      -0.291335        -7.9276
  67   0.0000       0.031280         0.8512
  68   0.0000       0.064771         1.7625
  69   0.0000       0.117654         3.2015
  70   0.0000       0.124373         3.3844
  71   0.0000       0.130540         3.5522

MULLIKEN ATOMIC CHARGES
-----------------------
   0 S :    0.127922
   1 C :   -0.118113
   2 C :   -0.120441
   3 C :    0.033074
   4 C :   -0.151342
   5 H :    0.012213
   6 C :    0.102952
   7 H :    0.020021
   8 H :    0.038949
   9 C :   -0.077546
  10 H :    0.014471
  11 H :    0.026315
  12 C :   -0.055271
  13 H :    0.007855
  14 H :    0.030746
  15 H :    0.031520
  16 S :    0.103314
  17 C :   -0.095810
  18 C :   -0.058763
  19 C :   -0.024698
  20 C :   -0.160597
  21 H :    0.025471
  22 C :    0.102836
  23 H :    0.043155
  24 H :    0.020807
  25 C :   -0.097159
  26 H :    0.017261
  27 H :    0.034975
  28 C :   -0.022263
  29 H :    0.018754
  30 H :    0.012941
  31 H :    0.040962
  32 H :    0.056212
  33 H :    0.059279
Sum of atomic charges:   -0.0000000

LOEWDIN ATOMIC CHARGES
----------------------
   0 S :    0.440177
   1 C :   -0.214944
   2 C :   -0.069169
   3 C :   -0.056657
   4 C :   -0.201623
   5 H :    0.031907
   6 C :   -0.025075
   7 H :    0.030998
   8 H :    0.036540
   9 C :   -0.040592
  10 H :    0.014084
  11 H :    0.025210
  12 C :   -0.070756
  13 H :    0.016795
  14 H :    0.025422
  15 H :    0.024641
  16 S :    0.400962
  17 C :   -0.184304
  18 C :   -0.076905
  19 C :   -0.049484
  20 C :   -0.201385
  21 H :    0.034091
  22 C :   -0.014071
  23 H :    0.032140
  24 H :    0.021574
  25 C :   -0.043404
  26 H :    0.016395
  27 H :    0.027218
  28 C :   -0.061022
  29 H :    0.023326
  30 H :    0.018363
  31 H :    0.028172
  32 H :    0.033542
  33 H :    0.027836

  Mayer bond orders larger than 0.100000
B(  0-S ,  1-C ) :   1.1598 B(  0-S ,  4-C ) :   1.1680 B(  1-C ,  2-C ) :   1.5883
B(  1-C , 32-H ) :   0.9655 B(  2-C ,  3-C ) :   1.2493 B(  2-C ,  6-C ) :   1.0393
B(  3-C ,  4-C ) :   1.5525 B(  3-C ,  5-H ) :   1.0047 B(  4-C , 20-C ) :   1.0279
B(  6-C ,  7-H ) :   0.9434 B(  6-C ,  8-H ) :   0.9366 B(  6-C ,  9-C ) :   1.0604
B(  9-C , 10-H ) :   0.9611 B(  9-C , 11-H ) :   0.9585 B(  9-C , 12-C ) :   1.0603
B( 12-C , 13-H ) :   0.9742 B( 12-C , 14-H ) :   0.9754 B( 12-C , 15-H ) :   0.9779
B( 16-S , 17-C ) :   1.1734 B( 16-S , 20-C ) :   1.1546 B( 17-C , 18-C ) :   1.5629
B( 17-C , 20-C ) :   0.1210 B( 17-C , 33-H ) :   0.9684 B( 18-C , 19-C ) :   1.2870
B( 18-C , 21-H ) :   0.9913 B( 19-C , 20-C ) :   1.5594 B( 19-C , 22-C ) :   1.0107
B( 22-C , 23-H ) :   0.9486 B( 22-C , 24-H ) :   0.9296 B( 22-C , 25-C ) :   1.0490
B( 25-C , 26-H ) :   0.9499 B( 25-C , 27-H ) :   0.9673 B( 25-C , 28-C ) :   1.0968
B( 28-C , 29-H ) :   0.9717 B( 28-C , 30-H ) :   0.9710 B( 28-C , 31-H ) :   0.9782

Dispersion correction           -0.014269539
FINAL SINGLE POINT ENERGY     -1339.874351778453

DIPOLE MOMENT
-------------
                                X             Y             Z
Electronic contribution:     10.10098     -11.59173      26.41145
Nuclear contribution   :    -10.48443      12.04102     -26.87133
                        -----------------------------------------
Total Dipole Moment    :     -0.38346       0.44929      -0.45989
                        -----------------------------------------
Magnitude (a.u.)       :      0.74859
Magnitude (Debye)      :      1.90278

Rotational constants in cm-1:     0.016703     0.009459     0.006696
Rotational constants in MHz :   500.728736   283.582586   200.744971

                             ****ORCA TERMINATED NORMALLY****
TOTAL RUN TIME: 0 days 0 hours 0 minutes 34 seconds 505 msec
