                         Program Version 4.2.1 -  RELEASE  -
|  1> ! wB97X-D3 SP def2-SVP
|  2> %pal
|  3> nprocs 16
|  4> end
|  5>
|  6> * xyz 0 1
|  7> S 	 -38.3801 	 11.1955 	 77.7621
|  8> C 	 -37.6041 	 11.1657 	 76.1592
|  9> C 	 -37.9035 	 12.3088 	 75.4679
| 10> C 	 -38.5327 	 13.2648 	 76.2906
| 11> C 	 -38.9017 	 12.8694 	 77.5356
| 12> H 	 -38.8305 	 14.2583 	 76.0535
| 13> C 	 -37.4195 	 12.5049 	 74.0152
| 14> H 	 -37.9693 	 13.3534 	 73.6314
| 15> H 	 -37.7066 	 11.6413 	 73.4655
| 16> C 	 -35.8848 	 12.7004 	 73.888
| 17> H 	 -35.4781 	 11.873 	 74.4094
| 18> H 	 -35.6424 	 12.5958 	 72.8417
| 19> C 	 -35.2966 	 14.0201 	 74.4779
| 20> H 	 -35.5176 	 13.9422 	 75.566
| 21> H 	 -34.1841 	 14.0587 	 74.3482
| 22> H 	 -35.6643 	 14.9617 	 74.0488
| 23> S 	 -38.7743 	 13.8225 	 80.0931
| 24> C 	 -40.1443 	 14.7265 	 80.7902
| 25> C 	 -41.1463 	 14.8927 	 79.8663
| 26> C 	 -40.883 	 14.1409 	 78.6355
| 27> C 	 -39.5889 	 13.6012 	 78.591
| 28> H 	 -41.9973 	 15.5154 	 80.0378
| 29> C 	 -42.0269 	 14.0676 	 77.6166
| 30> H 	 -41.5191 	 14.0381 	 76.6842
| 31> H 	 -42.5815 	 15.0757 	 77.7044
| 32> C 	 -43.1116 	 12.9548 	 77.727
| 33> H 	 -42.6597 	 11.9767 	 77.7074
| 34> H 	 -43.8098 	 12.9919 	 76.8595
| 35> C 	 -43.9561 	 13.0568 	 78.9874
| 36> H 	 -44.7671 	 12.3308 	 78.9013
| 37> H 	 -44.3948 	 14.0698 	 79.0007
| 38> H 	 -43.4842 	 12.8585 	 79.906
| 39> H 	 -37.0097 	 10.3116 	 75.7821
| 40> H 	 -40.167 	 15.1337 	 81.7918
| 41> *
| 42>
| 43>                          ****END OF INPUT****

CARTESIAN COORDINATES (ANGSTROEM)
---------------------------------
  S    -38.380100   11.195500   77.762100
  C    -37.604100   11.165700   76.159200
  C    -37.903500   12.308800   75.467900
  C    -38.532700   13.264800   76.290600
  C    -38.901700   12.869400   77.535600
  H    -38.830500   14.258300   76.053500
  C    -37.419500   12.504900   74.015200
  H    -37.969300   13.353400   73.631400
  H    -37.706600   11.641300   73.465500
  C    -35.884800   12.700400   73.888000
  H    -35.478100   11.873000   74.409400
  H    -35.642400   12.595800   72.841700
  C    -35.296600   14.020100   74.477900
  H    -35.517600   13.942200   75.566000
  H    -34.184100   14.058700   74.348200
  H    -35.664300   14.961700   74.048800
  S    -38.774300   13.822500   80.093100
  C    -40.144300   14.726500   80.790200
  C    -41.146300   14.892700   79.866300
  C    -40.883000   14.140900   78.635500
  C    -39.588900   13.601200   78.591000
  H    -41.997300   15.515400   80.037800
  C    -42.026900   14.067600   77.616600
  H    -41.519100   14.038100   76.684200
  H    -42.581500   15.075700   77.704400
  C    -43.111600   12.954800   77.727000
  H    -42.659700   11.976700   77.707400
  H    -43.809800   12.991900   76.859500
  C    -43.956100   13.056800   78.987400
  H    -44.767100   12.330800   78.901300
  H    -44.394800   14.069800   79.000700
  H    -43.484200   12.858500   79.906000
  H    -37.009700   10.311600   75.782100
  H    -40.167000   15.133700   81.791800

 Total Charge           Charge          ....    0
 Multiplicity           Mult            ....    1
 Number of Electrons    NEL             ....  134
 Basis Dimension        Dim             ....  322

ORBITAL ENERGIES
----------------

  NO   OCC          E(Eh)            E(eV)
   0   2.0000     -88.966011     -2420.8882
   1   2.0000     -88.962095     -2420.7817
   2   2.0000     -10.328686      -281.0578
   3   2.0000     -10.327542      -281.0267
   4   2.0000     -10.320819      -280.8438
   5   2.0000     -10.317430      -280.7515
   6   2.0000     -10.309040      -280.5232
   7   2.0000     -10.300114      -280.2804
   8   2.0000     -10.295811      -280.1633
   9   2.0000     -10.295745      -280.1615
  10   2.0000     -10.291265      -280.0396
  11   2.0000     -10.289659      -279.9959
  12   2.0000     -10.287506      -279.9373
  13   2.0000     -10.285797      -279.8908
  14   2.0000     -10.283706      -279.8339
  15   2.0000     -10.271503      -279.5018
  16   2.0000      -8.080753      -219.8885
  17   2.0000      -8.076343      -219.7685
  18   2.0000      -6.039381      -164.3399
  19   2.0000      -6.035188      -164.2258
  20   2.0000      -6.034876      -164.2173
  21   2.0000      -6.031439      -164.1238
  22   2.0000      -6.030903      -164.1092
  23   2.0000      -6.027106      -164.0059
  24   2.0000      -1.005718       -27.3670
  25   2.0000      -0.982513       -26.7355
  26   2.0000      -0.908207       -24.7136
  27   2.0000      -0.903245       -24.5785
  28   2.0000      -0.868777       -23.6406
  29   2.0000      -0.847597       -23.0643
  30   2.0000      -0.840429       -22.8692
  31   2.0000      -0.819009       -22.2864
  32   2.0000      -0.782751       -21.2997
  33   2.0000      -0.769989       -20.9525
  34   2.0000      -0.706482       -19.2243
  35   2.0000      -0.702391       -19.1130
  36   2.0000      -0.687907       -18.7189
  37   2.0000      -0.664680       -18.0869
  38   2.0000      -0.644393       -17.5348
  39   2.0000      -0.613716       -16.7001
  40   2.0000      -0.585897       -15.9431
  41   2.0000      -0.575427       -15.6582
  42   2.0000      -0.557434       -15.1685
  43   2.0000      -0.549465       -14.9517
  44   2.0000      -0.545348       -14.8397
  45   2.0000      -0.537134       -14.6162
  46   2.0000      -0.515958       -14.0399
  47   2.0000      -0.511847       -13.9281
  48   2.0000      -0.504788       -13.7360
  49   2.0000      -0.491778       -13.3820
  50   2.0000      -0.481720       -13.1083
  51   2.0000      -0.480629       -13.0786
  52   2.0000      -0.475904       -12.9500
  53   2.0000      -0.462244       -12.5783
  54   2.0000      -0.461398       -12.5553
  55   2.0000      -0.443686       -12.0733
  56   2.0000      -0.440688       -11.9917
  57   2.0000      -0.434251       -11.8166
  58   2.0000      -0.431305       -11.7364
  59   2.0000      -0.425151       -11.5689
  60   2.0000      -0.422469       -11.4960
  61   2.0000      -0.415693       -11.3116
  62   2.0000      -0.413763       -11.2591
  63   2.0000      -0.341660        -9.2971
  64   2.0000      -0.330938        -9.0053
  65   2.0000      -0.327609        -8.9147
  66   2.0000      -0.301016        -8.1911
  67   0.0000       0.033096         0.9006
  68   0.0000       0.064840         1.7644
  69   0.0000       0.111445         3.0326
  70   0.0000       0.115747         3.1496
  71   0.0000       0.129276         3.5178

MULLIKEN ATOMIC CHARGES
-----------------------
   0 S :    0.099249
   1 C :   -0.155912
   2 C :   -0.088956
   3 C :    0.059506
   4 C :   -0.175866
   5 H :   -0.006915
   6 C :    0.097423
   7 H :    0.015992
   8 H :    0.025463
   9 C :   -0.046261
  10 H :    0.012985
  11 H :    0.026932
  12 C :   -0.083560
  13 H :    0.052090
  14 H :    0.042285
  15 H :    0.037587
  16 S :    0.111705
  17 C :   -0.093702
  18 C :   -0.021705
  19 C :   -0.053153
  20 C :   -0.163680
  21 H :    0.019024
  22 C :    0.063805
  23 H :    0.012817
  24 H :    0.030819
  25 C :   -0.046033
  26 H :    0.028880
  27 H :    0.036038
  28 C :   -0.048399
  29 H :    0.029145
  30 H :    0.019593
  31 H :    0.036148
  32 H :    0.067117
  33 H :    0.059537
Sum of atomic charges:   -0.0000000

LOEWDIN ATOMIC CHARGES
----------------------
   0 S :    0.379767
   1 C :   -0.186186
   2 C :   -0.069141
   3 C :   -0.062613
   4 C :   -0.189396
   5 H :    0.027349
   6 C :   -0.021293
   7 H :    0.025715
   8 H :    0.029116
   9 C :   -0.032460
  10 H :    0.017641
  11 H :    0.020055
  12 C :   -0.072457
  13 H :    0.033480
  14 H :    0.031594
  15 H :    0.024100
  16 S :    0.408214
  17 C :   -0.172870
  18 C :   -0.066205
  19 C :   -0.051011
  20 C :   -0.217294
  21 H :    0.028972
  22 C :   -0.034420
  23 H :    0.022932
  24 H :    0.036859
  25 C :   -0.035908
  26 H :    0.023321
  27 H :    0.030876
  28 C :   -0.063755
  29 H :    0.027983
  30 H :    0.023209
  31 H :    0.018537
  32 H :    0.034963
  33 H :    0.030328

  Mayer bond orders larger than 0.100000
B(  0-S ,  1-C ) :   1.1402 B(  0-S ,  4-C ) :   1.1365 B(  1-C ,  2-C ) :   1.6054
B(  1-C ,  4-C ) :   0.1010 B(  1-C , 32-H ) :   0.9657 B(  2-C ,  3-C ) :   1.2229
B(  2-C ,  6-C ) :   1.0114 B(  3-C ,  4-C ) :   1.6180 B(  3-C ,  5-H ) :   0.9992
B(  4-C , 20-C ) :   1.0199 B(  6-C ,  7-H ) :   0.9427 B(  6-C ,  8-H ) :   0.9377
B(  6-C ,  9-C ) :   1.0723 B(  9-C , 10-H ) :   0.9562 B(  9-C , 11-H ) :   0.9572
B(  9-C , 12-C ) :   1.0704 B( 12-C , 13-H ) :   0.9756 B( 12-C , 14-H ) :   0.9748
B( 12-C , 15-H ) :   0.9777 B( 16-S , 17-C ) :   1.1435 B( 16-S , 20-C ) :   1.1453
B( 17-C , 18-C ) :   1.6244 B( 17-C , 33-H ) :   0.9678 B( 18-C , 19-C ) :   1.2235
B( 18-C , 21-H ) :   0.9892 B( 19-C , 20-C ) :   1.6045 B( 19-C , 22-C ) :   1.0278
B( 22-C , 23-H ) :   0.9277 B( 22-C , 24-H ) :   0.9420 B( 22-C , 25-C ) :   1.0726
B( 25-C , 26-H ) :   0.9529 B( 25-C , 27-H ) :   0.9558 B( 25-C , 28-C ) :   1.0828
B( 28-C , 29-H ) :   0.9718 B( 28-C , 30-H ) :   0.9742 B( 28-C , 31-H ) :   0.9744

Dispersion correction           -0.014440742
FINAL SINGLE POINT ENERGY     -1339.886842995384

DIPOLE MOMENT
-------------
                                X             Y             Z
Electronic contribution:      6.32277      -4.56998      15.96053
Nuclear contribution   :     -6.58858       4.77516     -16.39103
                        -----------------------------------------
Total Dipole Moment    :     -0.26581       0.20519      -0.43050
                        -----------------------------------------
Magnitude (a.u.)       :      0.54597
Magnitude (Debye)      :      1.38776

Rotational constants in cm-1:     0.022295     0.007506     0.006786
Rotational constants in MHz :   668.376505   225.011912   203.440297

                             ****ORCA TERMINATED NORMALLY****
TOTAL RUN TIME: 0 days 0 hours 0 minutes 29 seconds 671 msec
