                         Program Version 4.2.1 -  RELEASE  -
|  1> ! wB97X-D3 SP def2-SVP
|  2> %pal
|  3> nprocs 16
|  4> end
|  5>
|  6> * xyz 0 1
|  7> S 	 55.5456 	 12.5678 	 75.3539
|  8> C 	 56.165 	 13.7252 	 76.4259
|  9> C 	 57.293 	 13.1773 	 77.07
| 10> C 	 57.4392 	 11.7745 	 76.8182
| 11> C 	 56.6961 	 11.2852 	 75.8197
| 12> H 	 58.0066 	 11.0225 	 77.3862
| 13> C 	 58.0053 	 13.8282 	 78.2308
| 14> H 	 57.8276 	 14.9594 	 78.1427
| 15> H 	 59.0986 	 13.7194 	 78.1367
| 16> C 	 57.4518 	 13.3873 	 79.5941
| 17> H 	 56.383 	 13.2708 	 79.4955
| 18> H 	 57.738 	 12.3714 	 79.8667
| 19> C 	 57.8048 	 14.4288 	 80.644
| 20> H 	 58.8845 	 14.6194 	 80.557
| 21> H 	 57.3011 	 15.4017 	 80.5225
| 22> H 	 57.7603 	 14.0148 	 81.6105
| 23> S 	 56.3255 	 8.6727 	 76.6587
| 24> C 	 56.1052 	 7.41447 	 75.4577
| 25> C 	 55.9456 	 7.95169 	 74.2317
| 26> C 	 56.1023 	 9.38552 	 74.164
| 27> C 	 56.4873 	 9.91103 	 75.4152
| 28> H 	 55.5803 	 7.24838 	 73.474
| 29> C 	 55.8641 	 10.2109 	 72.8813
| 30> H 	 56.7701 	 10.8527 	 72.6661
| 31> H 	 54.9133 	 10.7662 	 73.1262
| 32> C 	 55.5474 	 9.37379 	 71.6434
| 33> H 	 54.861 	 8.4885 	 71.8109
| 34> H 	 56.395 	 8.99289 	 71.0399
| 35> C 	 54.7893 	 10.0769 	 70.5197
| 36> H 	 54.8721 	 9.51095 	 69.5769
| 37> H 	 55.222 	 11.0639 	 70.4112
| 38> H 	 53.7446 	 10.353 	 70.6974
| 39> H 	 55.8821 	 14.737 	 76.5941
| 40> H 	 55.9267 	 6.37492 	 75.6316
| 41> *
| 42>
| 43>                          ****END OF INPUT****

CARTESIAN COORDINATES (ANGSTROEM)
---------------------------------
  S     55.545600   12.567800   75.353900
  C     56.165000   13.725200   76.425900
  C     57.293000   13.177300   77.070000
  C     57.439200   11.774500   76.818200
  C     56.696100   11.285200   75.819700
  H     58.006600   11.022500   77.386200
  C     58.005300   13.828200   78.230800
  H     57.827600   14.959400   78.142700
  H     59.098600   13.719400   78.136700
  C     57.451800   13.387300   79.594100
  H     56.383000   13.270800   79.495500
  H     57.738000   12.371400   79.866700
  C     57.804800   14.428800   80.644000
  H     58.884500   14.619400   80.557000
  H     57.301100   15.401700   80.522500
  H     57.760300   14.014800   81.610500
  S     56.325500    8.672700   76.658700
  C     56.105200    7.414470   75.457700
  C     55.945600    7.951690   74.231700
  C     56.102300    9.385520   74.164000
  C     56.487300    9.911030   75.415200
  H     55.580300    7.248380   73.474000
  C     55.864100   10.210900   72.881300
  H     56.770100   10.852700   72.666100
  H     54.913300   10.766200   73.126200
  C     55.547400    9.373790   71.643400
  H     54.861000    8.488500   71.810900
  H     56.395000    8.992890   71.039900
  C     54.789300   10.076900   70.519700
  H     54.872100    9.510950   69.576900
  H     55.222000   11.063900   70.411200
  H     53.744600   10.353000   70.697400
  H     55.882100   14.737000   76.594100
  H     55.926700    6.374920   75.631600

 Total Charge           Charge          ....    0
 Multiplicity           Mult            ....    1
 Number of Electrons    NEL             ....  134
 Basis Dimension        Dim             ....  322

ORBITAL ENERGIES
----------------

  NO   OCC          E(Eh)            E(eV)
   0   2.0000     -88.965909     -2420.8854
   1   2.0000     -88.963622     -2420.8232
   2   2.0000     -10.329228      -281.0726
   3   2.0000     -10.325421      -280.9690
   4   2.0000     -10.314437      -280.6701
   5   2.0000     -10.312196      -280.6091
   6   2.0000     -10.309965      -280.5484
   7   2.0000     -10.306258      -280.4475
   8   2.0000     -10.300497      -280.2908
   9   2.0000     -10.295314      -280.1497
  10   2.0000     -10.291626      -280.0494
  11   2.0000     -10.291357      -280.0421
  12   2.0000     -10.290452      -280.0174
  13   2.0000     -10.282976      -279.8140
  14   2.0000     -10.275113      -279.6000
  15   2.0000     -10.274946      -279.5955
  16   2.0000      -8.080241      -219.8745
  17   2.0000      -8.078513      -219.8275
  18   2.0000      -6.038899      -164.3268
  19   2.0000      -6.037110      -164.2781
  20   2.0000      -6.034856      -164.2168
  21   2.0000      -6.032867      -164.1627
  22   2.0000      -6.030832      -164.1073
  23   2.0000      -6.029272      -164.0648
  24   2.0000      -1.009338       -27.4655
  25   2.0000      -0.986192       -26.8356
  26   2.0000      -0.911761       -24.8103
  27   2.0000      -0.907354       -24.6904
  28   2.0000      -0.877439       -23.8763
  29   2.0000      -0.851822       -23.1793
  30   2.0000      -0.844096       -22.9690
  31   2.0000      -0.821409       -22.3517
  32   2.0000      -0.779361       -21.2075
  33   2.0000      -0.764786       -20.8109
  34   2.0000      -0.708587       -19.2816
  35   2.0000      -0.700675       -19.0663
  36   2.0000      -0.692932       -18.8556
  37   2.0000      -0.658988       -17.9320
  38   2.0000      -0.632791       -17.2191
  39   2.0000      -0.618191       -16.8218
  40   2.0000      -0.596427       -16.2296
  41   2.0000      -0.571871       -15.5614
  42   2.0000      -0.567448       -15.4411
  43   2.0000      -0.562457       -15.3052
  44   2.0000      -0.532859       -14.4998
  45   2.0000      -0.522896       -14.2287
  46   2.0000      -0.517209       -14.0740
  47   2.0000      -0.514744       -14.0069
  48   2.0000      -0.504695       -13.7335
  49   2.0000      -0.500849       -13.6288
  50   2.0000      -0.488704       -13.2983
  51   2.0000      -0.482629       -13.1330
  52   2.0000      -0.472542       -12.8585
  53   2.0000      -0.464094       -12.6286
  54   2.0000      -0.461063       -12.5462
  55   2.0000      -0.450316       -12.2537
  56   2.0000      -0.441166       -12.0047
  57   2.0000      -0.435786       -11.8583
  58   2.0000      -0.429554       -11.6888
  59   2.0000      -0.419791       -11.4231
  60   2.0000      -0.417590       -11.3632
  61   2.0000      -0.410062       -11.1584
  62   2.0000      -0.404664       -11.0115
  63   2.0000      -0.355475        -9.6730
  64   2.0000      -0.331445        -9.0191
  65   2.0000      -0.325705        -8.8629
  66   2.0000      -0.289418        -7.8755
  67   0.0000       0.027138         0.7385
  68   0.0000       0.072368         1.9692
  69   0.0000       0.101884         2.7724
  70   0.0000       0.125656         3.4193
  71   0.0000       0.132198         3.5973

MULLIKEN ATOMIC CHARGES
-----------------------
   0 S :    0.091874
   1 C :   -0.079651
   2 C :   -0.098751
   3 C :   -0.022867
   4 C :   -0.115677
   5 H :    0.024739
   6 C :    0.004583
   7 H :    0.024196
   8 H :    0.040252
   9 C :   -0.049415
  10 H :    0.025069
  11 H :    0.024308
  12 C :   -0.028454
  13 H :    0.019403
  14 H :    0.045816
  15 H :    0.021051
  16 S :    0.098002
  17 C :   -0.070368
  18 C :   -0.053931
  19 C :   -0.065337
  20 C :   -0.132276
  21 H :    0.027730
  22 C :    0.078184
  23 H :    0.069217
  24 H :    0.057672
  25 C :   -0.125238
  26 H :    0.040811
  27 H :    0.039872
  28 C :   -0.067144
  29 H :    0.041151
  30 H :    0.017225
  31 H :    0.029655
  32 H :    0.042711
  33 H :    0.045587
Sum of atomic charges:    0.0000000

LOEWDIN ATOMIC CHARGES
----------------------
   0 S :    0.416844
   1 C :   -0.203802
   2 C :   -0.069776
   3 C :   -0.067187
   4 C :   -0.186336
   5 H :    0.034683
   6 C :   -0.040430
   7 H :    0.033299
   8 H :    0.030985
   9 C :   -0.040710
  10 H :    0.023143
  11 H :    0.023941
  12 C :   -0.064188
  13 H :    0.027354
  14 H :    0.030123
  15 H :    0.020480
  16 S :    0.398388
  17 C :   -0.181937
  18 C :   -0.078700
  19 C :   -0.054894
  20 C :   -0.197146
  21 H :    0.036788
  22 C :   -0.041609
  23 H :    0.048660
  24 H :    0.041928
  25 C :   -0.057172
  26 H :    0.029694
  27 H :    0.030833
  28 C :   -0.071339
  29 H :    0.030036
  30 H :    0.020154
  31 H :    0.020358
  32 H :    0.028418
  33 H :    0.029118

  Mayer bond orders larger than 0.100000
B(  0-S ,  1-C ) :   1.1605 B(  0-S ,  4-C ) :   1.1188 B(  1-C ,  2-C ) :   1.5828
B(  1-C , 32-H ) :   0.9723 B(  2-C ,  3-C ) :   1.2182 B(  2-C ,  6-C ) :   1.0523
B(  3-C ,  4-C ) :   1.6044 B(  3-C ,  5-H ) :   0.9947 B(  4-C , 20-C ) :   1.0765
B(  6-C ,  7-H ) :   0.9480 B(  6-C ,  8-H ) :   0.9353 B(  6-C ,  9-C ) :   1.0458
B(  9-C , 10-H ) :   0.9569 B(  9-C , 11-H ) :   0.9500 B(  9-C , 12-C ) :   1.0858
B( 12-C , 13-H ) :   0.9708 B( 12-C , 14-H ) :   0.9747 B( 12-C , 15-H ) :   0.9709
B( 16-S , 17-C ) :   1.1385 B( 16-S , 20-C ) :   1.1339 B( 17-C , 18-C ) :   1.6395
B( 17-C , 33-H ) :   0.9618 B( 18-C , 19-C ) :   1.2399 B( 18-C , 21-H ) :   0.9821
B( 19-C , 20-C ) :   1.5732 B( 19-C , 22-C ) :   1.0192 B( 22-C , 23-H ) :   0.9293
B( 22-C , 24-H ) :   0.9312 B( 22-C , 25-C ) :   1.0809 B( 25-C , 26-H ) :   0.9514
B( 25-C , 27-H ) :   0.9552 B( 25-C , 28-C ) :   1.0782 B( 28-C , 29-H ) :   0.9755
B( 28-C , 30-H ) :   0.9708 B( 28-C , 31-H ) :   0.9745

Dispersion correction           -0.013523779
FINAL SINGLE POINT ENERGY     -1339.865647599800

DIPOLE MOMENT
-------------
                                X             Y             Z
Electronic contribution:     -2.11361      -8.59968       2.25779
Nuclear contribution   :      2.04813       8.60212      -2.23753
                        -----------------------------------------
Total Dipole Moment    :     -0.06547       0.00244       0.02026
                        -----------------------------------------
Magnitude (a.u.)       :      0.06858
Magnitude (Debye)      :      0.17432

Rotational constants in cm-1:     0.025180     0.007084     0.005743
Rotational constants in MHz :   754.867406   212.364077   172.167764

                             ****ORCA TERMINATED NORMALLY****
TOTAL RUN TIME: 0 days 0 hours 0 minutes 27 seconds 733 msec
