                         Program Version 4.2.1 -  RELEASE  -
|  1> ! wB97X-D3 SP def2-SVP
|  2> %pal
|  3> nprocs 16
|  4> end
|  5>
|  6> * xyz 0 1
|  7> S 	 2.12243 	 15.9691 	 85.536
|  8> C 	 0.69691 	 16.2668 	 84.5586
|  9> C 	 -0.423624 	 15.6569 	 85.0387
| 10> C 	 -0.176065 	 14.9297 	 86.2517
| 11> C 	 1.09917 	 15.1347 	 86.7092
| 12> H 	 -0.860696 	 14.3517 	 86.8498
| 13> C 	 -1.66386 	 15.3416 	 84.2585
| 14> H 	 -2.18796 	 14.4842 	 84.7149
| 15> H 	 -1.42602 	 14.9649 	 83.306
| 16> C 	 -2.63472 	 16.5346 	 84.0754
| 17> H 	 -2.24647 	 17.3458 	 83.4861
| 18> H 	 -3.41087 	 16.1991 	 83.4092
| 19> C 	 -3.27384 	 17.1499 	 85.3345
| 20> H 	 -3.78882 	 18.1153 	 85.02
| 21> H 	 -3.9701 	 16.4631 	 85.7458
| 22> H 	 -2.57676 	 17.499 	 86.0644
| 23> S 	 2.01973 	 15.8605 	 89.16
| 24> C 	 2.39823 	 14.6836 	 90.3944
| 25> C 	 1.98493 	 13.4342 	 89.9621
| 26> C 	 1.56477 	 13.3848 	 88.5476
| 27> C 	 1.72066 	 14.6571 	 87.9074
| 28> H 	 2.07322 	 12.5627 	 90.6398
| 29> C 	 1.09515 	 12.1054 	 87.8648
| 30> H 	 1.90868 	 11.4373 	 87.5736
| 31> H 	 0.742943 	 12.3198 	 86.8219
| 32> C 	 0.0449321 	 11.2351 	 88.6029
| 33> H 	 0.293325 	 10.8435 	 89.5515
| 34> H 	 -0.157512 	 10.3798 	 87.8543
| 35> C 	 -1.33169 	 11.8219 	 88.5364
| 36> H 	 -1.65981 	 12.6395 	 89.2721
| 37> H 	 -2.00695 	 11.024 	 88.8025
| 38> H 	 -1.53579 	 12.1091 	 87.5042
| 39> H 	 0.782141 	 16.6267 	 83.5226
| 40> H 	 2.62915 	 14.9253 	 91.4499
| 41> *
| 42>
| 43>                          ****END OF INPUT****

CARTESIAN COORDINATES (ANGSTROEM)
---------------------------------
  S      2.122430   15.969100   85.536000
  C      0.696910   16.266800   84.558600
  C     -0.423624   15.656900   85.038700
  C     -0.176065   14.929700   86.251700
  C      1.099170   15.134700   86.709200
  H     -0.860696   14.351700   86.849800
  C     -1.663860   15.341600   84.258500
  H     -2.187960   14.484200   84.714900
  H     -1.426020   14.964900   83.306000
  C     -2.634720   16.534600   84.075400
  H     -2.246470   17.345800   83.486100
  H     -3.410870   16.199100   83.409200
  C     -3.273840   17.149900   85.334500
  H     -3.788820   18.115300   85.020000
  H     -3.970100   16.463100   85.745800
  H     -2.576760   17.499000   86.064400
  S      2.019730   15.860500   89.160000
  C      2.398230   14.683600   90.394400
  C      1.984930   13.434200   89.962100
  C      1.564770   13.384800   88.547600
  C      1.720660   14.657100   87.907400
  H      2.073220   12.562700   90.639800
  C      1.095150   12.105400   87.864800
  H      1.908680   11.437300   87.573600
  H      0.742943   12.319800   86.821900
  C      0.044932   11.235100   88.602900
  H      0.293325   10.843500   89.551500
  H     -0.157512   10.379800   87.854300
  C     -1.331690   11.821900   88.536400
  H     -1.659810   12.639500   89.272100
  H     -2.006950   11.024000   88.802500
  H     -1.535790   12.109100   87.504200
  H      0.782141   16.626700   83.522600
  H      2.629150   14.925300   91.449900

 Total Charge           Charge          ....    0
 Multiplicity           Mult            ....    1
 Number of Electrons    NEL             ....  134
 Basis Dimension        Dim             ....  322

ORBITAL ENERGIES
----------------

  NO   OCC          E(Eh)            E(eV)
   0   2.0000     -88.964467     -2420.8462
   1   2.0000     -88.961648     -2420.7695
   2   2.0000     -10.326365      -280.9947
   3   2.0000     -10.325119      -280.9608
   4   2.0000     -10.322184      -280.8809
   5   2.0000     -10.315098      -280.6881
   6   2.0000     -10.312416      -280.6151
   7   2.0000     -10.301673      -280.3228
   8   2.0000     -10.297271      -280.2030
   9   2.0000     -10.296706      -280.1876
  10   2.0000     -10.293617      -280.1036
  11   2.0000     -10.293068      -280.0886
  12   2.0000     -10.289160      -279.9823
  13   2.0000     -10.281603      -279.7767
  14   2.0000     -10.280322      -279.7418
  15   2.0000     -10.273815      -279.5647
  16   2.0000      -8.079174      -219.8455
  17   2.0000      -8.076419      -219.7705
  18   2.0000      -6.037596      -164.2913
  19   2.0000      -6.035061      -164.2224
  20   2.0000      -6.033838      -164.1891
  21   2.0000      -6.030867      -164.1082
  22   2.0000      -6.029873      -164.0812
  23   2.0000      -6.027038      -164.0041
  24   2.0000      -1.004782       -27.3415
  25   2.0000      -0.979070       -26.6418
  26   2.0000      -0.911216       -24.7955
  27   2.0000      -0.909255       -24.7421
  28   2.0000      -0.869875       -23.6705
  29   2.0000      -0.849857       -23.1258
  30   2.0000      -0.843796       -22.9609
  31   2.0000      -0.813437       -22.1347
  32   2.0000      -0.784292       -21.3417
  33   2.0000      -0.770978       -20.9794
  34   2.0000      -0.704354       -19.1664
  35   2.0000      -0.703616       -19.1464
  36   2.0000      -0.691297       -18.8111
  37   2.0000      -0.650683       -17.7060
  38   2.0000      -0.638648       -17.3785
  39   2.0000      -0.616242       -16.7688
  40   2.0000      -0.600110       -16.3298
  41   2.0000      -0.570663       -15.5285
  42   2.0000      -0.556376       -15.1398
  43   2.0000      -0.547515       -14.8986
  44   2.0000      -0.540772       -14.7152
  45   2.0000      -0.538452       -14.6520
  46   2.0000      -0.518000       -14.0955
  47   2.0000      -0.514963       -14.0129
  48   2.0000      -0.498693       -13.5701
  49   2.0000      -0.493622       -13.4321
  50   2.0000      -0.491566       -13.3762
  51   2.0000      -0.474634       -12.9155
  52   2.0000      -0.468326       -12.7438
  53   2.0000      -0.463206       -12.6045
  54   2.0000      -0.460706       -12.5364
  55   2.0000      -0.445690       -12.1278
  56   2.0000      -0.437909       -11.9161
  57   2.0000      -0.435118       -11.8402
  58   2.0000      -0.431152       -11.7323
  59   2.0000      -0.427159       -11.6236
  60   2.0000      -0.424542       -11.5524
  61   2.0000      -0.414547       -11.2804
  62   2.0000      -0.402906       -10.9636
  63   2.0000      -0.344118        -9.3639
  64   2.0000      -0.329314        -8.9611
  65   2.0000      -0.320783        -8.7290
  66   2.0000      -0.296883        -8.0786
  67   0.0000       0.029384         0.7996
  68   0.0000       0.059196         1.6108
  69   0.0000       0.100643         2.7386
  70   0.0000       0.108418         2.9502
  71   0.0000       0.131696         3.5836

MULLIKEN ATOMIC CHARGES
-----------------------
   0 S :    0.111723
   1 C :   -0.120657
   2 C :   -0.057858
   3 C :    0.039005
   4 C :   -0.184640
   5 H :    0.003012
   6 C :    0.071248
   7 H :    0.020062
   8 H :    0.016625
   9 C :   -0.072166
  10 H :    0.017704
  11 H :    0.014216
  12 C :   -0.049240
  13 H :    0.034625
  14 H :    0.028787
  15 H :    0.038885
  16 S :    0.098288
  17 C :   -0.099856
  18 C :   -0.046414
  19 C :   -0.026131
  20 C :   -0.118212
  21 H :    0.033250
  22 C :    0.032831
  23 H :    0.039181
  24 H :    0.019493
  25 C :   -0.080468
  26 H :    0.032394
  27 H :    0.037018
  28 C :   -0.064054
  29 H :    0.047435
  30 H :    0.024167
  31 H :    0.026502
  32 H :    0.056658
  33 H :    0.076585
Sum of atomic charges:    0.0000000

LOEWDIN ATOMIC CHARGES
----------------------
   0 S :    0.399303
   1 C :   -0.193549
   2 C :   -0.066670
   3 C :   -0.052230
   4 C :   -0.191556
   5 H :    0.030972
   6 C :   -0.026684
   7 H :    0.032039
   8 H :    0.026007
   9 C :   -0.042303
  10 H :    0.020019
  11 H :    0.021236
  12 C :   -0.063280
  13 H :    0.035800
  14 H :    0.018289
  15 H :    0.023066
  16 S :    0.407878
  17 C :   -0.191926
  18 C :   -0.077960
  19 C :   -0.046806
  20 C :   -0.211950
  21 H :    0.034294
  22 C :   -0.045861
  23 H :    0.035214
  24 H :    0.035198
  25 C :   -0.038584
  26 H :    0.016636
  27 H :    0.042339
  28 C :   -0.075072
  29 H :    0.029614
  30 H :    0.023854
  31 H :    0.021353
  32 H :    0.030959
  33 H :    0.040361

  Mayer bond orders larger than 0.100000
B(  0-S ,  1-C ) :   1.1346 B(  0-S ,  4-C ) :   1.1456 B(  1-C ,  2-C ) :   1.6422
B(  1-C , 32-H ) :   0.9602 B(  2-C ,  3-C ) :   1.2103 B(  2-C ,  6-C ) :   1.0123
B(  3-C ,  4-C ) :   1.6074 B(  3-C ,  5-H ) :   0.9941 B(  4-C , 20-C ) :   1.0166
B(  6-C ,  7-H ) :   0.9501 B(  6-C ,  8-H ) :   0.9380 B(  6-C ,  9-C ) :   1.0714
B(  9-C , 10-H ) :   0.9597 B(  9-C , 11-H ) :   0.9527 B(  9-C , 12-C ) :   1.0768
B( 12-C , 13-H ) :   0.9733 B( 12-C , 14-H ) :   0.9787 B( 12-C , 15-H ) :   0.9760
B( 16-S , 17-C ) :   1.1620 B( 16-S , 20-C ) :   1.1470 B( 17-C , 18-C ) :   1.6014
B( 17-C , 33-H ) :   0.9637 B( 18-C , 19-C ) :   1.2418 B( 18-C , 21-H ) :   0.9839
B( 19-C , 20-C ) :   1.5602 B( 19-C , 22-C ) :   1.0386 B( 22-C , 23-H ) :   0.9360
B( 22-C , 24-H ) :   0.9348 B( 22-C , 25-C ) :   1.0776 B( 25-C , 26-H ) :   0.9605
B( 25-C , 27-H ) :   0.9540 B( 25-C , 28-C ) :   1.0691 B( 28-C , 29-H ) :   0.9704
B( 28-C , 30-H ) :   0.9728 B( 28-C , 31-H ) :   0.9688

Dispersion correction           -0.014800037
FINAL SINGLE POINT ENERGY     -1339.860201645578

DIPOLE MOMENT
-------------
                                X             Y             Z
Electronic contribution:     24.50807      10.82380       5.31844
Nuclear contribution   :    -25.07730     -11.48271      -5.39364
                        -----------------------------------------
Total Dipole Moment    :     -0.56923      -0.65891      -0.07519
                        -----------------------------------------
Magnitude (a.u.)       :      0.87398
Magnitude (Debye)      :      2.22147

Rotational constants in cm-1:     0.018315     0.008987     0.007336
Rotational constants in MHz :   549.072637   269.412467   219.938777

                             ****ORCA TERMINATED NORMALLY****
TOTAL RUN TIME: 0 days 0 hours 0 minutes 35 seconds 369 msec
