                         Program Version 4.2.1 -  RELEASE  -
|  1> ! wB97X-D3 SP def2-SVP
|  2> %pal
|  3> nprocs 16
|  4> end
|  5>
|  6> * xyz 0 1
|  7> S 	 -31.0951 	 68.5291 	 100.579
|  8> C 	 -31.1669 	 70.2961 	 100.779
|  9> C 	 -30.0366 	 70.8077 	 101.398
| 10> C 	 -29.0571 	 69.8456 	 101.595
| 11> C 	 -29.5085 	 68.5893 	 101.273
| 12> H 	 -28.0222 	 69.9937 	 101.867
| 13> C 	 -29.7768 	 72.2745 	 101.775
| 14> H 	 -30.7462 	 72.6705 	 102.051
| 15> H 	 -29.507 	 72.8529 	 100.911
| 16> C 	 -28.642 	 72.6464 	 102.774
| 17> H 	 -27.6693 	 72.5307 	 102.359
| 18> H 	 -28.6393 	 73.7024 	 102.895
| 19> C 	 -28.7193 	 72.097 	 104.205
| 20> H 	 -28.1068 	 72.714 	 104.798
| 21> H 	 -29.6739 	 72.0993 	 104.787
| 22> H 	 -28.1805 	 71.1056 	 104.235
| 23> S 	 -28.4575 	 66.4974 	 99.8467
| 24> C 	 -27.3913 	 65.2593 	 100.554
| 25> C 	 -27.4913 	 65.3528 	 101.886
| 26> C 	 -28.1659 	 66.5574 	 102.367
| 27> C 	 -28.7091 	 67.3159 	 101.349
| 28> H 	 -26.904 	 64.7828 	 102.47
| 29> C 	 -28.1919 	 67.0044 	 103.798
| 30> H 	 -28.3566 	 68.0753 	 103.859
| 31> H 	 -27.1622 	 67.0037 	 104.09
| 32> C 	 -29.0809 	 66.2482 	 104.748
| 33> H 	 -29.0289 	 66.6823 	 105.755
| 34> H 	 -28.6228 	 65.2345 	 104.843
| 35> C 	 -30.5758 	 66.3094 	 104.293
| 36> H 	 -30.651 	 65.927 	 103.233
| 37> H 	 -31.1362 	 67.2339 	 104.293
| 38> H 	 -31.1892 	 65.6394 	 104.873
| 39> H 	 -32.0071 	 70.8637 	 100.494
| 40> H 	 -26.8061 	 64.6352 	 99.923
| 41> *
| 42>
| 43>                          ****END OF INPUT****

CARTESIAN COORDINATES (ANGSTROEM)
---------------------------------
  S    -31.095100   68.529100  100.579000
  C    -31.166900   70.296100  100.779000
  C    -30.036600   70.807700  101.398000
  C    -29.057100   69.845600  101.595000
  C    -29.508500   68.589300  101.273000
  H    -28.022200   69.993700  101.867000
  C    -29.776800   72.274500  101.775000
  H    -30.746200   72.670500  102.051000
  H    -29.507000   72.852900  100.911000
  C    -28.642000   72.646400  102.774000
  H    -27.669300   72.530700  102.359000
  H    -28.639300   73.702400  102.895000
  C    -28.719300   72.097000  104.205000
  H    -28.106800   72.714000  104.798000
  H    -29.673900   72.099300  104.787000
  H    -28.180500   71.105600  104.235000
  S    -28.457500   66.497400   99.846700
  C    -27.391300   65.259300  100.554000
  C    -27.491300   65.352800  101.886000
  C    -28.165900   66.557400  102.367000
  C    -28.709100   67.315900  101.349000
  H    -26.904000   64.782800  102.470000
  C    -28.191900   67.004400  103.798000
  H    -28.356600   68.075300  103.859000
  H    -27.162200   67.003700  104.090000
  C    -29.080900   66.248200  104.748000
  H    -29.028900   66.682300  105.755000
  H    -28.622800   65.234500  104.843000
  C    -30.575800   66.309400  104.293000
  H    -30.651000   65.927000  103.233000
  H    -31.136200   67.233900  104.293000
  H    -31.189200   65.639400  104.873000
  H    -32.007100   70.863700  100.494000
  H    -26.806100   64.635200   99.923000

 Total Charge           Charge          ....    0
 Multiplicity           Mult            ....    1
 Number of Electrons    NEL             ....  134
 Basis Dimension        Dim             ....  322

ORBITAL ENERGIES
----------------

  NO   OCC          E(Eh)            E(eV)
   0   2.0000     -88.970372     -2421.0069
   1   2.0000     -88.952639     -2420.5244
   2   2.0000     -10.328984      -281.0660
   3   2.0000     -10.322825      -280.8984
   4   2.0000     -10.315277      -280.6929
   5   2.0000     -10.310709      -280.5687
   6   2.0000     -10.300783      -280.2986
   7   2.0000     -10.299750      -280.2705
   8   2.0000     -10.293077      -280.0889
   9   2.0000     -10.288626      -279.9677
  10   2.0000     -10.288414      -279.9620
  11   2.0000     -10.287917      -279.9485
  12   2.0000     -10.286247      -279.9030
  13   2.0000     -10.280247      -279.7397
  14   2.0000     -10.279541      -279.7205
  15   2.0000     -10.271896      -279.5125
  16   2.0000      -8.084688      -219.9955
  17   2.0000      -8.068177      -219.5463
  18   2.0000      -6.043043      -164.4396
  19   2.0000      -6.039414      -164.3408
  20   2.0000      -6.035471      -164.2335
  21   2.0000      -6.026761      -163.9965
  22   2.0000      -6.022490      -163.8803
  23   2.0000      -6.018880      -163.7820
  24   2.0000      -1.006713       -27.3941
  25   2.0000      -0.985289       -26.8111
  26   2.0000      -0.909098       -24.7378
  27   2.0000      -0.906317       -24.6621
  28   2.0000      -0.869373       -23.6568
  29   2.0000      -0.851237       -23.1633
  30   2.0000      -0.835512       -22.7354
  31   2.0000      -0.820124       -22.3167
  32   2.0000      -0.786353       -21.3978
  33   2.0000      -0.772887       -21.0313
  34   2.0000      -0.709913       -19.3177
  35   2.0000      -0.699252       -19.0276
  36   2.0000      -0.693764       -18.8783
  37   2.0000      -0.661756       -18.0073
  38   2.0000      -0.642632       -17.4869
  39   2.0000      -0.625227       -17.0133
  40   2.0000      -0.599418       -16.3110
  41   2.0000      -0.567357       -15.4386
  42   2.0000      -0.552250       -15.0275
  43   2.0000      -0.550034       -14.9672
  44   2.0000      -0.541035       -14.7223
  45   2.0000      -0.535822       -14.5805
  46   2.0000      -0.519736       -14.1427
  47   2.0000      -0.511948       -13.9308
  48   2.0000      -0.500855       -13.6290
  49   2.0000      -0.492845       -13.4110
  50   2.0000      -0.488192       -13.2844
  51   2.0000      -0.477944       -13.0055
  52   2.0000      -0.472977       -12.8704
  53   2.0000      -0.464342       -12.6354
  54   2.0000      -0.459051       -12.4914
  55   2.0000      -0.449962       -12.2441
  56   2.0000      -0.441397       -12.0110
  57   2.0000      -0.437015       -11.8918
  58   2.0000      -0.428852       -11.6697
  59   2.0000      -0.424566       -11.5530
  60   2.0000      -0.416320       -11.3287
  61   2.0000      -0.412443       -11.2231
  62   2.0000      -0.403690       -10.9850
  63   2.0000      -0.344700        -9.3798
  64   2.0000      -0.334990        -9.1155
  65   2.0000      -0.319941        -8.7060
  66   2.0000      -0.296753        -8.0751
  67   0.0000       0.040787         1.1099
  68   0.0000       0.064233         1.7479
  69   0.0000       0.108263         2.9460
  70   0.0000       0.124707         3.3935
  71   0.0000       0.133697         3.6381

MULLIKEN ATOMIC CHARGES
-----------------------
   0 S :    0.126966
   1 C :   -0.129925
   2 C :   -0.051555
   3 C :    0.026326
   4 C :   -0.142501
   5 H :    0.017955
   6 C :    0.096706
   7 H :    0.017482
   8 H :    0.034479
   9 C :   -0.070845
  10 H :    0.019667
  11 H :    0.015940
  12 C :   -0.049572
  13 H :    0.010452
  14 H :    0.047771
  15 H :    0.035736
  16 S :    0.065190
  17 C :   -0.088560
  18 C :    0.052766
  19 C :   -0.082091
  20 C :   -0.158429
  21 H :   -0.025331
  22 C :    0.080643
  23 H :    0.008010
  24 H :    0.011752
  25 C :   -0.048204
  26 H :    0.030692
  27 H :    0.032327
  28 C :   -0.067192
  29 H :    0.041854
  30 H :    0.038627
  31 H :    0.022863
  32 H :    0.025642
  33 H :    0.054358
Sum of atomic charges:    0.0000000

LOEWDIN ATOMIC CHARGES
----------------------
   0 S :    0.411514
   1 C :   -0.187115
   2 C :   -0.056882
   3 C :   -0.064783
   4 C :   -0.188926
   5 H :    0.035086
   6 C :   -0.027570
   7 H :    0.029191
   8 H :    0.035006
   9 C :   -0.042616
  10 H :    0.023520
  11 H :    0.026198
  12 C :   -0.074030
  13 H :    0.018806
  14 H :    0.034853
  15 H :    0.029207
  16 S :    0.380433
  17 C :   -0.154386
  18 C :   -0.058348
  19 C :   -0.058277
  20 C :   -0.202125
  21 H :    0.010836
  22 C :   -0.041541
  23 H :    0.028942
  24 H :    0.027527
  25 C :   -0.037993
  26 H :    0.026412
  27 H :    0.028120
  28 C :   -0.072811
  29 H :    0.031993
  30 H :    0.027550
  31 H :    0.021168
  32 H :    0.015413
  33 H :    0.025627

  Mayer bond orders larger than 0.100000
B(  0-S ,  1-C ) :   1.1295 B(  0-S ,  4-C ) :   1.1749 B(  1-C ,  2-C ) :   1.6125
B(  1-C ,  4-C ) :   0.1034 B(  1-C , 32-H ) :   0.9773 B(  2-C ,  3-C ) :   1.2513
B(  2-C ,  6-C ) :   1.0002 B(  3-C ,  4-C ) :   1.5850 B(  3-C ,  5-H ) :   0.9894
B(  4-C , 20-C ) :   0.9793 B(  6-C ,  7-H ) :   0.9397 B(  6-C ,  8-H ) :   0.9332
B(  6-C ,  9-C ) :   1.0880 B(  9-C , 10-H ) :   0.9443 B(  9-C , 11-H ) :   0.9513
B(  9-C , 12-C ) :   1.0797 B( 12-C , 13-H ) :   0.9703 B( 12-C , 14-H ) :   0.9757
B( 12-C , 15-H ) :   0.9741 B( 16-S , 17-C ) :   1.1382 B( 16-S , 20-C ) :   1.1410
B( 17-C , 18-C ) :   1.6197 B( 17-C , 33-H ) :   0.9795 B( 18-C , 19-C ) :   1.2060
B( 18-C , 21-H ) :   1.0036 B( 19-C , 20-C ) :   1.6307 B( 19-C , 22-C ) :   1.0409
B( 22-C , 23-H ) :   0.9318 B( 22-C , 24-H ) :   0.9261 B( 22-C , 25-C ) :   1.0790
B( 25-C , 26-H ) :   0.9532 B( 25-C , 27-H ) :   0.9572 B( 25-C , 28-C ) :   1.0636
B( 28-C , 29-H ) :   0.9741 B( 28-C , 30-H ) :   0.9764 B( 28-C , 31-H ) :   0.9751

Dispersion correction           -0.015461283
FINAL SINGLE POINT ENERGY     -1339.862813749606

DIPOLE MOMENT
-------------
                                X             Y             Z
Electronic contribution:     -3.05586     -11.88480     -22.38055
Nuclear contribution   :      3.44830      12.36893      22.85466
                        -----------------------------------------
Total Dipole Moment    :      0.39244       0.48413       0.47411
                        -----------------------------------------
Magnitude (a.u.)       :      0.78305
Magnitude (Debye)      :      1.99036

Rotational constants in cm-1:     0.018574     0.009452     0.008028
Rotational constants in MHz :   556.841213   283.361083   240.680653

                             ****ORCA TERMINATED NORMALLY****
TOTAL RUN TIME: 0 days 0 hours 0 minutes 31 seconds 664 msec
