                         Program Version 4.2.1 -  RELEASE  -
|  1> ! wB97X-D3 SP def2-SVP
|  2> %pal
|  3> nprocs 16
|  4> end
|  5>
|  6> * xyz 0 1
|  7> S 	 -43.4903 	 26.6565 	 87.0829
|  8> C 	 -44.7516 	 26.1063 	 85.9306
|  9> C 	 -44.2532 	 25.445 	 84.7905
| 10> C 	 -42.8302 	 25.3397 	 84.9481
| 11> C 	 -42.2574 	 25.9419 	 86.0695
| 12> H 	 -42.184 	 24.7596 	 84.3154
| 13> C 	 -44.9951 	 24.6603 	 83.7381
| 14> H 	 -44.6779 	 25.1946 	 82.8325
| 15> H 	 -46.0881 	 24.835 	 83.8059
| 16> C 	 -44.7595 	 23.0924 	 83.68
| 17> H 	 -45.0997 	 22.6874 	 82.7036
| 18> H 	 -43.7497 	 22.7588 	 83.5401
| 19> C 	 -45.3629 	 22.4139 	 84.9617
| 20> H 	 -46.2777 	 22.895 	 85.1584
| 21> H 	 -45.5886 	 21.3615 	 84.897
| 22> H 	 -44.6467 	 22.5558 	 85.8154
| 23> S 	 -40.4861 	 26.6705 	 88.1377
| 24> C 	 -38.8624 	 26.0016 	 88.1499
| 25> C 	 -38.5696 	 25.3709 	 86.9611
| 26> C 	 -39.6636 	 25.444 	 85.9816
| 27> C 	 -40.8496 	 25.9027 	 86.5651
| 28> H 	 -37.5768 	 24.9491 	 86.9001
| 29> C 	 -39.3819 	 24.8531 	 84.5364
| 30> H 	 -38.4557 	 25.3182 	 84.1561
| 31> H 	 -40.111 	 25.2104 	 83.8686
| 32> C 	 -39.0509 	 23.3365 	 84.5139
| 33> H 	 -38.4401 	 23.1545 	 85.3499
| 34> H 	 -38.5998 	 23.1036 	 83.5377
| 35> C 	 -40.2109 	 22.3649 	 84.7267
| 36> H 	 -40.9351 	 22.4843 	 83.887
| 37> H 	 -40.753 	 22.6627 	 85.6377
| 38> H 	 -39.9842 	 21.2899 	 84.8102
| 39> H 	 -45.8287 	 26.3244 	 86.1004
| 40> H 	 -38.2917 	 26.1101 	 89.0885
| 41> *
| 42>
| 43>                          ****END OF INPUT****

CARTESIAN COORDINATES (ANGSTROEM)
---------------------------------
  S    -43.490300   26.656500   87.082900
  C    -44.751600   26.106300   85.930600
  C    -44.253200   25.445000   84.790500
  C    -42.830200   25.339700   84.948100
  C    -42.257400   25.941900   86.069500
  H    -42.184000   24.759600   84.315400
  C    -44.995100   24.660300   83.738100
  H    -44.677900   25.194600   82.832500
  H    -46.088100   24.835000   83.805900
  C    -44.759500   23.092400   83.680000
  H    -45.099700   22.687400   82.703600
  H    -43.749700   22.758800   83.540100
  C    -45.362900   22.413900   84.961700
  H    -46.277700   22.895000   85.158400
  H    -45.588600   21.361500   84.897000
  H    -44.646700   22.555800   85.815400
  S    -40.486100   26.670500   88.137700
  C    -38.862400   26.001600   88.149900
  C    -38.569600   25.370900   86.961100
  C    -39.663600   25.444000   85.981600
  C    -40.849600   25.902700   86.565100
  H    -37.576800   24.949100   86.900100
  C    -39.381900   24.853100   84.536400
  H    -38.455700   25.318200   84.156100
  H    -40.111000   25.210400   83.868600
  C    -39.050900   23.336500   84.513900
  H    -38.440100   23.154500   85.349900
  H    -38.599800   23.103600   83.537700
  C    -40.210900   22.364900   84.726700
  H    -40.935100   22.484300   83.887000
  H    -40.753000   22.662700   85.637700
  H    -39.984200   21.289900   84.810200
  H    -45.828700   26.324400   86.100400
  H    -38.291700   26.110100   89.088500

 Total Charge           Charge          ....    0
 Multiplicity           Mult            ....    1
 Number of Electrons    NEL             ....  134
 Basis Dimension        Dim             ....  322

ORBITAL ENERGIES
----------------

  NO   OCC          E(Eh)            E(eV)
   0   2.0000     -88.968221     -2420.9484
   1   2.0000     -88.962675     -2420.7974
   2   2.0000     -10.339064      -281.3402
   3   2.0000     -10.335093      -281.2322
   4   2.0000     -10.323058      -280.9047
   5   2.0000     -10.322351      -280.8855
   6   2.0000     -10.316622      -280.7296
   7   2.0000     -10.308106      -280.4978
   8   2.0000     -10.304492      -280.3995
   9   2.0000     -10.300724      -280.2970
  10   2.0000     -10.300039      -280.2783
  11   2.0000     -10.296751      -280.1888
  12   2.0000     -10.294049      -280.1153
  13   2.0000     -10.288244      -279.9573
  14   2.0000     -10.279488      -279.7191
  15   2.0000     -10.277583      -279.6673
  16   2.0000      -8.082207      -219.9280
  17   2.0000      -8.077313      -219.7949
  18   2.0000      -6.040856      -164.3801
  19   2.0000      -6.036902      -164.2724
  20   2.0000      -6.035982      -164.2474
  21   2.0000      -6.032793      -164.1607
  22   2.0000      -6.031986      -164.1387
  23   2.0000      -6.027780      -164.0242
  24   2.0000      -0.998772       -27.1780
  25   2.0000      -0.976490       -26.5717
  26   2.0000      -0.907570       -24.6962
  27   2.0000      -0.905101       -24.6290
  28   2.0000      -0.862006       -23.4564
  29   2.0000      -0.847718       -23.0676
  30   2.0000      -0.838332       -22.8122
  31   2.0000      -0.810799       -22.0630
  32   2.0000      -0.784585       -21.3496
  33   2.0000      -0.775323       -21.0976
  34   2.0000      -0.714611       -19.4455
  35   2.0000      -0.699461       -19.0333
  36   2.0000      -0.690051       -18.7772
  37   2.0000      -0.657441       -17.8899
  38   2.0000      -0.634638       -17.2694
  39   2.0000      -0.622737       -16.9455
  40   2.0000      -0.601556       -16.3692
  41   2.0000      -0.560823       -15.2608
  42   2.0000      -0.556904       -15.1541
  43   2.0000      -0.548730       -14.9317
  44   2.0000      -0.540383       -14.7046
  45   2.0000      -0.529249       -14.4016
  46   2.0000      -0.522204       -14.2099
  47   2.0000      -0.507099       -13.7989
  48   2.0000      -0.496711       -13.5162
  49   2.0000      -0.490966       -13.3599
  50   2.0000      -0.488845       -13.3022
  51   2.0000      -0.471062       -12.8182
  52   2.0000      -0.468563       -12.7502
  53   2.0000      -0.465313       -12.6618
  54   2.0000      -0.456738       -12.4285
  55   2.0000      -0.448988       -12.2176
  56   2.0000      -0.445754       -12.1296
  57   2.0000      -0.439694       -11.9647
  58   2.0000      -0.437395       -11.9021
  59   2.0000      -0.428781       -11.6677
  60   2.0000      -0.420339       -11.4380
  61   2.0000      -0.415846       -11.3158
  62   2.0000      -0.410448       -11.1689
  63   2.0000      -0.359132        -9.7725
  64   2.0000      -0.335395        -9.1266
  65   2.0000      -0.325196        -8.8490
  66   2.0000      -0.281446        -7.6585
  67   0.0000       0.017076         0.4647
  68   0.0000       0.083060         2.2602
  69   0.0000       0.087749         2.3878
  70   0.0000       0.109192         2.9713
  71   0.0000       0.130655         3.5553

MULLIKEN ATOMIC CHARGES
-----------------------
   0 S :    0.093377
   1 C :   -0.142134
   2 C :   -0.059093
   3 C :   -0.009305
   4 C :   -0.099125
   5 H :   -0.024139
   6 C :    0.039948
   7 H :    0.041909
   8 H :    0.032162
   9 C :   -0.064210
  10 H :    0.024994
  11 H :    0.018626
  12 C :   -0.040298
  13 H :    0.016279
  14 H :    0.033959
  15 H :    0.057121
  16 S :    0.069488
  17 C :   -0.105540
  18 C :   -0.033545
  19 C :   -0.085760
  20 C :   -0.098316
  21 H :    0.030738
  22 C :    0.068662
  23 H :    0.033434
  24 H :    0.017928
  25 C :   -0.041138
  26 H :    0.021263
  27 H :    0.037399
  28 C :   -0.085006
  29 H :    0.028305
  30 H :    0.039848
  31 H :    0.044557
  32 H :    0.060652
  33 H :    0.076958
Sum of atomic charges:    0.0000000

LOEWDIN ATOMIC CHARGES
----------------------
   0 S :    0.385183
   1 C :   -0.187084
   2 C :   -0.063069
   3 C :   -0.064755
   4 C :   -0.185059
   5 H :    0.020131
   6 C :   -0.032370
   7 H :    0.038496
   8 H :    0.033758
   9 C :   -0.042175
  10 H :    0.028367
  11 H :    0.018851
  12 C :   -0.060681
  13 H :    0.016162
  14 H :    0.024965
  15 H :    0.038615
  16 S :    0.367849
  17 C :   -0.179049
  18 C :   -0.074351
  19 C :   -0.055923
  20 C :   -0.179004
  21 H :    0.033967
  22 C :   -0.023847
  23 H :    0.040326
  24 H :    0.017972
  25 C :   -0.034224
  26 H :    0.019572
  27 H :    0.027290
  28 C :   -0.074327
  29 H :    0.020011
  30 H :    0.028526
  31 H :    0.029061
  32 H :    0.031382
  33 H :    0.035435

  Mayer bond orders larger than 0.100000
B(  0-S ,  1-C ) :   1.1376 B(  0-S ,  4-C ) :   1.1356 B(  1-C ,  2-C ) :   1.6033
B(  1-C , 32-H ) :   0.9598 B(  2-C ,  3-C ) :   1.2334 B(  2-C ,  6-C ) :   1.0229
B(  3-C ,  4-C ) :   1.5929 B(  3-C ,  5-H ) :   0.9832 B(  4-C , 20-C ) :   1.0693
B(  6-C ,  7-H ) :   0.9317 B(  6-C ,  8-H ) :   0.9492 B(  6-C ,  9-C ) :   1.0623
B(  9-C , 10-H ) :   0.9545 B(  9-C , 11-H ) :   0.9574 B(  9-C , 12-C ) :   1.0527
B( 12-C , 13-H ) :   0.9806 B( 12-C , 14-H ) :   0.9767 B( 12-C , 15-H ) :   0.9761
B( 16-S , 17-C ) :   1.1376 B( 16-S , 20-C ) :   1.1252 B( 17-C , 18-C ) :   1.6433
B( 17-C , 33-H ) :   0.9658 B( 18-C , 19-C ) :   1.1852 B( 18-C , 21-H ) :   0.9897
B( 19-C , 20-C ) :   1.6203 B( 19-C , 22-C ) :   1.0319 B( 22-C , 23-H ) :   0.9334
B( 22-C , 24-H ) :   0.9405 B( 22-C , 25-C ) :   1.0636 B( 25-C , 26-H ) :   0.9535
B( 25-C , 27-H ) :   0.9562 B( 25-C , 28-C ) :   1.0825 B( 28-C , 29-H ) :   0.9712
B( 28-C , 30-H ) :   0.9732 B( 28-C , 31-H ) :   0.9731

Dispersion correction           -0.015414105
FINAL SINGLE POINT ENERGY     -1339.868001633514

DIPOLE MOMENT
-------------
                                X             Y             Z
Electronic contribution:      3.11584      23.11591      18.52292
Nuclear contribution   :     -2.94989     -23.70629     -19.01152
                        -----------------------------------------
Total Dipole Moment    :      0.16595      -0.59039      -0.48860
                        -----------------------------------------
Magnitude (a.u.)       :      0.78411
Magnitude (Debye)      :      1.99304

Rotational constants in cm-1:     0.018176     0.010090     0.007155
Rotational constants in MHz :   544.915517   302.477031   214.514607

                             ****ORCA TERMINATED NORMALLY****
TOTAL RUN TIME: 0 days 0 hours 0 minutes 31 seconds 711 msec
