                         Program Version 4.2.1 -  RELEASE  -
|  1> ! wB97X-D3 SP def2-SVP
|  2> %pal
|  3> nprocs 16
|  4> end
|  5>
|  6> * xyz 0 1
|  7> S 	 55.1946 	 -0.791241 	 85.3884
|  8> C 	 55.0166 	 -0.752382 	 83.6021
|  9> C 	 56.2567 	 -1.11613 	 82.9822
| 10> C 	 57.219 	 -1.70751 	 83.8923
| 11> C 	 56.7137 	 -1.70957 	 85.1883
| 12> H 	 58.1703 	 -2.18848 	 83.7144
| 13> C 	 56.5521 	 -1.05772 	 81.4551
| 14> H 	 55.7292 	 -1.4727 	 80.9477
| 15> H 	 57.3892 	 -1.74647 	 81.263
| 16> C 	 56.8571 	 0.371825 	 80.8932
| 17> H 	 55.9162 	 0.973878 	 80.8418
| 18> H 	 57.3923 	 0.93161 	 81.6394
| 19> C 	 57.57 	 0.209011 	 79.5059
| 20> H 	 58.0501 	 1.10666 	 79.1283
| 21> H 	 58.3345 	 -0.623028 	 79.3968
| 22> H 	 56.8034 	 -0.13192 	 78.7904
| 23> S 	 56.4588 	 -3.1768 	 87.5147
| 24> C 	 57.7726 	 -3.39229 	 88.6263
| 25> C 	 58.941 	 -2.77367 	 88.1623
| 26> C 	 58.782 	 -2.20123 	 86.8024
| 27> C 	 57.4299 	 -2.24781 	 86.3469
| 28> H 	 59.9296 	 -2.96114 	 88.6788
| 29> C 	 59.9354 	 -1.57736 	 86.0348
| 30> H 	 60.7268 	 -1.19013 	 86.6966
| 31> H 	 59.6859 	 -0.664849 	 85.6568
| 32> C 	 60.7282 	 -2.48435 	 85.0233
| 33> H 	 60.2223 	 -2.66198 	 84.0537
| 34> H 	 60.7884 	 -3.46458 	 85.4597
| 35> C 	 62.188 	 -2.00308 	 84.8536
| 36> H 	 62.7009 	 -2.75621 	 84.2925
| 37> H 	 62.7356 	 -1.83902 	 85.7857
| 38> H 	 62.3573 	 -1.09279 	 84.217
| 39> H 	 54.0631 	 -0.434917 	 83.1536
| 40> H 	 57.7663 	 -3.98385 	 89.4988
| 41> *
| 42>
| 43>                          ****END OF INPUT****

CARTESIAN COORDINATES (ANGSTROEM)
---------------------------------
  S     55.194600   -0.791241   85.388400
  C     55.016600   -0.752382   83.602100
  C     56.256700   -1.116130   82.982200
  C     57.219000   -1.707510   83.892300
  C     56.713700   -1.709570   85.188300
  H     58.170300   -2.188480   83.714400
  C     56.552100   -1.057720   81.455100
  H     55.729200   -1.472700   80.947700
  H     57.389200   -1.746470   81.263000
  C     56.857100    0.371825   80.893200
  H     55.916200    0.973878   80.841800
  H     57.392300    0.931610   81.639400
  C     57.570000    0.209011   79.505900
  H     58.050100    1.106660   79.128300
  H     58.334500   -0.623028   79.396800
  H     56.803400   -0.131920   78.790400
  S     56.458800   -3.176800   87.514700
  C     57.772600   -3.392290   88.626300
  C     58.941000   -2.773670   88.162300
  C     58.782000   -2.201230   86.802400
  C     57.429900   -2.247810   86.346900
  H     59.929600   -2.961140   88.678800
  C     59.935400   -1.577360   86.034800
  H     60.726800   -1.190130   86.696600
  H     59.685900   -0.664849   85.656800
  C     60.728200   -2.484350   85.023300
  H     60.222300   -2.661980   84.053700
  H     60.788400   -3.464580   85.459700
  C     62.188000   -2.003080   84.853600
  H     62.700900   -2.756210   84.292500
  H     62.735600   -1.839020   85.785700
  H     62.357300   -1.092790   84.217000
  H     54.063100   -0.434917   83.153600
  H     57.766300   -3.983850   89.498800

 Total Charge           Charge          ....    0
 Multiplicity           Mult            ....    1
 Number of Electrons    NEL             ....  134
 Basis Dimension        Dim             ....  322

ORBITAL ENERGIES
----------------

  NO   OCC          E(Eh)            E(eV)
   0   2.0000     -88.968719     -2420.9619
   1   2.0000     -88.965296     -2420.8688
   2   2.0000     -10.334169      -281.2070
   3   2.0000     -10.333195      -281.1805
   4   2.0000     -10.324708      -280.9496
   5   2.0000     -10.317984      -280.7666
   6   2.0000     -10.316028      -280.7134
   7   2.0000     -10.314905      -280.6828
   8   2.0000     -10.305155      -280.4175
   9   2.0000     -10.299041      -280.2512
  10   2.0000     -10.294450      -280.1262
  11   2.0000     -10.293732      -280.1067
  12   2.0000     -10.292359      -280.0693
  13   2.0000     -10.287719      -279.9431
  14   2.0000     -10.287141      -279.9273
  15   2.0000     -10.283146      -279.8186
  16   2.0000      -8.082049      -219.9237
  17   2.0000      -8.079673      -219.8591
  18   2.0000      -6.040611      -164.3734
  19   2.0000      -6.038229      -164.3086
  20   2.0000      -6.036971      -164.2743
  21   2.0000      -6.034003      -164.1936
  22   2.0000      -6.032611      -164.1557
  23   2.0000      -6.030623      -164.1016
  24   2.0000      -0.994682       -27.0667
  25   2.0000      -0.970390       -26.4057
  26   2.0000      -0.905182       -24.6312
  27   2.0000      -0.900797       -24.5119
  28   2.0000      -0.861731       -23.4489
  29   2.0000      -0.847787       -23.0695
  30   2.0000      -0.841551       -22.8998
  31   2.0000      -0.808930       -22.0121
  32   2.0000      -0.780011       -21.2252
  33   2.0000      -0.765250       -20.8235
  34   2.0000      -0.708926       -19.2909
  35   2.0000      -0.706853       -19.2344
  36   2.0000      -0.693957       -18.8835
  37   2.0000      -0.658896       -17.9295
  38   2.0000      -0.641593       -17.4586
  39   2.0000      -0.614900       -16.7323
  40   2.0000      -0.595099       -16.1935
  41   2.0000      -0.561085       -15.2679
  42   2.0000      -0.558168       -15.1885
  43   2.0000      -0.551664       -15.0116
  44   2.0000      -0.523509       -14.2454
  45   2.0000      -0.518554       -14.1106
  46   2.0000      -0.515912       -14.0387
  47   2.0000      -0.511329       -13.9140
  48   2.0000      -0.503696       -13.7063
  49   2.0000      -0.496073       -13.4988
  50   2.0000      -0.489942       -13.3320
  51   2.0000      -0.473038       -12.8720
  52   2.0000      -0.466686       -12.6992
  53   2.0000      -0.464484       -12.6392
  54   2.0000      -0.455481       -12.3943
  55   2.0000      -0.454173       -12.3587
  56   2.0000      -0.448312       -12.1992
  57   2.0000      -0.441584       -12.0161
  58   2.0000      -0.432840       -11.7782
  59   2.0000      -0.422436       -11.4951
  60   2.0000      -0.420261       -11.4359
  61   2.0000      -0.415271       -11.3001
  62   2.0000      -0.412158       -11.2154
  63   2.0000      -0.345377        -9.3982
  64   2.0000      -0.330677        -8.9982
  65   2.0000      -0.326215        -8.8768
  66   2.0000      -0.287398        -7.8205
  67   0.0000       0.020334         0.5533
  68   0.0000       0.066982         1.8227
  69   0.0000       0.101961         2.7745
  70   0.0000       0.116390         3.1671
  71   0.0000       0.127583         3.4717

MULLIKEN ATOMIC CHARGES
-----------------------
   0 S :    0.107531
   1 C :   -0.144702
   2 C :   -0.073596
   3 C :    0.035005
   4 C :   -0.120415
   5 H :   -0.005105
   6 C :    0.059243
   7 H :    0.023321
   8 H :    0.020467
   9 C :   -0.060241
  10 H :    0.036482
  11 H :    0.029649
  12 C :   -0.075011
  13 H :    0.042817
  14 H :    0.036854
  15 H :    0.032594
  16 S :    0.104877
  17 C :   -0.077208
  18 C :   -0.050107
  19 C :   -0.042299
  20 C :   -0.168915
  21 H :    0.046615
  22 C :    0.083473
  23 H :    0.003768
  24 H :    0.006629
  25 C :   -0.065157
  26 H :    0.043278
  27 H :    0.026549
  28 C :   -0.075941
  29 H :    0.026233
  30 H :    0.039063
  31 H :    0.038983
  32 H :    0.066321
  33 H :    0.048944
Sum of atomic charges:    0.0000000

LOEWDIN ATOMIC CHARGES
----------------------
   0 S :    0.374978
   1 C :   -0.195447
   2 C :   -0.049065
   3 C :   -0.061501
   4 C :   -0.178058
   5 H :    0.032851
   6 C :   -0.027786
   7 H :    0.023854
   8 H :    0.028570
   9 C :   -0.039157
  10 H :    0.030459
  11 H :    0.019850
  12 C :   -0.075290
  13 H :    0.024821
  14 H :    0.030699
  15 H :    0.029073
  16 S :    0.405170
  17 C :   -0.186532
  18 C :   -0.080160
  19 C :   -0.048630
  20 C :   -0.195333
  21 H :    0.041818
  22 C :   -0.037611
  23 H :    0.035973
  24 H :    0.019023
  25 C :   -0.034898
  26 H :    0.023295
  27 H :    0.025065
  28 C :   -0.071609
  29 H :    0.024030
  30 H :    0.026016
  31 H :    0.029817
  32 H :    0.031753
  33 H :    0.023961

  Mayer bond orders larger than 0.100000
B(  0-S ,  1-C ) :   1.1192 B(  0-S ,  4-C ) :   1.1463 B(  1-C ,  2-C ) :   1.5908
B(  1-C , 32-H ) :   0.9736 B(  2-C ,  3-C ) :   1.2142 B(  2-C ,  6-C ) :   1.0220
B(  3-C ,  4-C ) :   1.5774 B(  3-C ,  5-H ) :   0.9964 B(  4-C , 20-C ) :   1.0637
B(  6-C ,  7-H ) :   0.9431 B(  6-C ,  8-H ) :   0.9541 B(  6-C ,  9-C ) :   1.0405
B(  9-C , 10-H ) :   0.9560 B(  9-C , 11-H ) :   0.9660 B(  9-C , 12-C ) :   1.0572
B( 12-C , 13-H ) :   0.9778 B( 12-C , 14-H ) :   0.9792 B( 12-C , 15-H ) :   0.9748
B( 16-S , 17-C ) :   1.1634 B( 16-S , 20-C ) :   1.1351 B( 17-C , 18-C ) :   1.6022
B( 17-C , 33-H ) :   0.9715 B( 18-C , 19-C ) :   1.2502 B( 18-C , 21-H ) :   0.9744
B( 19-C , 20-C ) :   1.5612 B( 19-C , 22-C ) :   1.0538 B( 22-C , 23-H ) :   0.9346
B( 22-C , 24-H ) :   0.9279 B( 22-C , 25-C ) :   1.0441 B( 25-C , 26-H ) :   0.9478
B( 25-C , 27-H ) :   0.9548 B( 25-C , 28-C ) :   1.0862 B( 28-C , 29-H ) :   0.9730
B( 28-C , 30-H ) :   0.9736 B( 28-C , 31-H ) :   0.9765

Dispersion correction           -0.013700735
FINAL SINGLE POINT ENERGY     -1339.858995070976

DIPOLE MOMENT
-------------
                                X             Y             Z
Electronic contribution:    -21.77045      -5.74763      23.87207
Nuclear contribution   :     22.37020       5.71523     -24.30083
                        -----------------------------------------
Total Dipole Moment    :      0.59976      -0.03240      -0.42876
                        -----------------------------------------
Magnitude (a.u.)       :      0.73797
Magnitude (Debye)      :      1.87576

Rotational constants in cm-1:     0.017036     0.008711     0.006053
Rotational constants in MHz :   510.713215   261.147486   181.460971

                             ****ORCA TERMINATED NORMALLY****
TOTAL RUN TIME: 0 days 0 hours 0 minutes 27 seconds 128 msec
