                         Program Version 4.2.1 -  RELEASE  -
|  1> ! wB97X-D3 SP def2-SVP
|  2> %pal
|  3> nprocs 16
|  4> end
|  5>
|  6> * xyz 0 1
|  7> S 	 1.0432 	 -19.1626 	 86.8039
|  8> C 	 -0.349274 	 -19.1812 	 85.7057
|  9> C 	 0.0173308 	 -18.6097 	 84.4883
| 10> C 	 1.43317 	 -18.4772 	 84.4162
| 11> C 	 2.09223 	 -18.5775 	 85.6157
| 12> H 	 1.96411 	 -18.074 	 83.5532
| 13> C 	 -0.827766 	 -18.5228 	 83.2428
| 14> H 	 -0.558438 	 -17.7894 	 82.4903
| 15> H 	 -1.80718 	 -18.1306 	 83.5042
| 16> C 	 -0.969087 	 -19.9424 	 82.5635
| 17> H 	 -1.29666 	 -19.9038 	 81.5357
| 18> H 	 -0.0148904 	 -20.4817 	 82.5719
| 19> C 	 -1.93609 	 -20.8937 	 83.2986
| 20> H 	 -1.54296 	 -21.16 	 84.2959
| 21> H 	 -2.93511 	 -20.4953 	 83.4223
| 22> H 	 -1.8966 	 -21.8578 	 82.7719
| 23> S 	 4.52063 	 -19.5881 	 86.6591
| 24> C 	 5.90164 	 -18.5862 	 86.6071
| 25> C 	 5.71032 	 -17.5043 	 85.7631
| 26> C 	 4.38414 	 -17.3749 	 85.3495
| 27> C 	 3.52927 	 -18.3622 	 85.8386
| 28> H 	 6.52584 	 -16.8488 	 85.4921
| 29> C 	 3.99316 	 -16.2961 	 84.3329
| 30> H 	 4.05502 	 -15.4537 	 85.0168
| 31> H 	 3.02942 	 -16.4828 	 83.8808
| 32> C 	 5.04866 	 -16.1185 	 83.1982
| 33> H 	 6.08692 	 -16.0427 	 83.536
| 34> H 	 4.8238 	 -15.2083 	 82.6636
| 35> C 	 5.01507 	 -17.2407 	 82.1893
| 36> H 	 5.78412 	 -17.1462 	 81.4839
| 37> H 	 4.01295 	 -17.2051 	 81.8003
| 38> H 	 5.1244 	 -18.198 	 82.6897
| 39> H 	 -1.3631 	 -19.4687 	 85.9246
| 40> H 	 6.83983 	 -18.8792 	 87.0952
| 41> *
| 42>
| 43>                          ****END OF INPUT****

CARTESIAN COORDINATES (ANGSTROEM)
---------------------------------
  S      1.043200  -19.162600   86.803900
  C     -0.349274  -19.181200   85.705700
  C      0.017331  -18.609700   84.488300
  C      1.433170  -18.477200   84.416200
  C      2.092230  -18.577500   85.615700
  H      1.964110  -18.074000   83.553200
  C     -0.827766  -18.522800   83.242800
  H     -0.558438  -17.789400   82.490300
  H     -1.807180  -18.130600   83.504200
  C     -0.969087  -19.942400   82.563500
  H     -1.296660  -19.903800   81.535700
  H     -0.014890  -20.481700   82.571900
  C     -1.936090  -20.893700   83.298600
  H     -1.542960  -21.160000   84.295900
  H     -2.935110  -20.495300   83.422300
  H     -1.896600  -21.857800   82.771900
  S      4.520630  -19.588100   86.659100
  C      5.901640  -18.586200   86.607100
  C      5.710320  -17.504300   85.763100
  C      4.384140  -17.374900   85.349500
  C      3.529270  -18.362200   85.838600
  H      6.525840  -16.848800   85.492100
  C      3.993160  -16.296100   84.332900
  H      4.055020  -15.453700   85.016800
  H      3.029420  -16.482800   83.880800
  C      5.048660  -16.118500   83.198200
  H      6.086920  -16.042700   83.536000
  H      4.823800  -15.208300   82.663600
  C      5.015070  -17.240700   82.189300
  H      5.784120  -17.146200   81.483900
  H      4.012950  -17.205100   81.800300
  H      5.124400  -18.198000   82.689700
  H     -1.363100  -19.468700   85.924600
  H      6.839830  -18.879200   87.095200

 Total Charge           Charge          ....    0
 Multiplicity           Mult            ....    1
 Number of Electrons    NEL             ....  134
 Basis Dimension        Dim             ....  322

ORBITAL ENERGIES
----------------

  NO   OCC          E(Eh)            E(eV)
   0   2.0000     -88.967338     -2420.9244
   1   2.0000     -88.964791     -2420.8550
   2   2.0000     -10.326513      -280.9987
   3   2.0000     -10.324870      -280.9540
   4   2.0000     -10.318199      -280.7725
   5   2.0000     -10.316398      -280.7235
   6   2.0000     -10.302668      -280.3498
   7   2.0000     -10.301523      -280.3187
   8   2.0000     -10.295154      -280.1454
   9   2.0000     -10.292922      -280.0846
  10   2.0000     -10.290709      -280.0244
  11   2.0000     -10.288634      -279.9680
  12   2.0000     -10.288306      -279.9590
  13   2.0000     -10.285186      -279.8742
  14   2.0000     -10.276588      -279.6402
  15   2.0000     -10.268076      -279.4086
  16   2.0000      -8.082561      -219.9377
  17   2.0000      -8.079947      -219.8665
  18   2.0000      -6.041063      -164.3857
  19   2.0000      -6.038328      -164.3113
  20   2.0000      -6.036877      -164.2718
  21   2.0000      -6.034430      -164.2052
  22   2.0000      -6.033405      -164.1773
  23   2.0000      -6.030794      -164.1062
  24   2.0000      -1.011332       -27.5197
  25   2.0000      -0.990525       -26.9536
  26   2.0000      -0.913952       -24.8699
  27   2.0000      -0.909899       -24.7596
  28   2.0000      -0.865494       -23.5513
  29   2.0000      -0.855431       -23.2775
  30   2.0000      -0.845029       -22.9944
  31   2.0000      -0.810630       -22.0584
  32   2.0000      -0.786539       -21.4028
  33   2.0000      -0.777000       -21.1432
  34   2.0000      -0.705780       -19.2052
  35   2.0000      -0.697479       -18.9794
  36   2.0000      -0.694728       -18.9045
  37   2.0000      -0.656224       -17.8568
  38   2.0000      -0.642700       -17.4888
  39   2.0000      -0.622291       -16.9334
  40   2.0000      -0.602585       -16.3972
  41   2.0000      -0.576134       -15.6774
  42   2.0000      -0.561598       -15.2819
  43   2.0000      -0.543556       -14.7909
  44   2.0000      -0.542713       -14.7680
  45   2.0000      -0.539230       -14.6732
  46   2.0000      -0.529287       -14.4026
  47   2.0000      -0.511595       -13.9212
  48   2.0000      -0.502430       -13.6718
  49   2.0000      -0.500769       -13.6266
  50   2.0000      -0.490010       -13.3339
  51   2.0000      -0.475014       -12.9258
  52   2.0000      -0.473495       -12.8844
  53   2.0000      -0.468968       -12.7613
  54   2.0000      -0.460849       -12.5403
  55   2.0000      -0.446350       -12.1458
  56   2.0000      -0.441052       -12.0016
  57   2.0000      -0.438520       -11.9327
  58   2.0000      -0.433753       -11.8030
  59   2.0000      -0.426463       -11.6046
  60   2.0000      -0.421335       -11.4651
  61   2.0000      -0.418109       -11.3773
  62   2.0000      -0.412346       -11.2205
  63   2.0000      -0.344262        -9.3678
  64   2.0000      -0.331929        -9.0322
  65   2.0000      -0.329442        -8.9646
  66   2.0000      -0.290716        -7.9108
  67   0.0000       0.027221         0.7407
  68   0.0000       0.075240         2.0474
  69   0.0000       0.110288         3.0011
  70   0.0000       0.115810         3.1513
  71   0.0000       0.134385         3.6568

MULLIKEN ATOMIC CHARGES
-----------------------
   0 S :    0.123005
   1 C :   -0.121956
   2 C :   -0.087439
   3 C :    0.015130
   4 C :   -0.144284
   5 H :    0.006155
   6 C :    0.066715
   7 H :    0.022435
   8 H :    0.016479
   9 C :   -0.066827
  10 H :    0.029718
  11 H :    0.034718
  12 C :   -0.072385
  13 H :    0.031330
  14 H :    0.032598
  15 H :    0.035401
  16 S :    0.110917
  17 C :   -0.096724
  18 C :   -0.045755
  19 C :   -0.051063
  20 C :   -0.152240
  21 H :    0.018277
  22 C :    0.098526
  23 H :    0.041598
  24 H :    0.017068
  25 C :   -0.096040
  26 H :    0.023766
  27 H :    0.025863
  28 C :   -0.012116
  29 H :    0.028543
  30 H :    0.018339
  31 H :    0.034397
  32 H :    0.049139
  33 H :    0.066713
Sum of atomic charges:    0.0000000

LOEWDIN ATOMIC CHARGES
----------------------
   0 S :    0.430445
   1 C :   -0.193251
   2 C :   -0.058327
   3 C :   -0.070429
   4 C :   -0.212758
   5 H :    0.025915
   6 C :   -0.035138
   7 H :    0.030591
   8 H :    0.028231
   9 C :   -0.034197
  10 H :    0.020796
  11 H :    0.029098
  12 C :   -0.069859
  13 H :    0.024389
  14 H :    0.019053
  15 H :    0.030252
  16 S :    0.413301
  17 C :   -0.191409
  18 C :   -0.080020
  19 C :   -0.053284
  20 C :   -0.202816
  21 H :    0.031648
  22 C :   -0.021438
  23 H :    0.039891
  24 H :    0.024426
  25 C :   -0.037583
  26 H :    0.019203
  27 H :    0.022100
  28 C :   -0.055584
  29 H :    0.019810
  30 H :    0.020511
  31 H :    0.026939
  32 H :    0.026357
  33 H :    0.033137

  Mayer bond orders larger than 0.100000
B(  0-S ,  1-C ) :   1.1419 B(  0-S ,  4-C ) :   1.1701 B(  1-C ,  2-C ) :   1.5829
B(  1-C , 32-H ) :   0.9655 B(  2-C ,  3-C ) :   1.2584 B(  2-C ,  6-C ) :   1.0487
B(  3-C ,  4-C ) :   1.5609 B(  3-C ,  5-H ) :   0.9803 B(  4-C , 20-C ) :   1.0354
B(  6-C ,  7-H ) :   0.9443 B(  6-C ,  8-H ) :   0.9395 B(  6-C ,  9-C ) :   1.0469
B(  9-C , 10-H ) :   0.9592 B(  9-C , 11-H ) :   0.9583 B(  9-C , 12-C ) :   1.0857
B( 12-C , 13-H ) :   0.9689 B( 12-C , 14-H ) :   0.9775 B( 12-C , 15-H ) :   0.9706
B( 16-S , 17-C ) :   1.1888 B( 16-S , 20-C ) :   1.1429 B( 17-C , 18-C ) :   1.5533
B( 17-C , 20-C ) :   0.1054 B( 17-C , 33-H ) :   0.9661 B( 18-C , 19-C ) :   1.2804
B( 18-C , 21-H ) :   0.9955 B( 19-C , 20-C ) :   1.5689 B( 19-C , 22-C ) :   1.0140
B( 22-C , 23-H ) :   0.9246 B( 22-C , 24-H ) :   0.9426 B( 22-C , 25-C ) :   1.0782
B( 25-C , 26-H ) :   0.9534 B( 25-C , 27-H ) :   0.9550 B( 25-C , 28-C ) :   1.0749
B( 28-C , 29-H ) :   0.9728 B( 28-C , 30-H ) :   0.9729 B( 28-C , 31-H ) :   0.9759

Dispersion correction           -0.014928534
FINAL SINGLE POINT ENERGY     -1339.877766689554

DIPOLE MOMENT
-------------
                                X             Y             Z
Electronic contribution:      6.84601      -4.50263      23.83239
Nuclear contribution   :     -6.76144       4.78190     -24.46369
                        -----------------------------------------
Total Dipole Moment    :      0.08457       0.27927      -0.63130
                        -----------------------------------------
Magnitude (a.u.)       :      0.69547
Magnitude (Debye)      :      1.76776

Rotational constants in cm-1:     0.020832     0.008635     0.006823
Rotational constants in MHz :   624.512804   258.879227   204.542655

                             ****ORCA TERMINATED NORMALLY****
TOTAL RUN TIME: 0 days 0 hours 0 minutes 35 seconds 424 msec
