                         Program Version 4.2.1 -  RELEASE  -
|  1> ! wB97X-D3 SP def2-SVP
|  2> %pal
|  3> nprocs 16
|  4> end
|  5>
|  6> * xyz 0 1
|  7> S 	 -30.6249 	 69.4653 	 100.36
|  8> C 	 -30.4312 	 67.8253 	 99.887
|  9> C 	 -29.4259 	 67.1865 	 100.573
| 10> C 	 -28.6523 	 68.1513 	 101.323
| 11> C 	 -29.0668 	 69.4862 	 101.122
| 12> H 	 -27.7162 	 67.9974 	 101.969
| 13> C 	 -29.2517 	 65.6923 	 100.54
| 14> H 	 -30.0648 	 65.2136 	 100.04
| 15> H 	 -29.3702 	 65.3035 	 101.573
| 16> C 	 -28.0129 	 65.0636 	 99.9438
| 17> H 	 -27.1195 	 65.3969 	 100.483
| 18> H 	 -28.1125 	 64.0019 	 100.1
| 19> C 	 -27.8719 	 65.4689 	 98.4789
| 20> H 	 -28.8092 	 65.1811 	 97.9755
| 21> H 	 -27.6435 	 66.5232 	 98.2438
| 22> H 	 -27.0601 	 64.8559 	 98.0581
| 23> S 	 -29.7942 	 71.6554 	 102.792
| 24> C 	 -28.6053 	 72.6898 	 103.397
| 25> C 	 -27.3762 	 72.3992 	 102.847
| 26> C 	 -27.3452 	 71.3139 	 101.956
| 27> C 	 -28.5867 	 70.7586 	 101.8
| 28> H 	 -26.5459 	 73.0486 	 103.043
| 29> C 	 -26.1408 	 70.7266 	 101.259
| 30> H 	 -26.2777 	 70.4654 	 100.169
| 31> H 	 -25.9798 	 69.8295 	 101.802
| 32> C 	 -24.8707 	 71.5755 	 101.384
| 33> H 	 -24.1582 	 70.899 	 100.889
| 34> H 	 -24.6357 	 71.6644 	 102.447
| 35> C 	 -24.8127 	 72.9157 	 100.534
| 36> H 	 -25.4136 	 73.6128 	 101.106
| 37> H 	 -25.2021 	 72.8483 	 99.5503
| 38> H 	 -23.7024 	 73.1633 	 100.541
| 39> H 	 -31.0047 	 67.36 	 99.1191
| 40> H 	 -28.8327 	 73.3705 	 104.25
| 41> *
| 42>
| 43>                          ****END OF INPUT****

CARTESIAN COORDINATES (ANGSTROEM)
---------------------------------
  S    -30.624900   69.465300  100.360000
  C    -30.431200   67.825300   99.887000
  C    -29.425900   67.186500  100.573000
  C    -28.652300   68.151300  101.323000
  C    -29.066800   69.486200  101.122000
  H    -27.716200   67.997400  101.969000
  C    -29.251700   65.692300  100.540000
  H    -30.064800   65.213600  100.040000
  H    -29.370200   65.303500  101.573000
  C    -28.012900   65.063600   99.943800
  H    -27.119500   65.396900  100.483000
  H    -28.112500   64.001900  100.100000
  C    -27.871900   65.468900   98.478900
  H    -28.809200   65.181100   97.975500
  H    -27.643500   66.523200   98.243800
  H    -27.060100   64.855900   98.058100
  S    -29.794200   71.655400  102.792000
  C    -28.605300   72.689800  103.397000
  C    -27.376200   72.399200  102.847000
  C    -27.345200   71.313900  101.956000
  C    -28.586700   70.758600  101.800000
  H    -26.545900   73.048600  103.043000
  C    -26.140800   70.726600  101.259000
  H    -26.277700   70.465400  100.169000
  H    -25.979800   69.829500  101.802000
  C    -24.870700   71.575500  101.384000
  H    -24.158200   70.899000  100.889000
  H    -24.635700   71.664400  102.447000
  C    -24.812700   72.915700  100.534000
  H    -25.413600   73.612800  101.106000
  H    -25.202100   72.848300   99.550300
  H    -23.702400   73.163300  100.541000
  H    -31.004700   67.360000   99.119100
  H    -28.832700   73.370500  104.250000

 Total Charge           Charge          ....    0
 Multiplicity           Mult            ....    1
 Number of Electrons    NEL             ....  134
 Basis Dimension        Dim             ....  322

ORBITAL ENERGIES
----------------

  NO   OCC          E(Eh)            E(eV)
   0   2.0000     -88.962923     -2420.8042
   1   2.0000     -88.962208     -2420.7847
   2   2.0000     -10.334545      -281.2173
   3   2.0000     -10.327715      -281.0314
   4   2.0000     -10.316534      -280.7272
   5   2.0000     -10.308095      -280.4975
   6   2.0000     -10.305934      -280.4387
   7   2.0000     -10.303666      -280.3770
   8   2.0000     -10.298570      -280.2383
   9   2.0000     -10.291249      -280.0391
  10   2.0000     -10.289860      -280.0013
  11   2.0000     -10.289073      -279.9799
  12   2.0000     -10.288549      -279.9657
  13   2.0000     -10.284026      -279.8426
  14   2.0000     -10.283227      -279.8208
  15   2.0000     -10.278597      -279.6948
  16   2.0000      -8.078761      -219.8343
  17   2.0000      -8.077669      -219.8045
  18   2.0000      -6.037170      -164.2797
  19   2.0000      -6.035947      -164.2465
  20   2.0000      -6.033256      -164.1732
  21   2.0000      -6.032033      -164.1400
  22   2.0000      -6.029425      -164.0690
  23   2.0000      -6.028656      -164.0481
  24   2.0000      -1.007534       -27.4164
  25   2.0000      -0.990111       -26.9423
  26   2.0000      -0.916662       -24.9436
  27   2.0000      -0.910539       -24.7770
  28   2.0000      -0.864926       -23.5358
  29   2.0000      -0.849543       -23.1172
  30   2.0000      -0.839585       -22.8463
  31   2.0000      -0.811719       -22.0880
  32   2.0000      -0.787863       -21.4389
  33   2.0000      -0.776478       -21.1290
  34   2.0000      -0.705094       -19.1866
  35   2.0000      -0.695262       -18.9191
  36   2.0000      -0.688018       -18.7219
  37   2.0000      -0.651228       -17.7208
  38   2.0000      -0.640402       -17.4262
  39   2.0000      -0.616354       -16.7719
  40   2.0000      -0.604161       -16.4401
  41   2.0000      -0.570887       -15.5346
  42   2.0000      -0.555959       -15.1284
  43   2.0000      -0.551181       -14.9984
  44   2.0000      -0.541960       -14.7475
  45   2.0000      -0.533938       -14.5292
  46   2.0000      -0.521659       -14.1951
  47   2.0000      -0.513554       -13.9745
  48   2.0000      -0.497396       -13.5348
  49   2.0000      -0.495055       -13.4711
  50   2.0000      -0.489484       -13.3195
  51   2.0000      -0.483350       -13.1526
  52   2.0000      -0.474573       -12.9138
  53   2.0000      -0.471595       -12.8328
  54   2.0000      -0.458306       -12.4711
  55   2.0000      -0.446592       -12.1524
  56   2.0000      -0.444260       -12.0889
  57   2.0000      -0.436281       -11.8718
  58   2.0000      -0.430999       -11.7281
  59   2.0000      -0.424705       -11.5568
  60   2.0000      -0.419047       -11.4029
  61   2.0000      -0.416251       -11.3268
  62   2.0000      -0.404222       -10.9995
  63   2.0000      -0.346898        -9.4396
  64   2.0000      -0.333128        -9.0649
  65   2.0000      -0.327051        -8.8995
  66   2.0000      -0.288118        -7.8401
  67   0.0000       0.032098         0.8734
  68   0.0000       0.062640         1.7045
  69   0.0000       0.108194         2.9441
  70   0.0000       0.125017         3.4019
  71   0.0000       0.133195         3.6244

MULLIKEN ATOMIC CHARGES
-----------------------
   0 S :    0.104891
   1 C :   -0.108799
   2 C :   -0.070001
   3 C :    0.002572
   4 C :   -0.164002
   5 H :    0.044763
   6 C :    0.048450
   7 H :    0.003458
   8 H :    0.036690
   9 C :   -0.050387
  10 H :    0.024863
  11 H :    0.029935
  12 C :   -0.067135
  13 H :    0.020675
  14 H :    0.054475
  15 H :    0.033328
  16 S :    0.100183
  17 C :   -0.100793
  18 C :   -0.056147
  19 C :   -0.036337
  20 C :   -0.158862
  21 H :    0.012902
  22 C :    0.073490
  23 H :    0.050770
  24 H :    0.026407
  25 C :   -0.122621
  26 H :    0.028147
  27 H :    0.036713
  28 C :   -0.033046
  29 H :    0.028774
  30 H :    0.035354
  31 H :    0.052009
  32 H :    0.040786
  33 H :    0.078496
Sum of atomic charges:    0.0000000

LOEWDIN ATOMIC CHARGES
----------------------
   0 S :    0.418617
   1 C :   -0.197448
   2 C :   -0.063672
   3 C :   -0.072014
   4 C :   -0.197916
   5 H :    0.042602
   6 C :   -0.036799
   7 H :    0.024405
   8 H :    0.038701
   9 C :   -0.040644
  10 H :    0.021190
  11 H :    0.025988
  12 C :   -0.069107
  13 H :    0.022504
  14 H :    0.031922
  15 H :    0.027250
  16 S :    0.407871
  17 C :   -0.205281
  18 C :   -0.084059
  19 C :   -0.062965
  20 C :   -0.185382
  21 H :    0.026351
  22 C :   -0.032236
  23 H :    0.041302
  24 H :    0.030044
  25 C :   -0.046380
  26 H :    0.026333
  27 H :    0.023448
  28 C :   -0.060531
  29 H :    0.021059
  30 H :    0.022106
  31 H :    0.038358
  32 H :    0.023039
  33 H :    0.041342

  Mayer bond orders larger than 0.100000
B(  0-S ,  1-C ) :   1.1523 B(  0-S ,  4-C ) :   1.1649 B(  1-C ,  2-C ) :   1.5959
B(  1-C , 32-H ) :   0.9725 B(  2-C ,  3-C ) :   1.2321 B(  2-C ,  6-C ) :   1.0309
B(  3-C ,  4-C ) :   1.5639 B(  3-C ,  5-H ) :   0.9801 B(  4-C , 20-C ) :   1.0061
B(  6-C ,  7-H ) :   0.9399 B(  6-C ,  8-H ) :   0.9321 B(  6-C ,  9-C ) :   1.0826
B(  9-C , 10-H ) :   0.9526 B(  9-C , 11-H ) :   0.9524 B(  9-C , 12-C ) :   1.0740
B( 12-C , 13-H ) :   0.9753 B( 12-C , 14-H ) :   0.9738 B( 12-C , 15-H ) :   0.9740
B( 16-S , 17-C ) :   1.1872 B( 16-S , 20-C ) :   1.1437 B( 17-C , 18-C ) :   1.5703
B( 17-C , 33-H ) :   0.9600 B( 18-C , 19-C ) :   1.2633 B( 18-C , 21-H ) :   0.9897
B( 19-C , 20-C ) :   1.6220 B( 19-C , 22-C ) :   1.0180 B( 22-C , 23-H ) :   0.9361
B( 22-C , 24-H ) :   0.9213 B( 22-C , 25-C ) :   1.1014 B( 25-C , 26-H ) :   0.9565
B( 25-C , 27-H ) :   0.9481 B( 25-C , 28-C ) :   1.0630 B( 28-C , 29-H ) :   0.9787
B( 28-C , 30-H ) :   0.9738 B( 28-C , 31-H ) :   0.9772

Dispersion correction           -0.014066350
FINAL SINGLE POINT ENERGY     -1339.870260624360

DIPOLE MOMENT
-------------
                                X             Y             Z
Electronic contribution:    -22.08513      11.73580       9.18711
Nuclear contribution   :     22.63098     -12.15551      -9.13943
                        -----------------------------------------
Total Dipole Moment    :      0.54585      -0.41971       0.04768
                        -----------------------------------------
Magnitude (a.u.)       :      0.69021
Magnitude (Debye)      :      1.75437

Rotational constants in cm-1:     0.019629     0.008192     0.006360
Rotational constants in MHz :   588.465740   245.589242   190.668742

                             ****ORCA TERMINATED NORMALLY****
TOTAL RUN TIME: 0 days 0 hours 0 minutes 30 seconds 42 msec
