                         Program Version 4.2.1 -  RELEASE  -
|  1> ! wB97X-D3 SP def2-SVP
|  2> %pal
|  3> nprocs 16
|  4> end
|  5>
|  6> * xyz 0 1
|  7> S 	 -3.05919 	 -12.812 	 85.3834
|  8> C 	 -2.97688 	 -14.0387 	 86.6771
|  9> C 	 -2.1494 	 -13.6746 	 87.7312
| 10> C 	 -1.59801 	 -12.3603 	 87.48
| 11> C 	 -1.94656 	 -11.772 	 86.2951
| 12> H 	 -1.06759 	 -11.8272 	 88.2332
| 13> C 	 -1.74311 	 -14.5761 	 88.9479
| 14> H 	 -1.90948 	 -14.1128 	 89.9308
| 15> H 	 -0.606933 	 -14.6598 	 89.0328
| 16> C 	 -2.40295 	 -15.9915 	 89.0203
| 17> H 	 -3.43735 	 -15.8504 	 89.2704
| 18> H 	 -2.33676 	 -16.5119 	 88.0326
| 19> C 	 -1.6875 	 -16.8617 	 90.0514
| 20> H 	 -1.96407 	 -16.5313 	 91.0719
| 21> H 	 -2.17657 	 -17.7908 	 89.9917
| 22> H 	 -0.606939 	 -16.9996 	 90.0224
| 23> S 	 0.0450471 	 -9.88441 	 86.3296
| 24> C 	 -0.0753939 	 -8.37216 	 85.4996
| 25> C 	 -1.32252 	 -8.34251 	 84.8121
| 26> C 	 -2.16717 	 -9.49876 	 85.0171
| 27> C 	 -1.50978 	 -10.4591 	 85.785
| 28> H 	 -1.48622 	 -7.4218 	 84.1993
| 29> C 	 -3.48136 	 -9.62957 	 84.4455
| 30> H 	 -3.53273 	 -10.6252 	 84.163
| 31> H 	 -3.58761 	 -9.04616 	 83.5908
| 32> C 	 -4.63985 	 -9.46759 	 85.4675
| 33> H 	 -4.75526 	 -8.42494 	 85.7406
| 34> H 	 -4.40862 	 -10.0103 	 86.3873
| 35> C 	 -5.97851 	 -9.85127 	 84.8851
| 36> H 	 -6.75574 	 -9.49745 	 85.5019
| 37> H 	 -6.11378 	 -10.9436 	 84.9131
| 38> H 	 -6.11853 	 -9.47754 	 83.8267
| 39> H 	 -3.47041 	 -14.9669 	 86.5937
| 40> H 	 0.678684 	 -7.58174 	 85.5627
| 41> *
| 42>
| 43>                          ****END OF INPUT****

CARTESIAN COORDINATES (ANGSTROEM)
---------------------------------
  S     -3.059190  -12.812000   85.383400
  C     -2.976880  -14.038700   86.677100
  C     -2.149400  -13.674600   87.731200
  C     -1.598010  -12.360300   87.480000
  C     -1.946560  -11.772000   86.295100
  H     -1.067590  -11.827200   88.233200
  C     -1.743110  -14.576100   88.947900
  H     -1.909480  -14.112800   89.930800
  H     -0.606933  -14.659800   89.032800
  C     -2.402950  -15.991500   89.020300
  H     -3.437350  -15.850400   89.270400
  H     -2.336760  -16.511900   88.032600
  C     -1.687500  -16.861700   90.051400
  H     -1.964070  -16.531300   91.071900
  H     -2.176570  -17.790800   89.991700
  H     -0.606939  -16.999600   90.022400
  S      0.045047   -9.884410   86.329600
  C     -0.075394   -8.372160   85.499600
  C     -1.322520   -8.342510   84.812100
  C     -2.167170   -9.498760   85.017100
  C     -1.509780  -10.459100   85.785000
  H     -1.486220   -7.421800   84.199300
  C     -3.481360   -9.629570   84.445500
  H     -3.532730  -10.625200   84.163000
  H     -3.587610   -9.046160   83.590800
  C     -4.639850   -9.467590   85.467500
  H     -4.755260   -8.424940   85.740600
  H     -4.408620  -10.010300   86.387300
  C     -5.978510   -9.851270   84.885100
  H     -6.755740   -9.497450   85.501900
  H     -6.113780  -10.943600   84.913100
  H     -6.118530   -9.477540   83.826700
  H     -3.470410  -14.966900   86.593700
  H      0.678684   -7.581740   85.562700

 Total Charge           Charge          ....    0
 Multiplicity           Mult            ....    1
 Number of Electrons    NEL             ....  134
 Basis Dimension        Dim             ....  322

ORBITAL ENERGIES
----------------

  NO   OCC          E(Eh)            E(eV)
   0   2.0000     -88.968416     -2420.9537
   1   2.0000     -88.964891     -2420.8578
   2   2.0000     -10.334776      -281.2236
   3   2.0000     -10.327194      -281.0172
   4   2.0000     -10.320705      -280.8407
   5   2.0000     -10.315480      -280.6985
   6   2.0000     -10.310232      -280.5557
   7   2.0000     -10.305766      -280.4341
   8   2.0000     -10.302027      -280.3324
   9   2.0000     -10.301144      -280.3084
  10   2.0000     -10.293906      -280.1114
  11   2.0000     -10.292383      -280.0700
  12   2.0000     -10.279794      -279.7274
  13   2.0000     -10.278512      -279.6925
  14   2.0000     -10.274219      -279.5757
  15   2.0000     -10.272042      -279.5165
  16   2.0000      -8.081734      -219.9152
  17   2.0000      -8.079743      -219.8610
  18   2.0000      -6.040482      -164.3699
  19   2.0000      -6.038209      -164.3080
  20   2.0000      -6.036485      -164.2611
  21   2.0000      -6.034026      -164.1942
  22   2.0000      -6.032312      -164.1476
  23   2.0000      -6.030764      -164.1054
  24   2.0000      -1.004197       -27.3256
  25   2.0000      -0.978932       -26.6381
  26   2.0000      -0.917664       -24.9709
  27   2.0000      -0.906283       -24.6612
  28   2.0000      -0.865795       -23.5595
  29   2.0000      -0.855003       -23.2658
  30   2.0000      -0.846411       -23.0320
  31   2.0000      -0.808679       -22.0053
  32   2.0000      -0.783453       -21.3188
  33   2.0000      -0.772521       -21.0214
  34   2.0000      -0.709773       -19.3139
  35   2.0000      -0.700338       -19.0572
  36   2.0000      -0.689175       -18.7534
  37   2.0000      -0.666778       -18.1440
  38   2.0000      -0.637434       -17.3455
  39   2.0000      -0.617513       -16.8034
  40   2.0000      -0.594907       -16.1882
  41   2.0000      -0.570479       -15.5235
  42   2.0000      -0.568850       -15.4792
  43   2.0000      -0.562667       -15.3109
  44   2.0000      -0.524961       -14.2849
  45   2.0000      -0.523654       -14.2494
  46   2.0000      -0.518466       -14.1082
  47   2.0000      -0.514024       -13.9873
  48   2.0000      -0.509277       -13.8581
  49   2.0000      -0.498525       -13.5656
  50   2.0000      -0.490084       -13.3359
  51   2.0000      -0.480950       -13.0873
  52   2.0000      -0.471289       -12.8244
  53   2.0000      -0.465644       -12.6708
  54   2.0000      -0.459041       -12.4911
  55   2.0000      -0.448330       -12.1997
  56   2.0000      -0.442364       -12.0373
  57   2.0000      -0.435095       -11.8395
  58   2.0000      -0.432916       -11.7803
  59   2.0000      -0.426711       -11.6114
  60   2.0000      -0.420581       -11.4446
  61   2.0000      -0.419967       -11.4279
  62   2.0000      -0.410934       -11.1821
  63   2.0000      -0.354046        -9.6341
  64   2.0000      -0.331051        -9.0084
  65   2.0000      -0.326049        -8.8722
  66   2.0000      -0.285115        -7.7584
  67   0.0000       0.023734         0.6458
  68   0.0000       0.080798         2.1986
  69   0.0000       0.106236         2.8908
  70   0.0000       0.119577         3.2539
  71   0.0000       0.127599         3.4722

MULLIKEN ATOMIC CHARGES
-----------------------
   0 S :    0.080751
   1 C :   -0.120376
   2 C :   -0.035361
   3 C :   -0.005564
   4 C :   -0.108873
   5 H :    0.006883
   6 C :    0.011395
   7 H :    0.028828
   8 H :    0.042177
   9 C :   -0.103221
  10 H :    0.039955
  11 H :    0.043328
  12 C :   -0.028992
  13 H :    0.022747
  14 H :    0.018822
  15 H :    0.046467
  16 S :    0.105125
  17 C :   -0.116282
  18 C :   -0.061553
  19 C :   -0.055062
  20 C :   -0.126977
  21 H :    0.034949
  22 C :    0.144240
  23 H :   -0.003258
  24 H :    0.000868
  25 C :   -0.081004
  26 H :    0.021607
  27 H :    0.039540
  28 C :   -0.032252
  29 H :    0.021026
  30 H :    0.028291
  31 H :    0.036877
  32 H :    0.035646
  33 H :    0.069252
Sum of atomic charges:    0.0000000

LOEWDIN ATOMIC CHARGES
----------------------
   0 S :    0.383862
   1 C :   -0.180243
   2 C :   -0.054574
   3 C :   -0.068789
   4 C :   -0.174851
   5 H :    0.023741
   6 C :   -0.040102
   7 H :    0.031387
   8 H :    0.039016
   9 C :   -0.040745
  10 H :    0.025672
  11 H :    0.026764
  12 C :   -0.064319
  13 H :    0.027345
  14 H :    0.022733
  15 H :    0.028409
  16 S :    0.426277
  17 C :   -0.202362
  18 C :   -0.076509
  19 C :   -0.054037
  20 C :   -0.200103
  21 H :    0.037367
  22 C :   -0.029643
  23 H :    0.012537
  24 H :    0.024663
  25 C :   -0.032181
  26 H :    0.021287
  27 H :    0.027387
  28 C :   -0.066100
  29 H :    0.019519
  30 H :    0.024754
  31 H :    0.031257
  32 H :    0.016273
  33 H :    0.034306

  Mayer bond orders larger than 0.100000
B(  0-S ,  1-C ) :   1.1143 B(  0-S ,  4-C ) :   1.1197 B(  1-C ,  2-C ) :   1.6554
B(  1-C , 32-H ) :   0.9646 B(  2-C ,  3-C ) :   1.2228 B(  2-C ,  6-C ) :   1.0003
B(  3-C ,  4-C ) :   1.6069 B(  3-C ,  5-H ) :   0.9920 B(  4-C , 20-C ) :   1.0594
B(  6-C ,  7-H ) :   0.9399 B(  6-C ,  8-H ) :   0.9490 B(  6-C ,  9-C ) :   1.0657
B(  9-C , 10-H ) :   0.9522 B(  9-C , 11-H ) :   0.9557 B(  9-C , 12-C ) :   1.0883
B( 12-C , 13-H ) :   0.9713 B( 12-C , 14-H ) :   0.9690 B( 12-C , 15-H ) :   0.9772
B( 16-S , 17-C ) :   1.1738 B( 16-S , 20-C ) :   1.1536 B( 17-C , 18-C ) :   1.5671
B( 17-C , 33-H ) :   0.9698 B( 18-C , 19-C ) :   1.2570 B( 18-C , 21-H ) :   0.9869
B( 19-C , 20-C ) :   1.5296 B( 19-C , 22-C ) :   1.0687 B( 22-C , 23-H ) :   0.9173
B( 22-C , 24-H ) :   0.9133 B( 22-C , 25-C ) :   1.0531 B( 25-C , 26-H ) :   0.9548
B( 25-C , 27-H ) :   0.9560 B( 25-C , 28-C ) :   1.0887 B( 28-C , 29-H ) :   0.9725
B( 28-C , 30-H ) :   0.9721 B( 28-C , 31-H ) :   0.9703

Dispersion correction           -0.013988886
FINAL SINGLE POINT ENERGY     -1339.879714250999

DIPOLE MOMENT
-------------
                                X             Y             Z
Electronic contribution:     12.76658      10.74736      -9.45564
Nuclear contribution   :    -12.93689     -10.81791       9.80066
                        -----------------------------------------
Total Dipole Moment    :     -0.17031      -0.07055       0.34502
                        -----------------------------------------
Magnitude (a.u.)       :      0.39118
Magnitude (Debye)      :      0.99431

Rotational constants in cm-1:     0.021702     0.007610     0.006011
Rotational constants in MHz :   650.602801   228.128070   180.202923

                             ****ORCA TERMINATED NORMALLY****
TOTAL RUN TIME: 0 days 0 hours 0 minutes 31 seconds 265 msec
