                         Program Version 4.2.1 -  RELEASE  -
|  1> ! wB97X-D3 SP def2-SVP
|  2> %pal
|  3> nprocs 16
|  4> end
|  5>
|  6> * xyz 0 1
|  7> S 	 -8.33853 	 61.9405 	 54.1909
|  8> C 	 -8.27372 	 61.9737 	 55.9088
|  9> C 	 -8.43481 	 63.2866 	 56.4124
| 10> C 	 -8.72271 	 64.2871 	 55.3644
| 11> C 	 -8.64287 	 63.7221 	 54.1103
| 12> H 	 -8.79429 	 65.3667 	 55.4608
| 13> C 	 -8.31014 	 63.571 	 57.8632
| 14> H 	 -8.46825 	 62.6199 	 58.2934
| 15> H 	 -9.15872 	 64.0996 	 58.1433
| 16> C 	 -6.98486 	 64.1542 	 58.3307
| 17> H 	 -6.8528 	 65.0521 	 57.7257
| 18> H 	 -7.17321 	 64.5003 	 59.3164
| 19> C 	 -5.77838 	 63.1212 	 58.3404
| 20> H 	 -5.46806 	 62.7416 	 57.3253
| 21> H 	 -4.84771 	 63.487 	 58.7826
| 22> H 	 -6.11029 	 62.2172 	 58.8734
| 23> S 	 -10.3561 	 64.3722 	 52.1439
| 24> C 	 -9.84159 	 65.4556 	 50.8845
| 25> C 	 -8.62586 	 65.9359 	 51.1383
| 26> C 	 -7.98781 	 65.4034 	 52.233
| 27> C 	 -8.73767 	 64.3702 	 52.8205
| 28> H 	 -8.29956 	 66.7689 	 50.4011
| 29> C 	 -6.71139 	 66.0782 	 52.7621
| 30> H 	 -6.73017 	 66.2011 	 53.9025
| 31> H 	 -6.76855 	 67.0925 	 52.3385
| 32> C 	 -5.37886 	 65.4118 	 52.4647
| 33> H 	 -4.59042 	 65.9876 	 53.0417
| 34> H 	 -5.24945 	 65.4532 	 51.4233
| 35> C 	 -5.12816 	 64.0395 	 52.9301
| 36> H 	 -5.29502 	 64.0538 	 54.0138
| 37> H 	 -4.12168 	 63.8307 	 52.7748
| 38> H 	 -5.65953 	 63.1879 	 52.5235
| 39> H 	 -7.88308 	 61.1955 	 56.5812
| 40> H 	 -10.5025 	 65.7574 	 50.0702
| 41> *
| 42>
| 43>                          ****END OF INPUT****

CARTESIAN COORDINATES (ANGSTROEM)
---------------------------------
  S     -8.338530   61.940500   54.190900
  C     -8.273720   61.973700   55.908800
  C     -8.434810   63.286600   56.412400
  C     -8.722710   64.287100   55.364400
  C     -8.642870   63.722100   54.110300
  H     -8.794290   65.366700   55.460800
  C     -8.310140   63.571000   57.863200
  H     -8.468250   62.619900   58.293400
  H     -9.158720   64.099600   58.143300
  C     -6.984860   64.154200   58.330700
  H     -6.852800   65.052100   57.725700
  H     -7.173210   64.500300   59.316400
  C     -5.778380   63.121200   58.340400
  H     -5.468060   62.741600   57.325300
  H     -4.847710   63.487000   58.782600
  H     -6.110290   62.217200   58.873400
  S    -10.356100   64.372200   52.143900
  C     -9.841590   65.455600   50.884500
  C     -8.625860   65.935900   51.138300
  C     -7.987810   65.403400   52.233000
  C     -8.737670   64.370200   52.820500
  H     -8.299560   66.768900   50.401100
  C     -6.711390   66.078200   52.762100
  H     -6.730170   66.201100   53.902500
  H     -6.768550   67.092500   52.338500
  C     -5.378860   65.411800   52.464700
  H     -4.590420   65.987600   53.041700
  H     -5.249450   65.453200   51.423300
  C     -5.128160   64.039500   52.930100
  H     -5.295020   64.053800   54.013800
  H     -4.121680   63.830700   52.774800
  H     -5.659530   63.187900   52.523500
  H     -7.883080   61.195500   56.581200
  H    -10.502500   65.757400   50.070200

 Total Charge           Charge          ....    0
 Multiplicity           Mult            ....    1
 Number of Electrons    NEL             ....  134
 Basis Dimension        Dim             ....  322

ORBITAL ENERGIES
----------------

  NO   OCC          E(Eh)            E(eV)
   0   2.0000     -88.963533     -2420.8208
   1   2.0000     -88.962086     -2420.7814
   2   2.0000     -10.330225      -281.0997
   3   2.0000     -10.324041      -280.9314
   4   2.0000     -10.313791      -280.6525
   5   2.0000     -10.311467      -280.5893
   6   2.0000     -10.304232      -280.3924
   7   2.0000     -10.302468      -280.3444
   8   2.0000     -10.300477      -280.2902
   9   2.0000     -10.296953      -280.1943
  10   2.0000     -10.290419      -280.0165
  11   2.0000     -10.289524      -279.9922
  12   2.0000     -10.288927      -279.9759
  13   2.0000     -10.278565      -279.6940
  14   2.0000     -10.277388      -279.6619
  15   2.0000     -10.260342      -279.1981
  16   2.0000      -8.077706      -219.8055
  17   2.0000      -8.077407      -219.7974
  18   2.0000      -6.036227      -164.2541
  19   2.0000      -6.035705      -164.2399
  20   2.0000      -6.032298      -164.1472
  21   2.0000      -6.031971      -164.1383
  22   2.0000      -6.028478      -164.0432
  23   2.0000      -6.028190      -164.0354
  24   2.0000      -1.009110       -27.4593
  25   2.0000      -0.980911       -26.6919
  26   2.0000      -0.913547       -24.8589
  27   2.0000      -0.912218       -24.8227
  28   2.0000      -0.871420       -23.7125
  29   2.0000      -0.854642       -23.2560
  30   2.0000      -0.840737       -22.8776
  31   2.0000      -0.815319       -22.1860
  32   2.0000      -0.785694       -21.3798
  33   2.0000      -0.771512       -20.9939
  34   2.0000      -0.715587       -19.4721
  35   2.0000      -0.696483       -18.9523
  36   2.0000      -0.683937       -18.6109
  37   2.0000      -0.653862       -17.7925
  38   2.0000      -0.640705       -17.4345
  39   2.0000      -0.616250       -16.7690
  40   2.0000      -0.598749       -16.2928
  41   2.0000      -0.569034       -15.4842
  42   2.0000      -0.555896       -15.1267
  43   2.0000      -0.551230       -14.9997
  44   2.0000      -0.546659       -14.8753
  45   2.0000      -0.537436       -14.6244
  46   2.0000      -0.517154       -14.0725
  47   2.0000      -0.508079       -13.8255
  48   2.0000      -0.500139       -13.6095
  49   2.0000      -0.493452       -13.4275
  50   2.0000      -0.486812       -13.2468
  51   2.0000      -0.475111       -12.9284
  52   2.0000      -0.465867       -12.6769
  53   2.0000      -0.465099       -12.6560
  54   2.0000      -0.462630       -12.5888
  55   2.0000      -0.448802       -12.2125
  56   2.0000      -0.442320       -12.0361
  57   2.0000      -0.439461       -11.9584
  58   2.0000      -0.429697       -11.6926
  59   2.0000      -0.425867       -11.5884
  60   2.0000      -0.415396       -11.3035
  61   2.0000      -0.413602       -11.2547
  62   2.0000      -0.410926       -11.1819
  63   2.0000      -0.342827        -9.3288
  64   2.0000      -0.329696        -8.9715
  65   2.0000      -0.318314        -8.6618
  66   2.0000      -0.302361        -8.2277
  67   0.0000       0.037803         1.0287
  68   0.0000       0.053051         1.4436
  69   0.0000       0.108929         2.9641
  70   0.0000       0.117514         3.1977
  71   0.0000       0.125475         3.4144

MULLIKEN ATOMIC CHARGES
-----------------------
   0 S :    0.109422
   1 C :   -0.101963
   2 C :   -0.172375
   3 C :    0.070366
   4 C :   -0.184024
   5 H :    0.024253
   6 C :    0.104375
   7 H :   -0.008303
   8 H :    0.011062
   9 C :   -0.014721
  10 H :    0.022539
  11 H :    0.021840
  12 C :   -0.080986
  13 H :    0.045582
  14 H :    0.043119
  15 H :    0.028230
  16 S :    0.107668
  17 C :   -0.100238
  18 C :   -0.073003
  19 C :    0.004570
  20 C :   -0.170922
  21 H :    0.047988
  22 C :    0.051489
  23 H :    0.027941
  24 H :    0.024948
  25 C :   -0.053588
  26 H :    0.033297
  27 H :    0.012025
  28 C :   -0.011443
  29 H :    0.019544
  30 H :    0.013061
  31 H :    0.029799
  32 H :    0.060050
  33 H :    0.058398
Sum of atomic charges:    0.0000000

LOEWDIN ATOMIC CHARGES
----------------------
   0 S :    0.394937
   1 C :   -0.218894
   2 C :   -0.056666
   3 C :   -0.055679
   4 C :   -0.182266
   5 H :    0.035450
   6 C :   -0.033845
   7 H :    0.023811
   8 H :    0.025464
   9 C :   -0.029820
  10 H :    0.022817
  11 H :    0.021165
  12 C :   -0.071019
  13 H :    0.031200
  14 H :    0.027547
  15 H :    0.025034
  16 S :    0.416761
  17 C :   -0.184888
  18 C :   -0.092961
  19 C :   -0.054614
  20 C :   -0.208765
  21 H :    0.050074
  22 C :   -0.032505
  23 H :    0.033280
  24 H :    0.033544
  25 C :   -0.041172
  26 H :    0.035700
  27 H :    0.014242
  28 C :   -0.062226
  29 H :    0.026781
  30 H :    0.019980
  31 H :    0.020846
  32 H :    0.034875
  33 H :    0.031812

  Mayer bond orders larger than 0.100000
B(  0-S ,  1-C ) :   1.1366 B(  0-S ,  4-C ) :   1.1368 B(  1-C ,  2-C ) :   1.6325
B(  1-C , 32-H ) :   0.9562 B(  2-C ,  3-C ) :   1.1954 B(  2-C ,  6-C ) :   1.0341
B(  3-C ,  4-C ) :   1.6193 B(  3-C ,  5-H ) :   0.9893 B(  4-C , 20-C ) :   1.0081
B(  6-C ,  7-H ) :   0.9307 B(  6-C ,  8-H ) :   0.9289 B(  6-C ,  9-C ) :   1.0662
B(  9-C , 10-H ) :   0.9589 B(  9-C , 11-H ) :   0.9539 B(  9-C , 12-C ) :   1.0572
B( 12-C , 13-H ) :   0.9771 B( 12-C , 14-H ) :   0.9777 B( 12-C , 15-H ) :   0.9753
B( 16-S , 17-C ) :   1.1658 B( 16-S , 20-C ) :   1.1699 B( 17-C , 18-C ) :   1.6144
B( 17-C , 20-C ) :   0.1082 B( 17-C , 33-H ) :   0.9648 B( 18-C , 19-C ) :   1.2672
B( 18-C , 21-H ) :   0.9731 B( 19-C , 20-C ) :   1.5594 B( 19-C , 22-C ) :   1.0172
B( 22-C , 23-H ) :   0.9355 B( 22-C , 24-H ) :   0.9353 B( 22-C , 25-C ) :   1.0877
B( 25-C , 26-H ) :   0.9512 B( 25-C , 27-H ) :   0.9484 B( 25-C , 28-C ) :   1.0956
B( 28-C , 29-H ) :   0.9701 B( 28-C , 30-H ) :   0.9672 B( 28-C , 31-H ) :   0.9678

Dispersion correction           -0.015836264
FINAL SINGLE POINT ENERGY     -1339.859256647074

DIPOLE MOMENT
-------------
                                X             Y             Z
Electronic contribution:    -21.11914      -5.85864     -15.35337
Nuclear contribution   :     21.47172       6.42787      15.67611
                        -----------------------------------------
Total Dipole Moment    :      0.35258       0.56924       0.32274
                        -----------------------------------------
Magnitude (a.u.)       :      0.74330
Magnitude (Debye)      :      1.88933

Rotational constants in cm-1:     0.020771     0.009113     0.007694
Rotational constants in MHz :   622.690038   273.201152   230.658476

                             ****ORCA TERMINATED NORMALLY****
TOTAL RUN TIME: 0 days 0 hours 0 minutes 37 seconds 971 msec
