                         Program Version 4.2.1 -  RELEASE  -
|  1> ! wB97X-D3 SP def2-SVP
|  2> %pal
|  3> nprocs 16
|  4> end
|  5>
|  6> * xyz 0 1
|  7> S 	 28.3571 	 4.83614 	 74.7724
|  8> C 	 28.5235 	 5.58228 	 76.3312
|  9> C 	 27.8806 	 4.95179 	 77.331
| 10> C 	 27.1541 	 3.85723 	 76.8161
| 11> C 	 27.1431 	 3.70088 	 75.4421
| 12> H 	 26.6547 	 3.20679 	 77.4633
| 13> C 	 28.0768 	 5.22831 	 78.8201
| 14> H 	 27.1131 	 5.39393 	 79.2913
| 15> H 	 28.5862 	 6.15675 	 78.9222
| 16> C 	 28.8048 	 4.11533 	 79.5498
| 17> H 	 28.3504 	 3.14014 	 79.2414
| 18> H 	 29.8426 	 3.98885 	 79.1446
| 19> C 	 28.7461 	 4.27629 	 81.0739
| 20> H 	 29.269 	 5.12384 	 81.5782
| 21> H 	 27.6813 	 4.42906 	 81.2935
| 22> H 	 29.0046 	 3.34778 	 81.6539
| 23> S 	 27.0897 	 2.14165 	 73.2671
| 24> C 	 26.0906 	 0.764875 	 73.2572
| 25> C 	 25.0391 	 0.919346 	 74.0801
| 26> C 	 25.2195 	 1.98968 	 75.0084
| 27> C 	 26.3378 	 2.77997 	 74.6673
| 28> H 	 24.2953 	 0.219149 	 73.9856
| 29> C 	 24.1904 	 2.3244 	 76.0936
| 30> H 	 24.708 	 2.23237 	 77.0094
| 31> H 	 23.5813 	 1.42887 	 76.2515
| 32> C 	 23.4969 	 3.74101 	 75.9646
| 33> H 	 22.6953 	 3.57422 	 75.215
| 34> H 	 24.0398 	 4.54003 	 75.4822
| 35> C 	 22.8571 	 4.3128 	 77.2444
| 36> H 	 22.4008 	 5.23748 	 77.0117
| 37> H 	 23.5448 	 4.43807 	 77.9934
| 38> H 	 22.1247 	 3.61635 	 77.7103
| 39> H 	 29.1543 	 6.43988 	 76.4186
| 40> H 	 26.2437 	 -0.0711949 	 72.5668
| 41> *
| 42>
| 43>                          ****END OF INPUT****

CARTESIAN COORDINATES (ANGSTROEM)
---------------------------------
  S     28.357100    4.836140   74.772400
  C     28.523500    5.582280   76.331200
  C     27.880600    4.951790   77.331000
  C     27.154100    3.857230   76.816100
  C     27.143100    3.700880   75.442100
  H     26.654700    3.206790   77.463300
  C     28.076800    5.228310   78.820100
  H     27.113100    5.393930   79.291300
  H     28.586200    6.156750   78.922200
  C     28.804800    4.115330   79.549800
  H     28.350400    3.140140   79.241400
  H     29.842600    3.988850   79.144600
  C     28.746100    4.276290   81.073900
  H     29.269000    5.123840   81.578200
  H     27.681300    4.429060   81.293500
  H     29.004600    3.347780   81.653900
  S     27.089700    2.141650   73.267100
  C     26.090600    0.764875   73.257200
  C     25.039100    0.919346   74.080100
  C     25.219500    1.989680   75.008400
  C     26.337800    2.779970   74.667300
  H     24.295300    0.219149   73.985600
  C     24.190400    2.324400   76.093600
  H     24.708000    2.232370   77.009400
  H     23.581300    1.428870   76.251500
  C     23.496900    3.741010   75.964600
  H     22.695300    3.574220   75.215000
  H     24.039800    4.540030   75.482200
  C     22.857100    4.312800   77.244400
  H     22.400800    5.237480   77.011700
  H     23.544800    4.438070   77.993400
  H     22.124700    3.616350   77.710300
  H     29.154300    6.439880   76.418600
  H     26.243700   -0.071195   72.566800

 Total Charge           Charge          ....    0
 Multiplicity           Mult            ....    1
 Number of Electrons    NEL             ....  134
 Basis Dimension        Dim             ....  322

ORBITAL ENERGIES
----------------

  NO   OCC          E(Eh)            E(eV)
   0   2.0000     -88.962200     -2420.7845
   1   2.0000     -88.961257     -2420.7589
   2   2.0000     -10.331542      -281.1355
   3   2.0000     -10.323914      -280.9280
   4   2.0000     -10.311732      -280.5965
   5   2.0000     -10.308070      -280.4968
   6   2.0000     -10.305908      -280.4380
   7   2.0000     -10.293913      -280.1116
   8   2.0000     -10.293589      -280.1028
   9   2.0000     -10.292891      -280.0838
  10   2.0000     -10.290018      -280.0056
  11   2.0000     -10.289566      -279.9933
  12   2.0000     -10.286772      -279.9173
  13   2.0000     -10.285229      -279.8753
  14   2.0000     -10.284355      -279.8515
  15   2.0000     -10.269780      -279.4549
  16   2.0000      -8.078291      -219.8215
  17   2.0000      -8.076940      -219.7847
  18   2.0000      -6.036578      -164.2637
  19   2.0000      -6.035537      -164.2353
  20   2.0000      -6.032479      -164.1521
  21   2.0000      -6.031644      -164.1294
  22   2.0000      -6.029148      -164.0615
  23   2.0000      -6.027436      -164.0149
  24   2.0000      -1.014450       -27.6046
  25   2.0000      -0.990436       -26.9511
  26   2.0000      -0.913142       -24.8479
  27   2.0000      -0.901967       -24.5438
  28   2.0000      -0.875735       -23.8300
  29   2.0000      -0.854136       -23.2422
  30   2.0000      -0.845007       -22.9938
  31   2.0000      -0.818985       -22.2857
  32   2.0000      -0.784977       -21.3603
  33   2.0000      -0.772744       -21.0274
  34   2.0000      -0.713965       -19.4280
  35   2.0000      -0.703417       -19.1409
  36   2.0000      -0.694010       -18.8850
  37   2.0000      -0.668497       -18.1907
  38   2.0000      -0.638852       -17.3840
  39   2.0000      -0.629599       -17.1323
  40   2.0000      -0.597547       -16.2601
  41   2.0000      -0.573327       -15.6010
  42   2.0000      -0.559812       -15.2333
  43   2.0000      -0.546183       -14.8624
  44   2.0000      -0.537461       -14.6250
  45   2.0000      -0.520384       -14.1604
  46   2.0000      -0.517585       -14.0842
  47   2.0000      -0.512067       -13.9341
  48   2.0000      -0.506194       -13.7742
  49   2.0000      -0.502443       -13.6722
  50   2.0000      -0.493379       -13.4255
  51   2.0000      -0.485771       -13.2185
  52   2.0000      -0.468839       -12.7578
  53   2.0000      -0.465950       -12.6791
  54   2.0000      -0.461107       -12.5474
  55   2.0000      -0.449707       -12.2372
  56   2.0000      -0.448682       -12.2092
  57   2.0000      -0.438108       -11.9215
  58   2.0000      -0.435847       -11.8600
  59   2.0000      -0.427104       -11.6221
  60   2.0000      -0.421405       -11.4670
  61   2.0000      -0.414548       -11.2804
  62   2.0000      -0.407044       -11.0762
  63   2.0000      -0.362953        -9.8765
  64   2.0000      -0.334163        -9.0930
  65   2.0000      -0.325606        -8.8602
  66   2.0000      -0.278454        -7.5771
  67   0.0000       0.021373         0.5816
  68   0.0000       0.080979         2.2036
  69   0.0000       0.104613         2.8467
  70   0.0000       0.122957         3.3458
  71   0.0000       0.135036         3.6745

MULLIKEN ATOMIC CHARGES
-----------------------
   0 S :    0.091046
   1 C :   -0.133795
   2 C :   -0.057279
   3 C :   -0.007828
   4 C :   -0.083698
   5 H :   -0.023820
   6 C :    0.111841
   7 H :    0.017948
   8 H :    0.007321
   9 C :   -0.089868
  10 H :    0.031169
  11 H :    0.036572
  12 C :   -0.062605
  13 H :    0.045507
  14 H :    0.019473
  15 H :    0.043506
  16 S :    0.096597
  17 C :   -0.105234
  18 C :    0.013602
  19 C :   -0.102192
  20 C :   -0.108901
  21 H :   -0.017773
  22 C :    0.120942
  23 H :   -0.004507
  24 H :    0.008671
  25 C :   -0.072994
  26 H :    0.028111
  27 H :    0.044168
  28 C :   -0.008984
  29 H :    0.029809
  30 H :    0.008816
  31 H :    0.025642
  32 H :    0.035386
  33 H :    0.063350
Sum of atomic charges:    0.0000000

LOEWDIN ATOMIC CHARGES
----------------------
   0 S :    0.377715
   1 C :   -0.186202
   2 C :   -0.066899
   3 C :   -0.061660
   4 C :   -0.172323
   5 H :    0.015322
   6 C :   -0.023906
   7 H :    0.027341
   8 H :    0.025248
   9 C :   -0.046416
  10 H :    0.028951
  11 H :    0.029245
  12 C :   -0.077593
  13 H :    0.029981
  14 H :    0.024350
  15 H :    0.033103
  16 S :    0.437043
  17 C :   -0.190447
  18 C :   -0.068284
  19 C :   -0.047186
  20 C :   -0.210626
  21 H :    0.019505
  22 C :   -0.034135
  23 H :    0.020555
  24 H :    0.033640
  25 C :   -0.036356
  26 H :    0.028465
  27 H :    0.030128
  28 C :   -0.055737
  29 H :    0.025011
  30 H :    0.010580
  31 H :    0.028053
  32 H :    0.020265
  33 H :    0.033271

  Mayer bond orders larger than 0.100000
B(  0-S ,  1-C ) :   1.1368 B(  0-S ,  4-C ) :   1.1198 B(  1-C ,  2-C ) :   1.6292
B(  1-C , 32-H ) :   0.9662 B(  2-C ,  3-C ) :   1.2473 B(  2-C ,  6-C ) :   1.0278
B(  3-C ,  4-C ) :   1.5769 B(  3-C ,  5-H ) :   0.9994 B(  4-C , 20-C ) :   1.0711
B(  6-C ,  7-H ) :   0.9307 B(  6-C ,  8-H ) :   0.9357 B(  6-C ,  9-C ) :   1.0620
B(  9-C , 10-H ) :   0.9563 B(  9-C , 11-H ) :   0.9518 B(  9-C , 12-C ) :   1.0669
B( 12-C , 13-H ) :   0.9770 B( 12-C , 14-H ) :   0.9723 B( 12-C , 15-H ) :   0.9745
B( 16-S , 17-C ) :   1.1896 B( 16-S , 20-C ) :   1.1427 B( 17-C , 18-C ) :   1.5828
B( 17-C , 33-H ) :   0.9646 B( 18-C , 19-C ) :   1.2558 B( 18-C , 21-H ) :   1.0104
B( 19-C , 20-C ) :   1.5482 B( 19-C , 22-C ) :   1.0402 B( 22-C , 23-H ) :   0.9307
B( 22-C , 24-H ) :   0.9242 B( 22-C , 25-C ) :   1.0243 B( 25-C , 26-H ) :   0.9564
B( 25-C , 27-H ) :   0.9648 B( 25-C , 28-C ) :   1.0830 B( 28-C , 29-H ) :   0.9727
B( 28-C , 30-H ) :   0.9757 B( 28-C , 31-H ) :   0.9745

Dispersion correction           -0.014250125
FINAL SINGLE POINT ENERGY     -1339.862519620558

DIPOLE MOMENT
-------------
                                X             Y             Z
Electronic contribution:     10.55679      -3.63764     -28.19580
Nuclear contribution   :    -10.89176       3.41277      28.76452
                        -----------------------------------------
Total Dipole Moment    :     -0.33497      -0.22487       0.56873
                        -----------------------------------------
Magnitude (a.u.)       :      0.69730
Magnitude (Debye)      :      1.77239

Rotational constants in cm-1:     0.017389     0.008955     0.007144
Rotational constants in MHz :   521.318969   268.459205   214.159451

                             ****ORCA TERMINATED NORMALLY****
TOTAL RUN TIME: 0 days 0 hours 0 minutes 34 seconds 882 msec
