                         Program Version 4.2.1 -  RELEASE  -
|  1> ! wB97X-D3 SP def2-SVP
|  2> %pal
|  3> nprocs 16
|  4> end
|  5>
|  6> * xyz 0 1
|  7> S 	 7.95882 	 79.3093 	 47.4973
|  8> C 	 8.6342 	 77.8932 	 48.2867
|  9> C 	 7.72938 	 77.2331 	 49.0607
| 10> C 	 6.39977 	 77.8303 	 48.9627
| 11> C 	 6.37789 	 78.8432 	 47.9838
| 12> H 	 5.58186 	 77.5239 	 49.5403
| 13> C 	 8.02349 	 76.2365 	 50.0781
| 14> H 	 7.10517 	 76.1004 	 50.7011
| 15> H 	 8.80911 	 76.6937 	 50.7235
| 16> C 	 8.43589 	 74.9831 	 49.3508
| 17> H 	 7.99007 	 74.7812 	 48.4307
| 18> H 	 9.42658 	 75.2383 	 48.894
| 19> C 	 8.55939 	 73.7156 	 50.218
| 20> H 	 9.40749 	 73.1228 	 49.9865
| 21> H 	 8.71994 	 73.9441 	 51.3027
| 22> H 	 7.66946 	 73.0473 	 49.9902
| 23> S 	 5.24738 	 81.3484 	 47.3061
| 24> C 	 3.54246 	 81.3608 	 46.8741
| 25> C 	 3.00774 	 80.0665 	 46.8917
| 26> C 	 3.94076 	 79.0436 	 47.2354
| 27> C 	 5.20862 	 79.5484 	 47.5181
| 28> H 	 1.9723 	 79.8796 	 46.627
| 29> C 	 3.51792 	 77.5419 	 47.1922
| 30> H 	 4.41475 	 76.9594 	 47.528
| 31> H 	 3.36548 	 77.3277 	 46.0799
| 32> C 	 2.2945 	 77.0551 	 48.0709
| 33> H 	 2.04204 	 76.0551 	 47.7434
| 34> H 	 1.44692 	 77.6505 	 48.0019
| 35> C 	 2.6349 	 77.1719 	 49.5582
| 36> H 	 1.74071 	 77.2163 	 50.2248
| 37> H 	 3.15069 	 78.0847 	 49.8046
| 38> H 	 3.42381 	 76.3976 	 49.8786
| 39> H 	 9.68707 	 77.6627 	 48.5228
| 40> H 	 2.95852 	 82.3158 	 46.7535
| 41> *
| 42>
| 43>                          ****END OF INPUT****

CARTESIAN COORDINATES (ANGSTROEM)
---------------------------------
  S      7.958820   79.309300   47.497300
  C      8.634200   77.893200   48.286700
  C      7.729380   77.233100   49.060700
  C      6.399770   77.830300   48.962700
  C      6.377890   78.843200   47.983800
  H      5.581860   77.523900   49.540300
  C      8.023490   76.236500   50.078100
  H      7.105170   76.100400   50.701100
  H      8.809110   76.693700   50.723500
  C      8.435890   74.983100   49.350800
  H      7.990070   74.781200   48.430700
  H      9.426580   75.238300   48.894000
  C      8.559390   73.715600   50.218000
  H      9.407490   73.122800   49.986500
  H      8.719940   73.944100   51.302700
  H      7.669460   73.047300   49.990200
  S      5.247380   81.348400   47.306100
  C      3.542460   81.360800   46.874100
  C      3.007740   80.066500   46.891700
  C      3.940760   79.043600   47.235400
  C      5.208620   79.548400   47.518100
  H      1.972300   79.879600   46.627000
  C      3.517920   77.541900   47.192200
  H      4.414750   76.959400   47.528000
  H      3.365480   77.327700   46.079900
  C      2.294500   77.055100   48.070900
  H      2.042040   76.055100   47.743400
  H      1.446920   77.650500   48.001900
  C      2.634900   77.171900   49.558200
  H      1.740710   77.216300   50.224800
  H      3.150690   78.084700   49.804600
  H      3.423810   76.397600   49.878600
  H      9.687070   77.662700   48.522800
  H      2.958520   82.315800   46.753500

 Total Charge           Charge          ....    0
 Multiplicity           Mult            ....    1
 Number of Electrons    NEL             ....  134
 Basis Dimension        Dim             ....  322

ORBITAL ENERGIES
----------------

  NO   OCC          E(Eh)            E(eV)
   0   2.0000     -88.967895     -2420.9395
   1   2.0000     -88.967606     -2420.9316
   2   2.0000     -10.331297      -281.1289
   3   2.0000     -10.329679      -281.0849
   4   2.0000     -10.327465      -281.0246
   5   2.0000     -10.308303      -280.5032
   6   2.0000     -10.307981      -280.4944
   7   2.0000     -10.305384      -280.4238
   8   2.0000     -10.297205      -280.2012
   9   2.0000     -10.293710      -280.1061
  10   2.0000     -10.293126      -280.0902
  11   2.0000     -10.292653      -280.0773
  12   2.0000     -10.289140      -279.9817
  13   2.0000     -10.285081      -279.8713
  14   2.0000     -10.283951      -279.8405
  15   2.0000     -10.282419      -279.7988
  16   2.0000      -8.082888      -219.9466
  17   2.0000      -8.081351      -219.9047
  18   2.0000      -6.041517      -164.3980
  19   2.0000      -6.039958      -164.3556
  20   2.0000      -6.037516      -164.2892
  21   2.0000      -6.036078      -164.2500
  22   2.0000      -6.033369      -164.1763
  23   2.0000      -6.031998      -164.1390
  24   2.0000      -1.005094       -27.3500
  25   2.0000      -0.979584       -26.6558
  26   2.0000      -0.923278       -25.1237
  27   2.0000      -0.902496       -24.5582
  28   2.0000      -0.866789       -23.5865
  29   2.0000      -0.852135       -23.1878
  30   2.0000      -0.843688       -22.9579
  31   2.0000      -0.808795       -22.0084
  32   2.0000      -0.780700       -21.2439
  33   2.0000      -0.769482       -20.9387
  34   2.0000      -0.712299       -19.3826
  35   2.0000      -0.709178       -19.2977
  36   2.0000      -0.694566       -18.9001
  37   2.0000      -0.658683       -17.9237
  38   2.0000      -0.633699       -17.2438
  39   2.0000      -0.618751       -16.8371
  40   2.0000      -0.593519       -16.1505
  41   2.0000      -0.569945       -15.5090
  42   2.0000      -0.551749       -15.0138
  43   2.0000      -0.546014       -14.8578
  44   2.0000      -0.540344       -14.7035
  45   2.0000      -0.531739       -14.4694
  46   2.0000      -0.525723       -14.3056
  47   2.0000      -0.508341       -13.8327
  48   2.0000      -0.503827       -13.7098
  49   2.0000      -0.495836       -13.4924
  50   2.0000      -0.489282       -13.3140
  51   2.0000      -0.476089       -12.9550
  52   2.0000      -0.471993       -12.8436
  53   2.0000      -0.463779       -12.6201
  54   2.0000      -0.456161       -12.4128
  55   2.0000      -0.451535       -12.2869
  56   2.0000      -0.448093       -12.1932
  57   2.0000      -0.442371       -12.0375
  58   2.0000      -0.431671       -11.7464
  59   2.0000      -0.426842       -11.6150
  60   2.0000      -0.424453       -11.5500
  61   2.0000      -0.416201       -11.3254
  62   2.0000      -0.399467       -10.8701
  63   2.0000      -0.349503        -9.5105
  64   2.0000      -0.333382        -9.0718
  65   2.0000      -0.326732        -8.8908
  66   2.0000      -0.284741        -7.7482
  67   0.0000       0.020943         0.5699
  68   0.0000       0.072091         1.9617
  69   0.0000       0.098442         2.6787
  70   0.0000       0.120378         3.2757
  71   0.0000       0.128209         3.4887

MULLIKEN ATOMIC CHARGES
-----------------------
   0 S :    0.116533
   1 C :   -0.109201
   2 C :   -0.136993
   3 C :    0.051227
   4 C :   -0.146972
   5 H :   -0.030782
   6 C :    0.077724
   7 H :    0.029165
   8 H :    0.048997
   9 C :   -0.091085
  10 H :    0.018992
  11 H :    0.012881
  12 C :   -0.033584
  13 H :    0.021570
  14 H :    0.037515
  15 H :    0.047846
  16 S :    0.094039
  17 C :   -0.114106
  18 C :   -0.031756
  19 C :   -0.045112
  20 C :   -0.135489
  21 H :    0.021670
  22 C :    0.000812
  23 H :    0.036338
  24 H :    0.057835
  25 C :    0.001837
  26 H :    0.036179
  27 H :    0.013492
  28 C :   -0.110539
  29 H :    0.043732
  30 H :    0.041757
  31 H :    0.041689
  32 H :    0.048993
  33 H :    0.084795
Sum of atomic charges:   -0.0000000

LOEWDIN ATOMIC CHARGES
----------------------
   0 S :    0.417360
   1 C :   -0.215491
   2 C :   -0.058392
   3 C :   -0.056721
   4 C :   -0.194297
   5 H :    0.016730
   6 C :   -0.035201
   7 H :    0.032003
   8 H :    0.040305
   9 C :   -0.046363
  10 H :    0.020761
  11 H :    0.028594
  12 C :   -0.074120
  13 H :    0.020681
  14 H :    0.032051
  15 H :    0.035986
  16 S :    0.371617
  17 C :   -0.186554
  18 C :   -0.073794
  19 C :   -0.056949
  20 C :   -0.183673
  21 H :    0.031016
  22 C :   -0.034447
  23 H :    0.033588
  24 H :    0.041785
  25 C :   -0.031743
  26 H :    0.027764
  27 H :    0.014230
  28 C :   -0.076040
  29 H :    0.031560
  30 H :    0.023042
  31 H :    0.028548
  32 H :    0.032957
  33 H :    0.043207

  Mayer bond orders larger than 0.100000
B(  0-S ,  1-C ) :   1.1145 B(  0-S ,  4-C ) :   1.1647 B(  1-C ,  2-C ) :   1.6372
B(  1-C , 32-H ) :   0.9532 B(  2-C ,  3-C ) :   1.2404 B(  2-C ,  6-C ) :   1.0243
B(  3-C ,  4-C ) :   1.5218 B(  3-C ,  5-H ) :   0.9997 B(  4-C , 20-C ) :   1.0731
B(  6-C ,  7-H ) :   0.9467 B(  6-C ,  8-H ) :   0.9303 B(  6-C ,  9-C ) :   1.0443
B(  9-C , 10-H ) :   0.9632 B(  9-C , 11-H ) :   0.9490 B(  9-C , 12-C ) :   1.0678
B( 12-C , 13-H ) :   0.9731 B( 12-C , 14-H ) :   0.9738 B( 12-C , 15-H ) :   0.9780
B( 16-S , 17-C ) :   1.1504 B( 16-S , 20-C ) :   1.1179 B( 17-C , 18-C ) :   1.6024
B( 17-C , 20-C ) :   0.1008 B( 17-C , 33-H ) :   0.9605 B( 18-C , 19-C ) :   1.2409
B( 18-C , 21-H ) :   0.9892 B( 19-C , 20-C ) :   1.5948 B( 19-C , 22-C ) :   1.0253
B( 22-C , 23-H ) :   0.9376 B( 22-C , 24-H ) :   0.9406 B( 22-C , 25-C ) :   1.0566
B( 25-C , 26-H ) :   0.9570 B( 25-C , 27-H ) :   0.9601 B( 25-C , 28-C ) :   1.0645
B( 28-C , 29-H ) :   0.9723 B( 28-C , 30-H ) :   0.9713 B( 28-C , 31-H ) :   0.9694

Dispersion correction           -0.014634223
FINAL SINGLE POINT ENERGY     -1339.859308766336

DIPOLE MOMENT
-------------
                                X             Y             Z
Electronic contribution:      5.59725      27.77092     -12.59924
Nuclear contribution   :     -5.94887     -28.25324      12.91510
                        -----------------------------------------
Total Dipole Moment    :     -0.35162      -0.48232       0.31586
                        -----------------------------------------
Magnitude (a.u.)       :      0.67530
Magnitude (Debye)      :      1.71649

Rotational constants in cm-1:     0.019671     0.008839     0.006467
Rotational constants in MHz :   589.732149   264.976823   193.866655

                             ****ORCA TERMINATED NORMALLY****
TOTAL RUN TIME: 0 days 0 hours 0 minutes 34 seconds 462 msec
