                         Program Version 4.2.1 -  RELEASE  -
|  1> ! wB97X-D3 SP def2-SVP
|  2> %pal
|  3> nprocs 16
|  4> end
|  5>
|  6> * xyz 0 1
|  7> S 	 -88.4597 	 48.3112 	 128.461
|  8> C 	 -88.8401 	 50.0184 	 128.101
|  9> C 	 -87.6589 	 50.8296 	 128.026
| 10> C 	 -86.4574 	 50.0037 	 128.018
| 11> C 	 -86.7272 	 48.703 	 128.413
| 12> H 	 -85.3782 	 50.3804 	 127.963
| 13> C 	 -87.6752 	 52.3027 	 127.97
| 14> H 	 -88.5812 	 52.443 	 127.366
| 15> H 	 -86.8101 	 52.7521 	 127.502
| 16> C 	 -87.7221 	 52.8409 	 129.354
| 17> H 	 -88.4299 	 52.3087 	 130.053
| 18> H 	 -86.7491 	 52.6521 	 129.9
| 19> C 	 -87.8803 	 54.3601 	 129.334
| 20> H 	 -88.8189 	 54.6385 	 128.866
| 21> H 	 -87.9616 	 54.6515 	 130.415
| 22> H 	 -87.0624 	 54.9448 	 128.943
| 23> S 	 -85.5039 	 46.4528 	 127.537
| 24> C 	 -84.2431 	 45.7527 	 128.566
| 25> C 	 -84.0012 	 46.496 	 129.656
| 26> C 	 -84.8419 	 47.6476 	 129.844
| 27> C 	 -85.7587 	 47.6836 	 128.815
| 28> H 	 -83.1365 	 46.2259 	 130.21
| 29> C 	 -84.6679 	 48.6763 	 130.925
| 30> H 	 -84.9194 	 49.6569 	 130.479
| 31> H 	 -83.6537 	 48.6608 	 131.07
| 32> C 	 -85.4751 	 48.344 	 132.239
| 33> H 	 -85.4104 	 49.1769 	 132.937
| 34> H 	 -84.9095 	 47.5398 	 132.732
| 35> C 	 -86.9514 	 47.863 	 132.264
| 36> H 	 -87.4956 	 48.7113 	 131.816
| 37> H 	 -87.2736 	 47.638 	 133.265
| 38> H 	 -87.1212 	 46.9113 	 131.808
| 39> H 	 -89.8483 	 50.3732 	 127.899
| 40> H 	 -83.606 	 44.8603 	 128.282
| 41> *
| 42>
| 43>                          ****END OF INPUT****

CARTESIAN COORDINATES (ANGSTROEM)
---------------------------------
  S    -88.459700   48.311200  128.461000
  C    -88.840100   50.018400  128.101000
  C    -87.658900   50.829600  128.026000
  C    -86.457400   50.003700  128.018000
  C    -86.727200   48.703000  128.413000
  H    -85.378200   50.380400  127.963000
  C    -87.675200   52.302700  127.970000
  H    -88.581200   52.443000  127.366000
  H    -86.810100   52.752100  127.502000
  C    -87.722100   52.840900  129.354000
  H    -88.429900   52.308700  130.053000
  H    -86.749100   52.652100  129.900000
  C    -87.880300   54.360100  129.334000
  H    -88.818900   54.638500  128.866000
  H    -87.961600   54.651500  130.415000
  H    -87.062400   54.944800  128.943000
  S    -85.503900   46.452800  127.537000
  C    -84.243100   45.752700  128.566000
  C    -84.001200   46.496000  129.656000
  C    -84.841900   47.647600  129.844000
  C    -85.758700   47.683600  128.815000
  H    -83.136500   46.225900  130.210000
  C    -84.667900   48.676300  130.925000
  H    -84.919400   49.656900  130.479000
  H    -83.653700   48.660800  131.070000
  C    -85.475100   48.344000  132.239000
  H    -85.410400   49.176900  132.937000
  H    -84.909500   47.539800  132.732000
  C    -86.951400   47.863000  132.264000
  H    -87.495600   48.711300  131.816000
  H    -87.273600   47.638000  133.265000
  H    -87.121200   46.911300  131.808000
  H    -89.848300   50.373200  127.899000
  H    -83.606000   44.860300  128.282000

 Total Charge           Charge          ....    0
 Multiplicity           Mult            ....    1
 Number of Electrons    NEL             ....  134
 Basis Dimension        Dim             ....  322

ORBITAL ENERGIES
----------------

  NO   OCC          E(Eh)            E(eV)
   0   2.0000     -88.966300     -2420.8961
   1   2.0000     -88.961118     -2420.7551
   2   2.0000     -10.328469      -281.0519
   3   2.0000     -10.323344      -280.9125
   4   2.0000     -10.318013      -280.7674
   5   2.0000     -10.316228      -280.7188
   6   2.0000     -10.307186      -280.4728
   7   2.0000     -10.303994      -280.3859
   8   2.0000     -10.302513      -280.3456
   9   2.0000     -10.292204      -280.0651
  10   2.0000     -10.291116      -280.0355
  11   2.0000     -10.288784      -279.9720
  12   2.0000     -10.287739      -279.9436
  13   2.0000     -10.286657      -279.9142
  14   2.0000     -10.278879      -279.7025
  15   2.0000     -10.271918      -279.5131
  16   2.0000      -8.079708      -219.8600
  17   2.0000      -8.075248      -219.7387
  18   2.0000      -6.038228      -164.3085
  19   2.0000      -6.034480      -164.2065
  20   2.0000      -6.033765      -164.1871
  21   2.0000      -6.030453      -164.0970
  22   2.0000      -6.030070      -164.0865
  23   2.0000      -6.025795      -163.9702
  24   2.0000      -0.998860       -27.1804
  25   2.0000      -0.974546       -26.5187
  26   2.0000      -0.921266       -25.0689
  27   2.0000      -0.902630       -24.5618
  28   2.0000      -0.864019       -23.5112
  29   2.0000      -0.847218       -23.0540
  30   2.0000      -0.843909       -22.9639
  31   2.0000      -0.813080       -22.1250
  32   2.0000      -0.787102       -21.4181
  33   2.0000      -0.767751       -20.8916
  34   2.0000      -0.703896       -19.1540
  35   2.0000      -0.696647       -18.9567
  36   2.0000      -0.688047       -18.7227
  37   2.0000      -0.656172       -17.8554
  38   2.0000      -0.638820       -17.3832
  39   2.0000      -0.610794       -16.6205
  40   2.0000      -0.586351       -15.9554
  41   2.0000      -0.577477       -15.7139
  42   2.0000      -0.560825       -15.2608
  43   2.0000      -0.548530       -14.9263
  44   2.0000      -0.540740       -14.7143
  45   2.0000      -0.526635       -14.3305
  46   2.0000      -0.522136       -14.2081
  47   2.0000      -0.505806       -13.7637
  48   2.0000      -0.502067       -13.6619
  49   2.0000      -0.493466       -13.4279
  50   2.0000      -0.488256       -13.2861
  51   2.0000      -0.472229       -12.8500
  52   2.0000      -0.470793       -12.8109
  53   2.0000      -0.458218       -12.4687
  54   2.0000      -0.454558       -12.3691
  55   2.0000      -0.452571       -12.3151
  56   2.0000      -0.444335       -12.0910
  57   2.0000      -0.438930       -11.9439
  58   2.0000      -0.433443       -11.7946
  59   2.0000      -0.425585       -11.5807
  60   2.0000      -0.418767       -11.3952
  61   2.0000      -0.408262       -11.1094
  62   2.0000      -0.406371       -11.0579
  63   2.0000      -0.336282        -9.1507
  64   2.0000      -0.326826        -8.8934
  65   2.0000      -0.320142        -8.7115
  66   2.0000      -0.298452        -8.1213
  67   0.0000       0.037828         1.0293
  68   0.0000       0.058738         1.5983
  69   0.0000       0.106996         2.9115
  70   0.0000       0.111775         3.0416
  71   0.0000       0.122995         3.3469

MULLIKEN ATOMIC CHARGES
-----------------------
   0 S :    0.114713
   1 C :   -0.127008
   2 C :   -0.136508
   3 C :    0.053066
   4 C :   -0.186183
   5 H :    0.046579
   6 C :    0.101358
   7 H :    0.031778
   8 H :    0.020502
   9 C :   -0.125857
  10 H :    0.041422
  11 H :    0.027583
  12 C :   -0.027596
  13 H :    0.029082
  14 H :    0.031480
  15 H :    0.036326
  16 S :    0.095335
  17 C :   -0.101034
  18 C :   -0.038351
  19 C :   -0.035284
  20 C :   -0.190611
  21 H :    0.004104
  22 C :    0.161704
  23 H :    0.022289
  24 H :    0.001421
  25 C :   -0.100368
  26 H :    0.029548
  27 H :    0.019383
  28 C :   -0.028422
  29 H :    0.046601
  30 H :    0.024654
  31 H :    0.033269
  32 H :    0.052779
  33 H :    0.072248
Sum of atomic charges:   -0.0000000

LOEWDIN ATOMIC CHARGES
----------------------
   0 S :    0.387417
   1 C :   -0.204204
   2 C :   -0.049178
   3 C :   -0.070262
   4 C :   -0.192651
   5 H :    0.046203
   6 C :   -0.039682
   7 H :    0.037091
   8 H :    0.032200
   9 C :   -0.048855
  10 H :    0.030640
  11 H :    0.029209
  12 C :   -0.067401
  13 H :    0.022048
  14 H :    0.032316
  15 H :    0.023511
  16 S :    0.373194
  17 C :   -0.182455
  18 C :   -0.077177
  19 C :   -0.046072
  20 C :   -0.187698
  21 H :    0.026953
  22 C :   -0.020133
  23 H :    0.032328
  24 H :    0.022968
  25 C :   -0.039829
  26 H :    0.022709
  27 H :    0.021973
  28 C :   -0.062988
  29 H :    0.030066
  30 H :    0.026847
  31 H :    0.023117
  32 H :    0.025357
  33 H :    0.042438

  Mayer bond orders larger than 0.100000
B(  0-S ,  1-C ) :   1.1235 B(  0-S ,  4-C ) :   1.1544 B(  1-C ,  2-C ) :   1.6036
B(  1-C ,  4-C ) :   0.1028 B(  1-C , 32-H ) :   0.9685 B(  2-C ,  3-C ) :   1.2245
B(  2-C ,  6-C ) :   1.0323 B(  3-C ,  4-C ) :   1.5959 B(  3-C ,  5-H ) :   0.9732
B(  4-C , 20-C ) :   1.0015 B(  6-C ,  7-H ) :   0.9361 B(  6-C ,  8-H ) :   0.9357
B(  6-C ,  9-C ) :   1.0616 B(  9-C , 10-H ) :   0.9575 B(  9-C , 11-H ) :   0.9483
B(  9-C , 12-C ) :   1.0805 B( 12-C , 13-H ) :   0.9756 B( 12-C , 14-H ) :   0.9727
B( 12-C , 15-H ) :   0.9729 B( 16-S , 17-C ) :   1.1217 B( 16-S , 20-C ) :   1.1430
B( 17-C , 18-C ) :   1.6797 B( 17-C , 33-H ) :   0.9555 B( 18-C , 19-C ) :   1.1857
B( 18-C , 21-H ) :   0.9886 B( 19-C , 20-C ) :   1.6338 B( 19-C , 22-C ) :   1.0298
B( 22-C , 23-H ) :   0.9302 B( 22-C , 24-H ) :   0.9240 B( 22-C , 25-C ) :   1.0549
B( 25-C , 26-H ) :   0.9603 B( 25-C , 27-H ) :   0.9558 B( 25-C , 28-C ) :   1.0855
B( 28-C , 29-H ) :   0.9774 B( 28-C , 30-H ) :   0.9695 B( 28-C , 31-H ) :   0.9719

Dispersion correction           -0.015326070
FINAL SINGLE POINT ENERGY     -1339.859342595509

DIPOLE MOMENT
-------------
                                X             Y             Z
Electronic contribution:      0.14385     -21.67480     -16.50042
Nuclear contribution   :      0.26520      22.21586      16.89036
                        -----------------------------------------
Total Dipole Moment    :      0.40905       0.54106       0.38994
                        -----------------------------------------
Magnitude (a.u.)       :      0.78238
Magnitude (Debye)      :      1.98866

Rotational constants in cm-1:     0.020395     0.008656     0.007476
Rotational constants in MHz :   611.433109   259.498207   224.113307

                             ****ORCA TERMINATED NORMALLY****
TOTAL RUN TIME: 0 days 0 hours 0 minutes 33 seconds 255 msec
