                         Program Version 4.2.1 -  RELEASE  -
|  1> ! wB97X-D3 SP def2-SVP
|  2> %pal
|  3> nprocs 16
|  4> end
|  5>
|  6> * xyz 0 1
|  7> S 	 -35.0288 	 63.0184 	 107.769
|  8> C 	 -34.5638 	 62.4227 	 109.31
|  9> C 	 -34.9771 	 61.0717 	 109.502
| 10> C 	 -35.6894 	 60.5505 	 108.37
| 11> C 	 -35.7815 	 61.5185 	 107.377
| 12> H 	 -35.9653 	 59.5508 	 108.221
| 13> C 	 -34.7413 	 60.222 	 110.749
| 14> H 	 -35.7441 	 59.9048 	 111.065
| 15> H 	 -34.5163 	 60.8558 	 111.578
| 16> C 	 -33.8961 	 59.0012 	 110.596
| 17> H 	 -32.9891 	 59.2231 	 110.126
| 18> H 	 -33.6603 	 58.7075 	 111.61
| 19> C 	 -34.5712 	 57.8232 	 109.853
| 20> H 	 -34.1488 	 56.8701 	 110.242
| 21> H 	 -35.6148 	 57.7661 	 110.169
| 22> H 	 -34.4989 	 57.8565 	 108.742
| 23> S 	 -35.3121 	 61.6928 	 104.656
| 24> C 	 -36.613 	 61.2999 	 103.59
| 25> C 	 -37.6871 	 60.8297 	 104.279
| 26> C 	 -37.5562 	 60.847 	 105.693
| 27> C 	 -36.3464 	 61.3329 	 106.063
| 28> H 	 -38.6223 	 60.358 	 103.803
| 29> C 	 -38.7245 	 60.4771 	 106.628
| 30> H 	 -38.5826 	 60.8962 	 107.648
| 31> H 	 -38.6926 	 59.3985 	 106.728
| 32> C 	 -40.1444 	 60.9687 	 106.259
| 33> H 	 -40.4092 	 60.7875 	 105.249
| 34> H 	 -40.0241 	 62.0555 	 106.373
| 35> C 	 -41.2299 	 60.4972 	 107.141
| 36> H 	 -42.0139 	 61.1888 	 106.998
| 37> H 	 -40.8946 	 60.6187 	 108.101
| 38> H 	 -41.5115 	 59.496 	 106.934
| 39> H 	 -34.1409 	 62.9992 	 110.072
| 40> H 	 -36.4776 	 61.201 	 102.512
| 41> *
| 42>
| 43>                          ****END OF INPUT****

CARTESIAN COORDINATES (ANGSTROEM)
---------------------------------
  S    -35.028800   63.018400  107.769000
  C    -34.563800   62.422700  109.310000
  C    -34.977100   61.071700  109.502000
  C    -35.689400   60.550500  108.370000
  C    -35.781500   61.518500  107.377000
  H    -35.965300   59.550800  108.221000
  C    -34.741300   60.222000  110.749000
  H    -35.744100   59.904800  111.065000
  H    -34.516300   60.855800  111.578000
  C    -33.896100   59.001200  110.596000
  H    -32.989100   59.223100  110.126000
  H    -33.660300   58.707500  111.610000
  C    -34.571200   57.823200  109.853000
  H    -34.148800   56.870100  110.242000
  H    -35.614800   57.766100  110.169000
  H    -34.498900   57.856500  108.742000
  S    -35.312100   61.692800  104.656000
  C    -36.613000   61.299900  103.590000
  C    -37.687100   60.829700  104.279000
  C    -37.556200   60.847000  105.693000
  C    -36.346400   61.332900  106.063000
  H    -38.622300   60.358000  103.803000
  C    -38.724500   60.477100  106.628000
  H    -38.582600   60.896200  107.648000
  H    -38.692600   59.398500  106.728000
  C    -40.144400   60.968700  106.259000
  H    -40.409200   60.787500  105.249000
  H    -40.024100   62.055500  106.373000
  C    -41.229900   60.497200  107.141000
  H    -42.013900   61.188800  106.998000
  H    -40.894600   60.618700  108.101000
  H    -41.511500   59.496000  106.934000
  H    -34.140900   62.999200  110.072000
  H    -36.477600   61.201000  102.512000

 Total Charge           Charge          ....    0
 Multiplicity           Mult            ....    1
 Number of Electrons    NEL             ....  134
 Basis Dimension        Dim             ....  322

ORBITAL ENERGIES
----------------

  NO   OCC          E(Eh)            E(eV)
   0   2.0000     -88.967809     -2420.9372
   1   2.0000     -88.961784     -2420.7732
   2   2.0000     -10.323318      -280.9118
   3   2.0000     -10.320230      -280.8277
   4   2.0000     -10.313060      -280.6326
   5   2.0000     -10.308510      -280.5088
   6   2.0000     -10.302618      -280.3485
   7   2.0000     -10.297464      -280.2082
   8   2.0000     -10.293994      -280.1138
   9   2.0000     -10.292399      -280.0704
  10   2.0000     -10.289291      -279.9858
  11   2.0000     -10.286076      -279.8984
  12   2.0000     -10.284634      -279.8591
  13   2.0000     -10.280157      -279.7373
  14   2.0000     -10.277216      -279.6573
  15   2.0000     -10.261507      -279.2298
  16   2.0000      -8.083276      -219.9571
  17   2.0000      -8.076800      -219.7809
  18   2.0000      -6.041531      -164.3984
  19   2.0000      -6.037614      -164.2918
  20   2.0000      -6.035346      -164.2301
  21   2.0000      -6.034348      -164.2030
  22   2.0000      -6.031395      -164.1226
  23   2.0000      -6.027371      -164.0131
  24   2.0000      -1.009240       -27.4628
  25   2.0000      -0.984880       -26.8000
  26   2.0000      -0.916151       -24.9297
  27   2.0000      -0.914104       -24.8740
  28   2.0000      -0.870265       -23.6811
  29   2.0000      -0.856681       -23.3115
  30   2.0000      -0.846986       -23.0477
  31   2.0000      -0.811381       -22.0788
  32   2.0000      -0.786520       -21.4023
  33   2.0000      -0.773537       -21.0490
  34   2.0000      -0.706058       -19.2128
  35   2.0000      -0.699008       -19.0210
  36   2.0000      -0.696400       -18.9500
  37   2.0000      -0.655407       -17.8345
  38   2.0000      -0.644268       -17.5314
  39   2.0000      -0.620701       -16.8901
  40   2.0000      -0.602531       -16.3957
  41   2.0000      -0.575262       -15.6537
  42   2.0000      -0.567060       -15.4305
  43   2.0000      -0.545325       -14.8391
  44   2.0000      -0.541517       -14.7354
  45   2.0000      -0.531289       -14.4571
  46   2.0000      -0.519190       -14.1279
  47   2.0000      -0.513744       -13.9797
  48   2.0000      -0.501362       -13.6427
  49   2.0000      -0.497562       -13.5394
  50   2.0000      -0.493827       -13.4377
  51   2.0000      -0.481486       -13.1019
  52   2.0000      -0.469872       -12.7859
  53   2.0000      -0.466283       -12.6882
  54   2.0000      -0.463192       -12.6041
  55   2.0000      -0.451693       -12.2912
  56   2.0000      -0.446842       -12.1592
  57   2.0000      -0.440256       -11.9800
  58   2.0000      -0.425293       -11.5728
  59   2.0000      -0.422367       -11.4932
  60   2.0000      -0.420609       -11.4454
  61   2.0000      -0.418812       -11.3964
  62   2.0000      -0.415185       -11.2978
  63   2.0000      -0.346964        -9.4414
  64   2.0000      -0.333059        -9.0630
  65   2.0000      -0.326855        -8.8942
  66   2.0000      -0.289257        -7.8711
  67   0.0000       0.035805         0.9743
  68   0.0000       0.072190         1.9644
  69   0.0000       0.117010         3.1840
  70   0.0000       0.120058         3.2669
  71   0.0000       0.136421         3.7122

MULLIKEN ATOMIC CHARGES
-----------------------
   0 S :    0.133154
   1 C :   -0.100103
   2 C :   -0.110832
   3 C :    0.050289
   4 C :   -0.168621
   5 H :   -0.006996
   6 C :    0.071146
   7 H :    0.018061
   8 H :    0.003378
   9 C :   -0.013463
  10 H :    0.020524
  11 H :    0.023385
  12 C :   -0.084244
  13 H :    0.036153
  14 H :    0.023151
  15 H :    0.061731
  16 S :    0.101200
  17 C :   -0.087033
  18 C :   -0.065196
  19 C :   -0.008280
  20 C :   -0.177465
  21 H :    0.042999
  22 C :    0.050875
  23 H :    0.034174
  24 H :    0.026883
  25 C :   -0.109443
  26 H :    0.013861
  27 H :    0.032064
  28 C :    0.054007
  29 H :    0.021580
  30 H :   -0.002448
  31 H :    0.027069
  32 H :    0.024659
  33 H :    0.063781
Sum of atomic charges:    0.0000000

LOEWDIN ATOMIC CHARGES
----------------------
   0 S :    0.439866
   1 C :   -0.212565
   2 C :   -0.051101
   3 C :   -0.055825
   4 C :   -0.199444
   5 H :    0.024015
   6 C :   -0.037123
   7 H :    0.031836
   8 H :    0.025187
   9 C :   -0.033891
  10 H :    0.019522
  11 H :    0.028056
  12 C :   -0.070811
  13 H :    0.032140
  14 H :    0.021618
  15 H :    0.031034
  16 S :    0.391977
  17 C :   -0.194219
  18 C :   -0.081073
  19 C :   -0.061339
  20 C :   -0.189753
  21 H :    0.042423
  22 C :   -0.031453
  23 H :    0.034464
  24 H :    0.025576
  25 C :   -0.038770
  26 H :    0.011343
  27 H :    0.029196
  28 C :   -0.044275
  29 H :    0.028388
  30 H :    0.014311
  31 H :    0.022774
  32 H :    0.014735
  33 H :    0.033182

  Mayer bond orders larger than 0.100000
B(  0-S ,  1-C ) :   1.1470 B(  0-S ,  4-C ) :   1.1831 B(  1-C ,  2-C ) :   1.5819
B(  1-C , 32-H ) :   0.9758 B(  2-C ,  3-C ) :   1.2592 B(  2-C ,  6-C ) :   1.0240
B(  3-C ,  4-C ) :   1.5364 B(  3-C ,  5-H ) :   1.0006 B(  4-C , 20-C ) :   1.0333
B(  6-C ,  7-H ) :   0.9351 B(  6-C ,  8-H ) :   0.9357 B(  6-C ,  9-C ) :   1.0746
B(  9-C , 10-H ) :   0.9535 B(  9-C , 11-H ) :   0.9516 B(  9-C , 12-C ) :   1.0782
B( 12-C , 13-H ) :   0.9707 B( 12-C , 14-H ) :   0.9730 B( 12-C , 15-H ) :   0.9705
B( 16-S , 17-C ) :   1.1420 B( 16-S , 20-C ) :   1.1321 B( 17-C , 18-C ) :   1.6208
B( 17-C , 33-H ) :   0.9646 B( 18-C , 19-C ) :   1.2429 B( 18-C , 21-H ) :   0.9713
B( 19-C , 20-C ) :   1.6357 B( 19-C , 22-C ) :   1.0288 B( 22-C , 23-H ) :   0.9373
B( 22-C , 24-H ) :   0.9305 B( 22-C , 25-C ) :   1.0619 B( 25-C , 26-H ) :   0.9520
B( 25-C , 27-H ) :   0.9584 B( 25-C , 28-C ) :   1.0959 B( 28-C , 29-H ) :   0.9670
B( 28-C , 30-H ) :   0.9664 B( 28-C , 31-H ) :   0.9728

Dispersion correction           -0.013973774
FINAL SINGLE POINT ENERGY     -1339.878010455837

DIPOLE MOMENT
-------------
                                X             Y             Z
Electronic contribution:     14.25365      17.17490     -14.62213
Nuclear contribution   :    -14.59376     -17.67212      15.01527
                        -----------------------------------------
Total Dipole Moment    :     -0.34010      -0.49722       0.39314
                        -----------------------------------------
Magnitude (a.u.)       :      0.71934
Magnitude (Debye)      :      1.82842

Rotational constants in cm-1:     0.016461     0.008887     0.007232
Rotational constants in MHz :   493.493912   266.420103   216.805448

                             ****ORCA TERMINATED NORMALLY****
TOTAL RUN TIME: 0 days 0 hours 0 minutes 28 seconds 246 msec
