                         Program Version 4.2.1 -  RELEASE  -
|  1> ! wB97X-D3 SP def2-SVP
|  2> %pal
|  3> nprocs 16
|  4> end
|  5>
|  6> * xyz 0 1
|  7> S 	 -49.4103 	 61.2608 	 129.179
|  8> C 	 -49.7098 	 60.0192 	 128.051
|  9> C 	 -48.7451 	 59.0173 	 128.152
| 10> C 	 -47.9053 	 59.2019 	 129.276
| 11> C 	 -48.2181 	 60.3279 	 130.053
| 12> H 	 -47.1115 	 58.6148 	 129.74
| 13> C 	 -48.7693 	 57.7612 	 127.249
| 14> H 	 -48.3061 	 57.9229 	 126.255
| 15> H 	 -49.8045 	 57.5294 	 127.044
| 16> C 	 -48.1217 	 56.5951 	 127.86
| 17> H 	 -47.9891 	 55.7026 	 127.147
| 18> H 	 -47.1515 	 56.795 	 128.191
| 19> C 	 -48.8789 	 55.9826 	 129.068
| 20> H 	 -49.8785 	 55.6457 	 128.918
| 21> H 	 -48.4474 	 55.108 	 129.587
| 22> H 	 -49.1473 	 56.7097 	 129.793
| 23> S 	 -47.0336 	 62.4725 	 131.227
| 24> C 	 -46.1129 	 62.3483 	 132.728
| 25> C 	 -46.2565 	 61.0524 	 133.187
| 26> C 	 -47.0949 	 60.223 	 132.426
| 27> C 	 -47.5892 	 60.8678 	 131.28
| 28> H 	 -45.7357 	 60.7227 	 134.079
| 29> C 	 -47.4227 	 58.8248 	 132.827
| 30> H 	 -47.9649 	 58.3567 	 131.985
| 31> H 	 -48.2126 	 58.7752 	 133.518
| 32> C 	 -46.2309 	 57.9502 	 133.328
| 33> H 	 -45.6153 	 58.517 	 134.085
| 34> H 	 -45.4828 	 57.8008 	 132.538
| 35> C 	 -46.7237 	 56.6438 	 133.994
| 36> H 	 -47.3857 	 56.6739 	 134.874
| 37> H 	 -45.8012 	 56.1215 	 134.217
| 38> H 	 -47.2528 	 56.04 	 133.339
| 39> H 	 -50.5373 	 60.0203 	 127.333
| 40> H 	 -45.5035 	 63.1242 	 133.04
| 41> *
| 42>
| 43>                          ****END OF INPUT****

CARTESIAN COORDINATES (ANGSTROEM)
---------------------------------
  S    -49.410300   61.260800  129.179000
  C    -49.709800   60.019200  128.051000
  C    -48.745100   59.017300  128.152000
  C    -47.905300   59.201900  129.276000
  C    -48.218100   60.327900  130.053000
  H    -47.111500   58.614800  129.740000
  C    -48.769300   57.761200  127.249000
  H    -48.306100   57.922900  126.255000
  H    -49.804500   57.529400  127.044000
  C    -48.121700   56.595100  127.860000
  H    -47.989100   55.702600  127.147000
  H    -47.151500   56.795000  128.191000
  C    -48.878900   55.982600  129.068000
  H    -49.878500   55.645700  128.918000
  H    -48.447400   55.108000  129.587000
  H    -49.147300   56.709700  129.793000
  S    -47.033600   62.472500  131.227000
  C    -46.112900   62.348300  132.728000
  C    -46.256500   61.052400  133.187000
  C    -47.094900   60.223000  132.426000
  C    -47.589200   60.867800  131.280000
  H    -45.735700   60.722700  134.079000
  C    -47.422700   58.824800  132.827000
  H    -47.964900   58.356700  131.985000
  H    -48.212600   58.775200  133.518000
  C    -46.230900   57.950200  133.328000
  H    -45.615300   58.517000  134.085000
  H    -45.482800   57.800800  132.538000
  C    -46.723700   56.643800  133.994000
  H    -47.385700   56.673900  134.874000
  H    -45.801200   56.121500  134.217000
  H    -47.252800   56.040000  133.339000
  H    -50.537300   60.020300  127.333000
  H    -45.503500   63.124200  133.040000

 Total Charge           Charge          ....    0
 Multiplicity           Mult            ....    1
 Number of Electrons    NEL             ....  134
 Basis Dimension        Dim             ....  322

ORBITAL ENERGIES
----------------

  NO   OCC          E(Eh)            E(eV)
   0   2.0000     -88.964983     -2420.8603
   1   2.0000     -88.963723     -2420.8260
   2   2.0000     -10.332534      -281.1626
   3   2.0000     -10.327489      -281.0252
   4   2.0000     -10.315786      -280.7068
   5   2.0000     -10.314624      -280.6752
   6   2.0000     -10.306130      -280.4441
   7   2.0000     -10.300249      -280.2840
   8   2.0000     -10.297994      -280.2227
   9   2.0000     -10.296872      -280.1921
  10   2.0000     -10.293610      -280.1034
  11   2.0000     -10.293580      -280.1025
  12   2.0000     -10.286525      -279.9106
  13   2.0000     -10.286308      -279.9047
  14   2.0000     -10.275794      -279.6186
  15   2.0000     -10.269317      -279.4423
  16   2.0000      -8.080612      -219.8846
  17   2.0000      -8.079378      -219.8511
  18   2.0000      -6.038911      -164.3271
  19   2.0000      -6.037717      -164.2946
  20   2.0000      -6.034858      -164.2168
  21   2.0000      -6.033576      -164.1820
  22   2.0000      -6.031681      -164.1304
  23   2.0000      -6.030420      -164.0961
  24   2.0000      -1.012173       -27.5426
  25   2.0000      -0.990866       -26.9628
  26   2.0000      -0.918031       -24.9809
  27   2.0000      -0.907561       -24.6960
  28   2.0000      -0.871382       -23.7115
  29   2.0000      -0.853132       -23.2149
  30   2.0000      -0.842039       -22.9130
  31   2.0000      -0.819163       -22.2905
  32   2.0000      -0.786797       -21.4098
  33   2.0000      -0.775577       -21.1045
  34   2.0000      -0.713379       -19.4120
  35   2.0000      -0.710060       -19.3217
  36   2.0000      -0.692130       -18.8338
  37   2.0000      -0.660608       -17.9761
  38   2.0000      -0.647260       -17.6128
  39   2.0000      -0.622074       -16.9275
  40   2.0000      -0.607416       -16.5286
  41   2.0000      -0.569109       -15.4862
  42   2.0000      -0.556615       -15.1463
  43   2.0000      -0.554180       -15.0800
  44   2.0000      -0.536270       -14.5926
  45   2.0000      -0.532731       -14.4963
  46   2.0000      -0.519227       -14.1289
  47   2.0000      -0.514250       -13.9935
  48   2.0000      -0.506357       -13.7787
  49   2.0000      -0.499169       -13.5831
  50   2.0000      -0.491618       -13.3776
  51   2.0000      -0.485208       -13.2032
  52   2.0000      -0.477212       -12.9856
  53   2.0000      -0.464035       -12.6270
  54   2.0000      -0.458039       -12.4639
  55   2.0000      -0.457032       -12.4365
  56   2.0000      -0.445187       -12.1142
  57   2.0000      -0.440368       -11.9830
  58   2.0000      -0.433419       -11.7939
  59   2.0000      -0.429919       -11.6987
  60   2.0000      -0.415804       -11.3146
  61   2.0000      -0.412873       -11.2349
  62   2.0000      -0.404998       -11.0206
  63   2.0000      -0.353212        -9.6114
  64   2.0000      -0.333709        -9.0807
  65   2.0000      -0.327327        -8.9070
  66   2.0000      -0.287337        -7.8188
  67   0.0000       0.028072         0.7639
  68   0.0000       0.066762         1.8167
  69   0.0000       0.113671         3.0931
  70   0.0000       0.125468         3.4142
  71   0.0000       0.128441         3.4951

MULLIKEN ATOMIC CHARGES
-----------------------
   0 S :    0.113881
   1 C :   -0.118674
   2 C :   -0.096631
   3 C :    0.034766
   4 C :   -0.194049
   5 H :    0.018621
   6 C :    0.113903
   7 H :    0.046451
   8 H :    0.019610
   9 C :   -0.077834
  10 H :    0.037414
  11 H :    0.021126
  12 C :   -0.056329
  13 H :    0.002832
  14 H :    0.034621
  15 H :    0.016881
  16 S :    0.097134
  17 C :   -0.079074
  18 C :   -0.028088
  19 C :   -0.045514
  20 C :   -0.118329
  21 H :    0.020149
  22 C :    0.103802
  23 H :    0.007404
  24 H :    0.016403
  25 C :   -0.116060
  26 H :    0.033007
  27 H :    0.033775
  28 C :   -0.019043
  29 H :    0.039356
  30 H :    0.029895
  31 H :    0.011977
  32 H :    0.057247
  33 H :    0.039370
Sum of atomic charges:   -0.0000000

LOEWDIN ATOMIC CHARGES
----------------------
   0 S :    0.427666
   1 C :   -0.210136
   2 C :   -0.065294
   3 C :   -0.068782
   4 C :   -0.195128
   5 H :    0.035754
   6 C :   -0.029478
   7 H :    0.039916
   8 H :    0.030646
   9 C :   -0.043325
  10 H :    0.035464
  11 H :    0.015393
  12 C :   -0.077794
  13 H :    0.020355
  14 H :    0.029530
  15 H :    0.018828
  16 S :    0.427600
  17 C :   -0.170892
  18 C :   -0.066257
  19 C :   -0.065769
  20 C :   -0.216298
  21 H :    0.030828
  22 C :   -0.037793
  23 H :    0.032937
  24 H :    0.027061
  25 C :   -0.037558
  26 H :    0.025283
  27 H :    0.026314
  28 C :   -0.063451
  29 H :    0.030755
  30 H :    0.029678
  31 H :    0.014377
  32 H :    0.033558
  33 H :    0.016014

  Mayer bond orders larger than 0.100000
B(  0-S ,  1-C ) :   1.1694 B(  0-S ,  4-C ) :   1.1761 B(  1-C ,  2-C ) :   1.5750
B(  1-C ,  4-C ) :   0.1118 B(  1-C , 32-H ) :   0.9716 B(  2-C ,  3-C ) :   1.2608
B(  2-C ,  6-C ) :   0.9968 B(  3-C ,  4-C ) :   1.5456 B(  3-C ,  5-H ) :   0.9916
B(  4-C , 20-C ) :   1.0083 B(  6-C ,  7-H ) :   0.9298 B(  6-C ,  8-H ) :   0.9459
B(  6-C ,  9-C ) :   1.0952 B(  9-C , 10-H ) :   0.9526 B(  9-C , 11-H ) :   0.9459
B(  9-C , 12-C ) :   1.0670 B( 12-C , 13-H ) :   0.9651 B( 12-C , 14-H ) :   0.9771
B( 12-C , 15-H ) :   0.9720 B( 16-S , 17-C ) :   1.1667 B( 16-S , 20-C ) :   1.1806
B( 17-C , 18-C ) :   1.5462 B( 17-C , 20-C ) :   0.1062 B( 17-C , 33-H ) :   0.9862
B( 18-C , 19-C ) :   1.2902 B( 18-C , 21-H ) :   0.9920 B( 19-C , 20-C ) :   1.5415
B( 19-C , 22-C ) :   1.0467 B( 22-C , 23-H ) :   0.9250 B( 22-C , 24-H ) :   0.9292
B( 22-C , 25-C ) :   1.0432 B( 25-C , 26-H ) :   0.9571 B( 25-C , 27-H ) :   0.9574
B( 25-C , 28-C ) :   1.0761 B( 28-C , 29-H ) :   0.9752 B( 28-C , 30-H ) :   0.9727
B( 28-C , 31-H ) :   0.9744

Dispersion correction           -0.014488800
FINAL SINGLE POINT ENERGY     -1339.867510194800

DIPOLE MOMENT
-------------
                                X             Y             Z
Electronic contribution:     -3.20212      31.52765      -5.01593
Nuclear contribution   :      3.36989     -32.16964       5.11309
                        -----------------------------------------
Total Dipole Moment    :      0.16777      -0.64199       0.09716
                        -----------------------------------------
Magnitude (a.u.)       :      0.67063
Magnitude (Debye)      :      1.70460

Rotational constants in cm-1:     0.015832     0.010723     0.006829
Rotational constants in MHz :   474.619509   321.461516   204.735218

                             ****ORCA TERMINATED NORMALLY****
TOTAL RUN TIME: 0 days 0 hours 0 minutes 35 seconds 733 msec
