                         Program Version 4.2.1 -  RELEASE  -
|  1> ! wB97X-D3 SP def2-SVP
|  2> %pal
|  3> nprocs 16
|  4> end
|  5>
|  6> * xyz 0 1
|  7> S 	 -94.3454 	 55.3742 	 127.361
|  8> C 	 -92.5704 	 55.4886 	 127.552
|  9> C 	 -91.9356 	 54.6282 	 126.668
| 10> C 	 -92.8154 	 53.9172 	 125.765
| 11> C 	 -94.1392 	 54.1582 	 126.008
| 12> H 	 -92.5061 	 53.3222 	 124.932
| 13> C 	 -90.418 	 54.5913 	 126.409
| 14> H 	 -89.7945 	 55.1141 	 127.205
| 15> H 	 -90.2095 	 54.9714 	 125.461
| 16> C 	 -89.7851 	 53.2212 	 126.37
| 17> H 	 -90.1976 	 52.6431 	 125.54
| 18> H 	 -88.7083 	 53.2837 	 126.096
| 19> C 	 -89.9887 	 52.3344 	 127.618
| 20> H 	 -89.9311 	 51.2981 	 127.201
| 21> H 	 -89.3552 	 52.4948 	 128.488
| 22> H 	 -91.0591 	 52.5198 	 127.917
| 23> S 	 -96.1791 	 54.927 	 124.443
| 24> C 	 -97.2233 	 53.7525 	 123.809
| 25> C 	 -96.7768 	 52.4723 	 123.956
| 26> C 	 -95.5692 	 52.4056 	 124.731
| 27> C 	 -95.2471 	 53.6677 	 125.232
| 28> H 	 -97.3806 	 51.6552 	 123.545
| 29> C 	 -94.9412 	 51.0971 	 125.16
| 30> H 	 -95.8006 	 50.45 	 125.503
| 31> H 	 -94.3186 	 51.307 	 125.966
| 32> C 	 -94.1274 	 50.2874 	 124.132
| 33> H 	 -93.2368 	 50.7988 	 123.762
| 34> H 	 -94.8401 	 50.0368 	 123.317
| 35> C 	 -93.5676 	 49.0527 	 124.813
| 36> H 	 -93.0352 	 48.3461 	 124.136
| 37> H 	 -94.486 	 48.6008 	 125.206
| 38> H 	 -92.9381 	 49.212 	 125.677
| 39> H 	 -92.0711 	 55.9436 	 128.392
| 40> H 	 -98.0038 	 54.0042 	 123.096
| 41> *
| 42>
| 43>                          ****END OF INPUT****

CARTESIAN COORDINATES (ANGSTROEM)
---------------------------------
  S    -94.345400   55.374200  127.361000
  C    -92.570400   55.488600  127.552000
  C    -91.935600   54.628200  126.668000
  C    -92.815400   53.917200  125.765000
  C    -94.139200   54.158200  126.008000
  H    -92.506100   53.322200  124.932000
  C    -90.418000   54.591300  126.409000
  H    -89.794500   55.114100  127.205000
  H    -90.209500   54.971400  125.461000
  C    -89.785100   53.221200  126.370000
  H    -90.197600   52.643100  125.540000
  H    -88.708300   53.283700  126.096000
  C    -89.988700   52.334400  127.618000
  H    -89.931100   51.298100  127.201000
  H    -89.355200   52.494800  128.488000
  H    -91.059100   52.519800  127.917000
  S    -96.179100   54.927000  124.443000
  C    -97.223300   53.752500  123.809000
  C    -96.776800   52.472300  123.956000
  C    -95.569200   52.405600  124.731000
  C    -95.247100   53.667700  125.232000
  H    -97.380600   51.655200  123.545000
  C    -94.941200   51.097100  125.160000
  H    -95.800600   50.450000  125.503000
  H    -94.318600   51.307000  125.966000
  C    -94.127400   50.287400  124.132000
  H    -93.236800   50.798800  123.762000
  H    -94.840100   50.036800  123.317000
  C    -93.567600   49.052700  124.813000
  H    -93.035200   48.346100  124.136000
  H    -94.486000   48.600800  125.206000
  H    -92.938100   49.212000  125.677000
  H    -92.071100   55.943600  128.392000
  H    -98.003800   54.004200  123.096000

 Total Charge           Charge          ....    0
 Multiplicity           Mult            ....    1
 Number of Electrons    NEL             ....  134
 Basis Dimension        Dim             ....  322

ORBITAL ENERGIES
----------------

  NO   OCC          E(Eh)            E(eV)
   0   2.0000     -88.966983     -2420.9147
   1   2.0000     -88.964378     -2420.8438
   2   2.0000     -10.335151      -281.2338
   3   2.0000     -10.325170      -280.9622
   4   2.0000     -10.319691      -280.8131
   5   2.0000     -10.310276      -280.5569
   6   2.0000     -10.307871      -280.4914
   7   2.0000     -10.307585      -280.4837
   8   2.0000     -10.296801      -280.1902
   9   2.0000     -10.293227      -280.0929
  10   2.0000     -10.291817      -280.0546
  11   2.0000     -10.291588      -280.0483
  12   2.0000     -10.291017      -280.0328
  13   2.0000     -10.285665      -279.8872
  14   2.0000     -10.280191      -279.7382
  15   2.0000     -10.279616      -279.7226
  16   2.0000      -8.080451      -219.8802
  17   2.0000      -8.079964      -219.8670
  18   2.0000      -6.038726      -164.3221
  19   2.0000      -6.038698      -164.3213
  20   2.0000      -6.034916      -164.2184
  21   2.0000      -6.034805      -164.2154
  22   2.0000      -6.031218      -164.1178
  23   2.0000      -6.030469      -164.0974
  24   2.0000      -1.009286       -27.4641
  25   2.0000      -0.979492       -26.6533
  26   2.0000      -0.915741       -24.9186
  27   2.0000      -0.911269       -24.7969
  28   2.0000      -0.872598       -23.7446
  29   2.0000      -0.857327       -23.3290
  30   2.0000      -0.840075       -22.8596
  31   2.0000      -0.814503       -22.1637
  32   2.0000      -0.783231       -21.3128
  33   2.0000      -0.772353       -21.0168
  34   2.0000      -0.707781       -19.2597
  35   2.0000      -0.696312       -18.9476
  36   2.0000      -0.688402       -18.7324
  37   2.0000      -0.659345       -17.9417
  38   2.0000      -0.639049       -17.3894
  39   2.0000      -0.624205       -16.9855
  40   2.0000      -0.599285       -16.3074
  41   2.0000      -0.577416       -15.7123
  42   2.0000      -0.563375       -15.3302
  43   2.0000      -0.555853       -15.1255
  44   2.0000      -0.537887       -14.6367
  45   2.0000      -0.526313       -14.3217
  46   2.0000      -0.518594       -14.1117
  47   2.0000      -0.517091       -14.0708
  48   2.0000      -0.501701       -13.6520
  49   2.0000      -0.500878       -13.6296
  50   2.0000      -0.488204       -13.2847
  51   2.0000      -0.482603       -13.1323
  52   2.0000      -0.472922       -12.8689
  53   2.0000      -0.467979       -12.7344
  54   2.0000      -0.453880       -12.3507
  55   2.0000      -0.448073       -12.1927
  56   2.0000      -0.440030       -11.9738
  57   2.0000      -0.436668       -11.8823
  58   2.0000      -0.431737       -11.7482
  59   2.0000      -0.429166       -11.6782
  60   2.0000      -0.419248       -11.4083
  61   2.0000      -0.415068       -11.2946
  62   2.0000      -0.409007       -11.1297
  63   2.0000      -0.351005        -9.5513
  64   2.0000      -0.332887        -9.0583
  65   2.0000      -0.328035        -8.9263
  66   2.0000      -0.294331        -8.0092
  67   0.0000       0.026952         0.7334
  68   0.0000       0.065402         1.7797
  69   0.0000       0.108156         2.9431
  70   0.0000       0.118089         3.2134
  71   0.0000       0.119490         3.2515

MULLIKEN ATOMIC CHARGES
-----------------------
   0 S :    0.090572
   1 C :   -0.111709
   2 C :   -0.091330
   3 C :    0.038362
   4 C :   -0.147595
   5 H :    0.012875
   6 C :    0.094078
   7 H :    0.031058
   8 H :    0.026922
   9 C :   -0.126829
  10 H :    0.014465
  11 H :    0.033117
  12 C :   -0.075189
  13 H :    0.039729
  14 H :    0.043904
  15 H :    0.044974
  16 S :    0.115848
  17 C :   -0.078161
  18 C :   -0.055864
  19 C :    0.007008
  20 C :   -0.169167
  21 H :    0.025572
  22 C :    0.029900
  23 H :    0.041183
  24 H :    0.006590
  25 C :   -0.062543
  26 H :    0.029191
  27 H :    0.037020
  28 C :   -0.050743
  29 H :    0.045188
  30 H :    0.015621
  31 H :    0.032736
  32 H :    0.056470
  33 H :    0.056747
Sum of atomic charges:   -0.0000000

LOEWDIN ATOMIC CHARGES
----------------------
   0 S :    0.353011
   1 C :   -0.183257
   2 C :   -0.061667
   3 C :   -0.056525
   4 C :   -0.166574
   5 H :    0.030601
   6 C :   -0.030864
   7 H :    0.036371
   8 H :    0.026959
   9 C :   -0.053132
  10 H :    0.016503
  11 H :    0.026876
  12 C :   -0.075154
  13 H :    0.032878
  14 H :    0.022650
  15 H :    0.032436
  16 S :    0.429737
  17 C :   -0.200064
  18 C :   -0.077747
  19 C :   -0.048627
  20 C :   -0.199633
  21 H :    0.035534
  22 C :   -0.029613
  23 H :    0.040377
  24 H :    0.019247
  25 C :   -0.038827
  26 H :    0.020871
  27 H :    0.028126
  28 C :   -0.069012
  29 H :    0.030126
  30 H :    0.024035
  31 H :    0.023905
  32 H :    0.031199
  33 H :    0.029254

  Mayer bond orders larger than 0.100000
B(  0-S ,  1-C ) :   1.1103 B(  0-S ,  4-C ) :   1.1205 B(  1-C ,  2-C ) :   1.6505
B(  1-C , 32-H ) :   0.9640 B(  2-C ,  3-C ) :   1.1837 B(  2-C ,  6-C ) :   1.0244
B(  3-C ,  4-C ) :   1.6125 B(  3-C ,  5-H ) :   0.9962 B(  4-C , 20-C ) :   1.0452
B(  6-C ,  7-H ) :   0.9490 B(  6-C ,  8-H ) :   0.9396 B(  6-C ,  9-C ) :   1.0732
B(  9-C , 10-H ) :   0.9564 B(  9-C , 11-H ) :   0.9534 B(  9-C , 12-C ) :   1.0642
B( 12-C , 13-H ) :   0.9777 B( 12-C , 14-H ) :   0.9775 B( 12-C , 15-H ) :   0.9721
B( 16-S , 17-C ) :   1.1650 B( 16-S , 20-C ) :   1.1546 B( 17-C , 18-C ) :   1.6232
B( 17-C , 33-H ) :   0.9619 B( 18-C , 19-C ) :   1.2199 B( 18-C , 21-H ) :   0.9902
B( 19-C , 20-C ) :   1.5878 B( 19-C , 22-C ) :   1.0453 B( 22-C , 23-H ) :   0.9387
B( 22-C , 24-H ) :   0.9345 B( 22-C , 25-C ) :   1.0664 B( 25-C , 26-H ) :   0.9530
B( 25-C , 27-H ) :   0.9547 B( 25-C , 28-C ) :   1.0785 B( 28-C , 29-H ) :   0.9734
B( 28-C , 30-H ) :   0.9710 B( 28-C , 31-H ) :   0.9744

Dispersion correction           -0.014420819
FINAL SINGLE POINT ENERGY     -1339.873865803306

DIPOLE MOMENT
-------------
                                X             Y             Z
Electronic contribution:    -20.56420      23.80691       0.29507
Nuclear contribution   :     20.94828     -24.31101      -0.61890
                        -----------------------------------------
Total Dipole Moment    :      0.38409      -0.50410      -0.32383
                        -----------------------------------------
Magnitude (a.u.)       :      0.71169
Magnitude (Debye)      :      1.80898

Rotational constants in cm-1:     0.016109     0.010442     0.006941
Rotational constants in MHz :   482.939407   313.056072   208.079929

                             ****ORCA TERMINATED NORMALLY****
TOTAL RUN TIME: 0 days 0 hours 0 minutes 33 seconds 885 msec
