                         Program Version 4.2.1 -  RELEASE  -
|  1> ! wB97X-D3 SP def2-SVP
|  2> %pal
|  3> nprocs 16
|  4> end
|  5>
|  6> * xyz 0 1
|  7> S 	 -43.313 	 64.4558 	 139.75
|  8> C 	 -42.0882 	 63.5538 	 140.57
|  9> C 	 -41.8237 	 62.3793 	 139.937
| 10> C 	 -42.7218 	 62.1874 	 138.874
| 11> C 	 -43.5163 	 63.2397 	 138.584
| 12> H 	 -42.8578 	 61.3099 	 138.337
| 13> C 	 -40.8029 	 61.2677 	 140.503
| 14> H 	 -40.266 	 61.8804 	 141.226
| 15> H 	 -40.1111 	 61.0102 	 139.733
| 16> C 	 -41.3815 	 60.0117 	 141.16
| 17> H 	 -42.228 	 60.3732 	 141.717
| 18> H 	 -41.6719 	 59.3355 	 140.341
| 19> C 	 -40.3644 	 59.4301 	 142.2
| 20> H 	 -40.6246 	 58.5258 	 142.808
| 21> H 	 -39.4454 	 59.1179 	 141.718
| 22> H 	 -40.0634 	 60.1248 	 142.978
| 23> S 	 -46.2343 	 63.484 	 138.278
| 24> C 	 -46.9994 	 63.3283 	 136.683
| 25> C 	 -46.0289 	 63.1165 	 135.777
| 26> C 	 -44.6801 	 63.0742 	 136.279
| 27> C 	 -44.6131 	 63.2182 	 137.648
| 28> H 	 -46.2654 	 63.0161 	 134.739
| 29> C 	 -43.458 	 62.809 	 135.331
| 30> H 	 -42.6382 	 63.4592 	 135.587
| 31> H 	 -43.6621 	 63.134 	 134.296
| 32> C 	 -42.9613 	 61.3576 	 135.201
| 33> H 	 -43.8217 	 60.711 	 134.961
| 34> H 	 -42.5388 	 61.0594 	 136.14
| 35> C 	 -41.8323 	 61.0808 	 134.203
| 36> H 	 -42.2057 	 61.341 	 133.217
| 37> H 	 -41.381 	 60.073 	 134.241
| 38> H 	 -41.0048 	 61.7897 	 134.277
| 39> H 	 -41.7089 	 63.9501 	 141.447
| 40> H 	 -48.0143 	 63.2854 	 136.435
| 41> *
| 42>
| 43>                          ****END OF INPUT****

CARTESIAN COORDINATES (ANGSTROEM)
---------------------------------
  S    -43.313000   64.455800  139.750000
  C    -42.088200   63.553800  140.570000
  C    -41.823700   62.379300  139.937000
  C    -42.721800   62.187400  138.874000
  C    -43.516300   63.239700  138.584000
  H    -42.857800   61.309900  138.337000
  C    -40.802900   61.267700  140.503000
  H    -40.266000   61.880400  141.226000
  H    -40.111100   61.010200  139.733000
  C    -41.381500   60.011700  141.160000
  H    -42.228000   60.373200  141.717000
  H    -41.671900   59.335500  140.341000
  C    -40.364400   59.430100  142.200000
  H    -40.624600   58.525800  142.808000
  H    -39.445400   59.117900  141.718000
  H    -40.063400   60.124800  142.978000
  S    -46.234300   63.484000  138.278000
  C    -46.999400   63.328300  136.683000
  C    -46.028900   63.116500  135.777000
  C    -44.680100   63.074200  136.279000
  C    -44.613100   63.218200  137.648000
  H    -46.265400   63.016100  134.739000
  C    -43.458000   62.809000  135.331000
  H    -42.638200   63.459200  135.587000
  H    -43.662100   63.134000  134.296000
  C    -42.961300   61.357600  135.201000
  H    -43.821700   60.711000  134.961000
  H    -42.538800   61.059400  136.140000
  C    -41.832300   61.080800  134.203000
  H    -42.205700   61.341000  133.217000
  H    -41.381000   60.073000  134.241000
  H    -41.004800   61.789700  134.277000
  H    -41.708900   63.950100  141.447000
  H    -48.014300   63.285400  136.435000

 Total Charge           Charge          ....    0
 Multiplicity           Mult            ....    1
 Number of Electrons    NEL             ....  134
 Basis Dimension        Dim             ....  322

ORBITAL ENERGIES
----------------

  NO   OCC          E(Eh)            E(eV)
   0   2.0000     -88.963994     -2420.8333
   1   2.0000     -88.961744     -2420.7721
   2   2.0000     -10.327392      -281.0226
   3   2.0000     -10.319892      -280.8185
   4   2.0000     -10.312809      -280.6258
   5   2.0000     -10.309085      -280.5245
   6   2.0000     -10.306179      -280.4454
   7   2.0000     -10.302430      -280.3434
   8   2.0000     -10.295900      -280.1657
   9   2.0000     -10.294701      -280.1331
  10   2.0000     -10.293314      -280.0953
  11   2.0000     -10.288988      -279.9776
  12   2.0000     -10.284738      -279.8619
  13   2.0000     -10.284365      -279.8518
  14   2.0000     -10.283276      -279.8222
  15   2.0000     -10.279102      -279.7086
  16   2.0000      -8.080527      -219.8823
  17   2.0000      -8.076180      -219.7640
  18   2.0000      -6.038793      -164.3239
  19   2.0000      -6.034903      -164.2181
  20   2.0000      -6.034724      -164.2132
  21   2.0000      -6.031482      -164.1250
  22   2.0000      -6.030675      -164.1030
  23   2.0000      -6.026758      -163.9964
  24   2.0000      -1.018694       -27.7201
  25   2.0000      -0.988679       -26.9033
  26   2.0000      -0.907764       -24.7015
  27   2.0000      -0.903039       -24.5729
  28   2.0000      -0.877422       -23.8759
  29   2.0000      -0.851816       -23.1791
  30   2.0000      -0.842875       -22.9358
  31   2.0000      -0.821138       -22.3443
  32   2.0000      -0.782965       -21.3055
  33   2.0000      -0.774762       -21.0824
  34   2.0000      -0.712770       -19.3954
  35   2.0000      -0.702308       -19.1108
  36   2.0000      -0.693980       -18.8842
  37   2.0000      -0.664760       -18.0890
  38   2.0000      -0.656309       -17.8591
  39   2.0000      -0.622540       -16.9402
  40   2.0000      -0.595949       -16.2166
  41   2.0000      -0.578333       -15.7373
  42   2.0000      -0.565101       -15.3772
  43   2.0000      -0.560510       -15.2522
  44   2.0000      -0.521897       -14.2015
  45   2.0000      -0.520494       -14.1634
  46   2.0000      -0.519522       -14.1369
  47   2.0000      -0.514789       -14.0081
  48   2.0000      -0.508818       -13.8456
  49   2.0000      -0.500388       -13.6162
  50   2.0000      -0.498840       -13.5741
  51   2.0000      -0.479419       -13.0457
  52   2.0000      -0.477011       -12.9801
  53   2.0000      -0.468820       -12.7572
  54   2.0000      -0.459311       -12.4985
  55   2.0000      -0.448314       -12.1993
  56   2.0000      -0.441518       -12.0143
  57   2.0000      -0.435438       -11.8489
  58   2.0000      -0.431192       -11.7333
  59   2.0000      -0.429046       -11.6749
  60   2.0000      -0.419203       -11.4071
  61   2.0000      -0.415440       -11.3047
  62   2.0000      -0.410125       -11.1601
  63   2.0000      -0.350005        -9.5241
  64   2.0000      -0.336368        -9.1530
  65   2.0000      -0.328461        -8.9379
  66   2.0000      -0.302467        -8.2306
  67   0.0000       0.036041         0.9807
  68   0.0000       0.072450         1.9715
  69   0.0000       0.119711         3.2575
  70   0.0000       0.127135         3.4595
  71   0.0000       0.138942         3.7808

MULLIKEN ATOMIC CHARGES
-----------------------
   0 S :    0.113708
   1 C :   -0.127286
   2 C :   -0.053328
   3 C :    0.031892
   4 C :   -0.138611
   5 H :   -0.011357
   6 C :    0.064526
   7 H :    0.010528
   8 H :    0.028722
   9 C :   -0.029627
  10 H :    0.035144
  11 H :    0.045356
  12 C :   -0.080442
  13 H :    0.038901
  14 H :    0.024923
  15 H :    0.030583
  16 S :    0.090346
  17 C :   -0.056117
  18 C :   -0.026442
  19 C :   -0.024249
  20 C :   -0.161080
  21 H :    0.008694
  22 C :    0.062877
  23 H :    0.025520
  24 H :    0.010244
  25 C :   -0.058937
  26 H :    0.032593
  27 H :    0.014879
  28 C :   -0.048714
  29 H :    0.016708
  30 H :    0.049598
  31 H :    0.019272
  32 H :    0.023916
  33 H :    0.037262
Sum of atomic charges:    0.0000000

LOEWDIN ATOMIC CHARGES
----------------------
   0 S :    0.436433
   1 C :   -0.182910
   2 C :   -0.062263
   3 C :   -0.053725
   4 C :   -0.214838
   5 H :    0.018552
   6 C :   -0.020258
   7 H :    0.026427
   8 H :    0.023944
   9 C :   -0.036569
  10 H :    0.026290
  11 H :    0.029963
  12 C :   -0.074588
  13 H :    0.031756
  14 H :    0.022112
  15 H :    0.025449
  16 S :    0.385486
  17 C :   -0.168109
  18 C :   -0.067873
  19 C :   -0.056542
  20 C :   -0.186969
  21 H :    0.027408
  22 C :   -0.030536
  23 H :    0.029026
  24 H :    0.027812
  25 C :   -0.041693
  26 H :    0.026600
  27 H :    0.015117
  28 C :   -0.069067
  29 H :    0.020432
  30 H :    0.033274
  31 H :    0.023778
  32 H :    0.011338
  33 H :    0.024742

  Mayer bond orders larger than 0.100000
B(  0-S ,  1-C ) :   1.1662 B(  0-S ,  4-C ) :   1.1562 B(  1-C ,  2-C ) :   1.5838
B(  1-C , 32-H ) :   0.9828 B(  2-C ,  3-C ) :   1.2513 B(  2-C ,  6-C ) :   1.0071
B(  3-C ,  4-C ) :   1.5782 B(  3-C ,  5-H ) :   1.0026 B(  4-C , 20-C ) :   1.0263
B(  6-C ,  7-H ) :   0.9463 B(  6-C ,  8-H ) :   0.9410 B(  6-C ,  9-C ) :   1.0545
B(  9-C , 10-H ) :   0.9600 B(  9-C , 11-H ) :   0.9557 B(  9-C , 12-C ) :   1.0695
B( 12-C , 13-H ) :   0.9768 B( 12-C , 14-H ) :   0.9777 B( 12-C , 15-H ) :   0.9763
B( 16-S , 17-C ) :   1.1254 B( 16-S , 20-C ) :   1.1359 B( 17-C , 18-C ) :   1.6380
B( 17-C , 33-H ) :   0.9745 B( 18-C , 19-C ) :   1.2338 B( 18-C , 21-H ) :   0.9898
B( 19-C , 20-C ) :   1.6241 B( 19-C , 22-C ) :   1.0402 B( 22-C , 23-H ) :   0.9301
B( 22-C , 24-H ) :   0.9396 B( 22-C , 25-C ) :   1.0664 B( 25-C , 26-H ) :   0.9559
B( 25-C , 27-H ) :   0.9495 B( 25-C , 28-C ) :   1.0820 B( 28-C , 29-H ) :   0.9735
B( 28-C , 30-H ) :   0.9744 B( 28-C , 31-H ) :   0.9718

Dispersion correction           -0.013757218
FINAL SINGLE POINT ENERGY     -1339.875264224408

DIPOLE MOMENT
-------------
                                X             Y             Z
Electronic contribution:    -20.16127      20.67877       4.87150
Nuclear contribution   :     20.51526     -21.14429      -5.02270
                        -----------------------------------------
Total Dipole Moment    :      0.35399      -0.46552      -0.15119
                        -----------------------------------------
Magnitude (a.u.)       :      0.60405
Magnitude (Debye)      :      1.53537

Rotational constants in cm-1:     0.017090     0.008440     0.006559
Rotational constants in MHz :   512.338948   253.038680   196.636314

                             ****ORCA TERMINATED NORMALLY****
TOTAL RUN TIME: 0 days 0 hours 0 minutes 34 seconds 278 msec
