                         Program Version 4.2.1 -  RELEASE  -
|  1> ! wB97X-D3 SP def2-SVP
|  2> %pal
|  3> nprocs 16
|  4> end
|  5>
|  6> * xyz 0 1
|  7> S 	 23.9636 	 11.4232 	 71.5097
|  8> C 	 25.1056 	 12.2629 	 70.516
|  9> C 	 24.7061 	 12.2076 	 69.2369
| 10> C 	 23.3832 	 11.5895 	 69.111
| 11> C 	 22.8159 	 11.1345 	 70.2845
| 12> H 	 22.8601 	 11.4063 	 68.1807
| 13> C 	 25.5057 	 12.8851 	 68.138
| 14> H 	 25.2498 	 12.4589 	 67.1779
| 15> H 	 26.567 	 12.615 	 68.328
| 16> C 	 25.341 	 14.3817 	 68.1416
| 17> H 	 24.3149 	 14.5826 	 67.9049
| 18> H 	 25.5082 	 14.7523 	 69.1575
| 19> C 	 26.3726 	 14.8825 	 67.0555
| 20> H 	 26.0846 	 14.6223 	 66.0338
| 21> H 	 26.2864 	 15.9807 	 67.1582
| 22> H 	 27.4124 	 14.6393 	 67.2653
| 23> S 	 21.9062 	 8.62288 	 70.9487
| 24> C 	 20.2559 	 8.3915 	 71.0519
| 25> C 	 19.4977 	 9.43295 	 70.6004
| 26> C 	 20.3118 	 10.5323 	 70.2612
| 27> C 	 21.6471 	 10.2717 	 70.4458
| 28> H 	 18.4708 	 9.49784 	 70.6312
| 29> C 	 19.7118 	 11.8611 	 69.7114
| 30> H 	 18.678 	 11.7083 	 69.4764
| 31> H 	 20.1921 	 12.0916 	 68.801
| 32> C 	 19.8436 	 12.9999 	 70.6982
| 33> H 	 20.8792 	 13.0823 	 71.0636
| 34> H 	 19.2306 	 12.7279 	 71.524
| 35> C 	 19.3144 	 14.2652 	 70.0213
| 36> H 	 18.2054 	 14.1549 	 69.9135
| 37> H 	 19.8269 	 14.437 	 69.129
| 38> H 	 19.423 	 15.1427 	 70.6449
| 39> H 	 26.1103 	 12.5899 	 70.8249
| 40> H 	 19.674 	 7.60115 	 71.5611
| 41> *
| 42>
| 43>                          ****END OF INPUT****

CARTESIAN COORDINATES (ANGSTROEM)
---------------------------------
  S     23.963600   11.423200   71.509700
  C     25.105600   12.262900   70.516000
  C     24.706100   12.207600   69.236900
  C     23.383200   11.589500   69.111000
  C     22.815900   11.134500   70.284500
  H     22.860100   11.406300   68.180700
  C     25.505700   12.885100   68.138000
  H     25.249800   12.458900   67.177900
  H     26.567000   12.615000   68.328000
  C     25.341000   14.381700   68.141600
  H     24.314900   14.582600   67.904900
  H     25.508200   14.752300   69.157500
  C     26.372600   14.882500   67.055500
  H     26.084600   14.622300   66.033800
  H     26.286400   15.980700   67.158200
  H     27.412400   14.639300   67.265300
  S     21.906200    8.622880   70.948700
  C     20.255900    8.391500   71.051900
  C     19.497700    9.432950   70.600400
  C     20.311800   10.532300   70.261200
  C     21.647100   10.271700   70.445800
  H     18.470800    9.497840   70.631200
  C     19.711800   11.861100   69.711400
  H     18.678000   11.708300   69.476400
  H     20.192100   12.091600   68.801000
  C     19.843600   12.999900   70.698200
  H     20.879200   13.082300   71.063600
  H     19.230600   12.727900   71.524000
  C     19.314400   14.265200   70.021300
  H     18.205400   14.154900   69.913500
  H     19.826900   14.437000   69.129000
  H     19.423000   15.142700   70.644900
  H     26.110300   12.589900   70.824900
  H     19.674000    7.601150   71.561100

 Total Charge           Charge          ....    0
 Multiplicity           Mult            ....    1
 Number of Electrons    NEL             ....  134
 Basis Dimension        Dim             ....  322

ORBITAL ENERGIES
----------------

  NO   OCC          E(Eh)            E(eV)
   0   2.0000     -88.967675     -2420.9335
   1   2.0000     -88.959090     -2420.6999
   2   2.0000     -10.324514      -280.9443
   3   2.0000     -10.320521      -280.8357
   4   2.0000     -10.309164      -280.5266
   5   2.0000     -10.309142      -280.5260
   6   2.0000     -10.297044      -280.1968
   7   2.0000     -10.295845      -280.1642
   8   2.0000     -10.293253      -280.0936
   9   2.0000     -10.288207      -279.9564
  10   2.0000     -10.287439      -279.9354
  11   2.0000     -10.284601      -279.8582
  12   2.0000     -10.282973      -279.8139
  13   2.0000     -10.280504      -279.7467
  14   2.0000     -10.276088      -279.6266
  15   2.0000     -10.271856      -279.5114
  16   2.0000      -8.083905      -219.9742
  17   2.0000      -8.075174      -219.7367
  18   2.0000      -6.042232      -164.4175
  19   2.0000      -6.038231      -164.3086
  20   2.0000      -6.034730      -164.2133
  21   2.0000      -6.033652      -164.1840
  22   2.0000      -6.029266      -164.0647
  23   2.0000      -6.026081      -163.9780
  24   2.0000      -1.016349       -27.6563
  25   2.0000      -0.995604       -27.0918
  26   2.0000      -0.917595       -24.9690
  27   2.0000      -0.913350       -24.8535
  28   2.0000      -0.872271       -23.7357
  29   2.0000      -0.854787       -23.2599
  30   2.0000      -0.838956       -22.8292
  31   2.0000      -0.814906       -22.1747
  32   2.0000      -0.781423       -21.2636
  33   2.0000      -0.771028       -20.9807
  34   2.0000      -0.707117       -19.2416
  35   2.0000      -0.703196       -19.1349
  36   2.0000      -0.691254       -18.8100
  37   2.0000      -0.665952       -18.1215
  38   2.0000      -0.642765       -17.4905
  39   2.0000      -0.616319       -16.7709
  40   2.0000      -0.598096       -16.2750
  41   2.0000      -0.577694       -15.7198
  42   2.0000      -0.572249       -15.5717
  43   2.0000      -0.561511       -15.2795
  44   2.0000      -0.522786       -14.2257
  45   2.0000      -0.519391       -14.1333
  46   2.0000      -0.518585       -14.1114
  47   2.0000      -0.507462       -13.8088
  48   2.0000      -0.503474       -13.7002
  49   2.0000      -0.499341       -13.5877
  50   2.0000      -0.494966       -13.4687
  51   2.0000      -0.486930       -13.2500
  52   2.0000      -0.474527       -12.9125
  53   2.0000      -0.470341       -12.7986
  54   2.0000      -0.465643       -12.6708
  55   2.0000      -0.452723       -12.3192
  56   2.0000      -0.446184       -12.1413
  57   2.0000      -0.435910       -11.8617
  58   2.0000      -0.434314       -11.8183
  59   2.0000      -0.425380       -11.5752
  60   2.0000      -0.420929       -11.4541
  61   2.0000      -0.415892       -11.3170
  62   2.0000      -0.404986       -11.0202
  63   2.0000      -0.338880        -9.2214
  64   2.0000      -0.335703        -9.1349
  65   2.0000      -0.322663        -8.7801
  66   2.0000      -0.303335        -8.2542
  67   0.0000       0.038651         1.0517
  68   0.0000       0.071815         1.9542
  69   0.0000       0.122000         3.3198
  70   0.0000       0.126726         3.4484
  71   0.0000       0.138409         3.7663

MULLIKEN ATOMIC CHARGES
-----------------------
   0 S :    0.102941
   1 C :   -0.131527
   2 C :   -0.086957
   3 C :    0.035864
   4 C :   -0.165332
   5 H :    0.005391
   6 C :    0.043755
   7 H :    0.015201
   8 H :    0.024231
   9 C :   -0.052201
  10 H :    0.023820
  11 H :    0.029261
  12 C :   -0.047720
  13 H :    0.040460
  14 H :    0.033574
  15 H :    0.037984
  16 S :    0.148388
  17 C :   -0.077179
  18 C :   -0.023812
  19 C :   -0.039331
  20 C :   -0.187807
  21 H :   -0.018208
  22 C :    0.117412
  23 H :   -0.000030
  24 H :    0.007187
  25 C :   -0.080555
  26 H :    0.045453
  27 H :    0.016021
  28 C :   -0.012660
  29 H :    0.029523
  30 H :    0.021286
  31 H :    0.026862
  32 H :    0.058324
  33 H :    0.060381
Sum of atomic charges:   -0.0000000

LOEWDIN ATOMIC CHARGES
----------------------
   0 S :    0.425061
   1 C :   -0.205493
   2 C :   -0.069905
   3 C :   -0.066736
   4 C :   -0.217525
   5 H :    0.026182
   6 C :   -0.034050
   7 H :    0.024584
   8 H :    0.030196
   9 C :   -0.030918
  10 H :    0.023366
  11 H :    0.024474
  12 C :   -0.063725
  13 H :    0.027343
  14 H :    0.028307
  15 H :    0.025428
  16 S :    0.451060
  17 C :   -0.213117
  18 C :   -0.070754
  19 C :   -0.044301
  20 C :   -0.212053
  21 H :    0.017535
  22 C :   -0.018340
  23 H :    0.023381
  24 H :    0.020407
  25 C :   -0.035472
  26 H :    0.026954
  27 H :    0.019356
  28 C :   -0.058313
  29 H :    0.030991
  30 H :    0.015932
  31 H :    0.023860
  32 H :    0.036711
  33 H :    0.039577

  Mayer bond orders larger than 0.100000
B(  0-S ,  1-C ) :   1.1430 B(  0-S ,  4-C ) :   1.1574 B(  1-C ,  2-C ) :   1.6112
B(  1-C , 32-H ) :   0.9658 B(  2-C ,  3-C ) :   1.2419 B(  2-C ,  6-C ) :   1.0184
B(  3-C ,  4-C ) :   1.5692 B(  3-C ,  5-H ) :   0.9973 B(  4-C , 20-C ) :   1.0155
B(  6-C ,  7-H ) :   0.9417 B(  6-C ,  8-H ) :   0.9439 B(  6-C ,  9-C ) :   1.0674
B(  9-C , 10-H ) :   0.9529 B(  9-C , 11-H ) :   0.9583 B(  9-C , 12-C ) :   1.0660
B( 12-C , 13-H ) :   0.9755 B( 12-C , 14-H ) :   0.9760 B( 12-C , 15-H ) :   0.9773
B( 16-S , 17-C ) :   1.1805 B( 16-S , 20-C ) :   1.1504 B( 17-C , 18-C ) :   1.5885
B( 17-C , 33-H ) :   0.9544 B( 18-C , 19-C ) :   1.2835 B( 18-C , 21-H ) :   0.9988
B( 19-C , 20-C ) :   1.6046 B( 19-C , 22-C ) :   1.0233 B( 22-C , 23-H ) :   0.9335
B( 22-C , 24-H ) :   0.9322 B( 22-C , 25-C ) :   1.0641 B( 25-C , 26-H ) :   0.9576
B( 25-C , 27-H ) :   0.9520 B( 25-C , 28-C ) :   1.0866 B( 28-C , 29-H ) :   0.9714
B( 28-C , 30-H ) :   0.9756 B( 28-C , 31-H ) :   0.9725

Dispersion correction           -0.014051839
FINAL SINGLE POINT ENERGY     -1339.876775127411

DIPOLE MOMENT
-------------
                                X             Y             Z
Electronic contribution:      0.85183     -24.74195      14.42715
Nuclear contribution   :     -0.96350      25.10826     -14.80452
                        -----------------------------------------
Total Dipole Moment    :     -0.11167       0.36630      -0.37737
                        -----------------------------------------
Magnitude (a.u.)       :      0.53764
Magnitude (Debye)      :      1.36658

Rotational constants in cm-1:     0.019936     0.008260     0.006614
Rotational constants in MHz :   597.675513   247.621153   198.275170

                             ****ORCA TERMINATED NORMALLY****
TOTAL RUN TIME: 0 days 0 hours 0 minutes 30 seconds 863 msec
