                         Program Version 4.2.1 -  RELEASE  -
|  1> ! wB97X-D3 SP def2-SVP
|  2> %pal
|  3> nprocs 16
|  4> end
|  5>
|  6> * xyz 0 1
|  7> S 	 67.119 	 15.9936 	 77.2606
|  8> C 	 65.4855 	 15.3326 	 77.5802
|  9> C 	 64.5424 	 16.0132 	 76.816
| 10> C 	 65.0732 	 17.2004 	 76.2422
| 11> C 	 66.4325 	 17.3312 	 76.3782
| 12> H 	 64.603 	 17.8599 	 75.6626
| 13> C 	 63.0811 	 15.628 	 76.6504
| 14> H 	 62.6177 	 15.6455 	 77.6256
| 15> H 	 63.0867 	 14.6136 	 76.2231
| 16> C 	 62.2342 	 16.5175 	 75.7089
| 17> H 	 62.7622 	 16.8043 	 74.8325
| 18> H 	 61.469 	 15.8627 	 75.3482
| 19> C 	 61.4832 	 17.7171 	 76.3862
| 20> H 	 60.7865 	 17.4335 	 77.1364
| 21> H 	 62.2429 	 18.3845 	 76.8131
| 22> H 	 60.9725 	 18.3401 	 75.6296
| 23> S 	 68.3657 	 18.1108 	 74.6547
| 24> C 	 68.7746 	 19.7808 	 74.5141
| 25> C 	 67.8988 	 20.5667 	 75.2537
| 26> C 	 67.0105 	 19.8142 	 76.0041
| 27> C 	 67.2119 	 18.4298 	 75.9207
| 28> H 	 68.0806 	 21.6277 	 75.2736
| 29> C 	 66.1371 	 20.5493 	 76.9375
| 30> H 	 65.3224 	 19.9376 	 77.1753
| 31> H 	 65.6743 	 21.406 	 76.3927
| 32> C 	 66.7777 	 21.0583 	 78.2518
| 33> H 	 66.0688 	 21.6908 	 78.6779
| 34> H 	 67.6654 	 21.6728 	 77.991
| 35> C 	 67.0839 	 19.9287 	 79.2357
| 36> H 	 67.6477 	 19.114 	 78.8476
| 37> H 	 66.212 	 19.4262 	 79.5468
| 38> H 	 67.653 	 20.3237 	 80.1041
| 39> H 	 65.3225 	 14.4407 	 78.1577
| 40> H 	 69.4907 	 20.2137 	 73.8551
| 41> *
| 42>
| 43>                          ****END OF INPUT****

CARTESIAN COORDINATES (ANGSTROEM)
---------------------------------
  S     67.119000   15.993600   77.260600
  C     65.485500   15.332600   77.580200
  C     64.542400   16.013200   76.816000
  C     65.073200   17.200400   76.242200
  C     66.432500   17.331200   76.378200
  H     64.603000   17.859900   75.662600
  C     63.081100   15.628000   76.650400
  H     62.617700   15.645500   77.625600
  H     63.086700   14.613600   76.223100
  C     62.234200   16.517500   75.708900
  H     62.762200   16.804300   74.832500
  H     61.469000   15.862700   75.348200
  C     61.483200   17.717100   76.386200
  H     60.786500   17.433500   77.136400
  H     62.242900   18.384500   76.813100
  H     60.972500   18.340100   75.629600
  S     68.365700   18.110800   74.654700
  C     68.774600   19.780800   74.514100
  C     67.898800   20.566700   75.253700
  C     67.010500   19.814200   76.004100
  C     67.211900   18.429800   75.920700
  H     68.080600   21.627700   75.273600
  C     66.137100   20.549300   76.937500
  H     65.322400   19.937600   77.175300
  H     65.674300   21.406000   76.392700
  C     66.777700   21.058300   78.251800
  H     66.068800   21.690800   78.677900
  H     67.665400   21.672800   77.991000
  C     67.083900   19.928700   79.235700
  H     67.647700   19.114000   78.847600
  H     66.212000   19.426200   79.546800
  H     67.653000   20.323700   80.104100
  H     65.322500   14.440700   78.157700
  H     69.490700   20.213700   73.855100

 Total Charge           Charge          ....    0
 Multiplicity           Mult            ....    1
 Number of Electrons    NEL             ....  134
 Basis Dimension        Dim             ....  322

ORBITAL ENERGIES
----------------

  NO   OCC          E(Eh)            E(eV)
   0   2.0000     -88.966005     -2420.8881
   1   2.0000     -88.964513     -2420.8475
   2   2.0000     -10.323629      -280.9202
   3   2.0000     -10.321144      -280.8526
   4   2.0000     -10.315218      -280.6914
   5   2.0000     -10.311563      -280.5919
   6   2.0000     -10.302745      -280.3520
   7   2.0000     -10.295487      -280.1544
   8   2.0000     -10.294406      -280.1250
   9   2.0000     -10.286214      -279.9021
  10   2.0000     -10.285494      -279.8825
  11   2.0000     -10.281916      -279.7852
  12   2.0000     -10.281894      -279.7846
  13   2.0000     -10.280851      -279.7562
  14   2.0000     -10.280371      -279.7431
  15   2.0000     -10.264334      -279.3067
  16   2.0000      -8.080100      -219.8707
  17   2.0000      -8.079811      -219.8628
  18   2.0000      -6.038601      -164.3187
  19   2.0000      -6.038105      -164.3052
  20   2.0000      -6.034686      -164.2122
  21   2.0000      -6.034184      -164.1985
  22   2.0000      -6.030926      -164.1098
  23   2.0000      -6.030813      -164.1068
  24   2.0000      -1.010863       -27.5070
  25   2.0000      -0.985005       -26.8034
  26   2.0000      -0.911629       -24.8067
  27   2.0000      -0.909508       -24.7490
  28   2.0000      -0.872473       -23.7412
  29   2.0000      -0.850989       -23.1566
  30   2.0000      -0.844380       -22.9768
  31   2.0000      -0.815238       -22.1837
  32   2.0000      -0.785117       -21.3641
  33   2.0000      -0.773072       -21.0364
  34   2.0000      -0.715888       -19.4803
  35   2.0000      -0.702274       -19.1099
  36   2.0000      -0.696189       -18.9443
  37   2.0000      -0.660416       -17.9708
  38   2.0000      -0.647223       -17.6118
  39   2.0000      -0.627962       -17.0877
  40   2.0000      -0.598921       -16.2975
  41   2.0000      -0.569513       -15.4972
  42   2.0000      -0.554731       -15.0950
  43   2.0000      -0.546484       -14.8706
  44   2.0000      -0.538965       -14.6660
  45   2.0000      -0.531749       -14.4696
  46   2.0000      -0.522384       -14.2148
  47   2.0000      -0.513981       -13.9861
  48   2.0000      -0.504630       -13.7317
  49   2.0000      -0.502943       -13.6858
  50   2.0000      -0.493304       -13.4235
  51   2.0000      -0.486668       -13.2429
  52   2.0000      -0.468883       -12.7589
  53   2.0000      -0.463906       -12.6235
  54   2.0000      -0.457443       -12.4477
  55   2.0000      -0.448218       -12.1966
  56   2.0000      -0.443063       -12.0564
  57   2.0000      -0.437718       -11.9109
  58   2.0000      -0.430029       -11.7017
  59   2.0000      -0.429060       -11.6753
  60   2.0000      -0.422717       -11.5027
  61   2.0000      -0.416814       -11.3421
  62   2.0000      -0.413175       -11.2431
  63   2.0000      -0.342029        -9.3071
  64   2.0000      -0.331675        -9.0253
  65   2.0000      -0.328890        -8.9496
  66   2.0000      -0.290259        -7.8983
  67   0.0000       0.029615         0.8059
  68   0.0000       0.064161         1.7459
  69   0.0000       0.112544         3.0625
  70   0.0000       0.120020         3.2659
  71   0.0000       0.131031         3.5655

MULLIKEN ATOMIC CHARGES
-----------------------
   0 S :    0.108728
   1 C :   -0.136508
   2 C :   -0.083076
   3 C :    0.074401
   4 C :   -0.150881
   5 H :   -0.044323
   6 C :    0.072383
   7 H :    0.038161
   8 H :    0.044559
   9 C :   -0.074271
  10 H :    0.025028
  11 H :    0.019928
  12 C :   -0.054000
  13 H :    0.035771
  14 H :    0.028015
  15 H :    0.038665
  16 S :    0.112778
  17 C :   -0.076298
  18 C :   -0.054259
  19 C :   -0.024241
  20 C :   -0.149965
  21 H :    0.018152
  22 C :    0.068391
  23 H :   -0.012886
  24 H :    0.024081
  25 C :   -0.024102
  26 H :    0.015545
  27 H :    0.025881
  28 C :   -0.028877
  29 H :    0.023148
  30 H :    0.015022
  31 H :    0.036580
  32 H :    0.044420
  33 H :    0.044046
Sum of atomic charges:   -0.0000000

LOEWDIN ATOMIC CHARGES
----------------------
   0 S :    0.395107
   1 C :   -0.187423
   2 C :   -0.055465
   3 C :   -0.051012
   4 C :   -0.195266
   5 H :    0.007674
   6 C :   -0.029675
   7 H :    0.034286
   8 H :    0.039701
   9 C :   -0.039896
  10 H :    0.020190
  11 H :    0.024519
  12 C :   -0.064332
  13 H :    0.020801
  14 H :    0.023608
  15 H :    0.030995
  16 S :    0.427720
  17 C :   -0.186911
  18 C :   -0.070720
  19 C :   -0.057974
  20 C :   -0.210653
  21 H :    0.031905
  22 C :   -0.032807
  23 H :    0.015983
  24 H :    0.035827
  25 C :   -0.026812
  26 H :    0.016801
  27 H :    0.024623
  28 C :   -0.062396
  29 H :    0.020951
  30 H :    0.020671
  31 H :    0.031445
  32 H :    0.024403
  33 H :    0.024130

  Mayer bond orders larger than 0.100000
B(  0-S ,  1-C ) :   1.1290 B(  0-S ,  4-C ) :   1.1513 B(  1-C ,  2-C ) :   1.6064
B(  1-C ,  4-C ) :   0.1035 B(  1-C , 32-H ) :   0.9798 B(  2-C ,  3-C ) :   1.2401
B(  2-C ,  6-C ) :   1.0003 B(  3-C ,  4-C ) :   1.5691 B(  3-C ,  5-H ) :   1.0114
B(  4-C , 20-C ) :   1.0290 B(  6-C ,  7-H ) :   0.9390 B(  6-C ,  8-H ) :   0.9373
B(  6-C ,  9-C ) :   1.0880 B(  9-C , 10-H ) :   0.9529 B(  9-C , 11-H ) :   0.9524
B(  9-C , 12-C ) :   1.0769 B( 12-C , 13-H ) :   0.9753 B( 12-C , 14-H ) :   0.9790
B( 12-C , 15-H ) :   0.9743 B( 16-S , 17-C ) :   1.1792 B( 16-S , 20-C ) :   1.1553
B( 17-C , 18-C ) :   1.5702 B( 17-C , 20-C ) :   0.1117 B( 17-C , 33-H ) :   0.9701
B( 18-C , 19-C ) :   1.2701 B( 18-C , 21-H ) :   0.9969 B( 19-C , 20-C ) :   1.5440
B( 19-C , 22-C ) :   1.0701 B( 22-C , 23-H ) :   0.9213 B( 22-C , 24-H ) :   0.9265
B( 22-C , 25-C ) :   1.0785 B( 25-C , 26-H ) :   0.9508 B( 25-C , 27-H ) :   0.9560
B( 25-C , 28-C ) :   1.0764 B( 28-C , 29-H ) :   0.9752 B( 28-C , 30-H ) :   0.9709
B( 28-C , 31-H ) :   0.9725

Dispersion correction           -0.015368613
FINAL SINGLE POINT ENERGY     -1339.873882035430

DIPOLE MOMENT
-------------
                                X             Y             Z
Electronic contribution:     20.80846     -10.15603      -8.90734
Nuclear contribution   :    -21.44494      10.41537       8.87681
                        -----------------------------------------
Total Dipole Moment    :     -0.63648       0.25934      -0.03053
                        -----------------------------------------
Magnitude (a.u.)       :      0.68796
Magnitude (Debye)      :      1.74866

Rotational constants in cm-1:     0.017860     0.009294     0.008373
Rotational constants in MHz :   535.419200   278.616871   251.025875

                             ****ORCA TERMINATED NORMALLY****
TOTAL RUN TIME: 0 days 0 hours 0 minutes 30 seconds 370 msec
