                         Program Version 4.2.1 -  RELEASE  -
|  1> ! wB97X-D3 SP def2-SVP
|  2> %pal
|  3> nprocs 16
|  4> end
|  5>
|  6> * xyz 0 1
|  7> S 	 0.396324 	 -13.5829 	 77.584
|  8> C 	 -0.305837 	 -14.3805 	 76.1515
|  9> C 	 -1.59235 	 -13.849 	 75.9136
| 10> C 	 -1.93824 	 -12.752 	 76.8374
| 11> C 	 -0.969248 	 -12.4497 	 77.747
| 12> H 	 -2.90845 	 -12.2318 	 76.8187
| 13> C 	 -2.61798 	 -14.4771 	 74.979
| 14> H 	 -3.58738 	 -14.1195 	 75.2531
| 15> H 	 -2.52017 	 -15.6041 	 74.8848
| 16> C 	 -2.33043 	 -13.8498 	 73.5694
| 17> H 	 -1.33997 	 -14.086 	 73.2377
| 18> H 	 -3.07097 	 -14.3045 	 72.94
| 19> C 	 -2.5374 	 -12.2416 	 73.4645
| 20> H 	 -1.73711 	 -11.7285 	 73.9402
| 21> H 	 -2.71349 	 -11.9657 	 72.3974
| 22> H 	 -3.4484 	 -11.9527 	 74.1169
| 23> S 	 0.338274 	 -10.3775 	 79.2391
| 24> C 	 -0.689503 	 -9.37258 	 80.317
| 25> C 	 -1.84062 	 -10.126 	 80.6486
| 26> C 	 -2.12849 	 -11.1574 	 79.7087
| 27> C 	 -1.0425 	 -11.5025 	 78.8629
| 28> H 	 -2.48959 	 -9.66182 	 81.4015
| 29> C 	 -3.51039 	 -11.8328 	 79.7065
| 30> H 	 -3.83956 	 -11.801 	 80.754
| 31> H 	 -3.33897 	 -12.9386 	 79.5435
| 32> C 	 -4.54784 	 -11.203 	 78.7466
| 33> H 	 -3.98049 	 -10.9401 	 77.7785
| 34> H 	 -4.94391 	 -10.205 	 79.1065
| 35> C 	 -5.76087 	 -12.0871 	 78.367
| 36> H 	 -6.57925 	 -11.6063 	 77.8056
| 37> H 	 -6.17778 	 -12.5998 	 79.3246
| 38> H 	 -5.59418 	 -12.9224 	 77.6792
| 39> H 	 0.140894 	 -15.2773 	 75.6763
| 40> H 	 -0.548312 	 -8.41704 	 80.7711
| 41> *
| 42>
| 43>                          ****END OF INPUT****

CARTESIAN COORDINATES (ANGSTROEM)
---------------------------------
  S      0.396324  -13.582900   77.584000
  C     -0.305837  -14.380500   76.151500
  C     -1.592350  -13.849000   75.913600
  C     -1.938240  -12.752000   76.837400
  C     -0.969248  -12.449700   77.747000
  H     -2.908450  -12.231800   76.818700
  C     -2.617980  -14.477100   74.979000
  H     -3.587380  -14.119500   75.253100
  H     -2.520170  -15.604100   74.884800
  C     -2.330430  -13.849800   73.569400
  H     -1.339970  -14.086000   73.237700
  H     -3.070970  -14.304500   72.940000
  C     -2.537400  -12.241600   73.464500
  H     -1.737110  -11.728500   73.940200
  H     -2.713490  -11.965700   72.397400
  H     -3.448400  -11.952700   74.116900
  S      0.338274  -10.377500   79.239100
  C     -0.689503   -9.372580   80.317000
  C     -1.840620  -10.126000   80.648600
  C     -2.128490  -11.157400   79.708700
  C     -1.042500  -11.502500   78.862900
  H     -2.489590   -9.661820   81.401500
  C     -3.510390  -11.832800   79.706500
  H     -3.839560  -11.801000   80.754000
  H     -3.338970  -12.938600   79.543500
  C     -4.547840  -11.203000   78.746600
  H     -3.980490  -10.940100   77.778500
  H     -4.943910  -10.205000   79.106500
  C     -5.760870  -12.087100   78.367000
  H     -6.579250  -11.606300   77.805600
  H     -6.177780  -12.599800   79.324600
  H     -5.594180  -12.922400   77.679200
  H      0.140894  -15.277300   75.676300
  H     -0.548312   -8.417040   80.771100

 Total Charge           Charge          ....    0
 Multiplicity           Mult            ....    1
 Number of Electrons    NEL             ....  134
 Basis Dimension        Dim             ....  322

ORBITAL ENERGIES
----------------

  NO   OCC          E(Eh)            E(eV)
   0   2.0000     -88.970184     -2421.0018
   1   2.0000     -88.964212     -2420.8393
   2   2.0000     -10.338528      -281.3256
   3   2.0000     -10.335882      -281.2536
   4   2.0000     -10.327555      -281.0271
   5   2.0000     -10.322432      -280.8877
   6   2.0000     -10.314394      -280.6689
   7   2.0000     -10.310043      -280.5505
   8   2.0000     -10.306798      -280.4622
   9   2.0000     -10.302559      -280.3469
  10   2.0000     -10.301602      -280.3208
  11   2.0000     -10.299981      -280.2767
  12   2.0000     -10.299726      -280.2698
  13   2.0000     -10.292329      -280.0685
  14   2.0000     -10.287845      -279.9465
  15   2.0000     -10.287586      -279.9394
  16   2.0000      -8.082771      -219.9434
  17   2.0000      -8.077998      -219.8135
  18   2.0000      -6.041527      -164.3983
  19   2.0000      -6.037599      -164.2914
  20   2.0000      -6.036768      -164.2688
  21   2.0000      -6.033330      -164.1753
  22   2.0000      -6.032636      -164.1564
  23   2.0000      -6.028527      -164.0446
  24   2.0000      -0.994992       -27.0751
  25   2.0000      -0.972621       -26.4664
  26   2.0000      -0.904724       -24.6188
  27   2.0000      -0.901380       -24.5278
  28   2.0000      -0.862537       -23.4708
  29   2.0000      -0.845570       -23.0091
  30   2.0000      -0.832524       -22.6541
  31   2.0000      -0.812086       -22.0980
  32   2.0000      -0.779283       -21.2054
  33   2.0000      -0.768062       -20.9000
  34   2.0000      -0.706530       -19.2257
  35   2.0000      -0.698674       -19.0119
  36   2.0000      -0.693552       -18.8725
  37   2.0000      -0.659496       -17.9458
  38   2.0000      -0.638207       -17.3665
  39   2.0000      -0.613136       -16.6843
  40   2.0000      -0.587277       -15.9806
  41   2.0000      -0.572880       -15.5888
  42   2.0000      -0.557281       -15.1644
  43   2.0000      -0.543026       -14.7765
  44   2.0000      -0.537033       -14.6134
  45   2.0000      -0.524226       -14.2649
  46   2.0000      -0.518830       -14.1181
  47   2.0000      -0.510327       -13.8867
  48   2.0000      -0.507019       -13.7967
  49   2.0000      -0.495277       -13.4772
  50   2.0000      -0.490031       -13.3344
  51   2.0000      -0.476843       -12.9756
  52   2.0000      -0.466587       -12.6965
  53   2.0000      -0.463209       -12.6046
  54   2.0000      -0.455787       -12.4026
  55   2.0000      -0.442300       -12.0356
  56   2.0000      -0.439485       -11.9590
  57   2.0000      -0.433762       -11.8033
  58   2.0000      -0.430324       -11.7097
  59   2.0000      -0.427473       -11.6321
  60   2.0000      -0.420626       -11.4458
  61   2.0000      -0.412824       -11.2335
  62   2.0000      -0.408257       -11.1092
  63   2.0000      -0.349761        -9.5175
  64   2.0000      -0.331448        -9.0192
  65   2.0000      -0.323359        -8.7991
  66   2.0000      -0.287370        -7.8197
  67   0.0000       0.020487         0.5575
  68   0.0000       0.056594         1.5400
  69   0.0000       0.097004         2.6396
  70   0.0000       0.112928         3.0729
  71   0.0000       0.124268         3.3815

MULLIKEN ATOMIC CHARGES
-----------------------
   0 S :    0.088068
   1 C :   -0.135754
   2 C :   -0.111546
   3 C :    0.014512
   4 C :   -0.102247
   5 H :   -0.001848
   6 C :    0.065218
   7 H :    0.015871
   8 H :    0.054733
   9 C :   -0.078563
  10 H :    0.030830
  11 H :    0.024712
  12 C :   -0.093086
  13 H :    0.051431
  14 H :    0.056004
  15 H :    0.028058
  16 S :    0.101228
  17 C :   -0.099564
  18 C :   -0.035942
  19 C :   -0.059685
  20 C :   -0.128503
  21 H :    0.033327
  22 C :    0.038933
  23 H :    0.028878
  24 H :    0.051689
  25 C :   -0.085832
  26 H :    0.047647
  27 H :    0.042706
  28 C :   -0.081149
  29 H :    0.040269
  30 H :    0.043448
  31 H :    0.028668
  32 H :    0.069819
  33 H :    0.057671
Sum of atomic charges:   -0.0000000

LOEWDIN ATOMIC CHARGES
----------------------
   0 S :    0.373902
   1 C :   -0.199607
   2 C :   -0.055464
   3 C :   -0.070152
   4 C :   -0.177743
   5 H :    0.031783
   6 C :   -0.028878
   7 H :    0.023394
   8 H :    0.042015
   9 C :   -0.030671
  10 H :    0.017146
  11 H :    0.015630
  12 C :   -0.070724
  13 H :    0.021203
  14 H :    0.033108
  15 H :    0.027858
  16 S :    0.366880
  17 C :   -0.163896
  18 C :   -0.074267
  19 C :   -0.048859
  20 C :   -0.184481
  21 H :    0.035056
  22 C :   -0.040106
  23 H :    0.032274
  24 H :    0.041358
  25 C :   -0.050255
  26 H :    0.028437
  27 H :    0.033462
  28 C :   -0.084134
  29 H :    0.030286
  30 H :    0.035444
  31 H :    0.022048
  32 H :    0.037461
  33 H :    0.030489

  Mayer bond orders larger than 0.100000
B(  0-S ,  1-C ) :   1.1209 B(  0-S ,  4-C ) :   1.1329 B(  1-C ,  2-C ) :   1.6195
B(  1-C , 32-H ) :   0.9655 B(  2-C ,  3-C ) :   1.2141 B(  2-C ,  6-C ) :   1.0258
B(  3-C ,  4-C ) :   1.5995 B(  3-C ,  5-H ) :   0.9844 B(  4-C , 20-C ) :   1.0529
B(  6-C ,  7-H ) :   0.9393 B(  6-C ,  8-H ) :   0.9494 B(  6-C ,  9-C ) :   1.0611
B(  9-C , 10-H ) :   0.9629 B(  9-C , 11-H ) :   0.9620 B(  9-C , 12-C ) :   1.0584
B( 12-C , 13-H ) :   0.9754 B( 12-C , 14-H ) :   0.9774 B( 12-C , 15-H ) :   0.9763
B( 16-S , 17-C ) :   1.1538 B( 16-S , 20-C ) :   1.1075 B( 17-C , 18-C ) :   1.6129
B( 17-C , 20-C ) :   0.1101 B( 17-C , 33-H ) :   0.9690 B( 18-C , 19-C ) :   1.2482
B( 18-C , 21-H ) :   0.9799 B( 19-C , 20-C ) :   1.5807 B( 19-C , 22-C ) :   1.0403
B( 22-C , 23-H ) :   0.9339 B( 22-C , 24-H ) :   0.9429 B( 22-C , 25-C ) :   1.0375
B( 25-C , 26-H ) :   0.9556 B( 25-C , 27-H ) :   0.9499 B( 25-C , 28-C ) :   1.0685
B( 28-C , 29-H ) :   0.9745 B( 28-C , 30-H ) :   0.9724 B( 28-C , 31-H ) :   0.9747

Dispersion correction           -0.015270490
FINAL SINGLE POINT ENERGY     -1339.851750326288

DIPOLE MOMENT
-------------
                                X             Y             Z
Electronic contribution:     26.15194       2.95651      13.99150
Nuclear contribution   :    -27.00027      -2.97583     -14.06797
                        -----------------------------------------
Total Dipole Moment    :     -0.84834      -0.01932      -0.07647
                        -----------------------------------------
Magnitude (a.u.)       :      0.85200
Magnitude (Debye)      :      2.16560

Rotational constants in cm-1:     0.017312     0.009682     0.007254
Rotational constants in MHz :   519.004813   290.257759   217.475335

                             ****ORCA TERMINATED NORMALLY****
TOTAL RUN TIME: 0 days 0 hours 0 minutes 33 seconds 228 msec
