                         Program Version 4.2.1 -  RELEASE  -
|  1> ! wB97X-D3 SP def2-SVP
|  2> %pal
|  3> nprocs 16
|  4> end
|  5>
|  6> * xyz 0 1
|  7> S 	 -39.3704 	 26.8455 	 77.9847
|  8> C 	 -39.9104 	 28.3054 	 78.9272
|  9> C 	 -40.8894 	 27.9609 	 79.8254
| 10> C 	 -40.9882 	 26.531 	 79.9528
| 11> C 	 -40.1268 	 25.7879 	 79.0987
| 12> H 	 -41.5814 	 25.9125 	 80.5985
| 13> C 	 -41.7754 	 28.8644 	 80.7213
| 14> H 	 -41.0412 	 29.4524 	 81.2691
| 15> H 	 -42.1633 	 28.142 	 81.4417
| 16> C 	 -42.8008 	 29.7663 	 80.0456
| 17> H 	 -42.2694 	 30.2499 	 79.2072
| 18> H 	 -43.66 	 29.2843 	 79.6419
| 19> C 	 -43.2449 	 30.8328 	 81.1375
| 20> H 	 -42.3981 	 31.3868 	 81.5115
| 21> H 	 -43.9328 	 31.6177 	 80.8066
| 22> H 	 -43.6204 	 30.242 	 81.9728
| 23> S 	 -39.9589 	 23.5258 	 77.451
| 24> C 	 -39.9366 	 21.9458 	 78.1445
| 25> C 	 -39.6397 	 21.9936 	 79.4521
| 26> C 	 -39.8279 	 23.3676 	 79.9926
| 27> C 	 -39.9716 	 24.3017 	 79.0338
| 28> H 	 -39.5756 	 21.023 	 79.9873
| 29> C 	 -39.848 	 23.6683 	 81.4872
| 30> H 	 -40.2208 	 22.8051 	 82.0567
| 31> H 	 -40.5553 	 24.5139 	 81.5182
| 32> C 	 -38.422 	 24 	 82.0807
| 33> H 	 -38.0139 	 24.954 	 81.7171
| 34> H 	 -37.661 	 23.2704 	 81.9507
| 35> C 	 -38.6907 	 24.3283 	 83.5803
| 36> H 	 -39.65 	 24.8662 	 83.6962
| 37> H 	 -37.8779 	 24.957 	 83.8645
| 38> H 	 -38.6154 	 23.422 	 84.2906
| 39> H 	 -39.6804 	 29.3746 	 78.7348
| 40> H 	 -39.8465 	 21.0772 	 77.4969
| 41> *
| 42>
| 43>                          ****END OF INPUT****

CARTESIAN COORDINATES (ANGSTROEM)
---------------------------------
  S    -39.370400   26.845500   77.984700
  C    -39.910400   28.305400   78.927200
  C    -40.889400   27.960900   79.825400
  C    -40.988200   26.531000   79.952800
  C    -40.126800   25.787900   79.098700
  H    -41.581400   25.912500   80.598500
  C    -41.775400   28.864400   80.721300
  H    -41.041200   29.452400   81.269100
  H    -42.163300   28.142000   81.441700
  C    -42.800800   29.766300   80.045600
  H    -42.269400   30.249900   79.207200
  H    -43.660000   29.284300   79.641900
  C    -43.244900   30.832800   81.137500
  H    -42.398100   31.386800   81.511500
  H    -43.932800   31.617700   80.806600
  H    -43.620400   30.242000   81.972800
  S    -39.958900   23.525800   77.451000
  C    -39.936600   21.945800   78.144500
  C    -39.639700   21.993600   79.452100
  C    -39.827900   23.367600   79.992600
  C    -39.971600   24.301700   79.033800
  H    -39.575600   21.023000   79.987300
  C    -39.848000   23.668300   81.487200
  H    -40.220800   22.805100   82.056700
  H    -40.555300   24.513900   81.518200
  C    -38.422000   24.000000   82.080700
  H    -38.013900   24.954000   81.717100
  H    -37.661000   23.270400   81.950700
  C    -38.690700   24.328300   83.580300
  H    -39.650000   24.866200   83.696200
  H    -37.877900   24.957000   83.864500
  H    -38.615400   23.422000   84.290600
  H    -39.680400   29.374600   78.734800
  H    -39.846500   21.077200   77.496900

 Total Charge           Charge          ....    0
 Multiplicity           Mult            ....    1
 Number of Electrons    NEL             ....  134
 Basis Dimension        Dim             ....  322

ORBITAL ENERGIES
----------------

  NO   OCC          E(Eh)            E(eV)
   0   2.0000     -88.969735     -2420.9896
   1   2.0000     -88.957148     -2420.6471
   2   2.0000     -10.335423      -281.2411
   3   2.0000     -10.326934      -281.0102
   4   2.0000     -10.320044      -280.8227
   5   2.0000     -10.313698      -280.6500
   6   2.0000     -10.306330      -280.4495
   7   2.0000     -10.304177      -280.3909
   8   2.0000     -10.297656      -280.2135
   9   2.0000     -10.297261      -280.2027
  10   2.0000     -10.296633      -280.1856
  11   2.0000     -10.295915      -280.1661
  12   2.0000     -10.293422      -280.0983
  13   2.0000     -10.286746      -279.9166
  14   2.0000     -10.282762      -279.8082
  15   2.0000     -10.280283      -279.7407
  16   2.0000      -8.083740      -219.9697
  17   2.0000      -8.073057      -219.6791
  18   2.0000      -6.042445      -164.4233
  19   2.0000      -6.038391      -164.3130
  20   2.0000      -6.034291      -164.2014
  21   2.0000      -6.031756      -164.1324
  22   2.0000      -6.027553      -164.0181
  23   2.0000      -6.023384      -163.9046
  24   2.0000      -1.006626       -27.3917
  25   2.0000      -0.983530       -26.7632
  26   2.0000      -0.912068       -24.8186
  27   2.0000      -0.903601       -24.5882
  28   2.0000      -0.869006       -23.6469
  29   2.0000      -0.849873       -23.1262
  30   2.0000      -0.838758       -22.8238
  31   2.0000      -0.812044       -22.0968
  32   2.0000      -0.780448       -21.2371
  33   2.0000      -0.768324       -20.9072
  34   2.0000      -0.712398       -19.3853
  35   2.0000      -0.701287       -19.0830
  36   2.0000      -0.693202       -18.8630
  37   2.0000      -0.660966       -17.9858
  38   2.0000      -0.636781       -17.3277
  39   2.0000      -0.613850       -16.7037
  40   2.0000      -0.590536       -16.0693
  41   2.0000      -0.571783       -15.5590
  42   2.0000      -0.565350       -15.3839
  43   2.0000      -0.556747       -15.1499
  44   2.0000      -0.529224       -14.4009
  45   2.0000      -0.522944       -14.2300
  46   2.0000      -0.514424       -13.9982
  47   2.0000      -0.508250       -13.8302
  48   2.0000      -0.505267       -13.7490
  49   2.0000      -0.499012       -13.5788
  50   2.0000      -0.486382       -13.2351
  51   2.0000      -0.480455       -13.0738
  52   2.0000      -0.475107       -12.9283
  53   2.0000      -0.460076       -12.5193
  54   2.0000      -0.455012       -12.3815
  55   2.0000      -0.452505       -12.3133
  56   2.0000      -0.446505       -12.1500
  57   2.0000      -0.442049       -12.0288
  58   2.0000      -0.434817       -11.8320
  59   2.0000      -0.426437       -11.6040
  60   2.0000      -0.419246       -11.4083
  61   2.0000      -0.416263       -11.3271
  62   2.0000      -0.404449       -11.0056
  63   2.0000      -0.355163        -9.6645
  64   2.0000      -0.331453        -9.0193
  65   2.0000      -0.323445        -8.8014
  66   2.0000      -0.292726        -7.9655
  67   0.0000       0.030161         0.8207
  68   0.0000       0.069701         1.8967
  69   0.0000       0.099863         2.7174
  70   0.0000       0.116825         3.1790
  71   0.0000       0.136025         3.7014

MULLIKEN ATOMIC CHARGES
-----------------------
   0 S :    0.110002
   1 C :   -0.144056
   2 C :   -0.073140
   3 C :    0.002842
   4 C :   -0.145427
   5 H :    0.014941
   6 C :    0.059693
   7 H :    0.032187
   8 H :    0.020279
   9 C :   -0.038359
  10 H :    0.030967
  11 H :    0.036671
  12 C :   -0.061304
  13 H :    0.023710
  14 H :    0.041914
  15 H :    0.034288
  16 S :    0.073860
  17 C :   -0.090256
  18 C :   -0.024905
  19 C :   -0.095828
  20 C :   -0.114457
  21 H :    0.037982
  22 C :    0.063476
  23 H :    0.031470
  24 H :    0.007680
  25 C :   -0.058689
  26 H :    0.036839
  27 H :    0.029766
  28 C :   -0.069433
  29 H :    0.039340
  30 H :    0.024332
  31 H :    0.043084
  32 H :    0.055973
  33 H :    0.064560
Sum of atomic charges:    0.0000000

LOEWDIN ATOMIC CHARGES
----------------------
   0 S :    0.400455
   1 C :   -0.192650
   2 C :   -0.059067
   3 C :   -0.076047
   4 C :   -0.195155
   5 H :    0.022560
   6 C :   -0.029369
   7 H :    0.035036
   8 H :    0.029643
   9 C :   -0.030730
  10 H :    0.026044
  11 H :    0.023089
  12 C :   -0.065368
  13 H :    0.021379
  14 H :    0.026602
  15 H :    0.026604
  16 S :    0.384282
  17 C :   -0.181120
  18 C :   -0.078758
  19 C :   -0.056630
  20 C :   -0.194817
  21 H :    0.039616
  22 C :   -0.030238
  23 H :    0.032516
  24 H :    0.030258
  25 C :   -0.029889
  26 H :    0.028997
  27 H :    0.020216
  28 C :   -0.071466
  29 H :    0.027432
  30 H :    0.019134
  31 H :    0.030159
  32 H :    0.036026
  33 H :    0.031257

  Mayer bond orders larger than 0.100000
B(  0-S ,  1-C ) :   1.1155 B(  0-S ,  4-C ) :   1.1658 B(  1-C ,  2-C ) :   1.6285
B(  1-C ,  4-C ) :   0.1023 B(  1-C , 32-H ) :   0.9655 B(  2-C ,  3-C ) :   1.2364
B(  2-C ,  6-C ) :   0.9944 B(  3-C ,  4-C ) :   1.5670 B(  3-C ,  5-H ) :   0.9818
B(  4-C , 20-C ) :   1.0219 B(  6-C ,  7-H ) :   0.9441 B(  6-C ,  8-H ) :   0.9409
B(  6-C ,  9-C ) :   1.0515 B(  9-C , 10-H ) :   0.9601 B(  9-C , 11-H ) :   0.9596
B(  9-C , 12-C ) :   1.0653 B( 12-C , 13-H ) :   0.9783 B( 12-C , 14-H ) :   0.9764
B( 12-C , 15-H ) :   0.9760 B( 16-S , 17-C ) :   1.1480 B( 16-S , 20-C ) :   1.1039
B( 17-C , 18-C ) :   1.6709 B( 17-C , 33-H ) :   0.9614 B( 18-C , 19-C ) :   1.1763
B( 18-C , 21-H ) :   0.9814 B( 19-C , 20-C ) :   1.6810 B( 19-C , 22-C ) :   1.0427
B( 22-C , 23-H ) :   0.9376 B( 22-C , 24-H ) :   0.9307 B( 22-C , 25-C ) :   1.0646
B( 25-C , 26-H ) :   0.9621 B( 25-C , 27-H ) :   0.9599 B( 25-C , 28-C ) :   1.0689
B( 28-C , 29-H ) :   0.9737 B( 28-C , 30-H ) :   0.9785 B( 28-C , 31-H ) :   0.9754

Dispersion correction           -0.013581561
FINAL SINGLE POINT ENERGY     -1339.858257245226

DIPOLE MOMENT
-------------
                                X             Y             Z
Electronic contribution:      7.15291     -12.81535     -25.47505
Nuclear contribution   :     -7.32440      12.89308      26.10015
                        -----------------------------------------
Total Dipole Moment    :     -0.17149       0.07774       0.62510
                        -----------------------------------------
Magnitude (a.u.)       :      0.65284
Magnitude (Debye)      :      1.65938

Rotational constants in cm-1:     0.019013     0.007814     0.006268
Rotational constants in MHz :   569.983442   234.251820   187.897250

                             ****ORCA TERMINATED NORMALLY****
TOTAL RUN TIME: 0 days 0 hours 0 minutes 29 seconds 119 msec
