                         Program Version 4.2.1 -  RELEASE  -
|  1> ! wB97X-D3 SP def2-SVP
|  2> %pal
|  3> nprocs 16
|  4> end
|  5>
|  6> * xyz 0 1
|  7> S 	 -31.8252 	 62.8356 	 110.493
|  8> C 	 -31.8854 	 62.2178 	 112.104
|  9> C 	 -33.139 	 61.9452 	 112.531
| 10> C 	 -34.0821 	 62.3399 	 111.545
| 11> C 	 -33.5449 	 62.8495 	 110.363
| 12> H 	 -35.1558 	 62.1378 	 111.611
| 13> C 	 -33.6382 	 61.6302 	 113.91
| 14> H 	 -34.7033 	 61.7597 	 113.773
| 15> H 	 -33.2684 	 62.3385 	 114.614
| 16> C 	 -33.4511 	 60.2482 	 114.496
| 17> H 	 -32.5221 	 59.9666 	 114.989
| 18> H 	 -34.0268 	 60.0572 	 115.343
| 19> C 	 -33.8335 	 59.0358 	 113.537
| 20> H 	 -33.6728 	 58.0249 	 113.985
| 21> H 	 -34.8794 	 59.0622 	 113.348
| 22> H 	 -33.4017 	 59.0529 	 112.56
| 23> S 	 -34.0072 	 62.0167 	 107.785
| 24> C 	 -35.4171 	 62.6247 	 106.993
| 25> C 	 -35.8325 	 63.8166 	 107.5
| 26> C 	 -35.136 	 64.1446 	 108.728
| 27> C 	 -34.2128 	 63.1775 	 109.075
| 28> H 	 -36.4603 	 64.4622 	 106.889
| 29> C 	 -35.4934 	 65.3282 	 109.625
| 30> H 	 -35.3611 	 66.1933 	 108.999
| 31> H 	 -34.84 	 65.3845 	 110.493
| 32> C 	 -36.9444 	 65.3224 	 110.228
| 33> H 	 -37.6515 	 65.2852 	 109.439
| 34> H 	 -37.0857 	 66.28 	 110.731
| 35> C 	 -37.2665 	 64.234 	 111.161
| 36> H 	 -37.268 	 63.3252 	 110.595
| 37> H 	 -38.2597 	 64.429 	 111.567
| 38> H 	 -36.6124 	 64.1245 	 112.028
| 39> H 	 -31.009 	 62.1777 	 112.77
| 40> H 	 -35.7815 	 62.4258 	 106.029
| 41> *
| 42>
| 43>                          ****END OF INPUT****

CARTESIAN COORDINATES (ANGSTROEM)
---------------------------------
  S    -31.825200   62.835600  110.493000
  C    -31.885400   62.217800  112.104000
  C    -33.139000   61.945200  112.531000
  C    -34.082100   62.339900  111.545000
  C    -33.544900   62.849500  110.363000
  H    -35.155800   62.137800  111.611000
  C    -33.638200   61.630200  113.910000
  H    -34.703300   61.759700  113.773000
  H    -33.268400   62.338500  114.614000
  C    -33.451100   60.248200  114.496000
  H    -32.522100   59.966600  114.989000
  H    -34.026800   60.057200  115.343000
  C    -33.833500   59.035800  113.537000
  H    -33.672800   58.024900  113.985000
  H    -34.879400   59.062200  113.348000
  H    -33.401700   59.052900  112.560000
  S    -34.007200   62.016700  107.785000
  C    -35.417100   62.624700  106.993000
  C    -35.832500   63.816600  107.500000
  C    -35.136000   64.144600  108.728000
  C    -34.212800   63.177500  109.075000
  H    -36.460300   64.462200  106.889000
  C    -35.493400   65.328200  109.625000
  H    -35.361100   66.193300  108.999000
  H    -34.840000   65.384500  110.493000
  C    -36.944400   65.322400  110.228000
  H    -37.651500   65.285200  109.439000
  H    -37.085700   66.280000  110.731000
  C    -37.266500   64.234000  111.161000
  H    -37.268000   63.325200  110.595000
  H    -38.259700   64.429000  111.567000
  H    -36.612400   64.124500  112.028000
  H    -31.009000   62.177700  112.770000
  H    -35.781500   62.425800  106.029000

 Total Charge           Charge          ....    0
 Multiplicity           Mult            ....    1
 Number of Electrons    NEL             ....  134
 Basis Dimension        Dim             ....  322

ORBITAL ENERGIES
----------------

  NO   OCC          E(Eh)            E(eV)
   0   2.0000     -88.965759     -2420.8814
   1   2.0000     -88.963979     -2420.8329
   2   2.0000     -10.329555      -281.0815
   3   2.0000     -10.326402      -280.9957
   4   2.0000     -10.310759      -280.5700
   5   2.0000     -10.310607      -280.5659
   6   2.0000     -10.305596      -280.4295
   7   2.0000     -10.294857      -280.1373
   8   2.0000     -10.294167      -280.1185
   9   2.0000     -10.292948      -280.0853
  10   2.0000     -10.290855      -280.0284
  11   2.0000     -10.288940      -279.9763
  12   2.0000     -10.282644      -279.8050
  13   2.0000     -10.278551      -279.6936
  14   2.0000     -10.271991      -279.5151
  15   2.0000     -10.268794      -279.4281
  16   2.0000      -8.081419      -219.9066
  17   2.0000      -8.079395      -219.8515
  18   2.0000      -6.039807      -164.3515
  19   2.0000      -6.038004      -164.3024
  20   2.0000      -6.035696      -164.2396
  21   2.0000      -6.033886      -164.1904
  22   2.0000      -6.032364      -164.1490
  23   2.0000      -6.029902      -164.0820
  24   2.0000      -1.011292       -27.5187
  25   2.0000      -0.991610       -26.9831
  26   2.0000      -0.913475       -24.8569
  27   2.0000      -0.910155       -24.7666
  28   2.0000      -0.868881       -23.6434
  29   2.0000      -0.852231       -23.1904
  30   2.0000      -0.847158       -23.0523
  31   2.0000      -0.816557       -22.2196
  32   2.0000      -0.786523       -21.4024
  33   2.0000      -0.776438       -21.1280
  34   2.0000      -0.713884       -19.4258
  35   2.0000      -0.703831       -19.1522
  36   2.0000      -0.692306       -18.8386
  37   2.0000      -0.655878       -17.8474
  38   2.0000      -0.639934       -17.4135
  39   2.0000      -0.618404       -16.8276
  40   2.0000      -0.594773       -16.1846
  41   2.0000      -0.569916       -15.5082
  42   2.0000      -0.556328       -15.1384
  43   2.0000      -0.554759       -15.0958
  44   2.0000      -0.549196       -14.9444
  45   2.0000      -0.543021       -14.7764
  46   2.0000      -0.519068       -14.1245
  47   2.0000      -0.506650       -13.7867
  48   2.0000      -0.503502       -13.7010
  49   2.0000      -0.494851       -13.4656
  50   2.0000      -0.488049       -13.2805
  51   2.0000      -0.475313       -12.9339
  52   2.0000      -0.467287       -12.7155
  53   2.0000      -0.465169       -12.6579
  54   2.0000      -0.461347       -12.5539
  55   2.0000      -0.448024       -12.1914
  56   2.0000      -0.446633       -12.1535
  57   2.0000      -0.440501       -11.9866
  58   2.0000      -0.436511       -11.8781
  59   2.0000      -0.427462       -11.6318
  60   2.0000      -0.418137       -11.3781
  61   2.0000      -0.414107       -11.2684
  62   2.0000      -0.406752       -11.0683
  63   2.0000      -0.341661        -9.2971
  64   2.0000      -0.333156        -9.0656
  65   2.0000      -0.324977        -8.8431
  66   2.0000      -0.304208        -8.2779
  67   0.0000       0.042642         1.1604
  68   0.0000       0.057091         1.5535
  69   0.0000       0.110665         3.0113
  70   0.0000       0.119860         3.2616
  71   0.0000       0.131781         3.5859

MULLIKEN ATOMIC CHARGES
-----------------------
   0 S :    0.115851
   1 C :   -0.129707
   2 C :   -0.086490
   3 C :    0.023665
   4 C :   -0.171577
   5 H :    0.015481
   6 C :    0.119795
   7 H :    0.015143
   8 H :    0.035718
   9 C :   -0.043524
  10 H :    0.015182
  11 H :    0.006421
  12 C :   -0.080079
  13 H :    0.034367
  14 H :    0.013208
  15 H :    0.041363
  16 S :    0.117525
  17 C :   -0.049916
  18 C :   -0.064435
  19 C :   -0.042295
  20 C :   -0.167360
  21 H :    0.028266
  22 C :    0.084812
  23 H :    0.026906
  24 H :    0.028191
  25 C :   -0.068088
  26 H :    0.012515
  27 H :    0.023426
  28 C :   -0.035682
  29 H :    0.037701
  30 H :    0.028908
  31 H :    0.026750
  32 H :    0.053256
  33 H :    0.034702
Sum of atomic charges:    0.0000000

LOEWDIN ATOMIC CHARGES
----------------------
   0 S :    0.428404
   1 C :   -0.198714
   2 C :   -0.073665
   3 C :   -0.062892
   4 C :   -0.207643
   5 H :    0.031329
   6 C :   -0.022371
   7 H :    0.034346
   8 H :    0.034839
   9 C :   -0.043120
  10 H :    0.022438
  11 H :    0.019811
  12 C :   -0.068019
  13 H :    0.030791
  14 H :    0.016382
  15 H :    0.021553
  16 S :    0.412538
  17 C :   -0.181627
  18 C :   -0.074580
  19 C :   -0.052441
  20 C :   -0.206051
  21 H :    0.033751
  22 C :   -0.025307
  23 H :    0.031260
  24 H :    0.030199
  25 C :   -0.036823
  26 H :    0.015995
  27 H :    0.023320
  28 C :   -0.062986
  29 H :    0.023398
  30 H :    0.029798
  31 H :    0.021374
  32 H :    0.033034
  33 H :    0.021678

  Mayer bond orders larger than 0.100000
B(  0-S ,  1-C ) :   1.1564 B(  0-S ,  4-C ) :   1.1690 B(  1-C ,  2-C ) :   1.6024
B(  1-C , 32-H ) :   0.9638 B(  2-C ,  3-C ) :   1.2654 B(  2-C ,  6-C ) :   1.0122
B(  3-C ,  4-C ) :   1.5788 B(  3-C ,  5-H ) :   0.9814 B(  4-C , 20-C ) :   0.9839
B(  6-C ,  7-H ) :   0.9373 B(  6-C ,  8-H ) :   0.9382 B(  6-C ,  9-C ) :   1.0705
B(  9-C , 10-H ) :   0.9558 B(  9-C , 11-H ) :   0.9501 B(  9-C , 12-C ) :   1.0671
B( 12-C , 13-H ) :   0.9767 B( 12-C , 14-H ) :   0.9781 B( 12-C , 15-H ) :   0.9778
B( 16-S , 17-C ) :   1.1539 B( 16-S , 20-C ) :   1.1313 B( 17-C , 18-C ) :   1.6491
B( 17-C , 33-H ) :   0.9619 B( 18-C , 19-C ) :   1.2075 B( 18-C , 21-H ) :   0.9848
B( 19-C , 20-C ) :   1.6302 B( 19-C , 22-C ) :   1.0485 B( 22-C , 23-H ) :   0.9297
B( 22-C , 24-H ) :   0.9381 B( 22-C , 25-C ) :   1.0715 B( 25-C , 26-H ) :   0.9531
B( 25-C , 27-H ) :   0.9551 B( 25-C , 28-C ) :   1.0920 B( 28-C , 29-H ) :   0.9703
B( 28-C , 30-H ) :   0.9647 B( 28-C , 31-H ) :   0.9695

Dispersion correction           -0.015250905
FINAL SINGLE POINT ENERGY     -1339.868105188154

DIPOLE MOMENT
-------------
                                X             Y             Z
Electronic contribution:     15.29296       1.78983     -19.80093
Nuclear contribution   :    -15.74825      -1.54283      20.14509
                        -----------------------------------------
Total Dipole Moment    :     -0.45530       0.24700       0.34416
                        -----------------------------------------
Magnitude (a.u.)       :      0.62189
Magnitude (Debye)      :      1.58072

Rotational constants in cm-1:     0.019462     0.008777     0.007538
Rotational constants in MHz :   583.445479   263.141960   225.982903

                             ****ORCA TERMINATED NORMALLY****
TOTAL RUN TIME: 0 days 0 hours 0 minutes 30 seconds 849 msec
