                         Program Version 4.2.1 -  RELEASE  -
|  1> ! wB97X-D3 SP def2-SVP
|  2> %pal
|  3> nprocs 16
|  4> end
|  5>
|  6> * xyz 0 1
|  7> S 	 -1.40566 	 -7.75231 	 85.3885
|  8> C 	 -0.94967 	 -9.38504 	 85.9679
|  9> C 	 -2.05648 	 -10.2091 	 86.0848
| 10> C 	 -3.2246 	 -9.59059 	 85.6452
| 11> C 	 -3.076 	 -8.22936 	 85.3732
| 12> H 	 -4.17203 	 -10.1383 	 85.4497
| 13> C 	 -1.92783 	 -11.7481 	 86.0921
| 14> H 	 -0.981952 	 -12.156 	 86.4595
| 15> H 	 -2.29307 	 -12.1547 	 85.127
| 16> C 	 -2.91625 	 -12.3457 	 87.1267
| 17> H 	 -2.54538 	 -11.9082 	 88.0796
| 18> H 	 -3.90998 	 -12.1361 	 86.7766
| 19> C 	 -2.77183 	 -13.8899 	 87.2384
| 20> H 	 -1.89934 	 -14.1717 	 87.824
| 21> H 	 -3.62842 	 -14.2239 	 87.7993
| 22> H 	 -2.79687 	 -14.3293 	 86.2076
| 23> S 	 -3.84017 	 -6.44351 	 83.4329
| 24> C 	 -5.39077 	 -5.70982 	 83.6777
| 25> C 	 -5.96025 	 -5.85141 	 84.9183
| 26> C 	 -5.16949 	 -6.80854 	 85.6547
| 27> C 	 -4.0216 	 -7.28562 	 84.9353
| 28> H 	 -6.93613 	 -5.40378 	 85.1602
| 29> C 	 -5.45998 	 -7.21952 	 87.0454
| 30> H 	 -4.99042 	 -6.49715 	 87.7329
| 31> H 	 -4.83924 	 -8.04555 	 87.2718
| 32> C 	 -6.92638 	 -7.60822 	 87.2912
| 33> H 	 -7.10138 	 -8.32851 	 86.5077
| 34> H 	 -7.55304 	 -6.70392 	 87.127
| 35> C 	 -7.08933 	 -8.28715 	 88.7526
| 36> H 	 -8.16265 	 -8.37048 	 88.9751
| 37> H 	 -6.70997 	 -7.65592 	 89.5883
| 38> H 	 -6.51265 	 -9.21575 	 88.8433
| 39> H 	 -0.00308398 	 -9.83421 	 85.9582
| 40> H 	 -5.87673 	 -4.98954 	 83.0206
| 41> *
| 42>
| 43>                          ****END OF INPUT****

CARTESIAN COORDINATES (ANGSTROEM)
---------------------------------
  S     -1.405660   -7.752310   85.388500
  C     -0.949670   -9.385040   85.967900
  C     -2.056480  -10.209100   86.084800
  C     -3.224600   -9.590590   85.645200
  C     -3.076000   -8.229360   85.373200
  H     -4.172030  -10.138300   85.449700
  C     -1.927830  -11.748100   86.092100
  H     -0.981952  -12.156000   86.459500
  H     -2.293070  -12.154700   85.127000
  C     -2.916250  -12.345700   87.126700
  H     -2.545380  -11.908200   88.079600
  H     -3.909980  -12.136100   86.776600
  C     -2.771830  -13.889900   87.238400
  H     -1.899340  -14.171700   87.824000
  H     -3.628420  -14.223900   87.799300
  H     -2.796870  -14.329300   86.207600
  S     -3.840170   -6.443510   83.432900
  C     -5.390770   -5.709820   83.677700
  C     -5.960250   -5.851410   84.918300
  C     -5.169490   -6.808540   85.654700
  C     -4.021600   -7.285620   84.935300
  H     -6.936130   -5.403780   85.160200
  C     -5.459980   -7.219520   87.045400
  H     -4.990420   -6.497150   87.732900
  H     -4.839240   -8.045550   87.271800
  C     -6.926380   -7.608220   87.291200
  H     -7.101380   -8.328510   86.507700
  H     -7.553040   -6.703920   87.127000
  C     -7.089330   -8.287150   88.752600
  H     -8.162650   -8.370480   88.975100
  H     -6.709970   -7.655920   89.588300
  H     -6.512650   -9.215750   88.843300
  H     -0.003084   -9.834210   85.958200
  H     -5.876730   -4.989540   83.020600

 Total Charge           Charge          ....    0
 Multiplicity           Mult            ....    1
 Number of Electrons    NEL             ....  134
 Basis Dimension        Dim             ....  322

ORBITAL ENERGIES
----------------

  NO   OCC          E(Eh)            E(eV)
   0   2.0000     -88.970909     -2421.0215
   1   2.0000     -88.967992     -2420.9421
   2   2.0000     -10.325807      -280.9795
   3   2.0000     -10.320074      -280.8235
   4   2.0000     -10.316140      -280.7164
   5   2.0000     -10.310346      -280.5588
   6   2.0000     -10.305341      -280.4226
   7   2.0000     -10.297655      -280.2134
   8   2.0000     -10.297131      -280.1992
   9   2.0000     -10.295706      -280.1604
  10   2.0000     -10.295235      -280.1476
  11   2.0000     -10.294176      -280.1188
  12   2.0000     -10.287551      -279.9385
  13   2.0000     -10.285865      -279.8926
  14   2.0000     -10.280659      -279.7510
  15   2.0000     -10.277631      -279.6686
  16   2.0000      -8.085985      -220.0308
  17   2.0000      -8.082237      -219.9288
  18   2.0000      -6.044347      -164.4750
  19   2.0000      -6.040706      -164.3760
  20   2.0000      -6.040617      -164.3736
  21   2.0000      -6.036882      -164.2719
  22   2.0000      -6.036716      -164.2674
  23   2.0000      -6.032996      -164.1662
  24   2.0000      -1.010064       -27.4852
  25   2.0000      -0.983806       -26.7707
  26   2.0000      -0.912973       -24.8432
  27   2.0000      -0.907005       -24.6809
  28   2.0000      -0.874147       -23.7867
  29   2.0000      -0.845698       -23.0126
  30   2.0000      -0.843309       -22.9476
  31   2.0000      -0.812438       -22.1076
  32   2.0000      -0.782258       -21.2863
  33   2.0000      -0.765936       -20.8422
  34   2.0000      -0.711750       -19.3677
  35   2.0000      -0.703560       -19.1448
  36   2.0000      -0.682710       -18.5775
  37   2.0000      -0.650317       -17.6960
  38   2.0000      -0.639634       -17.4053
  39   2.0000      -0.623086       -16.9550
  40   2.0000      -0.595682       -16.2093
  41   2.0000      -0.582481       -15.8501
  42   2.0000      -0.566831       -15.4242
  43   2.0000      -0.558883       -15.2080
  44   2.0000      -0.524300       -14.2669
  45   2.0000      -0.517529       -14.0827
  46   2.0000      -0.512215       -13.9381
  47   2.0000      -0.506107       -13.7719
  48   2.0000      -0.503086       -13.6897
  49   2.0000      -0.493829       -13.4378
  50   2.0000      -0.485385       -13.2080
  51   2.0000      -0.481062       -13.0904
  52   2.0000      -0.472634       -12.8610
  53   2.0000      -0.468527       -12.7493
  54   2.0000      -0.463294       -12.6069
  55   2.0000      -0.455398       -12.3920
  56   2.0000      -0.445219       -12.1150
  57   2.0000      -0.438262       -11.9257
  58   2.0000      -0.434103       -11.8126
  59   2.0000      -0.423618       -11.5272
  60   2.0000      -0.416040       -11.3210
  61   2.0000      -0.415912       -11.3175
  62   2.0000      -0.411650       -11.2016
  63   2.0000      -0.342080        -9.3085
  64   2.0000      -0.334432        -9.1004
  65   2.0000      -0.328612        -8.9420
  66   2.0000      -0.286617        -7.7992
  67   0.0000       0.026913         0.7323
  68   0.0000       0.062995         1.7142
  69   0.0000       0.102589         2.7916
  70   0.0000       0.117543         3.1985
  71   0.0000       0.129723         3.5299

MULLIKEN ATOMIC CHARGES
-----------------------
   0 S :    0.106639
   1 C :   -0.087661
   2 C :   -0.057594
   3 C :    0.019018
   4 C :   -0.192495
   5 H :    0.032001
   6 C :    0.036881
   7 H :    0.021595
   8 H :    0.041303
   9 C :   -0.136471
  10 H :    0.039489
  11 H :    0.029714
  12 C :   -0.033787
  13 H :    0.035794
  14 H :    0.032188
  15 H :    0.035326
  16 S :    0.133619
  17 C :   -0.080687
  18 C :   -0.047419
  19 C :   -0.065886
  20 C :   -0.148276
  21 H :    0.037532
  22 C :    0.103161
  23 H :    0.034861
  24 H :   -0.005076
  25 C :   -0.096922
  26 H :    0.036407
  27 H :    0.041789
  28 C :   -0.060833
  29 H :    0.041290
  30 H :    0.032778
  31 H :    0.043997
  32 H :    0.027089
  33 H :    0.050638
Sum of atomic charges:   -0.0000000

LOEWDIN ATOMIC CHARGES
----------------------
   0 S :    0.399735
   1 C :   -0.181120
   2 C :   -0.067779
   3 C :   -0.064830
   4 C :   -0.195641
   5 H :    0.037647
   6 C :   -0.026871
   7 H :    0.027164
   8 H :    0.032521
   9 C :   -0.042421
  10 H :    0.028960
  11 H :    0.015212
  12 C :   -0.067953
  13 H :    0.024272
  14 H :    0.025119
  15 H :    0.028667
  16 S :    0.425237
  17 C :   -0.185910
  18 C :   -0.075040
  19 C :   -0.037945
  20 C :   -0.229610
  21 H :    0.040041
  22 C :   -0.046469
  23 H :    0.037438
  24 H :    0.022977
  25 C :   -0.033231
  26 H :    0.025307
  27 H :    0.024328
  28 C :   -0.071028
  29 H :    0.027372
  30 H :    0.028629
  31 H :    0.028758
  32 H :    0.017366
  33 H :    0.029099

  Mayer bond orders larger than 0.100000
B(  0-S ,  1-C ) :   1.1295 B(  0-S ,  4-C ) :   1.1540 B(  1-C ,  2-C ) :   1.6086
B(  1-C ,  4-C ) :   0.1079 B(  1-C , 32-H ) :   0.9710 B(  2-C ,  3-C ) :   1.2521
B(  2-C ,  6-C ) :   1.0365 B(  3-C ,  4-C ) :   1.5574 B(  3-C ,  5-H ) :   0.9850
B(  4-C , 20-C ) :   1.0783 B(  6-C ,  7-H ) :   0.9506 B(  6-C ,  8-H ) :   0.9462
B(  6-C ,  9-C ) :   1.0417 B(  9-C , 10-H ) :   0.9608 B(  9-C , 11-H ) :   0.9613
B(  9-C , 12-C ) :   1.0886 B( 12-C , 13-H ) :   0.9744 B( 12-C , 14-H ) :   0.9746
B( 12-C , 15-H ) :   0.9712 B( 16-S , 17-C ) :   1.1674 B( 16-S , 20-C ) :   1.1303
B( 17-C , 18-C ) :   1.6235 B( 17-C , 33-H ) :   0.9576 B( 18-C , 19-C ) :   1.2371
B( 18-C , 21-H ) :   0.9848 B( 19-C , 20-C ) :   1.5505 B( 19-C , 22-C ) :   1.0670
B( 22-C , 23-H ) :   0.9142 B( 22-C , 24-H ) :   0.9172 B( 22-C , 25-C ) :   1.0417
B( 25-C , 26-H ) :   0.9619 B( 25-C , 27-H ) :   0.9583 B( 25-C , 28-C ) :   1.0692
B( 28-C , 29-H ) :   0.9778 B( 28-C , 30-H ) :   0.9768 B( 28-C , 31-H ) :   0.9758

Dispersion correction           -0.013775831
FINAL SINGLE POINT ENERGY     -1339.856559831549

DIPOLE MOMENT
-------------
                                X             Y             Z
Electronic contribution:     12.61481      21.86095     -19.14174
Nuclear contribution   :    -13.01229     -22.20029      19.33201
                        -----------------------------------------
Total Dipole Moment    :     -0.39748      -0.33934       0.19027
                        -----------------------------------------
Magnitude (a.u.)       :      0.55619
Magnitude (Debye)      :      1.41372

Rotational constants in cm-1:     0.016703     0.009036     0.006540
Rotational constants in MHz :   500.752777   270.880724   196.064034

                             ****ORCA TERMINATED NORMALLY****
TOTAL RUN TIME: 0 days 0 hours 0 minutes 33 seconds 971 msec
