                         Program Version 4.2.1 -  RELEASE  -
|  1> ! wB97X-D3 SP def2-SVP
|  2> %pal
|  3> nprocs 16
|  4> end
|  5>
|  6> * xyz 0 1
|  7> S 	 0.736935 	 -4.7006 	 89.9295
|  8> C 	 2.16347 	 -5.48584 	 89.3363
|  9> C 	 1.90662 	 -6.11801 	 88.1004
| 10> C 	 0.539928 	 -5.91458 	 87.7071
| 11> C 	 -0.173268 	 -4.94923 	 88.4296
| 12> H 	 0.112276 	 -6.22123 	 86.7719
| 13> C 	 2.87283 	 -7.13289 	 87.4646
| 14> H 	 3.74375 	 -6.62638 	 87.3471
| 15> H 	 2.43243 	 -7.31991 	 86.4514
| 16> C 	 3.15836 	 -8.4125 	 88.3582
| 17> H 	 4.12991 	 -8.83143 	 88.1996
| 18> H 	 3.33666 	 -8.01362 	 89.3261
| 19> C 	 2.06607 	 -9.52829 	 88.326
| 20> H 	 1.02207 	 -9.09203 	 88.2495
| 21> H 	 2.19713 	 -10.1047 	 87.4055
| 22> H 	 2.16488 	 -10.3546 	 89.0889
| 23> S 	 -1.88121 	 -4.00094 	 86.4907
| 24> C 	 -3.47983 	 -3.65824 	 86.9177
| 25> C 	 -3.7834 	 -3.80831 	 88.2846
| 26> C 	 -2.69665 	 -4.36385 	 88.9831
| 27> C 	 -1.52365 	 -4.51645 	 88.1499
| 28> H 	 -4.78868 	 -3.70144 	 88.741
| 29> C 	 -2.84091 	 -4.55914 	 90.5108
| 30> H 	 -3.55082 	 -3.77748 	 91.0229
| 31> H 	 -1.85963 	 -4.1 	 90.9288
| 32> C 	 -3.14649 	 -5.93048 	 91.0347
| 33> H 	 -3.08468 	 -5.87059 	 92.1047
| 34> H 	 -2.47189 	 -6.67002 	 90.7285
| 35> C 	 -4.55673 	 -6.49361 	 90.6487
| 36> H 	 -4.80379 	 -6.5715 	 89.594
| 37> H 	 -5.2323 	 -5.86959 	 91.1111
| 38> H 	 -4.74141 	 -7.40996 	 91.1559
| 39> H 	 3.02727 	 -5.58051 	 89.9344
| 40> H 	 -4.22807 	 -3.2115 	 86.2637
| 41> *
| 42>
| 43>                          ****END OF INPUT****

CARTESIAN COORDINATES (ANGSTROEM)
---------------------------------
  S      0.736935   -4.700600   89.929500
  C      2.163470   -5.485840   89.336300
  C      1.906620   -6.118010   88.100400
  C      0.539928   -5.914580   87.707100
  C     -0.173268   -4.949230   88.429600
  H      0.112276   -6.221230   86.771900
  C      2.872830   -7.132890   87.464600
  H      3.743750   -6.626380   87.347100
  H      2.432430   -7.319910   86.451400
  C      3.158360   -8.412500   88.358200
  H      4.129910   -8.831430   88.199600
  H      3.336660   -8.013620   89.326100
  C      2.066070   -9.528290   88.326000
  H      1.022070   -9.092030   88.249500
  H      2.197130  -10.104700   87.405500
  H      2.164880  -10.354600   89.088900
  S     -1.881210   -4.000940   86.490700
  C     -3.479830   -3.658240   86.917700
  C     -3.783400   -3.808310   88.284600
  C     -2.696650   -4.363850   88.983100
  C     -1.523650   -4.516450   88.149900
  H     -4.788680   -3.701440   88.741000
  C     -2.840910   -4.559140   90.510800
  H     -3.550820   -3.777480   91.022900
  H     -1.859630   -4.100000   90.928800
  C     -3.146490   -5.930480   91.034700
  H     -3.084680   -5.870590   92.104700
  H     -2.471890   -6.670020   90.728500
  C     -4.556730   -6.493610   90.648700
  H     -4.803790   -6.571500   89.594000
  H     -5.232300   -5.869590   91.111100
  H     -4.741410   -7.409960   91.155900
  H      3.027270   -5.580510   89.934400
  H     -4.228070   -3.211500   86.263700

 Total Charge           Charge          ....    0
 Multiplicity           Mult            ....    1
 Number of Electrons    NEL             ....  134
 Basis Dimension        Dim             ....  322

ORBITAL ENERGIES
----------------

  NO   OCC          E(Eh)            E(eV)
   0   2.0000     -88.975772     -2421.1538
   1   2.0000     -88.965838     -2420.8835
   2   2.0000     -10.334018      -281.2029
   3   2.0000     -10.331234      -281.1272
   4   2.0000     -10.317012      -280.7402
   5   2.0000     -10.313485      -280.6442
   6   2.0000     -10.308984      -280.5217
   7   2.0000     -10.305830      -280.4359
   8   2.0000     -10.304312      -280.3946
   9   2.0000     -10.295174      -280.1459
  10   2.0000     -10.293437      -280.0987
  11   2.0000     -10.293406      -280.0978
  12   2.0000     -10.288535      -279.9653
  13   2.0000     -10.286828      -279.9188
  14   2.0000     -10.279076      -279.7079
  15   2.0000     -10.265820      -279.3472
  16   2.0000      -8.090498      -220.1537
  17   2.0000      -8.079964      -219.8670
  18   2.0000      -6.048733      -164.5944
  19   2.0000      -6.044937      -164.4911
  20   2.0000      -6.041630      -164.4011
  21   2.0000      -6.038484      -164.3155
  22   2.0000      -6.034478      -164.2065
  23   2.0000      -6.030844      -164.1076
  24   2.0000      -1.003639       -27.3104
  25   2.0000      -0.982587       -26.7376
  26   2.0000      -0.907308       -24.6891
  27   2.0000      -0.902435       -24.5565
  28   2.0000      -0.866613       -23.5817
  29   2.0000      -0.853409       -23.2224
  30   2.0000      -0.841027       -22.8855
  31   2.0000      -0.807803       -21.9814
  32   2.0000      -0.785274       -21.3684
  33   2.0000      -0.769312       -20.9340
  34   2.0000      -0.710577       -19.3358
  35   2.0000      -0.708725       -19.2854
  36   2.0000      -0.686670       -18.6852
  37   2.0000      -0.663723       -18.0608
  38   2.0000      -0.638781       -17.3821
  39   2.0000      -0.609992       -16.5987
  40   2.0000      -0.594067       -16.1654
  41   2.0000      -0.565280       -15.3820
  42   2.0000      -0.551207       -14.9991
  43   2.0000      -0.548589       -14.9279
  44   2.0000      -0.543124       -14.7791
  45   2.0000      -0.533422       -14.5151
  46   2.0000      -0.513183       -13.9644
  47   2.0000      -0.506209       -13.7746
  48   2.0000      -0.497614       -13.5408
  49   2.0000      -0.488069       -13.2810
  50   2.0000      -0.485286       -13.2053
  51   2.0000      -0.479363       -13.0441
  52   2.0000      -0.471102       -12.8193
  53   2.0000      -0.469079       -12.7643
  54   2.0000      -0.458968       -12.4892
  55   2.0000      -0.450109       -12.2481
  56   2.0000      -0.445775       -12.1302
  57   2.0000      -0.444476       -12.0948
  58   2.0000      -0.438216       -11.9245
  59   2.0000      -0.424739       -11.5577
  60   2.0000      -0.420256       -11.4358
  61   2.0000      -0.410615       -11.1734
  62   2.0000      -0.397808       -10.8249
  63   2.0000      -0.349027        -9.4975
  64   2.0000      -0.339139        -9.2284
  65   2.0000      -0.326581        -8.8867
  66   2.0000      -0.280793        -7.6408
  67   0.0000       0.019103         0.5198
  68   0.0000       0.068338         1.8596
  69   0.0000       0.104117         2.8332
  70   0.0000       0.113408         3.0860
  71   0.0000       0.123905         3.3716

MULLIKEN ATOMIC CHARGES
-----------------------
   0 S :    0.099162
   1 C :   -0.111696
   2 C :   -0.104383
   3 C :    0.011299
   4 C :   -0.131276
   5 H :    0.008017
   6 C :    0.097864
   7 H :    0.006865
   8 H :    0.029805
   9 C :   -0.024833
  10 H :    0.014379
  11 H :    0.003608
  12 C :   -0.078967
  13 H :    0.052986
  14 H :    0.026348
  15 H :    0.045060
  16 S :    0.142896
  17 C :   -0.092975
  18 C :   -0.057500
  19 C :   -0.011477
  20 C :   -0.180659
  21 H :    0.036604
  22 C :   -0.047014
  23 H :    0.042811
  24 H :    0.042559
  25 C :   -0.011213
  26 H :    0.024011
  27 H :    0.025342
  28 C :   -0.024642
  29 H :    0.046541
  30 H :   -0.005040
  31 H :    0.020637
  32 H :    0.043893
  33 H :    0.060983
Sum of atomic charges:   -0.0000000

LOEWDIN ATOMIC CHARGES
----------------------
   0 S :    0.411694
   1 C :   -0.193796
   2 C :   -0.063520
   3 C :   -0.069324
   4 C :   -0.195182
   5 H :    0.020833
   6 C :   -0.019428
   7 H :    0.019253
   8 H :    0.034110
   9 C :   -0.034998
  10 H :    0.020600
  11 H :    0.016539
  12 C :   -0.077354
  13 H :    0.035142
  14 H :    0.024168
  15 H :    0.033325
  16 S :    0.448960
  17 C :   -0.211422
  18 C :   -0.077255
  19 C :   -0.053448
  20 C :   -0.200266
  21 H :    0.039322
  22 C :   -0.049315
  23 H :    0.041135
  24 H :    0.033318
  25 C :   -0.033048
  26 H :    0.026633
  27 H :    0.019102
  28 C :   -0.058590
  29 H :    0.027761
  30 H :    0.011069
  31 H :    0.024879
  32 H :    0.018283
  33 H :    0.030822

  Mayer bond orders larger than 0.100000
B(  0-S ,  1-C ) :   1.1653 B(  0-S ,  4-C ) :   1.1433 B(  1-C ,  2-C ) :   1.5543
B(  1-C ,  4-C ) :   0.1017 B(  1-C , 32-H ) :   0.9755 B(  2-C ,  3-C ) :   1.2796
B(  2-C ,  6-C ) :   1.0249 B(  3-C ,  4-C ) :   1.5390 B(  3-C ,  5-H ) :   0.9822
B(  4-C , 20-C ) :   1.0839 B(  6-C ,  7-H ) :   0.9277 B(  6-C ,  8-H ) :   0.9495
B(  6-C ,  9-C ) :   1.0610 B(  9-C , 10-H ) :   0.9563 B(  9-C , 11-H ) :   0.9548
B(  9-C , 12-C ) :   1.0601 B( 12-C , 13-H ) :   0.9787 B( 12-C , 14-H ) :   0.9755
B( 12-C , 15-H ) :   0.9751 B( 16-S , 17-C ) :   1.1929 B( 16-S , 20-C ) :   1.1627
B( 17-C , 18-C ) :   1.5461 B( 17-C , 20-C ) :   0.1108 B( 17-C , 33-H ) :   0.9623
B( 18-C , 19-C ) :   1.3157 B( 18-C , 21-H ) :   0.9809 B( 19-C , 20-C ) :   1.5131
B( 19-C , 22-C ) :   1.0093 B( 22-C , 23-H ) :   0.9472 B( 22-C , 24-H ) :   0.9373
B( 22-C , 25-C ) :   1.0753 B( 25-C , 26-H ) :   0.9500 B( 25-C , 27-H ) :   0.9567
B( 25-C , 28-C ) :   1.0751 B( 28-C , 29-H ) :   0.9770 B( 28-C , 30-H ) :   0.9714
B( 28-C , 31-H ) :   0.9714

Dispersion correction           -0.014477370
FINAL SINGLE POINT ENERGY     -1339.850658214181

DIPOLE MOMENT
-------------
                                X             Y             Z
Electronic contribution:      0.75348      19.27525      -8.46314
Nuclear contribution   :     -0.80122     -19.58664       8.58596
                        -----------------------------------------
Total Dipole Moment    :     -0.04774      -0.31139       0.12282
                        -----------------------------------------
Magnitude (a.u.)       :      0.33813
Magnitude (Debye)      :      0.85945

Rotational constants in cm-1:     0.019643     0.008028     0.007063
Rotational constants in MHz :   588.870213   240.675849   211.733142

                             ****ORCA TERMINATED NORMALLY****
TOTAL RUN TIME: 0 days 0 hours 0 minutes 33 seconds 11 msec
