                         Program Version 4.2.1 -  RELEASE  -
|  1> ! wB97X-D3 SP def2-SVP
|  2> %pal
|  3> nprocs 16
|  4> end
|  5>
|  6> * xyz 0 1
|  7> S 	 -1.11607 	 34.5992 	 53.8582
|  8> C 	 0.483571 	 34.3508 	 54.3809
|  9> C 	 1.0158 	 33.1863 	 53.7828
| 10> C 	 0.000525183 	 32.4294 	 53.1532
| 11> C 	 -1.23986 	 33.058 	 53.0239
| 12> H 	 0.137218 	 31.5577 	 52.5603
| 13> C 	 2.38884 	 32.643 	 54.0244
| 14> H 	 3.11823 	 33.4212 	 53.971
| 15> H 	 2.68469 	 32.0768 	 53.1792
| 16> C 	 2.58608 	 31.8302 	 55.3886
| 17> H 	 3.64925 	 31.5395 	 55.3115
| 18> H 	 2.58091 	 32.5854 	 56.272
| 19> C 	 1.64421 	 30.5911 	 55.5896
| 20> H 	 0.580104 	 30.9708 	 55.5579
| 21> H 	 1.69044 	 29.9016 	 54.7706
| 22> H 	 1.72243 	 30.2379 	 56.6307
| 23> S 	 -3.33612 	 31.3078 	 53.5097
| 24> C 	 -4.50262 	 30.9841 	 52.3322
| 25> C 	 -4.14127 	 31.566 	 51.1108
| 26> C 	 -3.02722 	 32.4307 	 51.2269
| 27> C 	 -2.47326 	 32.4806 	 52.4758
| 28> H 	 -4.77382 	 31.5558 	 50.2201
| 29> C 	 -2.48248 	 33.1797 	 50.0293
| 30> H 	 -2.1463 	 32.2957 	 49.4905
| 31> H 	 -1.53428 	 33.7087 	 50.1371
| 32> C 	 -3.3752 	 34.0763 	 49.1041
| 33> H 	 -4.25933 	 33.6021 	 48.7455
| 34> H 	 -2.80133 	 34.2822 	 48.2152
| 35> C 	 -3.76967 	 35.3836 	 49.7836
| 36> H 	 -2.82722 	 35.9677 	 49.9923
| 37> H 	 -4.20016 	 35.2364 	 50.7877
| 38> H 	 -4.50904 	 36.0559 	 49.1508
| 39> H 	 1.07105 	 35.0187 	 55.0164
| 40> H 	 -5.46811 	 30.4995 	 52.4061
| 41> *
| 42>
| 43>                          ****END OF INPUT****

CARTESIAN COORDINATES (ANGSTROEM)
---------------------------------
  S     -1.116070   34.599200   53.858200
  C      0.483571   34.350800   54.380900
  C      1.015800   33.186300   53.782800
  C      0.000525   32.429400   53.153200
  C     -1.239860   33.058000   53.023900
  H      0.137218   31.557700   52.560300
  C      2.388840   32.643000   54.024400
  H      3.118230   33.421200   53.971000
  H      2.684690   32.076800   53.179200
  C      2.586080   31.830200   55.388600
  H      3.649250   31.539500   55.311500
  H      2.580910   32.585400   56.272000
  C      1.644210   30.591100   55.589600
  H      0.580104   30.970800   55.557900
  H      1.690440   29.901600   54.770600
  H      1.722430   30.237900   56.630700
  S     -3.336120   31.307800   53.509700
  C     -4.502620   30.984100   52.332200
  C     -4.141270   31.566000   51.110800
  C     -3.027220   32.430700   51.226900
  C     -2.473260   32.480600   52.475800
  H     -4.773820   31.555800   50.220100
  C     -2.482480   33.179700   50.029300
  H     -2.146300   32.295700   49.490500
  H     -1.534280   33.708700   50.137100
  C     -3.375200   34.076300   49.104100
  H     -4.259330   33.602100   48.745500
  H     -2.801330   34.282200   48.215200
  C     -3.769670   35.383600   49.783600
  H     -2.827220   35.967700   49.992300
  H     -4.200160   35.236400   50.787700
  H     -4.509040   36.055900   49.150800
  H      1.071050   35.018700   55.016400
  H     -5.468110   30.499500   52.406100

 Total Charge           Charge          ....    0
 Multiplicity           Mult            ....    1
 Number of Electrons    NEL             ....  134
 Basis Dimension        Dim             ....  322

ORBITAL ENERGIES
----------------

  NO   OCC          E(Eh)            E(eV)
   0   2.0000     -88.966286     -2420.8957
   1   2.0000     -88.963382     -2420.8167
   2   2.0000     -10.328307      -281.0475
   3   2.0000     -10.324577      -280.9460
   4   2.0000     -10.318753      -280.7876
   5   2.0000     -10.315661      -280.7034
   6   2.0000     -10.303968      -280.3852
   7   2.0000     -10.301200      -280.3099
   8   2.0000     -10.298372      -280.2330
   9   2.0000     -10.292349      -280.0691
  10   2.0000     -10.291941      -280.0579
  11   2.0000     -10.290413      -280.0164
  12   2.0000     -10.287434      -279.9353
  13   2.0000     -10.286649      -279.9139
  14   2.0000     -10.286588      -279.9123
  15   2.0000     -10.282334      -279.7965
  16   2.0000      -8.081378      -219.9055
  17   2.0000      -8.078777      -219.8347
  18   2.0000      -6.039721      -164.3492
  19   2.0000      -6.037192      -164.2803
  20   2.0000      -6.035521      -164.2349
  21   2.0000      -6.033057      -164.1678
  22   2.0000      -6.032596      -164.1553
  23   2.0000      -6.029699      -164.0764
  24   2.0000      -1.007909       -27.4266
  25   2.0000      -0.989241       -26.9186
  26   2.0000      -0.906866       -24.6771
  27   2.0000      -0.901555       -24.5325
  28   2.0000      -0.867024       -23.5929
  29   2.0000      -0.850906       -23.1543
  30   2.0000      -0.842083       -22.9142
  31   2.0000      -0.811513       -22.0824
  32   2.0000      -0.782046       -21.2806
  33   2.0000      -0.771000       -20.9800
  34   2.0000      -0.703390       -19.1402
  35   2.0000      -0.698035       -18.9945
  36   2.0000      -0.694840       -18.9075
  37   2.0000      -0.659313       -17.9408
  38   2.0000      -0.645231       -17.5576
  39   2.0000      -0.611579       -16.6419
  40   2.0000      -0.599660       -16.3176
  41   2.0000      -0.571779       -15.5589
  42   2.0000      -0.547546       -14.8995
  43   2.0000      -0.545284       -14.8379
  44   2.0000      -0.536893       -14.6096
  45   2.0000      -0.531808       -14.4712
  46   2.0000      -0.516798       -14.0628
  47   2.0000      -0.512521       -13.9464
  48   2.0000      -0.508109       -13.8263
  49   2.0000      -0.489234       -13.3127
  50   2.0000      -0.485359       -13.2073
  51   2.0000      -0.477413       -12.9911
  52   2.0000      -0.467378       -12.7180
  53   2.0000      -0.465224       -12.6594
  54   2.0000      -0.461493       -12.5579
  55   2.0000      -0.443975       -12.0812
  56   2.0000      -0.438259       -11.9256
  57   2.0000      -0.433786       -11.8039
  58   2.0000      -0.431762       -11.7489
  59   2.0000      -0.425173       -11.5695
  60   2.0000      -0.420523       -11.4430
  61   2.0000      -0.411162       -11.1883
  62   2.0000      -0.409582       -11.1453
  63   2.0000      -0.336020        -9.1436
  64   2.0000      -0.326962        -8.8971
  65   2.0000      -0.322268        -8.7694
  66   2.0000      -0.306435        -8.3385
  67   0.0000       0.042529         1.1573
  68   0.0000       0.050776         1.3817
  69   0.0000       0.109926         2.9912
  70   0.0000       0.128608         3.4996
  71   0.0000       0.132103         3.5947

MULLIKEN ATOMIC CHARGES
-----------------------
   0 S :    0.129706
   1 C :   -0.120963
   2 C :   -0.101608
   3 C :    0.044265
   4 C :   -0.191527
   5 H :    0.005604
   6 C :    0.084875
   7 H :    0.010042
   8 H :    0.008808
   9 C :   -0.105335
  10 H :    0.033886
  11 H :    0.039913
  12 C :   -0.048294
  13 H :    0.044760
  14 H :    0.036688
  15 H :    0.046996
  16 S :    0.119507
  17 C :   -0.074757
  18 C :   -0.058404
  19 C :    0.000366
  20 C :   -0.180369
  21 H :    0.023421
  22 C :    0.025343
  23 H :    0.033499
  24 H :    0.027427
  25 C :   -0.017567
  26 H :    0.014960
  27 H :    0.024972
  28 C :   -0.105809
  29 H :    0.032871
  30 H :    0.044829
  31 H :    0.053335
  32 H :    0.056149
  33 H :    0.062415
Sum of atomic charges:    0.0000000

LOEWDIN ATOMIC CHARGES
----------------------
   0 S :    0.436296
   1 C :   -0.210336
   2 C :   -0.072138
   3 C :   -0.057324
   4 C :   -0.211155
   5 H :    0.026641
   6 C :   -0.036667
   7 H :    0.027347
   8 H :    0.024836
   9 C :   -0.040351
  10 H :    0.022328
  11 H :    0.030320
  12 C :   -0.072888
  13 H :    0.035411
  14 H :    0.023200
  15 H :    0.033584
  16 S :    0.422530
  17 C :   -0.196246
  18 C :   -0.083064
  19 C :   -0.051666
  20 C :   -0.203387
  21 H :    0.031312
  22 C :   -0.036015
  23 H :    0.040740
  24 H :    0.032497
  25 C :   -0.038223
  26 H :    0.015340
  27 H :    0.026503
  28 C :   -0.080532
  29 H :    0.028101
  30 H :    0.026700
  31 H :    0.036751
  32 H :    0.033245
  33 H :    0.036312

  Mayer bond orders larger than 0.100000
B(  0-S ,  1-C ) :   1.1894 B(  0-S ,  4-C ) :   1.1626 B(  1-C ,  2-C ) :   1.5326
B(  1-C ,  4-C ) :   0.1086 B(  1-C , 32-H ) :   0.9698 B(  2-C ,  3-C ) :   1.2830
B(  2-C ,  6-C ) :   1.0477 B(  3-C ,  4-C ) :   1.5506 B(  3-C ,  5-H ) :   0.9945
B(  4-C , 20-C ) :   1.0153 B(  6-C ,  7-H ) :   0.9318 B(  6-C ,  8-H ) :   0.9360
B(  6-C ,  9-C ) :   1.0579 B(  9-C , 10-H ) :   0.9569 B(  9-C , 11-H ) :   0.9593
B(  9-C , 12-C ) :   1.0649 B( 12-C , 13-H ) :   0.9700 B( 12-C , 14-H ) :   0.9758
B( 12-C , 15-H ) :   0.9728 B( 16-S , 17-C ) :   1.1899 B( 16-S , 20-C ) :   1.1256
B( 17-C , 18-C ) :   1.5734 B( 17-C , 33-H ) :   0.9654 B( 18-C , 19-C ) :   1.2698
B( 18-C , 21-H ) :   0.9843 B( 19-C , 20-C ) :   1.6011 B( 19-C , 22-C ) :   1.0190
B( 22-C , 23-H ) :   0.9265 B( 22-C , 24-H ) :   0.9430 B( 22-C , 25-C ) :   1.0773
B( 25-C , 26-H ) :   0.9564 B( 25-C , 27-H ) :   0.9499 B( 25-C , 28-C ) :   1.0663
B( 28-C , 29-H ) :   0.9728 B( 28-C , 30-H ) :   0.9771 B( 28-C , 31-H ) :   0.9736

Dispersion correction           -0.014896799
FINAL SINGLE POINT ENERGY     -1339.868580569377

DIPOLE MOMENT
-------------
                                X             Y             Z
Electronic contribution:     -9.79496      -0.36471       7.37507
Nuclear contribution   :     10.05229       0.24397      -7.74835
                        -----------------------------------------
Total Dipole Moment    :      0.25733      -0.12074      -0.37328
                        -----------------------------------------
Magnitude (a.u.)       :      0.46919
Magnitude (Debye)      :      1.19258

Rotational constants in cm-1:     0.021514     0.008166     0.006877
Rotational constants in MHz :   644.964283   244.804400   206.154415

                             ****ORCA TERMINATED NORMALLY****
TOTAL RUN TIME: 0 days 0 hours 0 minutes 34 seconds 674 msec
