                         Program Version 4.2.1 -  RELEASE  -
|  1> ! wB97X-D3 SP def2-SVP
|  2> %pal
|  3> nprocs 16
|  4> end
|  5>
|  6> * xyz 0 1
|  7> S 	 67.4336 	 17.382 	 72.7595
|  8> C 	 68.5038 	 18.482 	 71.9315
|  9> C 	 69.1352 	 19.3616 	 72.7997
| 10> C 	 68.7168 	 19.0372 	 74.1128
| 11> C 	 67.8193 	 18.0325 	 74.2939
| 12> H 	 69.0689 	 19.5052 	 74.9914
| 13> C 	 70.2418 	 20.3306 	 72.477
| 14> H 	 70.7019 	 20.1249 	 71.5608
| 15> H 	 71.0037 	 20.2351 	 73.2779
| 16> C 	 69.7328 	 21.7736 	 72.491
| 17> H 	 69.267 	 21.9841 	 73.4386
| 18> H 	 70.5846 	 22.4361 	 72.3544
| 19> C 	 68.6123 	 22.1022 	 71.5044
| 20> H 	 68.9122 	 21.6928 	 70.5619
| 21> H 	 67.6412 	 21.6375 	 71.6846
| 22> H 	 68.5074 	 23.138 	 71.4386
| 23> S 	 65.463 	 18.3681 	 75.8611
| 24> C 	 65.5636 	 17.8215 	 77.4975
| 25> C 	 66.7067 	 17.0645 	 77.6938
| 26> C 	 67.5992 	 17.065 	 76.6131
| 27> C 	 67.0906 	 17.6861 	 75.5103
| 28> H 	 66.9539 	 16.6524 	 78.6605
| 29> C 	 68.9913 	 16.461 	 76.7101
| 30> H 	 69.1833 	 16.0458 	 77.6977
| 31> H 	 69.747 	 17.2191 	 76.5654
| 32> C 	 69.3366 	 15.358 	 75.7522
| 33> H 	 69.4579 	 15.7531 	 74.7339
| 34> H 	 68.5021 	 14.6299 	 75.6957
| 35> C 	 70.6381 	 14.5924 	 76.0967
| 36> H 	 71.2685 	 15.457 	 76.117
| 37> H 	 71.036 	 14.0337 	 75.3061
| 38> H 	 70.7708 	 14.1445 	 77.1093
| 39> H 	 68.7894 	 18.4333 	 70.8913
| 40> H 	 64.867 	 17.9607 	 78.3259
| 41> *
| 42>
| 43>                          ****END OF INPUT****

CARTESIAN COORDINATES (ANGSTROEM)
---------------------------------
  S     67.433600   17.382000   72.759500
  C     68.503800   18.482000   71.931500
  C     69.135200   19.361600   72.799700
  C     68.716800   19.037200   74.112800
  C     67.819300   18.032500   74.293900
  H     69.068900   19.505200   74.991400
  C     70.241800   20.330600   72.477000
  H     70.701900   20.124900   71.560800
  H     71.003700   20.235100   73.277900
  C     69.732800   21.773600   72.491000
  H     69.267000   21.984100   73.438600
  H     70.584600   22.436100   72.354400
  C     68.612300   22.102200   71.504400
  H     68.912200   21.692800   70.561900
  H     67.641200   21.637500   71.684600
  H     68.507400   23.138000   71.438600
  S     65.463000   18.368100   75.861100
  C     65.563600   17.821500   77.497500
  C     66.706700   17.064500   77.693800
  C     67.599200   17.065000   76.613100
  C     67.090600   17.686100   75.510300
  H     66.953900   16.652400   78.660500
  C     68.991300   16.461000   76.710100
  H     69.183300   16.045800   77.697700
  H     69.747000   17.219100   76.565400
  C     69.336600   15.358000   75.752200
  H     69.457900   15.753100   74.733900
  H     68.502100   14.629900   75.695700
  C     70.638100   14.592400   76.096700
  H     71.268500   15.457000   76.117000
  H     71.036000   14.033700   75.306100
  H     70.770800   14.144500   77.109300
  H     68.789400   18.433300   70.891300
  H     64.867000   17.960700   78.325900

 Total Charge           Charge          ....    0
 Multiplicity           Mult            ....    1
 Number of Electrons    NEL             ....  134
 Basis Dimension        Dim             ....  322

ORBITAL ENERGIES
----------------

  NO   OCC          E(Eh)            E(eV)
   0   2.0000     -88.968962     -2420.9685
   1   2.0000     -88.964511     -2420.8474
   2   2.0000     -10.325047      -280.9588
   3   2.0000     -10.321532      -280.8632
   4   2.0000     -10.319237      -280.8007
   5   2.0000     -10.313827      -280.6535
   6   2.0000     -10.299695      -280.2690
   7   2.0000     -10.299389      -280.2606
   8   2.0000     -10.292476      -280.0725
   9   2.0000     -10.289177      -279.9827
  10   2.0000     -10.288272      -279.9581
  11   2.0000     -10.285831      -279.8917
  12   2.0000     -10.282551      -279.8024
  13   2.0000     -10.281638      -279.7776
  14   2.0000     -10.271756      -279.5087
  15   2.0000     -10.266626      -279.3691
  16   2.0000      -8.083091      -219.9521
  17   2.0000      -8.079883      -219.8648
  18   2.0000      -6.041633      -164.4012
  19   2.0000      -6.038256      -164.3093
  20   2.0000      -6.037682      -164.2937
  21   2.0000      -6.034161      -164.1979
  22   2.0000      -6.033837      -164.1891
  23   2.0000      -6.030880      -164.1086
  24   2.0000      -1.011878       -27.5346
  25   2.0000      -0.989661       -26.9300
  26   2.0000      -0.918172       -24.9847
  27   2.0000      -0.912373       -24.8269
  28   2.0000      -0.869173       -23.6514
  29   2.0000      -0.853652       -23.2291
  30   2.0000      -0.847607       -23.0646
  31   2.0000      -0.813604       -22.1393
  32   2.0000      -0.789897       -21.4942
  33   2.0000      -0.778785       -21.1918
  34   2.0000      -0.709765       -19.3137
  35   2.0000      -0.696233       -18.9455
  36   2.0000      -0.688155       -18.7257
  37   2.0000      -0.660277       -17.9670
  38   2.0000      -0.647420       -17.6172
  39   2.0000      -0.624181       -16.9848
  40   2.0000      -0.601890       -16.3783
  41   2.0000      -0.573382       -15.6025
  42   2.0000      -0.567020       -15.4294
  43   2.0000      -0.553578       -15.0636
  44   2.0000      -0.545906       -14.8549
  45   2.0000      -0.523124       -14.2349
  46   2.0000      -0.518615       -14.1122
  47   2.0000      -0.517534       -14.0828
  48   2.0000      -0.503981       -13.7140
  49   2.0000      -0.496127       -13.5003
  50   2.0000      -0.490146       -13.3376
  51   2.0000      -0.484024       -13.1710
  52   2.0000      -0.471595       -12.8328
  53   2.0000      -0.468104       -12.7378
  54   2.0000      -0.460626       -12.5343
  55   2.0000      -0.451109       -12.2753
  56   2.0000      -0.444990       -12.1088
  57   2.0000      -0.441700       -12.0193
  58   2.0000      -0.435313       -11.8455
  59   2.0000      -0.422758       -11.5038
  60   2.0000      -0.418178       -11.3792
  61   2.0000      -0.415012       -11.2930
  62   2.0000      -0.404480       -11.0065
  63   2.0000      -0.338058        -9.1990
  64   2.0000      -0.333410        -9.0725
  65   2.0000      -0.327304        -8.9064
  66   2.0000      -0.306264        -8.3339
  67   0.0000       0.044628         1.2144
  68   0.0000       0.051997         1.4149
  69   0.0000       0.114177         3.1069
  70   0.0000       0.124851         3.3974
  71   0.0000       0.137093         3.7305

MULLIKEN ATOMIC CHARGES
-----------------------
   0 S :    0.118950
   1 C :   -0.121882
   2 C :   -0.094397
   3 C :    0.057177
   4 C :   -0.207910
   5 H :   -0.013651
   6 C :    0.104458
   7 H :    0.007645
   8 H :    0.034803
   9 C :   -0.082371
  10 H :    0.022669
  11 H :    0.030572
  12 C :   -0.017898
  13 H :    0.002715
  14 H :    0.043184
  15 H :    0.025522
  16 S :    0.126013
  17 C :   -0.093725
  18 C :   -0.035543
  19 C :   -0.020369
  20 C :   -0.150369
  21 H :    0.009913
  22 C :    0.118895
  23 H :    0.005394
  24 H :    0.018676
  25 C :   -0.105072
  26 H :    0.037954
  27 H :    0.028907
  28 C :   -0.025943
  29 H :    0.001370
  30 H :    0.027768
  31 H :    0.042740
  32 H :    0.042149
  33 H :    0.061655
Sum of atomic charges:   -0.0000000

LOEWDIN ATOMIC CHARGES
----------------------
   0 S :    0.427215
   1 C :   -0.195581
   2 C :   -0.062943
   3 C :   -0.055776
   4 C :   -0.215087
   5 H :    0.021115
   6 C :   -0.022366
   7 H :    0.020021
   8 H :    0.038923
   9 C :   -0.036567
  10 H :    0.021638
  11 H :    0.023553
  12 C :   -0.057994
  13 H :    0.016191
  14 H :    0.029795
  15 H :    0.020077
  16 S :    0.403483
  17 C :   -0.189676
  18 C :   -0.074743
  19 C :   -0.048545
  20 C :   -0.192487
  21 H :    0.028185
  22 C :   -0.029259
  23 H :    0.028211
  24 H :    0.030189
  25 C :   -0.040202
  26 H :    0.025350
  27 H :    0.019385
  28 C :   -0.069392
  29 H :    0.023038
  30 H :    0.021838
  31 H :    0.029967
  32 H :    0.025798
  33 H :    0.036645

  Mayer bond orders larger than 0.100000
B(  0-S ,  1-C ) :   1.1621 B(  0-S ,  4-C ) :   1.1465 B(  1-C ,  2-C ) :   1.5845
B(  1-C , 32-H ) :   0.9654 B(  2-C ,  3-C ) :   1.2532 B(  2-C ,  6-C ) :   1.0243
B(  3-C ,  4-C ) :   1.5986 B(  3-C ,  5-H ) :   0.9975 B(  4-C , 20-C ) :   1.0071
B(  6-C ,  7-H ) :   0.9397 B(  6-C ,  8-H ) :   0.9415 B(  6-C ,  9-C ) :   1.0748
B(  9-C , 10-H ) :   0.9574 B(  9-C , 11-H ) :   0.9571 B(  9-C , 12-C ) :   1.0754
B( 12-C , 13-H ) :   0.9749 B( 12-C , 14-H ) :   0.9716 B( 12-C , 15-H ) :   0.9728
B( 16-S , 17-C ) :   1.1681 B( 16-S , 20-C ) :   1.1232 B( 17-C , 18-C ) :   1.6009
B( 17-C , 33-H ) :   0.9628 B( 18-C , 19-C ) :   1.2695 B( 18-C , 21-H ) :   0.9856
B( 19-C , 20-C ) :   1.6099 B( 19-C , 22-C ) :   1.0442 B( 22-C , 23-H ) :   0.9345
B( 22-C , 24-H ) :   0.9138 B( 22-C , 25-C ) :   1.0657 B( 25-C , 26-H ) :   0.9492
B( 25-C , 27-H ) :   0.9592 B( 25-C , 28-C ) :   1.0768 B( 28-C , 29-H ) :   0.9693
B( 28-C , 30-H ) :   0.9721 B( 28-C , 31-H ) :   0.9745

Dispersion correction           -0.014873107
FINAL SINGLE POINT ENERGY     -1339.879137857192

DIPOLE MOMENT
-------------
                                X             Y             Z
Electronic contribution:    -20.13159      -3.88675       1.90535
Nuclear contribution   :     20.75607       4.15376      -1.68933
                        -----------------------------------------
Total Dipole Moment    :      0.62448       0.26701       0.21602
                        -----------------------------------------
Magnitude (a.u.)       :      0.71269
Magnitude (Debye)      :      1.81152

Rotational constants in cm-1:     0.018359     0.008924     0.007275
Rotational constants in MHz :   550.380509   267.545666   218.104780

                             ****ORCA TERMINATED NORMALLY****
TOTAL RUN TIME: 0 days 0 hours 0 minutes 30 seconds 924 msec
