                         Program Version 4.2.1 -  RELEASE  -
|  1> ! wB97X-D3 SP def2-SVP
|  2> %pal
|  3> nprocs 16
|  4> end
|  5>
|  6> * xyz 0 1
|  7> S 	 5.31132 	 -14.1164 	 66.8521
|  8> C 	 6.64668 	 -14.7624 	 65.9122
|  9> C 	 7.64348 	 -13.7989 	 65.9779
| 10> C 	 7.4057 	 -12.6885 	 66.8698
| 11> C 	 6.28546 	 -12.9158 	 67.6441
| 12> H 	 8.13816 	 -11.9692 	 67.17
| 13> C 	 8.93823 	 -13.8611 	 65.2438
| 14> H 	 9.68982 	 -13.1819 	 65.6648
| 15> H 	 8.51983 	 -13.4731 	 64.2632
| 16> C 	 9.58675 	 -15.2538 	 65.039
| 17> H 	 8.99783 	 -15.8715 	 64.3946
| 18> H 	 10.491 	 -15.1183 	 64.5029
| 19> C 	 9.9438 	 -15.9854 	 66.3433
| 20> H 	 10.6502 	 -15.4751 	 66.9514
| 21> H 	 9.03281 	 -16.1281 	 66.9739
| 22> H 	 10.3855 	 -16.9175 	 66.1853
| 23> S 	 4.54686 	 -10.972 	 68.2353
| 24> C 	 4.77177 	 -10.1184 	 69.7524
| 25> C 	 5.61326 	 -10.8268 	 70.636
| 26> C 	 6.30186 	 -11.8187 	 69.9013
| 27> C 	 5.81913 	 -12.0467 	 68.6584
| 28> H 	 5.70708 	 -10.4979 	 71.6505
| 29> C 	 7.46081 	 -12.498 	 70.6143
| 30> H 	 8.27416 	 -11.8884 	 70.6049
| 31> H 	 7.70882 	 -13.3918 	 70.0527
| 32> C 	 7.14732 	 -13.0669 	 71.941
| 33> H 	 6.77872 	 -12.3548 	 72.7245
| 34> H 	 8.16918 	 -13.3939 	 72.3276
| 35> C 	 6.07617 	 -14.1578 	 71.9408
| 36> H 	 5.85776 	 -14.6554 	 72.9006
| 37> H 	 6.32632 	 -14.9292 	 71.2724
| 38> H 	 5.16049 	 -13.6518 	 71.599
| 39> H 	 6.7099 	 -15.6611 	 65.2089
| 40> H 	 4.24948 	 -9.24899 	 70.0224
| 41> *
| 42>
| 43>                          ****END OF INPUT****

CARTESIAN COORDINATES (ANGSTROEM)
---------------------------------
  S      5.311320  -14.116400   66.852100
  C      6.646680  -14.762400   65.912200
  C      7.643480  -13.798900   65.977900
  C      7.405700  -12.688500   66.869800
  C      6.285460  -12.915800   67.644100
  H      8.138160  -11.969200   67.170000
  C      8.938230  -13.861100   65.243800
  H      9.689820  -13.181900   65.664800
  H      8.519830  -13.473100   64.263200
  C      9.586750  -15.253800   65.039000
  H      8.997830  -15.871500   64.394600
  H     10.491000  -15.118300   64.502900
  C      9.943800  -15.985400   66.343300
  H     10.650200  -15.475100   66.951400
  H      9.032810  -16.128100   66.973900
  H     10.385500  -16.917500   66.185300
  S      4.546860  -10.972000   68.235300
  C      4.771770  -10.118400   69.752400
  C      5.613260  -10.826800   70.636000
  C      6.301860  -11.818700   69.901300
  C      5.819130  -12.046700   68.658400
  H      5.707080  -10.497900   71.650500
  C      7.460810  -12.498000   70.614300
  H      8.274160  -11.888400   70.604900
  H      7.708820  -13.391800   70.052700
  C      7.147320  -13.066900   71.941000
  H      6.778720  -12.354800   72.724500
  H      8.169180  -13.393900   72.327600
  C      6.076170  -14.157800   71.940800
  H      5.857760  -14.655400   72.900600
  H      6.326320  -14.929200   71.272400
  H      5.160490  -13.651800   71.599000
  H      6.709900  -15.661100   65.208900
  H      4.249480   -9.248990   70.022400

 Total Charge           Charge          ....    0
 Multiplicity           Mult            ....    1
 Number of Electrons    NEL             ....  134
 Basis Dimension        Dim             ....  322

ORBITAL ENERGIES
----------------

  NO   OCC          E(Eh)            E(eV)
   0   2.0000     -88.965625     -2420.8777
   1   2.0000     -88.961166     -2420.7564
   2   2.0000     -10.323798      -280.9248
   3   2.0000     -10.316859      -280.7360
   4   2.0000     -10.316022      -280.7132
   5   2.0000     -10.315115      -280.6886
   6   2.0000     -10.299259      -280.2571
   7   2.0000     -10.297111      -280.1986
   8   2.0000     -10.293793      -280.1083
   9   2.0000     -10.293723      -280.1064
  10   2.0000     -10.289880      -280.0019
  11   2.0000     -10.288243      -279.9573
  12   2.0000     -10.284975      -279.8684
  13   2.0000     -10.278758      -279.6992
  14   2.0000     -10.270472      -279.4738
  15   2.0000     -10.270218      -279.4669
  16   2.0000      -8.081085      -219.8975
  17   2.0000      -8.075992      -219.7589
  18   2.0000      -6.039469      -164.3423
  19   2.0000      -6.035627      -164.2377
  20   2.0000      -6.034606      -164.2100
  21   2.0000      -6.031784      -164.1332
  22   2.0000      -6.030533      -164.0992
  23   2.0000      -6.026565      -163.9912
  24   2.0000      -1.014689       -27.6111
  25   2.0000      -0.987231       -26.8639
  26   2.0000      -0.919438       -25.0192
  27   2.0000      -0.911754       -24.8101
  28   2.0000      -0.871988       -23.7280
  29   2.0000      -0.849346       -23.1119
  30   2.0000      -0.845576       -23.0093
  31   2.0000      -0.812971       -22.1221
  32   2.0000      -0.787572       -21.4309
  33   2.0000      -0.773906       -21.0591
  34   2.0000      -0.710201       -19.3255
  35   2.0000      -0.705298       -19.1921
  36   2.0000      -0.693400       -18.8684
  37   2.0000      -0.664769       -18.0893
  38   2.0000      -0.634060       -17.2536
  39   2.0000      -0.609645       -16.5893
  40   2.0000      -0.598748       -16.2928
  41   2.0000      -0.578583       -15.7441
  42   2.0000      -0.569054       -15.4848
  43   2.0000      -0.555078       -15.1044
  44   2.0000      -0.543388       -14.7863
  45   2.0000      -0.530529       -14.4364
  46   2.0000      -0.522748       -14.2247
  47   2.0000      -0.514507       -14.0005
  48   2.0000      -0.505450       -13.7540
  49   2.0000      -0.497202       -13.5296
  50   2.0000      -0.487715       -13.2714
  51   2.0000      -0.480250       -13.0683
  52   2.0000      -0.471980       -12.8432
  53   2.0000      -0.464036       -12.6271
  54   2.0000      -0.456761       -12.4291
  55   2.0000      -0.451559       -12.2876
  56   2.0000      -0.446604       -12.1527
  57   2.0000      -0.441962       -12.0264
  58   2.0000      -0.433533       -11.7970
  59   2.0000      -0.426751       -11.6125
  60   2.0000      -0.417113       -11.3502
  61   2.0000      -0.405835       -11.0433
  62   2.0000      -0.403892       -10.9905
  63   2.0000      -0.340874        -9.2756
  64   2.0000      -0.328906        -8.9500
  65   2.0000      -0.317463        -8.6386
  66   2.0000      -0.297699        -8.1008
  67   0.0000       0.038877         1.0579
  68   0.0000       0.053023         1.4428
  69   0.0000       0.111252         3.0273
  70   0.0000       0.122049         3.3211
  71   0.0000       0.131352         3.5743

MULLIKEN ATOMIC CHARGES
-----------------------
   0 S :    0.097897
   1 C :   -0.131956
   2 C :   -0.123711
   3 C :    0.058145
   4 C :   -0.170462
   5 H :    0.012826
   6 C :    0.026524
   7 H :    0.030196
   8 H :    0.056916
   9 C :   -0.040021
  10 H :    0.013406
  11 H :    0.018908
  12 C :   -0.033183
  13 H :    0.015588
  14 H :    0.042259
  15 H :    0.019795
  16 S :    0.125675
  17 C :   -0.084379
  18 C :   -0.034416
  19 C :   -0.068429
  20 C :   -0.155217
  21 H :    0.021053
  22 C :    0.169116
  23 H :    0.012341
  24 H :    0.015964
  25 C :   -0.133668
  26 H :    0.029062
  27 H :    0.031315
  28 C :   -0.033253
  29 H :    0.037966
  30 H :    0.018483
  31 H :    0.042141
  32 H :    0.075623
  33 H :    0.037499
Sum of atomic charges:   -0.0000000

LOEWDIN ATOMIC CHARGES
----------------------
   0 S :    0.400590
   1 C :   -0.227657
   2 C :   -0.064710
   3 C :   -0.060562
   4 C :   -0.192221
   5 H :    0.028784
   6 C :   -0.038321
   7 H :    0.029002
   8 H :    0.050934
   9 C :   -0.036178
  10 H :    0.017154
  11 H :    0.022726
  12 C :   -0.061749
  13 H :    0.019731
  14 H :    0.031548
  15 H :    0.018245
  16 S :    0.421954
  17 C :   -0.166708
  18 C :   -0.063580
  19 C :   -0.054642
  20 C :   -0.219448
  21 H :    0.031111
  22 C :   -0.022109
  23 H :    0.020017
  24 H :    0.033852
  25 C :   -0.048076
  26 H :    0.020513
  27 H :    0.028956
  28 C :   -0.062100
  29 H :    0.029755
  30 H :    0.016098
  31 H :    0.032189
  32 H :    0.049906
  33 H :    0.014995

  Mayer bond orders larger than 0.100000
B(  0-S ,  1-C ) :   1.1077 B(  0-S ,  4-C ) :   1.1562 B(  1-C ,  2-C ) :   1.6097
B(  1-C ,  4-C ) :   0.1006 B(  1-C , 32-H ) :   0.9624 B(  2-C ,  3-C ) :   1.2321
B(  2-C ,  6-C ) :   1.0100 B(  3-C ,  4-C ) :   1.5671 B(  3-C ,  5-H ) :   0.9930
B(  4-C , 20-C ) :   1.0353 B(  6-C ,  7-H ) :   0.9531 B(  6-C ,  8-H ) :   0.9275
B(  6-C ,  9-C ) :   1.0854 B(  9-C , 10-H ) :   0.9498 B(  9-C , 11-H ) :   0.9518
B(  9-C , 12-C ) :   1.0783 B( 12-C , 13-H ) :   0.9744 B( 12-C , 14-H ) :   0.9736
B( 12-C , 15-H ) :   0.9733 B( 16-S , 17-C ) :   1.1705 B( 16-S , 20-C ) :   1.1383
B( 17-C , 18-C ) :   1.6010 B( 17-C , 20-C ) :   0.1017 B( 17-C , 33-H ) :   0.9734
B( 18-C , 19-C ) :   1.2179 B( 18-C , 21-H ) :   0.9976 B( 19-C , 20-C ) :   1.6407
B( 19-C , 22-C ) :   1.0277 B( 22-C , 23-H ) :   0.9264 B( 22-C , 24-H ) :   0.9236
B( 22-C , 25-C ) :   1.0778 B( 25-C , 26-H ) :   0.9517 B( 25-C , 27-H ) :   0.9521
B( 25-C , 28-C ) :   1.0694 B( 28-C , 29-H ) :   0.9749 B( 28-C , 30-H ) :   0.9756
B( 28-C , 31-H ) :   0.9696

Dispersion correction           -0.014895604
FINAL SINGLE POINT ENERGY     -1339.848725926869

DIPOLE MOMENT
-------------
                                X             Y             Z
Electronic contribution:    -19.97613      12.62224      -7.35887
Nuclear contribution   :     20.64305     -12.55715       7.49415
                        -----------------------------------------
Total Dipole Moment    :      0.66692       0.06509       0.13528
                        -----------------------------------------
Magnitude (a.u.)       :      0.68361
Magnitude (Debye)      :      1.73760

Rotational constants in cm-1:     0.020909     0.008623     0.007198
Rotational constants in MHz :   626.835035   258.525795   215.778189

                             ****ORCA TERMINATED NORMALLY****
TOTAL RUN TIME: 0 days 0 hours 0 minutes 35 seconds 642 msec
