                         Program Version 4.2.1 -  RELEASE  -
|  1> ! wB97X-D3 SP def2-SVP
|  2> %pal
|  3> nprocs 16
|  4> end
|  5>
|  6> * xyz 0 1
|  7> S 	 -48.79 	 33.2222 	 90.3516
|  8> C 	 -49.5022 	 31.6354 	 90.0921
|  9> C 	 -50.4028 	 31.2435 	 91.0704
| 10> C 	 -50.5837 	 32.3193 	 92.0198
| 11> C 	 -49.7935 	 33.4266 	 91.7934
| 12> H 	 -51.3305 	 32.3119 	 92.8098
| 13> C 	 -51.1532 	 29.9036 	 91.1418
| 14> H 	 -51.1623 	 29.4504 	 92.107
| 15> H 	 -50.4121 	 29.2505 	 90.564
| 16> C 	 -52.6722 	 29.9021 	 90.6161
| 17> H 	 -52.636 	 30.3095 	 89.58
| 18> H 	 -53.0924 	 28.9047 	 90.4443
| 19> C 	 -53.6106 	 30.8292 	 91.4609
| 20> H 	 -53.3598 	 31.9059 	 91.5469
| 21> H 	 -54.6218 	 30.6318 	 91.2075
| 22> H 	 -53.5159 	 30.5138 	 92.5375
| 23> S 	 -50.4976 	 36.0356 	 91.6428
| 24> C 	 -50.0554 	 37.0192 	 93.0243
| 25> C 	 -49.5144 	 36.3678 	 94.1287
| 26> C 	 -49.4998 	 34.9415 	 93.9032
| 27> C 	 -49.7913 	 34.7174 	 92.5588
| 28> H 	 -49.1688 	 36.7758 	 95.0797
| 29> C 	 -48.9973 	 33.8367 	 94.7779
| 30> H 	 -48.734 	 32.8868 	 94.2494
| 31> H 	 -49.7378 	 33.7124 	 95.5663
| 32> C 	 -47.73 	 34.2646 	 95.5721
| 33> H 	 -47.8906 	 34.8901 	 96.4896
| 34> H 	 -47.0826 	 34.8705 	 94.9041
| 35> C 	 -46.9762 	 33.0737 	 96.0914
| 36> H 	 -47.5862 	 32.5761 	 96.826
| 37> H 	 -46.0742 	 33.4214 	 96.5685
| 38> H 	 -46.854 	 32.2601 	 95.3284
| 39> H 	 -49.2865 	 30.9336 	 89.2814
| 40> H 	 -50.2371 	 38.1155 	 92.9284
| 41> *
| 42>
| 43>                          ****END OF INPUT****

CARTESIAN COORDINATES (ANGSTROEM)
---------------------------------
  S    -48.790000   33.222200   90.351600
  C    -49.502200   31.635400   90.092100
  C    -50.402800   31.243500   91.070400
  C    -50.583700   32.319300   92.019800
  C    -49.793500   33.426600   91.793400
  H    -51.330500   32.311900   92.809800
  C    -51.153200   29.903600   91.141800
  H    -51.162300   29.450400   92.107000
  H    -50.412100   29.250500   90.564000
  C    -52.672200   29.902100   90.616100
  H    -52.636000   30.309500   89.580000
  H    -53.092400   28.904700   90.444300
  C    -53.610600   30.829200   91.460900
  H    -53.359800   31.905900   91.546900
  H    -54.621800   30.631800   91.207500
  H    -53.515900   30.513800   92.537500
  S    -50.497600   36.035600   91.642800
  C    -50.055400   37.019200   93.024300
  C    -49.514400   36.367800   94.128700
  C    -49.499800   34.941500   93.903200
  C    -49.791300   34.717400   92.558800
  H    -49.168800   36.775800   95.079700
  C    -48.997300   33.836700   94.777900
  H    -48.734000   32.886800   94.249400
  H    -49.737800   33.712400   95.566300
  C    -47.730000   34.264600   95.572100
  H    -47.890600   34.890100   96.489600
  H    -47.082600   34.870500   94.904100
  C    -46.976200   33.073700   96.091400
  H    -47.586200   32.576100   96.826000
  H    -46.074200   33.421400   96.568500
  H    -46.854000   32.260100   95.328400
  H    -49.286500   30.933600   89.281400
  H    -50.237100   38.115500   92.928400

 Total Charge           Charge          ....    0
 Multiplicity           Mult            ....    1
 Number of Electrons    NEL             ....  134
 Basis Dimension        Dim             ....  322

ORBITAL ENERGIES
----------------

  NO   OCC          E(Eh)            E(eV)
   0   2.0000     -88.967859     -2420.9385
   1   2.0000     -88.967705     -2420.9343
   2   2.0000     -10.326905      -281.0094
   3   2.0000     -10.322877      -280.8998
   4   2.0000     -10.321943      -280.8744
   5   2.0000     -10.314553      -280.6733
   6   2.0000     -10.304626      -280.4031
   7   2.0000     -10.302700      -280.3507
   8   2.0000     -10.302578      -280.3474
   9   2.0000     -10.301932      -280.3298
  10   2.0000     -10.298711      -280.2422
  11   2.0000     -10.295574      -280.1568
  12   2.0000     -10.292174      -280.0643
  13   2.0000     -10.287916      -279.9484
  14   2.0000     -10.283446      -279.8268
  15   2.0000     -10.275387      -279.6075
  16   2.0000      -8.082769      -219.9433
  17   2.0000      -8.081769      -219.9161
  18   2.0000      -6.040967      -164.3831
  19   2.0000      -6.040328      -164.3657
  20   2.0000      -6.037681      -164.2937
  21   2.0000      -6.036445      -164.2600
  22   2.0000      -6.033412      -164.1775
  23   2.0000      -6.032454      -164.1514
  24   2.0000      -1.001520       -27.2527
  25   2.0000      -0.978950       -26.6386
  26   2.0000      -0.913148       -24.8480
  27   2.0000      -0.897049       -24.4099
  28   2.0000      -0.858835       -23.3701
  29   2.0000      -0.856743       -23.3132
  30   2.0000      -0.840680       -22.8761
  31   2.0000      -0.810481       -22.0543
  32   2.0000      -0.782040       -21.2804
  33   2.0000      -0.765932       -20.8421
  34   2.0000      -0.702597       -19.1186
  35   2.0000      -0.695315       -18.9205
  36   2.0000      -0.686780       -18.6882
  37   2.0000      -0.656649       -17.8683
  38   2.0000      -0.635116       -17.2824
  39   2.0000      -0.613106       -16.6835
  40   2.0000      -0.599116       -16.3028
  41   2.0000      -0.572540       -15.5796
  42   2.0000      -0.563709       -15.3393
  43   2.0000      -0.545034       -14.8311
  44   2.0000      -0.531690       -14.4680
  45   2.0000      -0.528059       -14.3692
  46   2.0000      -0.515159       -14.0182
  47   2.0000      -0.499802       -13.6003
  48   2.0000      -0.496812       -13.5189
  49   2.0000      -0.485687       -13.2162
  50   2.0000      -0.481892       -13.1130
  51   2.0000      -0.473931       -12.8963
  52   2.0000      -0.471950       -12.8424
  53   2.0000      -0.462610       -12.5883
  54   2.0000      -0.458686       -12.4815
  55   2.0000      -0.454660       -12.3719
  56   2.0000      -0.441697       -12.0192
  57   2.0000      -0.437428       -11.9030
  58   2.0000      -0.435264       -11.8441
  59   2.0000      -0.429076       -11.6758
  60   2.0000      -0.421774       -11.4771
  61   2.0000      -0.412577       -11.2268
  62   2.0000      -0.412052       -11.2125
  63   2.0000      -0.340097        -9.2545
  64   2.0000      -0.328490        -8.9387
  65   2.0000      -0.325752        -8.8642
  66   2.0000      -0.296356        -8.0643
  67   0.0000       0.038710         1.0533
  68   0.0000       0.065041         1.7699
  69   0.0000       0.106335         2.8935
  70   0.0000       0.116747         3.1768
  71   0.0000       0.127399         3.4667

MULLIKEN ATOMIC CHARGES
-----------------------
   0 S :    0.117707
   1 C :   -0.115675
   2 C :   -0.104295
   3 C :    0.052051
   4 C :   -0.186583
   5 H :    0.010410
   6 C :    0.035077
   7 H :    0.029934
   8 H :    0.030280
   9 C :   -0.062645
  10 H :    0.031787
  11 H :    0.038942
  12 C :   -0.072891
  13 H :    0.058547
  14 H :    0.035464
  15 H :    0.020644
  16 S :    0.122013
  17 C :   -0.094447
  18 C :   -0.014017
  19 C :   -0.033875
  20 C :   -0.194241
  21 H :    0.023537
  22 C :    0.086756
  23 H :    0.057745
  24 H :    0.032170
  25 C :   -0.149726
  26 H :    0.035299
  27 H :    0.040438
  28 C :   -0.028554
  29 H :    0.014449
  30 H :    0.037112
  31 H :    0.034115
  32 H :    0.044519
  33 H :    0.067954
Sum of atomic charges:   -0.0000000

LOEWDIN ATOMIC CHARGES
----------------------
   0 S :    0.393816
   1 C :   -0.197419
   2 C :   -0.066314
   3 C :   -0.064537
   4 C :   -0.198982
   5 H :    0.029287
   6 C :   -0.036075
   7 H :    0.023842
   8 H :    0.038388
   9 C :   -0.039385
  10 H :    0.026575
  11 H :    0.026805
  12 C :   -0.073241
  13 H :    0.033084
  14 H :    0.023212
  15 H :    0.025637
  16 S :    0.405404
  17 C :   -0.182876
  18 C :   -0.067194
  19 C :   -0.049694
  20 C :   -0.200854
  21 H :    0.035449
  22 C :   -0.031639
  23 H :    0.042642
  24 H :    0.037053
  25 C :   -0.050927
  26 H :    0.026672
  27 H :    0.022908
  28 C :   -0.065652
  29 H :    0.020666
  30 H :    0.026756
  31 H :    0.027863
  32 H :    0.029664
  33 H :    0.029066

  Mayer bond orders larger than 0.100000
B(  0-S ,  1-C ) :   1.1306 B(  0-S ,  4-C ) :   1.1434 B(  1-C ,  2-C ) :   1.6501
B(  1-C , 32-H ) :   0.9567 B(  2-C ,  3-C ) :   1.2189 B(  2-C ,  6-C ) :   1.0146
B(  3-C ,  4-C ) :   1.6029 B(  3-C ,  5-H ) :   0.9916 B(  4-C , 20-C ) :   0.9930
B(  6-C ,  7-H ) :   0.9510 B(  6-C ,  8-H ) :   0.9433 B(  6-C ,  9-C ) :   1.0453
B(  9-C , 10-H ) :   0.9574 B(  9-C , 11-H ) :   0.9613 B(  9-C , 12-C ) :   1.0668
B( 12-C , 13-H ) :   0.9719 B( 12-C , 14-H ) :   0.9733 B( 12-C , 15-H ) :   0.9749
B( 16-S , 17-C ) :   1.1496 B( 16-S , 20-C ) :   1.1546 B( 17-C , 18-C ) :   1.6098
B( 17-C , 33-H ) :   0.9619 B( 18-C , 19-C ) :   1.2134 B( 18-C , 21-H ) :   0.9884
B( 19-C , 20-C ) :   1.6248 B( 19-C , 22-C ) :   1.0538 B( 22-C , 23-H ) :   0.9445
B( 22-C , 24-H ) :   0.9078 B( 22-C , 25-C ) :   1.0524 B( 25-C , 26-H ) :   0.9457
B( 25-C , 27-H ) :   0.9625 B( 25-C , 28-C ) :   1.0971 B( 28-C , 29-H ) :   0.9691
B( 28-C , 30-H ) :   0.9714 B( 28-C , 31-H ) :   0.9730

Dispersion correction           -0.014332241
FINAL SINGLE POINT ENERGY     -1339.868029230058

DIPOLE MOMENT
-------------
                                X             Y             Z
Electronic contribution:      3.56148      16.93441     -14.79086
Nuclear contribution   :     -3.74951     -17.25601      15.27072
                        -----------------------------------------
Total Dipole Moment    :     -0.18802      -0.32160       0.47986
                        -----------------------------------------
Magnitude (a.u.)       :      0.60749
Magnitude (Debye)      :      1.54411

Rotational constants in cm-1:     0.017490     0.008439     0.007325
Rotational constants in MHz :   524.329639   252.994709   219.593592

                             ****ORCA TERMINATED NORMALLY****
TOTAL RUN TIME: 0 days 0 hours 0 minutes 29 seconds 872 msec
