                         Program Version 4.2.1 -  RELEASE  -
|  1> ! wB97X-D3 SP def2-SVP
|  2> %pal
|  3> nprocs 16
|  4> end
|  5>
|  6> * xyz 0 1
|  7> S 	 -8.36931 	 12.389 	 81.3193
|  8> C 	 -8.77566 	 12.4206 	 79.5731
|  9> C 	 -9.27176 	 13.6658 	 79.2114
| 10> C 	 -9.35556 	 14.5298 	 80.29
| 11> C 	 -8.67442 	 14.0991 	 81.4311
| 12> H 	 -9.80002 	 15.5213 	 80.2184
| 13> C 	 -9.77566 	 14.0145 	 77.9145
| 14> H 	 -9.10256 	 13.5461 	 77.1239
| 15> H 	 -9.74624 	 15.0932 	 77.8016
| 16> C 	 -11.2582 	 13.5362 	 77.5115
| 17> H 	 -11.1856 	 13.8865 	 76.4837
| 18> H 	 -11.3211 	 12.4599 	 77.6256
| 19> C 	 -12.5244 	 14.181 	 78.1828
| 20> H 	 -12.6175 	 13.9616 	 79.2474
| 21> H 	 -12.4473 	 15.2539 	 78.1945
| 22> H 	 -13.385 	 13.9606 	 77.5102
| 23> S 	 -8.57922 	 13.9002 	 84.2004
| 24> C 	 -8.19571 	 15.3419 	 85.1329
| 25> C 	 -8.24277 	 16.4936 	 84.3653
| 26> C 	 -8.30039 	 16.2138 	 83.0086
| 27> C 	 -8.60831 	 14.8892 	 82.7112
| 28> H 	 -8.02622 	 17.5563 	 84.6371
| 29> C 	 -8.10294 	 17.3372 	 81.9688
| 30> H 	 -8.87296 	 18.0984 	 82.1123
| 31> H 	 -8.27157 	 16.8828 	 80.9774
| 32> C 	 -6.71182 	 18.0838 	 82.1028
| 33> H 	 -6.38576 	 18.4153 	 83.0935
| 34> H 	 -6.87545 	 19.0221 	 81.4972
| 35> C 	 -5.56488 	 17.3452 	 81.4519
| 36> H 	 -5.84082 	 17.1726 	 80.3812
| 37> H 	 -5.45904 	 16.3317 	 81.8487
| 38> H 	 -4.58015 	 17.9171 	 81.4934
| 39> H 	 -8.71062 	 11.5434 	 78.8712
| 40> H 	 -8.07045 	 15.3531 	 86.1624
| 41> *
| 42>
| 43>                          ****END OF INPUT****

CARTESIAN COORDINATES (ANGSTROEM)
---------------------------------
  S     -8.369310   12.389000   81.319300
  C     -8.775660   12.420600   79.573100
  C     -9.271760   13.665800   79.211400
  C     -9.355560   14.529800   80.290000
  C     -8.674420   14.099100   81.431100
  H     -9.800020   15.521300   80.218400
  C     -9.775660   14.014500   77.914500
  H     -9.102560   13.546100   77.123900
  H     -9.746240   15.093200   77.801600
  C    -11.258200   13.536200   77.511500
  H    -11.185600   13.886500   76.483700
  H    -11.321100   12.459900   77.625600
  C    -12.524400   14.181000   78.182800
  H    -12.617500   13.961600   79.247400
  H    -12.447300   15.253900   78.194500
  H    -13.385000   13.960600   77.510200
  S     -8.579220   13.900200   84.200400
  C     -8.195710   15.341900   85.132900
  C     -8.242770   16.493600   84.365300
  C     -8.300390   16.213800   83.008600
  C     -8.608310   14.889200   82.711200
  H     -8.026220   17.556300   84.637100
  C     -8.102940   17.337200   81.968800
  H     -8.872960   18.098400   82.112300
  H     -8.271570   16.882800   80.977400
  C     -6.711820   18.083800   82.102800
  H     -6.385760   18.415300   83.093500
  H     -6.875450   19.022100   81.497200
  C     -5.564880   17.345200   81.451900
  H     -5.840820   17.172600   80.381200
  H     -5.459040   16.331700   81.848700
  H     -4.580150   17.917100   81.493400
  H     -8.710620   11.543400   78.871200
  H     -8.070450   15.353100   86.162400

 Total Charge           Charge          ....    0
 Multiplicity           Mult            ....    1
 Number of Electrons    NEL             ....  134
 Basis Dimension        Dim             ....  322

ORBITAL ENERGIES
----------------

  NO   OCC          E(Eh)            E(eV)
   0   2.0000     -88.970634     -2421.0140
   1   2.0000     -88.967407     -2420.9262
   2   2.0000     -10.334263      -281.2096
   3   2.0000     -10.332124      -281.1514
   4   2.0000     -10.319064      -280.7960
   5   2.0000     -10.317513      -280.7538
   6   2.0000     -10.300360      -280.2870
   7   2.0000     -10.300042      -280.2784
   8   2.0000     -10.294709      -280.1333
   9   2.0000     -10.294592      -280.1301
  10   2.0000     -10.294373      -280.1241
  11   2.0000     -10.293538      -280.1014
  12   2.0000     -10.291899      -280.0568
  13   2.0000     -10.289568      -279.9934
  14   2.0000     -10.283088      -279.8171
  15   2.0000     -10.279228      -279.7120
  16   2.0000      -8.084463      -219.9894
  17   2.0000      -8.081519      -219.9093
  18   2.0000      -6.043032      -164.4393
  19   2.0000      -6.040046      -164.3580
  20   2.0000      -6.039249      -164.3363
  21   2.0000      -6.036232      -164.2542
  22   2.0000      -6.035062      -164.2224
  23   2.0000      -6.032202      -164.1446
  24   2.0000      -1.005234       -27.3538
  25   2.0000      -0.985852       -26.8264
  26   2.0000      -0.910481       -24.7755
  27   2.0000      -0.902900       -24.5692
  28   2.0000      -0.861557       -23.4442
  29   2.0000      -0.851571       -23.1724
  30   2.0000      -0.846208       -23.0265
  31   2.0000      -0.811506       -22.0822
  32   2.0000      -0.781821       -21.2744
  33   2.0000      -0.771178       -20.9848
  34   2.0000      -0.707102       -19.2412
  35   2.0000      -0.699168       -19.0253
  36   2.0000      -0.694315       -18.8933
  37   2.0000      -0.661169       -17.9913
  38   2.0000      -0.632778       -17.2188
  39   2.0000      -0.615894       -16.7593
  40   2.0000      -0.599464       -16.3122
  41   2.0000      -0.575050       -15.6479
  42   2.0000      -0.548123       -14.9152
  43   2.0000      -0.538618       -14.6565
  44   2.0000      -0.537656       -14.6304
  45   2.0000      -0.531204       -14.4548
  46   2.0000      -0.518000       -14.0955
  47   2.0000      -0.516223       -14.0471
  48   2.0000      -0.500866       -13.6293
  49   2.0000      -0.494963       -13.4686
  50   2.0000      -0.486767       -13.2456
  51   2.0000      -0.477475       -12.9928
  52   2.0000      -0.471874       -12.8404
  53   2.0000      -0.463264       -12.6061
  54   2.0000      -0.460763       -12.5380
  55   2.0000      -0.448076       -12.1928
  56   2.0000      -0.442579       -12.0432
  57   2.0000      -0.435280       -11.8446
  58   2.0000      -0.431703       -11.7472
  59   2.0000      -0.431084       -11.7304
  60   2.0000      -0.423073       -11.5124
  61   2.0000      -0.419642       -11.4190
  62   2.0000      -0.405501       -11.0342
  63   2.0000      -0.349276        -9.5043
  64   2.0000      -0.335970        -9.1422
  65   2.0000      -0.328947        -8.9511
  66   2.0000      -0.281738        -7.6665
  67   0.0000       0.018115         0.4929
  68   0.0000       0.075111         2.0439
  69   0.0000       0.089397         2.4326
  70   0.0000       0.116296         3.1646
  71   0.0000       0.137952         3.7539

MULLIKEN ATOMIC CHARGES
-----------------------
   0 S :    0.102846
   1 C :   -0.147330
   2 C :   -0.032349
   3 C :   -0.018568
   4 C :   -0.105401
   5 H :    0.021378
   6 C :    0.007515
   7 H :    0.040434
   8 H :    0.018110
   9 C :   -0.075949
  10 H :    0.035678
  11 H :    0.035920
  12 C :   -0.051250
  13 H :    0.049262
  14 H :    0.012163
  15 H :    0.050439
  16 S :    0.085985
  17 C :   -0.065266
  18 C :   -0.013023
  19 C :   -0.086202
  20 C :   -0.139094
  21 H :    0.032726
  22 C :    0.065027
  23 H :    0.037104
  24 H :    0.017742
  25 C :   -0.096359
  26 H :    0.035728
  27 H :    0.032705
  28 C :   -0.071542
  29 H :    0.028160
  30 H :    0.042910
  31 H :    0.050446
  32 H :    0.064445
  33 H :    0.035609
Sum of atomic charges:   -0.0000000

LOEWDIN ATOMIC CHARGES
----------------------
   0 S :    0.396016
   1 C :   -0.196210
   2 C :   -0.077080
   3 C :   -0.069523
   4 C :   -0.191282
   5 H :    0.029963
   6 C :   -0.039817
   7 H :    0.043250
   8 H :    0.026864
   9 C :   -0.030388
  10 H :    0.026569
  11 H :    0.021627
  12 C :   -0.072319
  13 H :    0.029875
  14 H :    0.018815
  15 H :    0.037357
  16 S :    0.382947
  17 C :   -0.162865
  18 C :   -0.072842
  19 C :   -0.064242
  20 C :   -0.183061
  21 H :    0.040538
  22 C :   -0.026045
  23 H :    0.032812
  24 H :    0.029779
  25 C :   -0.046729
  26 H :    0.021951
  27 H :    0.028933
  28 C :   -0.075623
  29 H :    0.026989
  30 H :    0.026802
  31 H :    0.033784
  32 H :    0.038909
  33 H :    0.014244

  Mayer bond orders larger than 0.100000
B(  0-S ,  1-C ) :   1.1265 B(  0-S ,  4-C ) :   1.1647 B(  1-C ,  2-C ) :   1.5633
B(  1-C ,  4-C ) :   0.1024 B(  1-C , 32-H ) :   0.9629 B(  2-C ,  3-C ) :   1.2843
B(  2-C ,  6-C ) :   1.0536 B(  3-C ,  4-C ) :   1.5224 B(  3-C ,  5-H ) :   0.9833
B(  4-C , 20-C ) :   1.0432 B(  6-C ,  7-H ) :   0.9343 B(  6-C ,  8-H ) :   0.9369
B(  6-C ,  9-C ) :   1.0560 B(  9-C , 10-H ) :   0.9598 B(  9-C , 11-H ) :   0.9598
B(  9-C , 12-C ) :   1.0729 B( 12-C , 13-H ) :   0.9760 B( 12-C , 14-H ) :   0.9737
B( 12-C , 15-H ) :   0.9731 B( 16-S , 17-C ) :   1.1620 B( 16-S , 20-C ) :   1.1198
B( 17-C , 18-C ) :   1.5813 B( 17-C , 33-H ) :   0.9751 B( 18-C , 19-C ) :   1.2809
B( 18-C , 21-H ) :   0.9738 B( 19-C , 20-C ) :   1.6013 B( 19-C , 22-C ) :   1.0292
B( 22-C , 23-H ) :   0.9401 B( 22-C , 24-H ) :   0.9355 B( 22-C , 25-C ) :   1.0550
B( 25-C , 26-H ) :   0.9599 B( 25-C , 27-H ) :   0.9552 B( 25-C , 28-C ) :   1.0757
B( 28-C , 29-H ) :   0.9720 B( 28-C , 30-H ) :   0.9769 B( 28-C , 31-H ) :   0.9727

Dispersion correction           -0.014254320
FINAL SINGLE POINT ENERGY     -1339.862296659385

DIPOLE MOMENT
-------------
                                X             Y             Z
Electronic contribution:      3.15515     -16.22619      19.01520
Nuclear contribution   :     -3.29192      16.79004     -19.44844
                        -----------------------------------------
Total Dipole Moment    :     -0.13678       0.56385      -0.43324
                        -----------------------------------------
Magnitude (a.u.)       :      0.72411
Magnitude (Debye)      :      1.84055

Rotational constants in cm-1:     0.019065     0.008356     0.007100
Rotational constants in MHz :   571.560009   250.492382   212.849017

                             ****ORCA TERMINATED NORMALLY****
TOTAL RUN TIME: 0 days 0 hours 0 minutes 35 seconds 42 msec
