                         Program Version 4.2.1 -  RELEASE  -
|  1> ! wB97X-D3 SP def2-SVP
|  2> %pal
|  3> nprocs 16
|  4> end
|  5>
|  6> * xyz 0 1
|  7> S 	 -96.7571 	 52 	 121.332
|  8> C 	 -95.9639 	 52.2681 	 119.871
|  9> C 	 -96.6103 	 53.1607 	 119.042
| 10> C 	 -97.9416 	 53.3434 	 119.471
| 11> C 	 -98.2284 	 52.6355 	 120.616
| 12> H 	 -98.6694 	 54.0141 	 118.98
| 13> C 	 -96.1401 	 53.7456 	 117.68
| 14> H 	 -95.0117 	 53.664 	 117.642
| 15> H 	 -96.3576 	 54.8307 	 117.705
| 16> C 	 -96.6983 	 53.058 	 116.383
| 17> H 	 -96.2724 	 51.9845 	 116.35
| 18> H 	 -97.817 	 53.0205 	 116.316
| 19> C 	 -96.2044 	 53.6207 	 115.08
| 20> H 	 -96.7143 	 53.0475 	 114.238
| 21> H 	 -96.4132 	 54.6763 	 115.022
| 22> H 	 -95.0784 	 53.4906 	 114.934
| 23> S 	 -99.3577 	 53.1581 	 122.984
| 24> C 	 -101.014 	 52.7611 	 123.381
| 25> C 	 -101.575 	 52.1209 	 122.304
| 26> C 	 -100.784 	 52.1496 	 121.108
| 27> C 	 -99.4815 	 52.5895 	 121.342
| 28> H 	 -102.529 	 51.6348 	 122.395
| 29> C 	 -101.186 	 51.5141 	 119.865
| 30> H 	 -100.373 	 51.7407 	 119.127
| 31> H 	 -102.043 	 52.0072 	 119.466
| 32> C 	 -101.638 	 50.0455 	 120.145
| 33> H 	 -101.686 	 49.5074 	 119.197
| 34> H 	 -102.62 	 50.0724 	 120.603
| 35> C 	 -100.534 	 49.2731 	 120.88
| 36> H 	 -100.765 	 48.2703 	 121.016
| 37> H 	 -100.333 	 49.6332 	 121.873
| 38> H 	 -99.6597 	 49.3803 	 120.268
| 39> H 	 -95.0238 	 51.9687 	 119.468
| 40> H 	 -101.563 	 52.8311 	 124.214
| 41> *
| 42>
| 43>                          ****END OF INPUT****

CARTESIAN COORDINATES (ANGSTROEM)
---------------------------------
  S    -96.757100   52.000000  121.332000
  C    -95.963900   52.268100  119.871000
  C    -96.610300   53.160700  119.042000
  C    -97.941600   53.343400  119.471000
  C    -98.228400   52.635500  120.616000
  H    -98.669400   54.014100  118.980000
  C    -96.140100   53.745600  117.680000
  H    -95.011700   53.664000  117.642000
  H    -96.357600   54.830700  117.705000
  C    -96.698300   53.058000  116.383000
  H    -96.272400   51.984500  116.350000
  H    -97.817000   53.020500  116.316000
  C    -96.204400   53.620700  115.080000
  H    -96.714300   53.047500  114.238000
  H    -96.413200   54.676300  115.022000
  H    -95.078400   53.490600  114.934000
  S    -99.357700   53.158100  122.984000
  C    -101.014000   52.761100  123.381000
  C    -101.575000   52.120900  122.304000
  C    -100.784000   52.149600  121.108000
  C    -99.481500   52.589500  121.342000
  H    -102.529000   51.634800  122.395000
  C    -101.186000   51.514100  119.865000
  H    -100.373000   51.740700  119.127000
  H    -102.043000   52.007200  119.466000
  C    -101.638000   50.045500  120.145000
  H    -101.686000   49.507400  119.197000
  H    -102.620000   50.072400  120.603000
  C    -100.534000   49.273100  120.880000
  H    -100.765000   48.270300  121.016000
  H    -100.333000   49.633200  121.873000
  H    -99.659700   49.380300  120.268000
  H    -95.023800   51.968700  119.468000
  H    -101.563000   52.831100  124.214000

 Total Charge           Charge          ....    0
 Multiplicity           Mult            ....    1
 Number of Electrons    NEL             ....  134
 Basis Dimension        Dim             ....  322

ORBITAL ENERGIES
----------------

  NO   OCC          E(Eh)            E(eV)
   0   2.0000     -88.971923     -2421.0491
   1   2.0000     -88.959881     -2420.7214
   2   2.0000     -10.328263      -281.0463
   3   2.0000     -10.322306      -280.8842
   4   2.0000     -10.307475      -280.4807
   5   2.0000     -10.306885      -280.4646
   6   2.0000     -10.306107      -280.4434
   7   2.0000     -10.299365      -280.2600
   8   2.0000     -10.298500      -280.2364
   9   2.0000     -10.295759      -280.1618
  10   2.0000     -10.294357      -280.1237
  11   2.0000     -10.288072      -279.9527
  12   2.0000     -10.287264      -279.9307
  13   2.0000     -10.285662      -279.8871
  14   2.0000     -10.282883      -279.8115
  15   2.0000     -10.260104      -279.1916
  16   2.0000      -8.087474      -220.0714
  17   2.0000      -8.074822      -219.7271
  18   2.0000      -6.045918      -164.5178
  19   2.0000      -6.042139      -164.4150
  20   2.0000      -6.037946      -164.3009
  21   2.0000      -6.033511      -164.1802
  22   2.0000      -6.029166      -164.0619
  23   2.0000      -6.025505      -163.9623
  24   2.0000      -1.015169       -27.6242
  25   2.0000      -0.989867       -26.9357
  26   2.0000      -0.912860       -24.8402
  27   2.0000      -0.906082       -24.6558
  28   2.0000      -0.874803       -23.8046
  29   2.0000      -0.856893       -23.3172
  30   2.0000      -0.842154       -22.9162
  31   2.0000      -0.818026       -22.2596
  32   2.0000      -0.780117       -21.2281
  33   2.0000      -0.771722       -20.9996
  34   2.0000      -0.710764       -19.3409
  35   2.0000      -0.701387       -19.0857
  36   2.0000      -0.687901       -18.7187
  37   2.0000      -0.659481       -17.9454
  38   2.0000      -0.638589       -17.3769
  39   2.0000      -0.622221       -16.9315
  40   2.0000      -0.593955       -16.1623
  41   2.0000      -0.570479       -15.5235
  42   2.0000      -0.561342       -15.2749
  43   2.0000      -0.558982       -15.2107
  44   2.0000      -0.540020       -14.6947
  45   2.0000      -0.529033       -14.3957
  46   2.0000      -0.526467       -14.3259
  47   2.0000      -0.509645       -13.8681
  48   2.0000      -0.505164       -13.7462
  49   2.0000      -0.500066       -13.6075
  50   2.0000      -0.489997       -13.3335
  51   2.0000      -0.475582       -12.9412
  52   2.0000      -0.468819       -12.7572
  53   2.0000      -0.463218       -12.6048
  54   2.0000      -0.458777       -12.4840
  55   2.0000      -0.445603       -12.1255
  56   2.0000      -0.437240       -11.8979
  57   2.0000      -0.434038       -11.8108
  58   2.0000      -0.433376       -11.7928
  59   2.0000      -0.427187       -11.6243
  60   2.0000      -0.425180       -11.5697
  61   2.0000      -0.415744       -11.3130
  62   2.0000      -0.409938       -11.1550
  63   2.0000      -0.348767        -9.4904
  64   2.0000      -0.333237        -9.0678
  65   2.0000      -0.322445        -8.7742
  66   2.0000      -0.288343        -7.8462
  67   0.0000       0.033646         0.9156
  68   0.0000       0.061411         1.6711
  69   0.0000       0.112060         3.0493
  70   0.0000       0.122907         3.3445
  71   0.0000       0.135770         3.6945

MULLIKEN ATOMIC CHARGES
-----------------------
   0 S :    0.146927
   1 C :   -0.068217
   2 C :   -0.106095
   3 C :    0.030913
   4 C :   -0.155769
   5 H :    0.025886
   6 C :    0.036261
   7 H :    0.026835
   8 H :    0.039393
   9 C :   -0.101524
  10 H :    0.040243
  11 H :    0.043102
  12 C :   -0.073266
  13 H :    0.049380
  14 H :    0.029668
  15 H :    0.039635
  16 S :    0.087268
  17 C :   -0.008362
  18 C :   -0.062611
  19 C :   -0.055780
  20 C :   -0.168369
  21 H :    0.012955
  22 C :    0.089221
  23 H :    0.025597
  24 H :    0.017743
  25 C :   -0.097705
  26 H :    0.030906
  27 H :    0.034170
  28 C :   -0.001370
  29 H :    0.015133
  30 H :    0.032498
  31 H :    0.027314
  32 H :    0.019399
  33 H :   -0.001380
Sum of atomic charges:   -0.0000000

LOEWDIN ATOMIC CHARGES
----------------------
   0 S :    0.438269
   1 C :   -0.212086
   2 C :   -0.069564
   3 C :   -0.057526
   4 C :   -0.198026
   5 H :    0.037741
   6 C :   -0.037539
   7 H :    0.032997
   8 H :    0.033525
   9 C :   -0.054606
  10 H :    0.034892
  11 H :    0.027568
  12 C :   -0.075422
  13 H :    0.037107
  14 H :    0.017822
  15 H :    0.029529
  16 S :    0.401386
  17 C :   -0.170183
  18 C :   -0.064814
  19 C :   -0.062494
  20 C :   -0.199801
  21 H :    0.027394
  22 C :   -0.038641
  23 H :    0.035062
  24 H :    0.027814
  25 C :   -0.032325
  26 H :    0.027711
  27 H :    0.019923
  28 C :   -0.055502
  29 H :    0.015117
  30 H :    0.023035
  31 H :    0.028195
  32 H :    0.025708
  33 H :    0.007734

  Mayer bond orders larger than 0.100000
B(  0-S ,  1-C ) :   1.1499 B(  0-S ,  4-C ) :   1.1414 B(  1-C ,  2-C ) :   1.6189
B(  1-C , 32-H ) :   0.9611 B(  2-C ,  3-C ) :   1.2432 B(  2-C ,  6-C ) :   1.0289
B(  3-C ,  4-C ) :   1.5645 B(  3-C ,  5-H ) :   0.9953 B(  4-C , 20-C ) :   1.0388
B(  6-C ,  7-H ) :   0.9419 B(  6-C ,  8-H ) :   0.9404 B(  6-C ,  9-C ) :   1.0532
B(  9-C , 10-H ) :   0.9552 B(  9-C , 11-H ) :   0.9567 B(  9-C , 12-C ) :   1.0829
B( 12-C , 13-H ) :   0.9720 B( 12-C , 14-H ) :   0.9736 B( 12-C , 15-H ) :   0.9744
B( 16-S , 17-C ) :   1.1334 B( 16-S , 20-C ) :   1.1426 B( 17-C , 18-C ) :   1.6276
B( 17-C , 33-H ) :   0.9789 B( 18-C , 19-C ) :   1.2251 B( 18-C , 21-H ) :   0.9865
B( 19-C , 20-C ) :   1.5863 B( 19-C , 22-C ) :   1.0716 B( 22-C , 23-H ) :   0.9332
B( 22-C , 24-H ) :   0.9165 B( 22-C , 25-C ) :   1.0648 B( 25-C , 26-H ) :   0.9571
B( 25-C , 27-H ) :   0.9519 B( 25-C , 28-C ) :   1.0744 B( 28-C , 29-H ) :   0.9736
B( 28-C , 30-H ) :   0.9690 B( 28-C , 31-H ) :   0.9752

Dispersion correction           -0.014817582
FINAL SINGLE POINT ENERGY     -1339.855313608730

DIPOLE MOMENT
-------------
                                X             Y             Z
Electronic contribution:      2.86426       6.07543      24.97779
Nuclear contribution   :     -3.05853      -6.18469     -25.57917
                        -----------------------------------------
Total Dipole Moment    :     -0.19426      -0.10926      -0.60138
                        -----------------------------------------
Magnitude (a.u.)       :      0.64135
Magnitude (Debye)      :      1.63018

Rotational constants in cm-1:     0.021631     0.008036     0.006905
Rotational constants in MHz :   648.466704   240.903098   207.007315

                             ****ORCA TERMINATED NORMALLY****
TOTAL RUN TIME: 0 days 0 hours 0 minutes 34 seconds 375 msec
