                         Program Version 4.2.1 -  RELEASE  -
|  1> ! wB97X-D3 SP def2-SVP
|  2> %pal
|  3> nprocs 16
|  4> end
|  5>
|  6> * xyz 0 1
|  7> S 	 -16.7917 	 -6.35128 	 82.9518
|  8> C 	 -16.2572 	 -7.0606 	 81.4628
|  9> C 	 -16.3943 	 -8.45636 	 81.484
| 10> C 	 -16.9963 	 -8.9208 	 82.7126
| 11> C 	 -17.2002 	 -7.90702 	 83.6734
| 12> H 	 -17.2815 	 -9.94026 	 82.9604
| 13> C 	 -16.1296 	 -9.37032 	 80.2617
| 14> H 	 -15.5777 	 -8.85578 	 79.4101
| 15> H 	 -17.0825 	 -9.81356 	 80.0956
| 16> C 	 -15.1122 	 -10.4497 	 80.5574
| 17> H 	 -14.1079 	 -10.0247 	 80.7296
| 18> H 	 -15.5568 	 -10.9539 	 81.4206
| 19> C 	 -15.0263 	 -11.4254 	 79.4491
| 20> H 	 -14.766 	 -10.9506 	 78.5349
| 21> H 	 -14.1668 	 -12.1162 	 79.4922
| 22> H 	 -15.9522 	 -11.9626 	 79.3081
| 23> S 	 -18.9257 	 -9.40575 	 85.1033
| 24> C 	 -19.4882 	 -8.78137 	 86.6816
| 25> C 	 -18.7988 	 -7.63488 	 87.0628
| 26> C 	 -17.8032 	 -7.24821 	 86.0637
| 27> C 	 -17.8427 	 -8.00525 	 84.9331
| 28> H 	 -19.1151 	 -7.11167 	 87.9948
| 29> C 	 -16.9735 	 -6.03211 	 86.3269
| 30> H 	 -17.7524 	 -5.27159 	 86.457
| 31> H 	 -16.4188 	 -5.65478 	 85.4709
| 32> C 	 -16.1142 	 -6.14699 	 87.6402
| 33> H 	 -15.2259 	 -6.78806 	 87.3916
| 34> H 	 -16.6772 	 -6.5732 	 88.3893
| 35> C 	 -15.6097 	 -4.78123 	 88.2344
| 36> H 	 -15.1435 	 -4.86321 	 89.1824
| 37> H 	 -16.4477 	 -4.04691 	 88.2296
| 38> H 	 -14.8393 	 -4.28884 	 87.6324
| 39> H 	 -15.9008 	 -6.55004 	 80.5696
| 40> H 	 -20.2174 	 -9.22705 	 87.2432
| 41> *
| 42>
| 43>                          ****END OF INPUT****

CARTESIAN COORDINATES (ANGSTROEM)
---------------------------------
  S    -16.791700   -6.351280   82.951800
  C    -16.257200   -7.060600   81.462800
  C    -16.394300   -8.456360   81.484000
  C    -16.996300   -8.920800   82.712600
  C    -17.200200   -7.907020   83.673400
  H    -17.281500   -9.940260   82.960400
  C    -16.129600   -9.370320   80.261700
  H    -15.577700   -8.855780   79.410100
  H    -17.082500   -9.813560   80.095600
  C    -15.112200  -10.449700   80.557400
  H    -14.107900  -10.024700   80.729600
  H    -15.556800  -10.953900   81.420600
  C    -15.026300  -11.425400   79.449100
  H    -14.766000  -10.950600   78.534900
  H    -14.166800  -12.116200   79.492200
  H    -15.952200  -11.962600   79.308100
  S    -18.925700   -9.405750   85.103300
  C    -19.488200   -8.781370   86.681600
  C    -18.798800   -7.634880   87.062800
  C    -17.803200   -7.248210   86.063700
  C    -17.842700   -8.005250   84.933100
  H    -19.115100   -7.111670   87.994800
  C    -16.973500   -6.032110   86.326900
  H    -17.752400   -5.271590   86.457000
  H    -16.418800   -5.654780   85.470900
  C    -16.114200   -6.146990   87.640200
  H    -15.225900   -6.788060   87.391600
  H    -16.677200   -6.573200   88.389300
  C    -15.609700   -4.781230   88.234400
  H    -15.143500   -4.863210   89.182400
  H    -16.447700   -4.046910   88.229600
  H    -14.839300   -4.288840   87.632400
  H    -15.900800   -6.550040   80.569600
  H    -20.217400   -9.227050   87.243200

 Total Charge           Charge          ....    0
 Multiplicity           Mult            ....    1
 Number of Electrons    NEL             ....  134
 Basis Dimension        Dim             ....  322

ORBITAL ENERGIES
----------------

  NO   OCC          E(Eh)            E(eV)
   0   2.0000     -88.968499     -2420.9559
   1   2.0000     -88.964057     -2420.8351
   2   2.0000     -10.332504      -281.1617
   3   2.0000     -10.326283      -280.9924
   4   2.0000     -10.318615      -280.7838
   5   2.0000     -10.314094      -280.6608
   6   2.0000     -10.306489      -280.4538
   7   2.0000     -10.306153      -280.4447
   8   2.0000     -10.303858      -280.3822
   9   2.0000     -10.299314      -280.2586
  10   2.0000     -10.294945      -280.1397
  11   2.0000     -10.292368      -280.0696
  12   2.0000     -10.289453      -279.9902
  13   2.0000     -10.280326      -279.7419
  14   2.0000     -10.278900      -279.7031
  15   2.0000     -10.270387      -279.4714
  16   2.0000      -8.082611      -219.9390
  17   2.0000      -8.078031      -219.8144
  18   2.0000      -6.041179      -164.3888
  19   2.0000      -6.037101      -164.2779
  20   2.0000      -6.036765      -164.2687
  21   2.0000      -6.033462      -164.1788
  22   2.0000      -6.032851      -164.1622
  23   2.0000      -6.028403      -164.0412
  24   2.0000      -1.005281       -27.3551
  25   2.0000      -0.978378       -26.6230
  26   2.0000      -0.920582       -25.0503
  27   2.0000      -0.904177       -24.6039
  28   2.0000      -0.875449       -23.8222
  29   2.0000      -0.852083       -23.1864
  30   2.0000      -0.843474       -22.9521
  31   2.0000      -0.811134       -22.0721
  32   2.0000      -0.783547       -21.3214
  33   2.0000      -0.771621       -20.9969
  34   2.0000      -0.711274       -19.3547
  35   2.0000      -0.704044       -19.1580
  36   2.0000      -0.687768       -18.7151
  37   2.0000      -0.671415       -18.2701
  38   2.0000      -0.634690       -17.2708
  39   2.0000      -0.617121       -16.7927
  40   2.0000      -0.598736       -16.2924
  41   2.0000      -0.584994       -15.9185
  42   2.0000      -0.564859       -15.3706
  43   2.0000      -0.558407       -15.1950
  44   2.0000      -0.529905       -14.4195
  45   2.0000      -0.523003       -14.2316
  46   2.0000      -0.518863       -14.1190
  47   2.0000      -0.514165       -13.9911
  48   2.0000      -0.510872       -13.9015
  49   2.0000      -0.503844       -13.7103
  50   2.0000      -0.485967       -13.2238
  51   2.0000      -0.479981       -13.0609
  52   2.0000      -0.470563       -12.8047
  53   2.0000      -0.461720       -12.5640
  54   2.0000      -0.455722       -12.4008
  55   2.0000      -0.453013       -12.3271
  56   2.0000      -0.448601       -12.2071
  57   2.0000      -0.439135       -11.9495
  58   2.0000      -0.434069       -11.8116
  59   2.0000      -0.425222       -11.5709
  60   2.0000      -0.421244       -11.4626
  61   2.0000      -0.412084       -11.2134
  62   2.0000      -0.404844       -11.0164
  63   2.0000      -0.360854        -9.8193
  64   2.0000      -0.330713        -8.9991
  65   2.0000      -0.327544        -8.9129
  66   2.0000      -0.281250        -7.6532
  67   0.0000       0.019881         0.5410
  68   0.0000       0.079323         2.1585
  69   0.0000       0.102308         2.7839
  70   0.0000       0.118394         3.2217
  71   0.0000       0.125265         3.4086

MULLIKEN ATOMIC CHARGES
-----------------------
   0 S :    0.104879
   1 C :   -0.118049
   2 C :   -0.077741
   3 C :   -0.014502
   4 C :   -0.133698
   5 H :    0.023491
   6 C :    0.056950
   7 H :    0.029184
   8 H :    0.031469
   9 C :   -0.090436
  10 H :    0.036881
  11 H :    0.023946
  12 C :   -0.008188
  13 H :    0.002155
  14 H :    0.029584
  15 H :    0.026014
  16 S :    0.070492
  17 C :   -0.051007
  18 C :   -0.049983
  19 C :   -0.058590
  20 C :   -0.101134
  21 H :    0.046682
  22 C :    0.055348
  23 H :    0.028966
  24 H :    0.024950
  25 C :   -0.060761
  26 H :    0.048517
  27 H :    0.017113
  28 C :   -0.055883
  29 H :    0.033227
  30 H :    0.029053
  31 H :    0.026743
  32 H :    0.049657
  33 H :    0.024670
Sum of atomic charges:   -0.0000000

LOEWDIN ATOMIC CHARGES
----------------------
   0 S :    0.420798
   1 C :   -0.212583
   2 C :   -0.058042
   3 C :   -0.075652
   4 C :   -0.184112
   5 H :    0.023819
   6 C :   -0.026718
   7 H :    0.036830
   8 H :    0.029590
   9 C :   -0.045672
  10 H :    0.029187
  11 H :    0.021608
  12 C :   -0.066571
  13 H :    0.017200
  14 H :    0.030401
  15 H :    0.024028
  16 S :    0.371112
  17 C :   -0.149833
  18 C :   -0.067182
  19 C :   -0.055859
  20 C :   -0.184845
  21 H :    0.042180
  22 C :   -0.037249
  23 H :    0.034818
  24 H :    0.016997
  25 C :   -0.027085
  26 H :    0.034910
  27 H :    0.010755
  28 C :   -0.068474
  29 H :    0.021886
  30 H :    0.026760
  31 H :    0.024604
  32 H :    0.032476
  33 H :    0.009916

  Mayer bond orders larger than 0.100000
B(  0-S ,  1-C ) :   1.1400 B(  0-S ,  4-C ) :   1.1481 B(  1-C ,  2-C ) :   1.6048
B(  1-C , 32-H ) :   0.9662 B(  2-C ,  3-C ) :   1.2532 B(  2-C ,  6-C ) :   1.0181
B(  3-C ,  4-C ) :   1.5350 B(  3-C ,  5-H ) :   0.9785 B(  4-C , 20-C ) :   1.1260
B(  6-C ,  7-H ) :   0.9489 B(  6-C ,  8-H ) :   0.9404 B(  6-C ,  9-C ) :   1.0608
B(  9-C , 10-H ) :   0.9552 B(  9-C , 11-H ) :   0.9548 B(  9-C , 12-C ) :   1.1015
B( 12-C , 13-H ) :   0.9634 B( 12-C , 14-H ) :   0.9694 B( 12-C , 15-H ) :   0.9714
B( 16-S , 17-C ) :   1.1298 B( 16-S , 20-C ) :   1.0924 B( 17-C , 18-C ) :   1.6630
B( 17-C , 33-H ) :   0.9790 B( 18-C , 19-C ) :   1.1698 B( 18-C , 21-H ) :   0.9790
B( 19-C , 20-C ) :   1.6276 B( 19-C , 22-C ) :   1.0438 B( 22-C , 23-H ) :   0.9317
B( 22-C , 24-H ) :   0.9345 B( 22-C , 25-C ) :   1.0499 B( 25-C , 26-H ) :   0.9558
B( 25-C , 27-H ) :   0.9623 B( 25-C , 28-C ) :   1.0754 B( 28-C , 29-H ) :   0.9767
B( 28-C , 30-H ) :   0.9761 B( 28-C , 31-H ) :   0.9765

Dispersion correction           -0.013144212
FINAL SINGLE POINT ENERGY     -1339.867904682693

DIPOLE MOMENT
-------------
                                X             Y             Z
Electronic contribution:    -13.81651       1.23701       1.91572
Nuclear contribution   :     13.91721      -1.21705      -1.85413
                        -----------------------------------------
Total Dipole Moment    :      0.10071       0.01996       0.06159
                        -----------------------------------------
Magnitude (a.u.)       :      0.11973
Magnitude (Debye)      :      0.30432

Rotational constants in cm-1:     0.021985     0.007095     0.005985
Rotational constants in MHz :   659.092679   212.695666   179.412012

                             ****ORCA TERMINATED NORMALLY****
TOTAL RUN TIME: 0 days 0 hours 0 minutes 30 seconds 559 msec
