                         Program Version 4.2.1 -  RELEASE  -
|  1> ! wB97X-D3 SP def2-SVP
|  2> %pal
|  3> nprocs 16
|  4> end
|  5>
|  6> * xyz 0 1
|  7> S 	 -42.4692 	 24.9745 	 80.4933
|  8> C 	 -41.265 	 26.2438 	 80.7721
|  9> C 	 -40.0406 	 25.9437 	 80.1643
| 10> C 	 -40.0882 	 24.7456 	 79.3851
| 11> C 	 -41.3735 	 24.2017 	 79.3376
| 12> H 	 -39.358 	 24.3089 	 78.7563
| 13> C 	 -38.8184 	 26.8809 	 80.2746
| 14> H 	 -37.9846 	 26.3363 	 79.904
| 15> H 	 -38.6473 	 27.0888 	 81.3459
| 16> C 	 -38.9937 	 28.219 	 79.4904
| 17> H 	 -38.9657 	 27.9529 	 78.496
| 18> H 	 -39.9926 	 28.5307 	 79.6519
| 19> C 	 -38.0325 	 29.3145 	 79.7749
| 20> H 	 -38.0821 	 30.187 	 79.0911
| 21> H 	 -38.0026 	 29.7076 	 80.8388
| 22> H 	 -37.0214 	 28.9994 	 79.6706
| 23> S 	 -42.2397 	 21.691 	 79.912
| 24> C 	 -42.1084 	 20.4795 	 78.7082
| 25> C 	 -41.983 	 21.0912 	 77.4631
| 26> C 	 -41.6314 	 22.4631 	 77.5063
| 27> C 	 -41.6167 	 22.8895 	 78.8068
| 28> H 	 -42.0116 	 20.6088 	 76.485
| 29> C 	 -41.3311 	 23.3041 	 76.292
| 30> H 	 -40.3542 	 22.9641 	 75.9556
| 31> H 	 -41.2531 	 24.2975 	 76.6269
| 32> C 	 -42.3591 	 23.198 	 75.1301
| 33> H 	 -42.4771 	 22.2854 	 74.731
| 34> H 	 -42.0655 	 23.7567 	 74.2463
| 35> C 	 -43.7152 	 23.8029 	 75.5548
| 36> H 	 -44.3889 	 23.7976 	 74.6888
| 37> H 	 -43.6691 	 24.8636 	 75.693
| 38> H 	 -44.2826 	 23.3346 	 76.3669
| 39> H 	 -41.3075 	 27.2017 	 81.2526
| 40> H 	 -42.4525 	 19.4582 	 78.7817
| 41> *
| 42>
| 43>                          ****END OF INPUT****

CARTESIAN COORDINATES (ANGSTROEM)
---------------------------------
  S    -42.469200   24.974500   80.493300
  C    -41.265000   26.243800   80.772100
  C    -40.040600   25.943700   80.164300
  C    -40.088200   24.745600   79.385100
  C    -41.373500   24.201700   79.337600
  H    -39.358000   24.308900   78.756300
  C    -38.818400   26.880900   80.274600
  H    -37.984600   26.336300   79.904000
  H    -38.647300   27.088800   81.345900
  C    -38.993700   28.219000   79.490400
  H    -38.965700   27.952900   78.496000
  H    -39.992600   28.530700   79.651900
  C    -38.032500   29.314500   79.774900
  H    -38.082100   30.187000   79.091100
  H    -38.002600   29.707600   80.838800
  H    -37.021400   28.999400   79.670600
  S    -42.239700   21.691000   79.912000
  C    -42.108400   20.479500   78.708200
  C    -41.983000   21.091200   77.463100
  C    -41.631400   22.463100   77.506300
  C    -41.616700   22.889500   78.806800
  H    -42.011600   20.608800   76.485000
  C    -41.331100   23.304100   76.292000
  H    -40.354200   22.964100   75.955600
  H    -41.253100   24.297500   76.626900
  C    -42.359100   23.198000   75.130100
  H    -42.477100   22.285400   74.731000
  H    -42.065500   23.756700   74.246300
  C    -43.715200   23.802900   75.554800
  H    -44.388900   23.797600   74.688800
  H    -43.669100   24.863600   75.693000
  H    -44.282600   23.334600   76.366900
  H    -41.307500   27.201700   81.252600
  H    -42.452500   19.458200   78.781700

 Total Charge           Charge          ....    0
 Multiplicity           Mult            ....    1
 Number of Electrons    NEL             ....  134
 Basis Dimension        Dim             ....  322

ORBITAL ENERGIES
----------------

  NO   OCC          E(Eh)            E(eV)
   0   2.0000     -88.972166     -2421.0557
   1   2.0000     -88.962999     -2420.8063
   2   2.0000     -10.326802      -281.0066
   3   2.0000     -10.317286      -280.7476
   4   2.0000     -10.314347      -280.6676
   5   2.0000     -10.312953      -280.6297
   6   2.0000     -10.303527      -280.3732
   7   2.0000     -10.294435      -280.1258
   8   2.0000     -10.293948      -280.1126
   9   2.0000     -10.293267      -280.0940
  10   2.0000     -10.290330      -280.0141
  11   2.0000     -10.288624      -279.9677
  12   2.0000     -10.282339      -279.7967
  13   2.0000     -10.280273      -279.7404
  14   2.0000     -10.277587      -279.6674
  15   2.0000     -10.272021      -279.5159
  16   2.0000      -8.085681      -220.0226
  17   2.0000      -8.078630      -219.8307
  18   2.0000      -6.044270      -164.4730
  19   2.0000      -6.040429      -164.3684
  20   2.0000      -6.037125      -164.2785
  21   2.0000      -6.036356      -164.2576
  22   2.0000      -6.033149      -164.1703
  23   2.0000      -6.029212      -164.0632
  24   2.0000      -1.010275       -27.4910
  25   2.0000      -0.981647       -26.7120
  26   2.0000      -0.912439       -24.8287
  27   2.0000      -0.910841       -24.7852
  28   2.0000      -0.870316       -23.6825
  29   2.0000      -0.854508       -23.2524
  30   2.0000      -0.846485       -23.0340
  31   2.0000      -0.811511       -22.0823
  32   2.0000      -0.784373       -21.3439
  33   2.0000      -0.771795       -21.0016
  34   2.0000      -0.715093       -19.4587
  35   2.0000      -0.710276       -19.3276
  36   2.0000      -0.701067       -19.0770
  37   2.0000      -0.660339       -17.9688
  38   2.0000      -0.639998       -17.4152
  39   2.0000      -0.611108       -16.6291
  40   2.0000      -0.597107       -16.2481
  41   2.0000      -0.572193       -15.5702
  42   2.0000      -0.556597       -15.1458
  43   2.0000      -0.555212       -15.1081
  44   2.0000      -0.541948       -14.7472
  45   2.0000      -0.521723       -14.1968
  46   2.0000      -0.519408       -14.1338
  47   2.0000      -0.510253       -13.8847
  48   2.0000      -0.508297       -13.8315
  49   2.0000      -0.497800       -13.5458
  50   2.0000      -0.491213       -13.3666
  51   2.0000      -0.478561       -13.0223
  52   2.0000      -0.469367       -12.7721
  53   2.0000      -0.465375       -12.6635
  54   2.0000      -0.458242       -12.4694
  55   2.0000      -0.450208       -12.2508
  56   2.0000      -0.443732       -12.0746
  57   2.0000      -0.442070       -12.0293
  58   2.0000      -0.431181       -11.7330
  59   2.0000      -0.429167       -11.6782
  60   2.0000      -0.423568       -11.5259
  61   2.0000      -0.421478       -11.4690
  62   2.0000      -0.418466       -11.3871
  63   2.0000      -0.345433        -9.3997
  64   2.0000      -0.331008        -9.0072
  65   2.0000      -0.327782        -8.9194
  66   2.0000      -0.288123        -7.8402
  67   0.0000       0.030844         0.8393
  68   0.0000       0.057894         1.5754
  69   0.0000       0.105752         2.8777
  70   0.0000       0.125208         3.4071
  71   0.0000       0.135181         3.6785

MULLIKEN ATOMIC CHARGES
-----------------------
   0 S :    0.116651
   1 C :   -0.097385
   2 C :   -0.111916
   3 C :    0.038730
   4 C :   -0.164624
   5 H :    0.006746
   6 C :    0.067164
   7 H :    0.011933
   8 H :    0.034424
   9 C :   -0.005224
  10 H :    0.007216
  11 H :    0.008902
  12 C :   -0.048834
  13 H :    0.039448
  14 H :    0.032789
  15 H :    0.011624
  16 S :    0.116543
  17 C :   -0.076231
  18 C :   -0.045519
  19 C :   -0.064769
  20 C :   -0.183664
  21 H :    0.013646
  22 C :    0.132399
  23 H :    0.030935
  24 H :    0.011412
  25 C :   -0.021695
  26 H :   -0.001823
  27 H :    0.019561
  28 C :   -0.067522
  29 H :    0.017015
  30 H :    0.023029
  31 H :    0.051941
  32 H :    0.038618
  33 H :    0.058480
Sum of atomic charges:   -0.0000000

LOEWDIN ATOMIC CHARGES
----------------------
   0 S :    0.394706
   1 C :   -0.195978
   2 C :   -0.056770
   3 C :   -0.053030
   4 C :   -0.188083
   5 H :    0.027365
   6 C :   -0.023336
   7 H :    0.022514
   8 H :    0.032174
   9 C :   -0.034543
  10 H :    0.018658
  11 H :    0.017998
  12 C :   -0.072409
  13 H :    0.032795
  14 H :    0.031173
  15 H :    0.019249
  16 S :    0.419674
  17 C :   -0.202209
  18 C :   -0.068514
  19 C :   -0.060981
  20 C :   -0.201676
  21 H :    0.027933
  22 C :   -0.018792
  23 H :    0.032615
  24 H :    0.023766
  25 C :   -0.027202
  26 H :    0.004962
  27 H :    0.030772
  28 C :   -0.068359
  29 H :    0.026089
  30 H :    0.022947
  31 H :    0.028748
  32 H :    0.027576
  33 H :    0.030168

  Mayer bond orders larger than 0.100000
B(  0-S ,  1-C ) :   1.1258 B(  0-S ,  4-C ) :   1.1414 B(  1-C ,  2-C ) :   1.6160
B(  1-C , 32-H ) :   0.9638 B(  2-C ,  3-C ) :   1.2437 B(  2-C ,  6-C ) :   1.0233
B(  3-C ,  4-C ) :   1.5590 B(  3-C ,  5-H ) :   0.9982 B(  4-C , 20-C ) :   1.0506
B(  6-C ,  7-H ) :   0.9406 B(  6-C ,  8-H ) :   0.9434 B(  6-C ,  9-C ) :   1.0542
B(  9-C , 10-H ) :   0.9469 B(  9-C , 11-H ) :   0.9587 B(  9-C , 12-C ) :   1.0885
B( 12-C , 13-H ) :   0.9718 B( 12-C , 14-H ) :   0.9724 B( 12-C , 15-H ) :   0.9696
B( 16-S , 17-C ) :   1.1567 B( 16-S , 20-C ) :   1.1477 B( 17-C , 18-C ) :   1.5861
B( 17-C , 33-H ) :   0.9674 B( 18-C , 19-C ) :   1.2677 B( 18-C , 21-H ) :   0.9828
B( 19-C , 20-C ) :   1.5905 B( 19-C , 22-C ) :   1.0324 B( 22-C , 23-H ) :   0.9276
B( 22-C , 24-H ) :   0.9279 B( 22-C , 25-C ) :   1.0798 B( 25-C , 26-H ) :   0.9557
B( 25-C , 27-H ) :   0.9498 B( 25-C , 28-C ) :   1.0763 B( 28-C , 29-H ) :   0.9712
B( 28-C , 30-H ) :   0.9744 B( 28-C , 31-H ) :   0.9779

Dispersion correction           -0.014172983
FINAL SINGLE POINT ENERGY     -1339.860005333338

DIPOLE MOMENT
-------------
                                X             Y             Z
Electronic contribution:    -10.00328     -17.78632      15.65153
Nuclear contribution   :     10.34298      18.05486     -16.22921
                        -----------------------------------------
Total Dipole Moment    :      0.33970       0.26854      -0.57769
                        -----------------------------------------
Magnitude (a.u.)       :      0.72197
Magnitude (Debye)      :      1.83509

Rotational constants in cm-1:     0.021233     0.007641     0.006525
Rotational constants in MHz :   636.541742   229.060476   195.610805

                             ****ORCA TERMINATED NORMALLY****
TOTAL RUN TIME: 0 days 0 hours 0 minutes 29 seconds 695 msec
