                         Program Version 4.2.1 -  RELEASE  -
|  1> ! wB97X-D3 SP def2-SVP
|  2> %pal
|  3> nprocs 16
|  4> end
|  5>
|  6> * xyz 0 1
|  7> S 	 -21.403 	 0.0622916 	 77.8197
|  8> C 	 -21.0799 	 -1.30788 	 76.7307
|  9> C 	 -21.3301 	 -1.01098 	 75.3974
| 10> C 	 -21.8369 	 0.275943 	 75.2651
| 11> C 	 -22.071 	 0.90594 	 76.5002
| 12> H 	 -22.2014 	 0.873453 	 74.3026
| 13> C 	 -21.0369 	 -1.93787 	 74.21
| 14> H 	 -21.4832 	 -1.53034 	 73.2991
| 15> H 	 -21.4238 	 -2.90647 	 74.314
| 16> C 	 -19.5017 	 -1.98163 	 73.7779
| 17> H 	 -18.9281 	 -2.27279 	 74.6467
| 18> H 	 -19.2625 	 -2.77885 	 73.0307
| 19> C 	 -18.9312 	 -0.704217 	 73.2036
| 20> H 	 -19.5256 	 -0.539176 	 72.2435
| 21> H 	 -19.1836 	 0.0204692 	 73.9796
| 22> H 	 -17.8869 	 -0.703219 	 73.0243
| 23> S 	 -21.479 	 3.5139 	 77.4868
| 24> C 	 -22.7801 	 4.70738 	 77.51
| 25> C 	 -23.7717 	 4.3248 	 76.6644
| 26> C 	 -23.5744 	 3.01855 	 76.0473
| 27> C 	 -22.4814 	 2.32776 	 76.6027
| 28> H 	 -24.5737 	 4.95968 	 76.3785
| 29> C 	 -24.6813 	 2.34937 	 75.1662
| 30> H 	 -24.2486 	 2.19948 	 74.1896
| 31> H 	 -25.4016 	 3.12244 	 74.831
| 32> C 	 -25.3208 	 1.0937 	 75.7074
| 33> H 	 -25.7096 	 1.29267 	 76.7063
| 34> H 	 -24.5797 	 0.376278 	 75.675
| 35> C 	 -26.5233 	 0.59352 	 74.9018
| 36> H 	 -27.2236 	 1.42453 	 74.89
| 37> H 	 -26.887 	 -0.386353 	 75.3324
| 38> H 	 -26.1961 	 0.330364 	 73.9025
| 39> H 	 -20.7433 	 -2.21745 	 77.0227
| 40> H 	 -22.8723 	 5.61874 	 78.0302
| 41> *
| 42>
| 43>                          ****END OF INPUT****

CARTESIAN COORDINATES (ANGSTROEM)
---------------------------------
  S    -21.403000    0.062292   77.819700
  C    -21.079900   -1.307880   76.730700
  C    -21.330100   -1.010980   75.397400
  C    -21.836900    0.275943   75.265100
  C    -22.071000    0.905940   76.500200
  H    -22.201400    0.873453   74.302600
  C    -21.036900   -1.937870   74.210000
  H    -21.483200   -1.530340   73.299100
  H    -21.423800   -2.906470   74.314000
  C    -19.501700   -1.981630   73.777900
  H    -18.928100   -2.272790   74.646700
  H    -19.262500   -2.778850   73.030700
  C    -18.931200   -0.704217   73.203600
  H    -19.525600   -0.539176   72.243500
  H    -19.183600    0.020469   73.979600
  H    -17.886900   -0.703219   73.024300
  S    -21.479000    3.513900   77.486800
  C    -22.780100    4.707380   77.510000
  C    -23.771700    4.324800   76.664400
  C    -23.574400    3.018550   76.047300
  C    -22.481400    2.327760   76.602700
  H    -24.573700    4.959680   76.378500
  C    -24.681300    2.349370   75.166200
  H    -24.248600    2.199480   74.189600
  H    -25.401600    3.122440   74.831000
  C    -25.320800    1.093700   75.707400
  H    -25.709600    1.292670   76.706300
  H    -24.579700    0.376278   75.675000
  C    -26.523300    0.593520   74.901800
  H    -27.223600    1.424530   74.890000
  H    -26.887000   -0.386353   75.332400
  H    -26.196100    0.330364   73.902500
  H    -20.743300   -2.217450   77.022700
  H    -22.872300    5.618740   78.030200

 Total Charge           Charge          ....    0
 Multiplicity           Mult            ....    1
 Number of Electrons    NEL             ....  134
 Basis Dimension        Dim             ....  322

ORBITAL ENERGIES
----------------

  NO   OCC          E(Eh)            E(eV)
   0   2.0000     -88.977515     -2421.2013
   1   2.0000     -88.963388     -2420.8169
   2   2.0000     -10.332247      -281.1547
   3   2.0000     -10.331818      -281.1431
   4   2.0000     -10.313976      -280.6575
   5   2.0000     -10.312424      -280.6153
   6   2.0000     -10.307503      -280.4814
   7   2.0000     -10.306873      -280.4643
   8   2.0000     -10.305183      -280.4183
   9   2.0000     -10.297960      -280.2217
  10   2.0000     -10.291046      -280.0336
  11   2.0000     -10.290633      -280.0224
  12   2.0000     -10.288169      -279.9553
  13   2.0000     -10.278220      -279.6846
  14   2.0000     -10.276699      -279.6432
  15   2.0000     -10.272387      -279.5259
  16   2.0000      -8.092105      -220.1974
  17   2.0000      -8.077256      -219.7933
  18   2.0000      -6.050431      -164.6406
  19   2.0000      -6.046659      -164.5380
  20   2.0000      -6.043023      -164.4390
  21   2.0000      -6.036051      -164.2493
  22   2.0000      -6.031937      -164.1373
  23   2.0000      -6.027716      -164.0225
  24   2.0000      -1.008870       -27.4528
  25   2.0000      -0.981051       -26.6958
  26   2.0000      -0.910921       -24.7874
  27   2.0000      -0.907606       -24.6972
  28   2.0000      -0.868345       -23.6289
  29   2.0000      -0.853146       -23.2153
  30   2.0000      -0.841472       -22.8976
  31   2.0000      -0.814194       -22.1554
  32   2.0000      -0.786881       -21.4121
  33   2.0000      -0.770981       -20.9795
  34   2.0000      -0.710446       -19.3322
  35   2.0000      -0.695331       -18.9209
  36   2.0000      -0.688924       -18.7466
  37   2.0000      -0.657906       -17.9025
  38   2.0000      -0.642730       -17.4896
  39   2.0000      -0.613242       -16.6872
  40   2.0000      -0.590727       -16.0745
  41   2.0000      -0.575565       -15.6619
  42   2.0000      -0.574684       -15.6379
  43   2.0000      -0.557226       -15.1629
  44   2.0000      -0.549368       -14.9491
  45   2.0000      -0.521016       -14.1776
  46   2.0000      -0.513557       -13.9746
  47   2.0000      -0.508487       -13.8366
  48   2.0000      -0.500073       -13.6077
  49   2.0000      -0.495194       -13.4749
  50   2.0000      -0.492593       -13.4041
  51   2.0000      -0.477639       -12.9972
  52   2.0000      -0.470980       -12.8160
  53   2.0000      -0.466254       -12.6874
  54   2.0000      -0.459260       -12.4971
  55   2.0000      -0.451980       -12.2990
  56   2.0000      -0.445319       -12.1177
  57   2.0000      -0.438617       -11.9354
  58   2.0000      -0.428217       -11.6524
  59   2.0000      -0.417847       -11.3702
  60   2.0000      -0.416750       -11.3403
  61   2.0000      -0.415237       -11.2992
  62   2.0000      -0.412125       -11.2145
  63   2.0000      -0.344008        -9.3609
  64   2.0000      -0.342483        -9.3194
  65   2.0000      -0.326480        -8.8840
  66   2.0000      -0.290451        -7.9036
  67   0.0000       0.020194         0.5495
  68   0.0000       0.066863         1.8194
  69   0.0000       0.106439         2.8964
  70   0.0000       0.115519         3.1434
  71   0.0000       0.127283         3.4636

MULLIKEN ATOMIC CHARGES
-----------------------
   0 S :    0.139451
   1 C :   -0.076239
   2 C :   -0.073076
   3 C :   -0.021164
   4 C :   -0.172618
   5 H :    0.063285
   6 C :    0.106038
   7 H :    0.013201
   8 H :    0.025933
   9 C :   -0.107797
  10 H :    0.018944
  11 H :    0.030497
  12 C :   -0.050940
  13 H :    0.034194
  14 H :    0.042384
  15 H :    0.039191
  16 S :    0.093896
  17 C :   -0.061313
  18 C :   -0.023835
  19 C :   -0.037167
  20 C :   -0.161052
  21 H :    0.009631
  22 C :    0.033859
  23 H :    0.009564
  24 H :    0.000702
  25 C :   -0.018423
  26 H :    0.033255
  27 H :    0.022502
  28 C :   -0.048374
  29 H :    0.033406
  30 H :    0.044966
  31 H :    0.017722
  32 H :   -0.000967
  33 H :    0.040343
Sum of atomic charges:   -0.0000000

LOEWDIN ATOMIC CHARGES
----------------------
   0 S :    0.438562
   1 C :   -0.168869
   2 C :   -0.062720
   3 C :   -0.074283
   4 C :   -0.215450
   5 H :    0.055163
   6 C :   -0.019663
   7 H :    0.029504
   8 H :    0.025986
   9 C :   -0.044061
  10 H :    0.014507
  11 H :    0.023427
  12 C :   -0.065777
  13 H :    0.030974
  14 H :    0.028894
  15 H :    0.022723
  16 S :    0.372870
  17 C :   -0.176633
  18 C :   -0.066372
  19 C :   -0.056466
  20 C :   -0.183969
  21 H :    0.025972
  22 C :   -0.038427
  23 H :    0.023807
  24 H :    0.026707
  25 C :   -0.034398
  26 H :    0.027777
  27 H :    0.013921
  28 C :   -0.060552
  29 H :    0.023057
  30 H :    0.035124
  31 H :    0.018547
  32 H :    0.003732
  33 H :    0.026386

  Mayer bond orders larger than 0.100000
B(  0-S ,  1-C ) :   1.1521 B(  0-S ,  4-C ) :   1.1813 B(  1-C ,  2-C ) :   1.5701
B(  1-C ,  4-C ) :   0.1060 B(  1-C , 32-H ) :   0.9811 B(  2-C ,  3-C ) :   1.2859
B(  2-C ,  6-C ) :   1.0188 B(  3-C ,  4-C ) :   1.5269 B(  3-C ,  5-H ) :   0.9667
B(  4-C , 20-C ) :   1.0488 B(  6-C ,  7-H ) :   0.9447 B(  6-C ,  8-H ) :   0.9418
B(  6-C ,  9-C ) :   1.0527 B(  9-C , 10-H ) :   0.9589 B(  9-C , 11-H ) :   0.9597
B(  9-C , 12-C ) :   1.0748 B( 12-C , 13-H ) :   0.9735 B( 12-C , 14-H ) :   0.9771
B( 12-C , 15-H ) :   0.9729 B( 16-S , 17-C ) :   1.1214 B( 16-S , 20-C ) :   1.1289
B( 17-C , 18-C ) :   1.6420 B( 17-C , 33-H ) :   0.9706 B( 18-C , 19-C ) :   1.2369
B( 18-C , 21-H ) :   0.9883 B( 19-C , 20-C ) :   1.6004 B( 19-C , 22-C ) :   1.0385
B( 22-C , 23-H ) :   0.9242 B( 22-C , 24-H ) :   0.9343 B( 22-C , 25-C ) :   1.0624
B( 25-C , 26-H ) :   0.9581 B( 25-C , 27-H ) :   0.9434 B( 25-C , 28-C ) :   1.0917
B( 28-C , 29-H ) :   0.9773 B( 28-C , 30-H ) :   0.9728 B( 28-C , 31-H ) :   0.9743

Dispersion correction           -0.014795455
FINAL SINGLE POINT ENERGY     -1339.850539369478

DIPOLE MOMENT
-------------
                                X             Y             Z
Electronic contribution:      7.38235      11.75930      20.98899
Nuclear contribution   :     -7.58780     -12.03171     -21.44693
                        -----------------------------------------
Total Dipole Moment    :     -0.20545      -0.27241      -0.45794
                        -----------------------------------------
Magnitude (a.u.)       :      0.57108
Magnitude (Debye)      :      1.45156

Rotational constants in cm-1:     0.017633     0.009079     0.007433
Rotational constants in MHz :   528.615821   272.177065   222.837555

                             ****ORCA TERMINATED NORMALLY****
TOTAL RUN TIME: 0 days 0 hours 0 minutes 34 seconds 718 msec
