                         Program Version 4.2.1 -  RELEASE  -
|  1> ! wB97X-D3 SP def2-SVP
|  2> %pal
|  3> nprocs 16
|  4> end
|  5>
|  6> * xyz 0 1
|  7> S 	 53.6496 	 22.696 	 37.5854
|  8> C 	 54.542 	 23.7707 	 36.5828
|  9> C 	 54.8628 	 24.9568 	 37.1829
| 10> C 	 54.3957 	 24.9531 	 38.5411
| 11> C 	 53.8605 	 23.7806 	 38.9568
| 12> H 	 54.5863 	 25.6779 	 39.3056
| 13> C 	 55.5696 	 26.1139 	 36.4799
| 14> H 	 54.9146 	 26.9972 	 36.5186
| 15> H 	 55.6443 	 25.8231 	 35.4346
| 16> C 	 56.9695 	 26.3665 	 36.9812
| 17> H 	 56.9947 	 26.6276 	 38.0688
| 18> H 	 57.4466 	 25.3679 	 36.8826
| 19> C 	 57.743 	 27.5786 	 36.2899
| 20> H 	 57.2413 	 28.5442 	 36.3719
| 21> H 	 58.6991 	 27.5777 	 36.8008
| 22> H 	 57.9198 	 27.1976 	 35.2575
| 23> S 	 54.5619 	 23.9881 	 41.5265
| 24> C 	 53.6314 	 23.1407 	 42.806
| 25> C 	 52.4312 	 22.6542 	 42.3187
| 26> C 	 52.3942 	 22.7419 	 40.8822
| 27> C 	 53.4883 	 23.4412 	 40.2837
| 28> H 	 51.7357 	 22.2204 	 42.9774
| 29> C 	 51.2012 	 22.206 	 40.0584
| 30> H 	 51.5964 	 21.6161 	 39.2411
| 31> H 	 50.7356 	 23.0405 	 39.6859
| 32> C 	 50.2 	 21.2965 	 40.8237
| 33> H 	 49.8497 	 21.8871 	 41.6669
| 34> H 	 50.5791 	 20.3845 	 41.2491
| 35> C 	 48.9143 	 20.9776 	 39.959
| 36> H 	 49.0439 	 20.2805 	 39.0893
| 37> H 	 48.2679 	 21.7922 	 39.7126
| 38> H 	 48.2338 	 20.4295 	 40.6971
| 39> H 	 54.8416 	 23.4193 	 35.6252
| 40> H 	 53.9761 	 23.1819 	 43.8104
| 41> *
| 42>
| 43>                          ****END OF INPUT****

CARTESIAN COORDINATES (ANGSTROEM)
---------------------------------
  S     53.649600   22.696000   37.585400
  C     54.542000   23.770700   36.582800
  C     54.862800   24.956800   37.182900
  C     54.395700   24.953100   38.541100
  C     53.860500   23.780600   38.956800
  H     54.586300   25.677900   39.305600
  C     55.569600   26.113900   36.479900
  H     54.914600   26.997200   36.518600
  H     55.644300   25.823100   35.434600
  C     56.969500   26.366500   36.981200
  H     56.994700   26.627600   38.068800
  H     57.446600   25.367900   36.882600
  C     57.743000   27.578600   36.289900
  H     57.241300   28.544200   36.371900
  H     58.699100   27.577700   36.800800
  H     57.919800   27.197600   35.257500
  S     54.561900   23.988100   41.526500
  C     53.631400   23.140700   42.806000
  C     52.431200   22.654200   42.318700
  C     52.394200   22.741900   40.882200
  C     53.488300   23.441200   40.283700
  H     51.735700   22.220400   42.977400
  C     51.201200   22.206000   40.058400
  H     51.596400   21.616100   39.241100
  H     50.735600   23.040500   39.685900
  C     50.200000   21.296500   40.823700
  H     49.849700   21.887100   41.666900
  H     50.579100   20.384500   41.249100
  C     48.914300   20.977600   39.959000
  H     49.043900   20.280500   39.089300
  H     48.267900   21.792200   39.712600
  H     48.233800   20.429500   40.697100
  H     54.841600   23.419300   35.625200
  H     53.976100   23.181900   43.810400

 Total Charge           Charge          ....    0
 Multiplicity           Mult            ....    1
 Number of Electrons    NEL             ....  134
 Basis Dimension        Dim             ....  322

ORBITAL ENERGIES
----------------

  NO   OCC          E(Eh)            E(eV)
   0   2.0000     -88.963701     -2420.8254
   1   2.0000     -88.961954     -2420.7778
   2   2.0000     -10.325005      -280.9577
   3   2.0000     -10.324430      -280.9420
   4   2.0000     -10.319087      -280.7966
   5   2.0000     -10.308697      -280.5139
   6   2.0000     -10.308573      -280.5105
   7   2.0000     -10.300813      -280.2994
   8   2.0000     -10.296695      -280.1873
   9   2.0000     -10.291685      -280.0510
  10   2.0000     -10.291595      -280.0485
  11   2.0000     -10.290877      -280.0290
  12   2.0000     -10.288430      -279.9624
  13   2.0000     -10.286565      -279.9117
  14   2.0000     -10.285431      -279.8808
  15   2.0000     -10.284333      -279.8509
  16   2.0000      -8.078141      -219.8174
  17   2.0000      -8.077373      -219.7965
  18   2.0000      -6.036702      -164.2670
  19   2.0000      -6.035871      -164.2444
  20   2.0000      -6.032635      -164.1563
  21   2.0000      -6.031868      -164.1355
  22   2.0000      -6.028939      -164.0558
  23   2.0000      -6.028039      -164.0313
  24   2.0000      -1.009637       -27.4736
  25   2.0000      -0.981550       -26.7093
  26   2.0000      -0.909447       -24.7473
  27   2.0000      -0.901829       -24.5400
  28   2.0000      -0.876830       -23.8598
  29   2.0000      -0.848005       -23.0754
  30   2.0000      -0.838253       -22.8100
  31   2.0000      -0.817800       -22.2535
  32   2.0000      -0.782505       -21.2930
  33   2.0000      -0.766924       -20.8691
  34   2.0000      -0.710491       -19.3334
  35   2.0000      -0.703180       -19.1345
  36   2.0000      -0.688783       -18.7427
  37   2.0000      -0.665536       -18.1102
  38   2.0000      -0.640962       -17.4415
  39   2.0000      -0.618707       -16.8359
  40   2.0000      -0.595595       -16.2070
  41   2.0000      -0.571930       -15.5630
  42   2.0000      -0.567351       -15.4384
  43   2.0000      -0.561112       -15.2686
  44   2.0000      -0.529368       -14.4048
  45   2.0000      -0.522705       -14.2235
  46   2.0000      -0.513891       -13.9837
  47   2.0000      -0.509732       -13.8705
  48   2.0000      -0.508152       -13.8275
  49   2.0000      -0.503402       -13.6983
  50   2.0000      -0.490452       -13.3459
  51   2.0000      -0.477057       -12.9814
  52   2.0000      -0.472110       -12.8468
  53   2.0000      -0.466487       -12.6937
  54   2.0000      -0.459538       -12.5047
  55   2.0000      -0.449546       -12.2328
  56   2.0000      -0.443448       -12.0668
  57   2.0000      -0.438354       -11.9282
  58   2.0000      -0.437919       -11.9164
  59   2.0000      -0.425893       -11.5891
  60   2.0000      -0.416645       -11.3375
  61   2.0000      -0.408034       -11.1032
  62   2.0000      -0.405470       -11.0334
  63   2.0000      -0.358939        -9.7672
  64   2.0000      -0.331282        -9.0146
  65   2.0000      -0.328494        -8.9388
  66   2.0000      -0.281457        -7.6588
  67   0.0000       0.025997         0.7074
  68   0.0000       0.075786         2.0622
  69   0.0000       0.104669         2.8482
  70   0.0000       0.120817         3.2876
  71   0.0000       0.135736         3.6936

MULLIKEN ATOMIC CHARGES
-----------------------
   0 S :    0.097451
   1 C :   -0.117634
   2 C :   -0.072927
   3 C :    0.007244
   4 C :   -0.134508
   5 H :    0.006882
   6 C :    0.105138
   7 H :    0.034697
   8 H :    0.009325
   9 C :   -0.145008
  10 H :    0.035323
  11 H :    0.038253
  12 C :   -0.039828
  13 H :    0.050971
  14 H :    0.039305
  15 H :    0.037592
  16 S :    0.084637
  17 C :   -0.085379
  18 C :   -0.015869
  19 C :   -0.069040
  20 C :   -0.132174
  21 H :    0.012023
  22 C :    0.113186
  23 H :    0.032167
  24 H :    0.022179
  25 C :   -0.101586
  26 H :    0.028842
  27 H :    0.037152
  28 C :   -0.077504
  29 H :    0.051327
  30 H :    0.033391
  31 H :    0.027730
  32 H :    0.036641
  33 H :    0.050001
Sum of atomic charges:    0.0000000

LOEWDIN ATOMIC CHARGES
----------------------
   0 S :    0.406245
   1 C :   -0.192852
   2 C :   -0.060146
   3 C :   -0.066629
   4 C :   -0.186571
   5 H :    0.023083
   6 C :   -0.032899
   7 H :    0.032056
   8 H :    0.028128
   9 C :   -0.049413
  10 H :    0.022992
  11 H :    0.029616
  12 C :   -0.064877
  13 H :    0.028607
  14 H :    0.028276
  15 H :    0.028799
  16 S :    0.403414
  17 C :   -0.162551
  18 C :   -0.065137
  19 C :   -0.052173
  20 C :   -0.205150
  21 H :    0.027613
  22 C :   -0.027859
  23 H :    0.024886
  24 H :    0.023654
  25 C :   -0.036669
  26 H :    0.022451
  27 H :    0.023769
  28 C :   -0.073903
  29 H :    0.030043
  30 H :    0.020827
  31 H :    0.033251
  32 H :    0.018926
  33 H :    0.020194

  Mayer bond orders larger than 0.100000
B(  0-S ,  1-C ) :   1.1413 B(  0-S ,  4-C ) :   1.1239 B(  1-C ,  2-C ) :   1.6247
B(  1-C , 32-H ) :   0.9707 B(  2-C ,  3-C ) :   1.2063 B(  2-C ,  6-C ) :   1.0269
B(  3-C ,  4-C ) :   1.5992 B(  3-C ,  5-H ) :   0.9929 B(  4-C , 20-C ) :   1.0866
B(  6-C ,  7-H ) :   0.9366 B(  6-C ,  8-H ) :   0.9362 B(  6-C ,  9-C ) :   1.0571
B(  9-C , 10-H ) :   0.9609 B(  9-C , 11-H ) :   0.9552 B(  9-C , 12-C ) :   1.0675
B( 12-C , 13-H ) :   0.9756 B( 12-C , 14-H ) :   0.9765 B( 12-C , 15-H ) :   0.9769
B( 16-S , 17-C ) :   1.1577 B( 16-S , 20-C ) :   1.1459 B( 17-C , 18-C ) :   1.5787
B( 17-C , 20-C ) :   0.1054 B( 17-C , 33-H ) :   0.9719 B( 18-C , 19-C ) :   1.2564
B( 18-C , 21-H ) :   0.9969 B( 19-C , 20-C ) :   1.5457 B( 19-C , 22-C ) :   1.0168
B( 22-C , 23-H ) :   0.9346 B( 22-C , 24-H ) :   0.9307 B( 22-C , 25-C ) :   1.0832
B( 25-C , 26-H ) :   0.9462 B( 25-C , 27-H ) :   0.9607 B( 25-C , 28-C ) :   1.0804
B( 28-C , 29-H ) :   0.9770 B( 28-C , 30-H ) :   0.9764 B( 28-C , 31-H ) :   0.9734

Dispersion correction           -0.013295465
FINAL SINGLE POINT ENERGY     -1339.872596438628

DIPOLE MOMENT
-------------
                                X             Y             Z
Electronic contribution:      4.08523      -4.44131       7.32155
Nuclear contribution   :     -4.22062       4.56197      -7.29792
                        -----------------------------------------
Total Dipole Moment    :     -0.13539       0.12067       0.02363
                        -----------------------------------------
Magnitude (a.u.)       :      0.18289
Magnitude (Debye)      :      0.46488

Rotational constants in cm-1:     0.024328     0.006938     0.005641
Rotational constants in MHz :   729.336420   207.998862   169.103194

                             ****ORCA TERMINATED NORMALLY****
TOTAL RUN TIME: 0 days 0 hours 0 minutes 28 seconds 339 msec
