                         Program Version 4.2.1 -  RELEASE  -
|  1> ! wB97X-D3 SP def2-SVP
|  2> %pal
|  3> nprocs 16
|  4> end
|  5>
|  6> * xyz 0 1
|  7> S 	 -10.9388 	 75.7104 	 48.4365
|  8> C 	 -12.2555 	 76.0337 	 49.4663
|  9> C 	 -12.9819 	 74.8782 	 49.7611
| 10> C 	 -12.3536 	 73.7279 	 49.2164
| 11> C 	 -11.2631 	 74.0039 	 48.4421
| 12> H 	 -12.6624 	 72.6884 	 49.3577
| 13> C 	 -14.2594 	 74.6938 	 50.5391
| 14> H 	 -14.4415 	 75.5371 	 51.1467
| 15> H 	 -14.1376 	 73.8328 	 51.1187
| 16> C 	 -15.4774 	 74.4546 	 49.603
| 17> H 	 -15.6391 	 75.3285 	 49.024
| 18> H 	 -15.3072 	 73.6359 	 48.8792
| 19> C 	 -16.8277 	 74.2153 	 50.3906
| 20> H 	 -17.6127 	 74.0721 	 49.6287
| 21> H 	 -16.737 	 73.4073 	 51.0849
| 22> H 	 -17.0603 	 75.077 	 51.023
| 23> S 	 -8.78461 	 73.4631 	 47.4173
| 24> C 	 -8.54208 	 72.0477 	 46.3707
| 25> C 	 -9.792 	 71.4402 	 46.1285
| 26> C 	 -10.8982 	 72.1424 	 46.6575
| 27> C 	 -10.4653 	 73.1444 	 47.4864
| 28> H 	 -9.81819 	 70.666 	 45.4322
| 29> C 	 -12.2475 	 71.6766 	 46.3753
| 30> H 	 -12.3846 	 71.533 	 45.3273
| 31> H 	 -12.9594 	 72.4066 	 46.5719
| 32> C 	 -12.5494 	 70.311 	 47.1035
| 33> H 	 -12.6782 	 70.3969 	 48.1822
| 34> H 	 -11.8847 	 69.4807 	 46.9721
| 35> C 	 -13.9312 	 69.7857 	 46.7691
| 36> H 	 -13.9589 	 69.6874 	 45.7117
| 37> H 	 -14.6794 	 70.4836 	 47.0945
| 38> H 	 -14.1782 	 68.8858 	 47.2434
| 39> H 	 -12.4959 	 77.0814 	 49.6946
| 40> H 	 -7.66518 	 71.8206 	 45.7972
| 41> *
| 42>
| 43>                          ****END OF INPUT****

CARTESIAN COORDINATES (ANGSTROEM)
---------------------------------
  S    -10.938800   75.710400   48.436500
  C    -12.255500   76.033700   49.466300
  C    -12.981900   74.878200   49.761100
  C    -12.353600   73.727900   49.216400
  C    -11.263100   74.003900   48.442100
  H    -12.662400   72.688400   49.357700
  C    -14.259400   74.693800   50.539100
  H    -14.441500   75.537100   51.146700
  H    -14.137600   73.832800   51.118700
  C    -15.477400   74.454600   49.603000
  H    -15.639100   75.328500   49.024000
  H    -15.307200   73.635900   48.879200
  C    -16.827700   74.215300   50.390600
  H    -17.612700   74.072100   49.628700
  H    -16.737000   73.407300   51.084900
  H    -17.060300   75.077000   51.023000
  S     -8.784610   73.463100   47.417300
  C     -8.542080   72.047700   46.370700
  C     -9.792000   71.440200   46.128500
  C    -10.898200   72.142400   46.657500
  C    -10.465300   73.144400   47.486400
  H     -9.818190   70.666000   45.432200
  C    -12.247500   71.676600   46.375300
  H    -12.384600   71.533000   45.327300
  H    -12.959400   72.406600   46.571900
  C    -12.549400   70.311000   47.103500
  H    -12.678200   70.396900   48.182200
  H    -11.884700   69.480700   46.972100
  C    -13.931200   69.785700   46.769100
  H    -13.958900   69.687400   45.711700
  H    -14.679400   70.483600   47.094500
  H    -14.178200   68.885800   47.243400
  H    -12.495900   77.081400   49.694600
  H     -7.665180   71.820600   45.797200

 Total Charge           Charge          ....    0
 Multiplicity           Mult            ....    1
 Number of Electrons    NEL             ....  134
 Basis Dimension        Dim             ....  322

ORBITAL ENERGIES
----------------

  NO   OCC          E(Eh)            E(eV)
   0   2.0000     -88.965848     -2420.8838
   1   2.0000     -88.962250     -2420.7859
   2   2.0000     -10.326573      -281.0003
   3   2.0000     -10.325110      -280.9605
   4   2.0000     -10.317508      -280.7537
   5   2.0000     -10.313041      -280.6321
   6   2.0000     -10.300756      -280.2978
   7   2.0000     -10.295578      -280.1569
   8   2.0000     -10.290939      -280.0307
   9   2.0000     -10.289288      -279.9858
  10   2.0000     -10.288177      -279.9555
  11   2.0000     -10.286856      -279.9196
  12   2.0000     -10.285451      -279.8813
  13   2.0000     -10.285445      -279.8812
  14   2.0000     -10.281451      -279.7725
  15   2.0000     -10.266255      -279.3590
  16   2.0000      -8.080683      -219.8866
  17   2.0000      -8.078374      -219.8237
  18   2.0000      -6.039150      -164.3336
  19   2.0000      -6.036686      -164.2666
  20   2.0000      -6.035191      -164.2259
  21   2.0000      -6.032628      -164.1562
  22   2.0000      -6.031474      -164.1248
  23   2.0000      -6.029327      -164.0663
  24   2.0000      -1.011106       -27.5136
  25   2.0000      -0.989232       -26.9184
  26   2.0000      -0.917001       -24.9529
  27   2.0000      -0.909882       -24.7592
  28   2.0000      -0.863470       -23.4962
  29   2.0000      -0.860959       -23.4279
  30   2.0000      -0.849030       -23.1033
  31   2.0000      -0.816043       -22.2057
  32   2.0000      -0.784167       -21.3383
  33   2.0000      -0.772361       -21.0170
  34   2.0000      -0.706502       -19.2249
  35   2.0000      -0.703832       -19.1522
  36   2.0000      -0.691037       -18.8041
  37   2.0000      -0.668881       -18.2012
  38   2.0000      -0.646106       -17.5814
  39   2.0000      -0.625529       -17.0215
  40   2.0000      -0.602817       -16.4035
  41   2.0000      -0.571147       -15.5417
  42   2.0000      -0.568654       -15.4739
  43   2.0000      -0.555487       -15.1156
  44   2.0000      -0.537644       -14.6300
  45   2.0000      -0.527022       -14.3410
  46   2.0000      -0.523909       -14.2563
  47   2.0000      -0.516532       -14.0556
  48   2.0000      -0.508417       -13.8347
  49   2.0000      -0.496998       -13.5240
  50   2.0000      -0.490809       -13.3556
  51   2.0000      -0.484855       -13.1936
  52   2.0000      -0.468737       -12.7550
  53   2.0000      -0.464876       -12.6499
  54   2.0000      -0.461802       -12.5663
  55   2.0000      -0.448154       -12.1949
  56   2.0000      -0.443772       -12.0756
  57   2.0000      -0.441080       -12.0024
  58   2.0000      -0.437015       -11.8918
  59   2.0000      -0.432117       -11.7585
  60   2.0000      -0.429665       -11.6918
  61   2.0000      -0.417934       -11.3726
  62   2.0000      -0.417193       -11.3524
  63   2.0000      -0.347148        -9.4464
  64   2.0000      -0.332362        -9.0440
  65   2.0000      -0.327229        -8.9044
  66   2.0000      -0.289344        -7.8735
  67   0.0000       0.033009         0.8982
  68   0.0000       0.077112         2.0983
  69   0.0000       0.106109         2.8874
  70   0.0000       0.118629         3.2281
  71   0.0000       0.124073         3.3762

MULLIKEN ATOMIC CHARGES
-----------------------
   0 S :    0.102935
   1 C :   -0.132029
   2 C :   -0.098282
   3 C :   -0.004818
   4 C :   -0.116957
   5 H :    0.010531
   6 C :    0.135434
   7 H :    0.007874
   8 H :    0.010693
   9 C :   -0.102112
  10 H :    0.020879
  11 H :    0.032044
  12 C :   -0.039329
  13 H :    0.045579
  14 H :    0.024260
  15 H :    0.028130
  16 S :    0.107568
  17 C :   -0.093369
  18 C :   -0.021858
  19 C :   -0.022753
  20 C :   -0.147329
  21 H :   -0.005552
  22 C :    0.128040
  23 H :    0.013932
  24 H :    0.001212
  25 C :   -0.097726
  26 H :    0.023379
  27 H :    0.030724
  28 C :   -0.006048
  29 H :    0.013946
  30 H :    0.016979
  31 H :    0.020621
  32 H :    0.056969
  33 H :    0.056436
Sum of atomic charges:    0.0000000

LOEWDIN ATOMIC CHARGES
----------------------
   0 S :    0.425456
   1 C :   -0.216589
   2 C :   -0.061034
   3 C :   -0.069874
   4 C :   -0.192050
   5 H :    0.033433
   6 C :   -0.019981
   7 H :    0.024264
   8 H :    0.023860
   9 C :   -0.033185
  10 H :    0.018297
  11 H :    0.022916
  12 C :   -0.063631
  13 H :    0.031141
  14 H :    0.017899
  15 H :    0.024806
  16 S :    0.410664
  17 C :   -0.181880
  18 C :   -0.051895
  19 C :   -0.062278
  20 C :   -0.205070
  21 H :    0.018631
  22 C :   -0.020484
  23 H :    0.032231
  24 H :    0.024454
  25 C :   -0.032949
  26 H :    0.022971
  27 H :    0.022431
  28 C :   -0.055556
  29 H :    0.016084
  30 H :    0.020600
  31 H :    0.018752
  32 H :    0.030450
  33 H :    0.027117

  Mayer bond orders larger than 0.100000
B(  0-S ,  1-C ) :   1.1593 B(  0-S ,  4-C ) :   1.1746 B(  1-C ,  2-C ) :   1.5826
B(  1-C , 32-H ) :   0.9711 B(  2-C ,  3-C ) :   1.2420 B(  2-C ,  6-C ) :   1.0376
B(  3-C ,  4-C ) :   1.5893 B(  3-C ,  5-H ) :   0.9991 B(  4-C , 20-C ) :   0.9785
B(  6-C ,  7-H ) :   0.9373 B(  6-C ,  8-H ) :   0.9336 B(  6-C ,  9-C ) :   1.0619
B(  9-C , 10-H ) :   0.9559 B(  9-C , 11-H ) :   0.9599 B(  9-C , 12-C ) :   1.0766
B( 12-C , 13-H ) :   0.9762 B( 12-C , 14-H ) :   0.9778 B( 12-C , 15-H ) :   0.9750
B( 16-S , 17-C ) :   1.1429 B( 16-S , 20-C ) :   1.1591 B( 17-C , 18-C ) :   1.6025
B( 17-C , 20-C ) :   0.1014 B( 17-C , 33-H ) :   0.9712 B( 18-C , 19-C ) :   1.2380
B( 18-C , 21-H ) :   0.9933 B( 19-C , 20-C ) :   1.5879 B( 19-C , 22-C ) :   1.0777
B( 22-C , 23-H ) :   0.9204 B( 22-C , 24-H ) :   0.9193 B( 22-C , 25-C ) :   1.0475
B( 25-C , 26-H ) :   0.9571 B( 25-C , 27-H ) :   0.9604 B( 25-C , 28-C ) :   1.0880
B( 28-C , 29-H ) :   0.9734 B( 28-C , 30-H ) :   0.9741 B( 28-C , 31-H ) :   0.9723

Dispersion correction           -0.014183712
FINAL SINGLE POINT ENERGY     -1339.874235446864

DIPOLE MOMENT
-------------
                                X             Y             Z
Electronic contribution:     30.32996      13.99598      -3.19861
Nuclear contribution   :    -30.99516     -14.32287       3.05953
                        -----------------------------------------
Total Dipole Moment    :     -0.66520      -0.32689      -0.13908
                        -----------------------------------------
Magnitude (a.u.)       :      0.75412
Magnitude (Debye)      :      1.91681

Rotational constants in cm-1:     0.017352     0.009678     0.006466
Rotational constants in MHz :   520.208488   290.140988   193.839208

                             ****ORCA TERMINATED NORMALLY****
TOTAL RUN TIME: 0 days 0 hours 0 minutes 31 seconds 922 msec
