                         Program Version 4.2.1 -  RELEASE  -
|  1> ! wB97X-D3 SP def2-SVP
|  2> %pal
|  3> nprocs 16
|  4> end
|  5>
|  6> * xyz 0 1
|  7> S 	 -10.8224 	 46.9089 	 33.6033
|  8> C 	 -10.3635 	 46.1712 	 35.1656
|  9> C 	 -10.263 	 47.2113 	 36.1214
| 10> C 	 -10.8372 	 48.4285 	 35.6195
| 11> C 	 -11.1336 	 48.4687 	 34.2677
| 12> H 	 -10.9518 	 49.3117 	 36.258
| 13> C 	 -10.0344 	 46.8995 	 37.6233
| 14> H 	 -9.69591 	 47.7778 	 38.1047
| 15> H 	 -9.18189 	 46.2691 	 37.6085
| 16> C 	 -11.2894 	 46.3667 	 38.3284
| 17> H 	 -11.979 	 47.2166 	 38.4881
| 18> H 	 -11.6652 	 45.5322 	 37.742
| 19> C 	 -10.9906 	 45.9446 	 39.7836
| 20> H 	 -10.1697 	 45.2336 	 39.7742
| 21> H 	 -10.6699 	 46.7869 	 40.4291
| 22> H 	 -11.8615 	 45.5233 	 40.2267
| 23> S 	 -10.0299 	 49.8193 	 32.2043
| 24> C 	 -10.6253 	 51.3898 	 31.6808
| 25> C 	 -11.6175 	 51.7209 	 32.5076
| 26> C 	 -12.0068 	 50.7903 	 33.5425
| 27> C 	 -11.2501 	 49.6035 	 33.4362
| 28> H 	 -12.1386 	 52.6697 	 32.472
| 29> C 	 -13.1156 	 51.0109 	 34.5406
| 30> H 	 -13.5369 	 52.0551 	 34.5476
| 31> H 	 -12.5913 	 50.9197 	 35.4409
| 32> C 	 -14.1776 	 49.9142 	 34.7939
| 33> H 	 -14.7466 	 50.0988 	 35.7302
| 34> H 	 -13.7713 	 48.9459 	 34.9646
| 35> C 	 -15.193 	 49.7926 	 33.6598
| 36> H 	 -16.0018 	 49.0859 	 33.8354
| 37> H 	 -14.694 	 49.4542 	 32.7641
| 38> H 	 -15.6446 	 50.719 	 33.3994
| 39> H 	 -10.0165 	 45.1794 	 35.2524
| 40> H 	 -10.1676 	 51.9977 	 30.9426
| 41> *
| 42>
| 43>                          ****END OF INPUT****

CARTESIAN COORDINATES (ANGSTROEM)
---------------------------------
  S    -10.822400   46.908900   33.603300
  C    -10.363500   46.171200   35.165600
  C    -10.263000   47.211300   36.121400
  C    -10.837200   48.428500   35.619500
  C    -11.133600   48.468700   34.267700
  H    -10.951800   49.311700   36.258000
  C    -10.034400   46.899500   37.623300
  H     -9.695910   47.777800   38.104700
  H     -9.181890   46.269100   37.608500
  C    -11.289400   46.366700   38.328400
  H    -11.979000   47.216600   38.488100
  H    -11.665200   45.532200   37.742000
  C    -10.990600   45.944600   39.783600
  H    -10.169700   45.233600   39.774200
  H    -10.669900   46.786900   40.429100
  H    -11.861500   45.523300   40.226700
  S    -10.029900   49.819300   32.204300
  C    -10.625300   51.389800   31.680800
  C    -11.617500   51.720900   32.507600
  C    -12.006800   50.790300   33.542500
  C    -11.250100   49.603500   33.436200
  H    -12.138600   52.669700   32.472000
  C    -13.115600   51.010900   34.540600
  H    -13.536900   52.055100   34.547600
  H    -12.591300   50.919700   35.440900
  C    -14.177600   49.914200   34.793900
  H    -14.746600   50.098800   35.730200
  H    -13.771300   48.945900   34.964600
  C    -15.193000   49.792600   33.659800
  H    -16.001800   49.085900   33.835400
  H    -14.694000   49.454200   32.764100
  H    -15.644600   50.719000   33.399400
  H    -10.016500   45.179400   35.252400
  H    -10.167600   51.997700   30.942600

 Total Charge           Charge          ....    0
 Multiplicity           Mult            ....    1
 Number of Electrons    NEL             ....  134
 Basis Dimension        Dim             ....  322

ORBITAL ENERGIES
----------------

  NO   OCC          E(Eh)            E(eV)
   0   2.0000     -88.966640     -2420.9053
   1   2.0000     -88.960854     -2420.7479
   2   2.0000     -10.327975      -281.0385
   3   2.0000     -10.326333      -280.9938
   4   2.0000     -10.320252      -280.8283
   5   2.0000     -10.312298      -280.6119
   6   2.0000     -10.308759      -280.5156
   7   2.0000     -10.306450      -280.4528
   8   2.0000     -10.297745      -280.2159
   9   2.0000     -10.292800      -280.0813
  10   2.0000     -10.291291      -280.0403
  11   2.0000     -10.289774      -279.9990
  12   2.0000     -10.289379      -279.9882
  13   2.0000     -10.283477      -279.8276
  14   2.0000     -10.278323      -279.6874
  15   2.0000     -10.262790      -279.2647
  16   2.0000      -8.081147      -219.8992
  17   2.0000      -8.075693      -219.7508
  18   2.0000      -6.039618      -164.3464
  19   2.0000      -6.035462      -164.2333
  20   2.0000      -6.034313      -164.2020
  21   2.0000      -6.032162      -164.1435
  22   2.0000      -6.030062      -164.0863
  23   2.0000      -6.026409      -163.9869
  24   2.0000      -1.010662       -27.5015
  25   2.0000      -0.982799       -26.7433
  26   2.0000      -0.914392       -24.8819
  27   2.0000      -0.908252       -24.7148
  28   2.0000      -0.875660       -23.8279
  29   2.0000      -0.847945       -23.0738
  30   2.0000      -0.841874       -22.9086
  31   2.0000      -0.817263       -22.2388
  32   2.0000      -0.784785       -21.3551
  33   2.0000      -0.774821       -21.0839
  34   2.0000      -0.714382       -19.4393
  35   2.0000      -0.701799       -19.0969
  36   2.0000      -0.692628       -18.8474
  37   2.0000      -0.662630       -18.0311
  38   2.0000      -0.645341       -17.5606
  39   2.0000      -0.618528       -16.8310
  40   2.0000      -0.596068       -16.2198
  41   2.0000      -0.577268       -15.7083
  42   2.0000      -0.561908       -15.2903
  43   2.0000      -0.553489       -15.0612
  44   2.0000      -0.546350       -14.8669
  45   2.0000      -0.530486       -14.4353
  46   2.0000      -0.517951       -14.0942
  47   2.0000      -0.514278       -13.9942
  48   2.0000      -0.504657       -13.7324
  49   2.0000      -0.501630       -13.6500
  50   2.0000      -0.494346       -13.4518
  51   2.0000      -0.484862       -13.1938
  52   2.0000      -0.469349       -12.7716
  53   2.0000      -0.465845       -12.6763
  54   2.0000      -0.460307       -12.5256
  55   2.0000      -0.444645       -12.0994
  56   2.0000      -0.439717       -11.9653
  57   2.0000      -0.434788       -11.8312
  58   2.0000      -0.428182       -11.6514
  59   2.0000      -0.426790       -11.6135
  60   2.0000      -0.423117       -11.5136
  61   2.0000      -0.414219       -11.2715
  62   2.0000      -0.409308       -11.1378
  63   2.0000      -0.352297        -9.5865
  64   2.0000      -0.331048        -9.0083
  65   2.0000      -0.323463        -8.8019
  66   2.0000      -0.290006        -7.8915
  67   0.0000       0.023102         0.6287
  68   0.0000       0.066987         1.8228
  69   0.0000       0.116792         3.1781
  70   0.0000       0.119482         3.2513
  71   0.0000       0.126576         3.4443

MULLIKEN ATOMIC CHARGES
-----------------------
   0 S :    0.101685
   1 C :   -0.113173
   2 C :   -0.103679
   3 C :    0.026700
   4 C :   -0.156123
   5 H :    0.017242
   6 C :    0.069848
   7 H :    0.005169
   8 H :    0.016170
   9 C :   -0.061837
  10 H :    0.036812
  11 H :    0.037795
  12 C :   -0.040919
  13 H :    0.023042
  14 H :    0.031964
  15 H :    0.033729
  16 S :    0.091900
  17 C :   -0.069613
  18 C :   -0.018805
  19 C :   -0.049507
  20 C :   -0.137824
  21 H :    0.008041
  22 C :    0.089831
  23 H :    0.031635
  24 H :    0.009289
  25 C :   -0.068649
  26 H :    0.024428
  27 H :    0.030906
  28 C :   -0.029303
  29 H :    0.028006
  30 H :    0.027474
  31 H :    0.010211
  32 H :    0.047394
  33 H :    0.050161
Sum of atomic charges:    0.0000000

LOEWDIN ATOMIC CHARGES
----------------------
   0 S :    0.413080
   1 C :   -0.181460
   2 C :   -0.055157
   3 C :   -0.064275
   4 C :   -0.212196
   5 H :    0.029618
   6 C :   -0.028015
   7 H :    0.022320
   8 H :    0.024223
   9 C :   -0.033108
  10 H :    0.031487
  11 H :    0.025786
  12 C :   -0.063863
  13 H :    0.020192
  14 H :    0.027678
  15 H :    0.022387
  16 S :    0.403305
  17 C :   -0.178522
  18 C :   -0.072562
  19 C :   -0.054544
  20 C :   -0.200111
  21 H :    0.028126
  22 C :   -0.036331
  23 H :    0.038586
  24 H :    0.030232
  25 C :   -0.035649
  26 H :    0.028134
  27 H :    0.022258
  28 C :   -0.066020
  29 H :    0.024425
  30 H :    0.024694
  31 H :    0.015508
  32 H :    0.020339
  33 H :    0.029437

  Mayer bond orders larger than 0.100000
B(  0-S ,  1-C ) :   1.1516 B(  0-S ,  4-C ) :   1.1536 B(  1-C ,  2-C ) :   1.5526
B(  1-C ,  4-C ) :   0.1079 B(  1-C , 32-H ) :   0.9790 B(  2-C ,  3-C ) :   1.2862
B(  2-C ,  6-C ) :   1.0363 B(  3-C ,  4-C ) :   1.5238 B(  3-C ,  5-H ) :   0.9850
B(  4-C , 20-C ) :   1.0703 B(  6-C ,  7-H ) :   0.9370 B(  6-C ,  8-H ) :   0.9409
B(  6-C ,  9-C ) :   1.0626 B(  9-C , 10-H ) :   0.9553 B(  9-C , 11-H ) :   0.9583
B(  9-C , 12-C ) :   1.0799 B( 12-C , 13-H ) :   0.9770 B( 12-C , 14-H ) :   0.9747
B( 12-C , 15-H ) :   0.9745 B( 16-S , 17-C ) :   1.1350 B( 16-S , 20-C ) :   1.1501
B( 17-C , 18-C ) :   1.5934 B( 17-C , 33-H ) :   0.9788 B( 18-C , 19-C ) :   1.2622
B( 18-C , 21-H ) :   0.9872 B( 19-C , 20-C ) :   1.5535 B( 19-C , 22-C ) :   1.0415
B( 22-C , 23-H ) :   0.9398 B( 22-C , 24-H ) :   0.9095 B( 22-C , 25-C ) :   1.0792
B( 25-C , 26-H ) :   0.9520 B( 25-C , 27-H ) :   0.9493 B( 25-C , 28-C ) :   1.0812
B( 28-C , 29-H ) :   0.9750 B( 28-C , 30-H ) :   0.9749 B( 28-C , 31-H ) :   0.9751

Dispersion correction           -0.014505019
FINAL SINGLE POINT ENERGY     -1339.868203732783

DIPOLE MOMENT
-------------
                                X             Y             Z
Electronic contribution:     13.93585       1.85817     -23.22648
Nuclear contribution   :    -14.02442      -1.66418      23.94066
                        -----------------------------------------
Total Dipole Moment    :     -0.08857       0.19399       0.71417
                        -----------------------------------------
Magnitude (a.u.)       :      0.74533
Magnitude (Debye)      :      1.89449

Rotational constants in cm-1:     0.020661     0.008211     0.006870
Rotational constants in MHz :   619.415530   246.166199   205.948630

                             ****ORCA TERMINATED NORMALLY****
TOTAL RUN TIME: 0 days 0 hours 0 minutes 32 seconds 265 msec
