                         Program Version 4.2.1 -  RELEASE  -
|  1> ! wB97X-D3 SP def2-SVP
|  2> %pal
|  3> nprocs 16
|  4> end
|  5>
|  6> * xyz 0 1
|  7> S 	 5.07814 	 19.3487 	 53.1877
|  8> C 	 4.34121 	 18.8039 	 54.704
|  9> C 	 3.26181 	 18.0311 	 54.4833
| 10> C 	 3.03994 	 17.7676 	 53.1165
| 11> C 	 3.93602 	 18.382 	 52.286
| 12> H 	 2.28861 	 17.1144 	 52.7288
| 13> C 	 2.52702 	 17.3249 	 55.5448
| 14> H 	 1.54368 	 17.2118 	 55.0773
| 15> H 	 2.28045 	 18.017 	 56.3676
| 16> C 	 3.16786 	 16.0257 	 56.0503
| 17> H 	 3.75024 	 15.6112 	 55.2815
| 18> H 	 3.94604 	 16.1503 	 56.7606
| 19> C 	 2.24549 	 14.8834 	 56.3916
| 20> H 	 2.79094 	 13.9769 	 56.7411
| 21> H 	 1.41168 	 15.1219 	 57.0377
| 22> H 	 1.83225 	 14.7114 	 55.3891
| 23> S 	 5.68771 	 17.8743 	 50.2772
| 24> C 	 5.16763 	 17.7148 	 48.6039
| 25> C 	 3.81768 	 17.881 	 48.5765
| 26> C 	 3.2329 	 18.2069 	 49.8207
| 27> C 	 4.12101 	 18.1752 	 50.8819
| 28> H 	 3.37808 	 17.8389 	 47.6068
| 29> C 	 1.72163 	 18.6431 	 49.8882
| 30> H 	 1.282 	 18.2774 	 50.7911
| 31> H 	 1.14898 	 18.2465 	 49.0825
| 32> C 	 1.50071 	 20.171 	 49.6352
| 33> H 	 0.483173 	 20.2366 	 49.2854
| 34> H 	 2.14711 	 20.5596 	 48.9261
| 35> C 	 1.87888 	 20.9973 	 50.9102
| 36> H 	 2.99128 	 21.1772 	 50.906
| 37> H 	 1.51265 	 20.5277 	 51.7398
| 38> H 	 1.3302 	 21.9591 	 50.8283
| 39> H 	 4.67029 	 19.301 	 55.6643
| 40> H 	 5.90655 	 17.5433 	 47.7957
| 41> *
| 42>
| 43>                          ****END OF INPUT****

CARTESIAN COORDINATES (ANGSTROEM)
---------------------------------
  S      5.078140   19.348700   53.187700
  C      4.341210   18.803900   54.704000
  C      3.261810   18.031100   54.483300
  C      3.039940   17.767600   53.116500
  C      3.936020   18.382000   52.286000
  H      2.288610   17.114400   52.728800
  C      2.527020   17.324900   55.544800
  H      1.543680   17.211800   55.077300
  H      2.280450   18.017000   56.367600
  C      3.167860   16.025700   56.050300
  H      3.750240   15.611200   55.281500
  H      3.946040   16.150300   56.760600
  C      2.245490   14.883400   56.391600
  H      2.790940   13.976900   56.741100
  H      1.411680   15.121900   57.037700
  H      1.832250   14.711400   55.389100
  S      5.687710   17.874300   50.277200
  C      5.167630   17.714800   48.603900
  C      3.817680   17.881000   48.576500
  C      3.232900   18.206900   49.820700
  C      4.121010   18.175200   50.881900
  H      3.378080   17.838900   47.606800
  C      1.721630   18.643100   49.888200
  H      1.282000   18.277400   50.791100
  H      1.148980   18.246500   49.082500
  C      1.500710   20.171000   49.635200
  H      0.483173   20.236600   49.285400
  H      2.147110   20.559600   48.926100
  C      1.878880   20.997300   50.910200
  H      2.991280   21.177200   50.906000
  H      1.512650   20.527700   51.739800
  H      1.330200   21.959100   50.828300
  H      4.670290   19.301000   55.664300
  H      5.906550   17.543300   47.795700

 Total Charge           Charge          ....    0
 Multiplicity           Mult            ....    1
 Number of Electrons    NEL             ....  134
 Basis Dimension        Dim             ....  322

ORBITAL ENERGIES
----------------

  NO   OCC          E(Eh)            E(eV)
   0   2.0000     -88.964108     -2420.8364
   1   2.0000     -88.960114     -2420.7278
   2   2.0000     -10.327652      -281.0297
   3   2.0000     -10.321802      -280.8705
   4   2.0000     -10.317635      -280.7571
   5   2.0000     -10.314218      -280.6641
   6   2.0000     -10.302419      -280.3431
   7   2.0000     -10.293688      -280.1055
   8   2.0000     -10.290870      -280.0288
   9   2.0000     -10.290324      -280.0140
  10   2.0000     -10.289260      -279.9850
  11   2.0000     -10.287726      -279.9433
  12   2.0000     -10.278451      -279.6909
  13   2.0000     -10.276867      -279.6478
  14   2.0000     -10.276425      -279.6357
  15   2.0000     -10.267971      -279.4057
  16   2.0000      -8.078896      -219.8379
  17   2.0000      -8.075855      -219.7552
  18   2.0000      -6.037337      -164.2843
  19   2.0000      -6.034299      -164.2016
  20   2.0000      -6.033421      -164.1777
  21   2.0000      -6.030062      -164.0863
  22   2.0000      -6.029691      -164.0762
  23   2.0000      -6.026763      -163.9965
  24   2.0000      -1.015079       -27.6217
  25   2.0000      -0.991077       -26.9686
  26   2.0000      -0.919235       -25.0137
  27   2.0000      -0.900507       -24.5041
  28   2.0000      -0.877739       -23.8845
  29   2.0000      -0.853894       -23.2356
  30   2.0000      -0.841616       -22.9015
  31   2.0000      -0.818734       -22.2789
  32   2.0000      -0.781843       -21.2750
  33   2.0000      -0.772093       -21.0097
  34   2.0000      -0.708467       -19.2784
  35   2.0000      -0.706045       -19.2125
  36   2.0000      -0.694346       -18.8941
  37   2.0000      -0.663166       -18.0457
  38   2.0000      -0.640873       -17.4390
  39   2.0000      -0.625706       -17.0263
  40   2.0000      -0.599749       -16.3200
  41   2.0000      -0.568793       -15.4776
  42   2.0000      -0.560855       -15.2617
  43   2.0000      -0.547953       -14.9106
  44   2.0000      -0.536847       -14.6084
  45   2.0000      -0.532686       -14.4951
  46   2.0000      -0.525788       -14.3074
  47   2.0000      -0.511536       -13.9196
  48   2.0000      -0.507718       -13.8157
  49   2.0000      -0.502767       -13.6810
  50   2.0000      -0.496771       -13.5178
  51   2.0000      -0.480700       -13.0805
  52   2.0000      -0.467969       -12.7341
  53   2.0000      -0.459877       -12.5139
  54   2.0000      -0.456057       -12.4099
  55   2.0000      -0.453633       -12.3440
  56   2.0000      -0.444344       -12.0912
  57   2.0000      -0.438581       -11.9344
  58   2.0000      -0.436287       -11.8720
  59   2.0000      -0.421396       -11.4668
  60   2.0000      -0.412702       -11.2302
  61   2.0000      -0.407526       -11.0893
  62   2.0000      -0.403191       -10.9714
  63   2.0000      -0.354655        -9.6507
  64   2.0000      -0.334097        -9.0912
  65   2.0000      -0.329005        -8.9527
  66   2.0000      -0.291623        -7.9355
  67   0.0000       0.028956         0.7879
  68   0.0000       0.076588         2.0841
  69   0.0000       0.110222         2.9993
  70   0.0000       0.124712         3.3936
  71   0.0000       0.140131         3.8132

MULLIKEN ATOMIC CHARGES
-----------------------
   0 S :    0.099248
   1 C :   -0.160164
   2 C :   -0.077889
   3 C :    0.028582
   4 C :   -0.143822
   5 H :    0.006225
   6 C :    0.072161
   7 H :    0.010466
   8 H :    0.028222
   9 C :    0.000832
  10 H :    0.009328
  11 H :    0.011183
  12 C :   -0.070297
  13 H :    0.046146
  14 H :    0.034332
  15 H :    0.025907
  16 S :    0.093762
  17 C :   -0.122153
  18 C :   -0.017649
  19 C :   -0.042735
  20 C :   -0.142634
  21 H :    0.011131
  22 C :    0.092481
  23 H :    0.011216
  24 H :    0.005238
  25 C :   -0.059071
  26 H :    0.026745
  27 H :    0.014376
  28 C :   -0.035032
  29 H :    0.053820
  30 H :    0.012044
  31 H :    0.029815
  32 H :    0.072154
  33 H :    0.076035
Sum of atomic charges:   -0.0000000

LOEWDIN ATOMIC CHARGES
----------------------
   0 S :    0.392659
   1 C :   -0.190334
   2 C :   -0.073084
   3 C :   -0.058701
   4 C :   -0.182206
   5 H :    0.028723
   6 C :   -0.032258
   7 H :    0.030993
   8 H :    0.034602
   9 C :   -0.041045
  10 H :    0.023380
  11 H :    0.018444
  12 C :   -0.062836
  13 H :    0.033720
  14 H :    0.019413
  15 H :    0.027320
  16 S :    0.415992
  17 C :   -0.186426
  18 C :   -0.072643
  19 C :   -0.060366
  20 C :   -0.216618
  21 H :    0.029672
  22 C :   -0.021289
  23 H :    0.019796
  24 H :    0.024388
  25 C :   -0.028155
  26 H :    0.019915
  27 H :    0.015757
  28 C :   -0.058010
  29 H :    0.035632
  30 H :    0.006408
  31 H :    0.028624
  32 H :    0.039703
  33 H :    0.038831

  Mayer bond orders larger than 0.100000
B(  0-S ,  1-C ) :   1.1236 B(  0-S ,  4-C ) :   1.1525 B(  1-C ,  2-C ) :   1.6158
B(  1-C , 32-H ) :   0.9638 B(  2-C ,  3-C ) :   1.2337 B(  2-C ,  6-C ) :   1.0393
B(  3-C ,  4-C ) :   1.5809 B(  3-C ,  5-H ) :   0.9976 B(  4-C , 20-C ) :   1.0482
B(  6-C ,  7-H ) :   0.9383 B(  6-C ,  8-H ) :   0.9283 B(  6-C ,  9-C ) :   1.0422
B(  9-C , 10-H ) :   0.9583 B(  9-C , 11-H ) :   0.9473 B(  9-C , 12-C ) :   1.0703
B( 12-C , 13-H ) :   0.9719 B( 12-C , 14-H ) :   0.9799 B( 12-C , 15-H ) :   0.9822
B( 16-S , 17-C ) :   1.1562 B( 16-S , 20-C ) :   1.1585 B( 17-C , 18-C ) :   1.5821
B( 17-C , 20-C ) :   0.1018 B( 17-C , 33-H ) :   0.9679 B( 18-C , 19-C ) :   1.2612
B( 18-C , 21-H ) :   0.9996 B( 19-C , 20-C ) :   1.5651 B( 19-C , 22-C ) :   1.0375
B( 22-C , 23-H ) :   0.9417 B( 22-C , 24-H ) :   0.9368 B( 22-C , 25-C ) :   1.0692
B( 25-C , 26-H ) :   0.9626 B( 25-C , 27-H ) :   0.9574 B( 25-C , 28-C ) :   1.0698
B( 28-C , 29-H ) :   0.9761 B( 28-C , 30-H ) :   0.9807 B( 28-C , 31-H ) :   0.9737

Dispersion correction           -0.015103931
FINAL SINGLE POINT ENERGY     -1339.865130983052

DIPOLE MOMENT
-------------
                                X             Y             Z
Electronic contribution:     19.60110       3.71283      -9.31657
Nuclear contribution   :    -20.08841      -3.84770       9.28676
                        -----------------------------------------
Total Dipole Moment    :     -0.48731      -0.13487      -0.02980
                        -----------------------------------------
Magnitude (a.u.)       :      0.50651
Magnitude (Debye)      :      1.28745

Rotational constants in cm-1:     0.020351     0.008170     0.007582
Rotational constants in MHz :   610.096785   244.927564   227.294873

                             ****ORCA TERMINATED NORMALLY****
TOTAL RUN TIME: 0 days 0 hours 0 minutes 34 seconds 277 msec
