                         Program Version 4.2.1 -  RELEASE  -
|  1> ! wB97X-D3 SP def2-SVP
|  2> %pal
|  3> nprocs 16
|  4> end
|  5>
|  6> * xyz 0 1
|  7> S 	 -35.2468 	 54.253 	 115.215
|  8> C 	 -35.2724 	 55.9745 	 115.275
|  9> C 	 -36.5359 	 56.4292 	 114.944
| 10> C 	 -37.5203 	 55.3887 	 114.669
| 11> C 	 -36.9761 	 54.1309 	 114.779
| 12> H 	 -38.5943 	 55.5125 	 114.475
| 13> C 	 -36.9635 	 57.923 	 114.963
| 14> H 	 -36.1552 	 58.389 	 115.536
| 15> H 	 -37.9334 	 58.0009 	 115.433
| 16> C 	 -36.9297 	 58.6102 	 113.584
| 17> H 	 -37.5887 	 58.1129 	 112.862
| 18> H 	 -37.1991 	 59.6456 	 113.582
| 19> C 	 -35.5213 	 58.486 	 112.889
| 20> H 	 -34.6405 	 58.7215 	 113.449
| 21> H 	 -35.4628 	 57.4651 	 112.534
| 22> H 	 -35.5189 	 59.0932 	 112.001
| 23> S 	 -37.7852 	 51.9834 	 116.131
| 24> C 	 -38.8876 	 50.8414 	 115.422
| 25> C 	 -39.3958 	 51.1983 	 114.216
| 26> C 	 -38.8182 	 52.4526 	 113.816
| 27> C 	 -37.8095 	 52.9177 	 114.728
| 28> H 	 -40.032 	 50.5566 	 113.582
| 29> C 	 -39.3723 	 53.0875 	 112.537
| 30> H 	 -39.3249 	 52.2905 	 111.818
| 31> H 	 -38.7186 	 53.922 	 112.326
| 32> C 	 -40.8523 	 53.5699 	 112.601
| 33> H 	 -41.0317 	 54.0175 	 113.542
| 34> H 	 -41.5105 	 52.7318 	 112.56
| 35> C 	 -41.2533 	 54.5984 	 111.503
| 36> H 	 -40.4981 	 55.402 	 111.434
| 37> H 	 -42.1725 	 55.1035 	 111.636
| 38> H 	 -41.2261 	 54.1642 	 110.503
| 39> H 	 -34.4045 	 56.5288 	 115.511
| 40> H 	 -39.1548 	 49.8936 	 115.841
| 41> *
| 42>
| 43>                          ****END OF INPUT****

CARTESIAN COORDINATES (ANGSTROEM)
---------------------------------
  S    -35.246800   54.253000  115.215000
  C    -35.272400   55.974500  115.275000
  C    -36.535900   56.429200  114.944000
  C    -37.520300   55.388700  114.669000
  C    -36.976100   54.130900  114.779000
  H    -38.594300   55.512500  114.475000
  C    -36.963500   57.923000  114.963000
  H    -36.155200   58.389000  115.536000
  H    -37.933400   58.000900  115.433000
  C    -36.929700   58.610200  113.584000
  H    -37.588700   58.112900  112.862000
  H    -37.199100   59.645600  113.582000
  C    -35.521300   58.486000  112.889000
  H    -34.640500   58.721500  113.449000
  H    -35.462800   57.465100  112.534000
  H    -35.518900   59.093200  112.001000
  S    -37.785200   51.983400  116.131000
  C    -38.887600   50.841400  115.422000
  C    -39.395800   51.198300  114.216000
  C    -38.818200   52.452600  113.816000
  C    -37.809500   52.917700  114.728000
  H    -40.032000   50.556600  113.582000
  C    -39.372300   53.087500  112.537000
  H    -39.324900   52.290500  111.818000
  H    -38.718600   53.922000  112.326000
  C    -40.852300   53.569900  112.601000
  H    -41.031700   54.017500  113.542000
  H    -41.510500   52.731800  112.560000
  C    -41.253300   54.598400  111.503000
  H    -40.498100   55.402000  111.434000
  H    -42.172500   55.103500  111.636000
  H    -41.226100   54.164200  110.503000
  H    -34.404500   56.528800  115.511000
  H    -39.154800   49.893600  115.841000

 Total Charge           Charge          ....    0
 Multiplicity           Mult            ....    1
 Number of Electrons    NEL             ....  134
 Basis Dimension        Dim             ....  322

ORBITAL ENERGIES
----------------

  NO   OCC          E(Eh)            E(eV)
   0   2.0000     -88.966879     -2420.9119
   1   2.0000     -88.966665     -2420.9060
   2   2.0000     -10.332700      -281.1671
   3   2.0000     -10.327703      -281.0311
   4   2.0000     -10.314967      -280.6845
   5   2.0000     -10.309972      -280.5486
   6   2.0000     -10.307259      -280.4748
   7   2.0000     -10.305842      -280.4362
   8   2.0000     -10.297875      -280.2194
   9   2.0000     -10.293600      -280.1031
  10   2.0000     -10.293127      -280.0902
  11   2.0000     -10.290519      -280.0193
  12   2.0000     -10.286722      -279.9159
  13   2.0000     -10.285207      -279.8747
  14   2.0000     -10.278776      -279.6997
  15   2.0000     -10.270308      -279.4693
  16   2.0000      -8.082770      -219.9434
  17   2.0000      -8.081491      -219.9086
  18   2.0000      -6.041145      -164.3879
  19   2.0000      -6.040115      -164.3599
  20   2.0000      -6.037094      -164.2777
  21   2.0000      -6.035959      -164.2468
  22   2.0000      -6.033572      -164.1818
  23   2.0000      -6.032186      -164.1441
  24   2.0000      -1.009372       -27.4664
  25   2.0000      -0.986143       -26.8343
  26   2.0000      -0.907318       -24.6894
  27   2.0000      -0.903673       -24.5902
  28   2.0000      -0.874277       -23.7903
  29   2.0000      -0.851303       -23.1651
  30   2.0000      -0.840431       -22.8693
  31   2.0000      -0.816488       -22.2178
  32   2.0000      -0.779435       -21.2095
  33   2.0000      -0.770103       -20.9556
  34   2.0000      -0.710872       -19.3438
  35   2.0000      -0.698636       -19.0108
  36   2.0000      -0.694368       -18.8947
  37   2.0000      -0.662017       -18.0144
  38   2.0000      -0.645289       -17.5592
  39   2.0000      -0.616948       -16.7880
  40   2.0000      -0.590471       -16.0675
  41   2.0000      -0.569232       -15.4896
  42   2.0000      -0.565008       -15.3746
  43   2.0000      -0.549662       -14.9571
  44   2.0000      -0.543550       -14.7908
  45   2.0000      -0.523347       -14.2410
  46   2.0000      -0.521724       -14.1968
  47   2.0000      -0.515833       -14.0365
  48   2.0000      -0.504734       -13.7345
  49   2.0000      -0.499998       -13.6056
  50   2.0000      -0.486262       -13.2319
  51   2.0000      -0.479271       -13.0416
  52   2.0000      -0.474560       -12.9134
  53   2.0000      -0.463586       -12.6148
  54   2.0000      -0.455877       -12.4050
  55   2.0000      -0.451980       -12.2990
  56   2.0000      -0.442391       -12.0381
  57   2.0000      -0.438257       -11.9256
  58   2.0000      -0.433040       -11.7836
  59   2.0000      -0.427750       -11.6397
  60   2.0000      -0.424798       -11.5593
  61   2.0000      -0.418696       -11.3933
  62   2.0000      -0.410397       -11.1675
  63   2.0000      -0.353892        -9.6299
  64   2.0000      -0.330339        -8.9890
  65   2.0000      -0.324667        -8.8346
  66   2.0000      -0.293015        -7.9733
  67   0.0000       0.031860         0.8670
  68   0.0000       0.075221         2.0469
  69   0.0000       0.115098         3.1320
  70   0.0000       0.118778         3.2321
  71   0.0000       0.129352         3.5198

MULLIKEN ATOMIC CHARGES
-----------------------
   0 S :    0.107602
   1 C :   -0.108760
   2 C :   -0.111695
   3 C :    0.028319
   4 C :   -0.145716
   5 H :    0.028220
   6 C :    0.089988
   7 H :    0.019848
   8 H :    0.035208
   9 C :   -0.066474
  10 H :    0.024257
  11 H :    0.031693
  12 C :   -0.068046
  13 H :    0.025596
  14 H :    0.040435
  15 H :    0.024665
  16 S :    0.128088
  17 C :   -0.074968
  18 C :   -0.042246
  19 C :   -0.074513
  20 C :   -0.167298
  21 H :    0.035176
  22 C :    0.083460
  23 H :    0.026299
  24 H :    0.017893
  25 C :   -0.044999
  26 H :    0.018815
  27 H :    0.019395
  28 C :   -0.044186
  29 H :    0.019924
  30 H :    0.031884
  31 H :    0.027824
  32 H :    0.043715
  33 H :    0.040596
Sum of atomic charges:    0.0000000

LOEWDIN ATOMIC CHARGES
----------------------
   0 S :    0.398928
   1 C :   -0.196509
   2 C :   -0.061068
   3 C :   -0.062464
   4 C :   -0.191598
   5 H :    0.037529
   6 C :   -0.027160
   7 H :    0.030063
   8 H :    0.029281
   9 C :   -0.036616
  10 H :    0.023665
  11 H :    0.018586
  12 C :   -0.065077
  13 H :    0.016119
  14 H :    0.026770
  15 H :    0.023417
  16 S :    0.445457
  17 C :   -0.186751
  18 C :   -0.073029
  19 C :   -0.052953
  20 C :   -0.224028
  21 H :    0.040050
  22 C :   -0.026864
  23 H :    0.029668
  24 H :    0.025614
  25 C :   -0.032106
  26 H :    0.017725
  27 H :    0.018740
  28 C :   -0.063886
  29 H :    0.024948
  30 H :    0.021758
  31 H :    0.025112
  32 H :    0.024008
  33 H :    0.022668

  Mayer bond orders larger than 0.100000
B(  0-S ,  1-C ) :   1.1349 B(  0-S ,  4-C ) :   1.1450 B(  1-C ,  2-C ) :   1.6116
B(  1-C , 32-H ) :   0.9770 B(  2-C ,  3-C ) :   1.2228 B(  2-C ,  6-C ) :   1.0166
B(  3-C ,  4-C ) :   1.5826 B(  3-C ,  5-H ) :   0.9911 B(  4-C , 20-C ) :   1.0260
B(  6-C ,  7-H ) :   0.9443 B(  6-C ,  8-H ) :   0.9475 B(  6-C ,  9-C ) :   1.0660
B(  9-C , 10-H ) :   0.9581 B(  9-C , 11-H ) :   0.9645 B(  9-C , 12-C ) :   1.0681
B( 12-C , 13-H ) :   0.9802 B( 12-C , 14-H ) :   0.9760 B( 12-C , 15-H ) :   0.9743
B( 16-S , 17-C ) :   1.1600 B( 16-S , 20-C ) :   1.1716 B( 17-C , 18-C ) :   1.6164
B( 17-C , 33-H ) :   0.9649 B( 18-C , 19-C ) :   1.2467 B( 18-C , 21-H ) :   0.9854
B( 19-C , 20-C ) :   1.5670 B( 19-C , 22-C ) :   1.0548 B( 22-C , 23-H ) :   0.9312
B( 22-C , 24-H ) :   0.9377 B( 22-C , 25-C ) :   1.0584 B( 25-C , 26-H ) :   0.9594
B( 25-C , 27-H ) :   0.9507 B( 25-C , 28-C ) :   1.0844 B( 28-C , 29-H ) :   0.9751
B( 28-C , 30-H ) :   0.9766 B( 28-C , 31-H ) :   0.9760

Dispersion correction           -0.014415267
FINAL SINGLE POINT ENERGY     -1339.876507053649

DIPOLE MOMENT
-------------
                                X             Y             Z
Electronic contribution:     12.17871     -19.77170      18.59885
Nuclear contribution   :    -12.63144      20.07660     -18.88843
                        -----------------------------------------
Total Dipole Moment    :     -0.45273       0.30490      -0.28957
                        -----------------------------------------
Magnitude (a.u.)       :      0.61788
Magnitude (Debye)      :      1.57054

Rotational constants in cm-1:     0.017276     0.009396     0.006571
Rotational constants in MHz :   517.926607   281.672634   196.988269

                             ****ORCA TERMINATED NORMALLY****
TOTAL RUN TIME: 0 days 0 hours 0 minutes 30 seconds 1 msec
