                         Program Version 4.2.1 -  RELEASE  -
|  1> ! wB97X-D3 SP def2-SVP
|  2> %pal
|  3> nprocs 16
|  4> end
|  5>
|  6> * xyz 0 1
|  7> S 	 -69.2637 	 38.3447 	 133.574
|  8> C 	 -69.0568 	 39.1627 	 132.055
|  9> C 	 -67.7951 	 38.7252 	 131.438
| 10> C 	 -67.1097 	 37.802 	 132.252
| 11> C 	 -67.6661 	 37.6274 	 133.497
| 12> H 	 -66.038 	 37.5624 	 132.098
| 13> C 	 -67.1716 	 39.1735 	 130.152
| 14> H 	 -67.7188 	 38.7222 	 129.325
| 15> H 	 -66.1482 	 38.8179 	 130.077
| 16> C 	 -66.9512 	 40.6942 	 129.953
| 17> H 	 -66.4705 	 40.9186 	 128.97
| 18> H 	 -67.8678 	 41.2622 	 130
| 19> C 	 -66.1092 	 41.2988 	 131.12
| 20> H 	 -65.174 	 40.7115 	 131.19
| 21> H 	 -65.9062 	 42.41 	 131.058
| 22> H 	 -66.627 	 41.1213 	 132.082
| 23> S 	 -66.6921 	 38.1689 	 135.96
| 24> C 	 -66.0974 	 36.8841 	 136.951
| 25> C 	 -66.1863 	 35.6383 	 136.341
| 26> C 	 -66.6139 	 35.8339 	 135.005
| 27> C 	 -67.0607 	 37.0976 	 134.71
| 28> H 	 -65.9227 	 34.7509 	 136.878
| 29> C 	 -66.6197 	 34.5771 	 134.123
| 30> H 	 -65.6219 	 34.2554 	 134.001
| 31> H 	 -66.9746 	 34.7243 	 133.127
| 32> C 	 -67.3071 	 33.2429 	 134.457
| 33> H 	 -66.9013 	 32.7792 	 135.449
| 34> H 	 -67.2111 	 32.4133 	 133.759
| 35> C 	 -68.8448 	 33.3657 	 134.502
| 36> H 	 -69.3212 	 32.9032 	 135.321
| 37> H 	 -69.303 	 32.8288 	 133.668
| 38> H 	 -69.2209 	 34.3815 	 134.512
| 39> H 	 -69.7852 	 39.7858 	 131.533
| 40> H 	 -65.4662 	 37.0881 	 137.855
| 41> *
| 42>
| 43>                          ****END OF INPUT****

CARTESIAN COORDINATES (ANGSTROEM)
---------------------------------
  S    -69.263700   38.344700  133.574000
  C    -69.056800   39.162700  132.055000
  C    -67.795100   38.725200  131.438000
  C    -67.109700   37.802000  132.252000
  C    -67.666100   37.627400  133.497000
  H    -66.038000   37.562400  132.098000
  C    -67.171600   39.173500  130.152000
  H    -67.718800   38.722200  129.325000
  H    -66.148200   38.817900  130.077000
  C    -66.951200   40.694200  129.953000
  H    -66.470500   40.918600  128.970000
  H    -67.867800   41.262200  130.000000
  C    -66.109200   41.298800  131.120000
  H    -65.174000   40.711500  131.190000
  H    -65.906200   42.410000  131.058000
  H    -66.627000   41.121300  132.082000
  S    -66.692100   38.168900  135.960000
  C    -66.097400   36.884100  136.951000
  C    -66.186300   35.638300  136.341000
  C    -66.613900   35.833900  135.005000
  C    -67.060700   37.097600  134.710000
  H    -65.922700   34.750900  136.878000
  C    -66.619700   34.577100  134.123000
  H    -65.621900   34.255400  134.001000
  H    -66.974600   34.724300  133.127000
  C    -67.307100   33.242900  134.457000
  H    -66.901300   32.779200  135.449000
  H    -67.211100   32.413300  133.759000
  C    -68.844800   33.365700  134.502000
  H    -69.321200   32.903200  135.321000
  H    -69.303000   32.828800  133.668000
  H    -69.220900   34.381500  134.512000
  H    -69.785200   39.785800  131.533000
  H    -65.466200   37.088100  137.855000

 Total Charge           Charge          ....    0
 Multiplicity           Mult            ....    1
 Number of Electrons    NEL             ....  134
 Basis Dimension        Dim             ....  322

ORBITAL ENERGIES
----------------

  NO   OCC          E(Eh)            E(eV)
   0   2.0000     -88.971644     -2421.0415
   1   2.0000     -88.967441     -2420.9271
   2   2.0000     -10.329094      -281.0689
   3   2.0000     -10.322434      -280.8877
   4   2.0000     -10.321942      -280.8743
   5   2.0000     -10.319217      -280.8002
   6   2.0000     -10.307950      -280.4936
   7   2.0000     -10.305694      -280.4322
   8   2.0000     -10.294115      -280.1171
   9   2.0000     -10.293587      -280.1028
  10   2.0000     -10.292584      -280.0754
  11   2.0000     -10.292155      -280.0638
  12   2.0000     -10.289809      -279.9999
  13   2.0000     -10.284017      -279.8423
  14   2.0000     -10.280397      -279.7438
  15   2.0000     -10.263271      -279.2778
  16   2.0000      -8.085951      -220.0299
  17   2.0000      -8.083845      -219.9726
  18   2.0000      -6.044290      -164.4735
  19   2.0000      -6.042167      -164.4157
  20   2.0000      -6.040373      -164.3669
  21   2.0000      -6.038040      -164.3034
  22   2.0000      -6.037066      -164.2769
  23   2.0000      -6.034752      -164.2139
  24   2.0000      -1.016717       -27.6663
  25   2.0000      -0.987277       -26.8652
  26   2.0000      -0.910246       -24.7690
  27   2.0000      -0.905537       -24.6409
  28   2.0000      -0.867922       -23.6174
  29   2.0000      -0.852061       -23.1858
  30   2.0000      -0.847143       -23.0519
  31   2.0000      -0.810123       -22.0446
  32   2.0000      -0.784363       -21.3436
  33   2.0000      -0.769804       -20.9474
  34   2.0000      -0.701523       -19.0894
  35   2.0000      -0.699316       -19.0294
  36   2.0000      -0.686934       -18.6924
  37   2.0000      -0.664658       -18.0863
  38   2.0000      -0.639303       -17.3963
  39   2.0000      -0.615573       -16.7506
  40   2.0000      -0.596952       -16.2439
  41   2.0000      -0.574401       -15.6303
  42   2.0000      -0.555675       -15.1207
  43   2.0000      -0.553317       -15.0565
  44   2.0000      -0.545867       -14.8538
  45   2.0000      -0.538626       -14.6568
  46   2.0000      -0.518007       -14.0957
  47   2.0000      -0.503600       -13.7037
  48   2.0000      -0.496406       -13.5079
  49   2.0000      -0.492025       -13.3887
  50   2.0000      -0.489543       -13.3211
  51   2.0000      -0.472877       -12.8676
  52   2.0000      -0.467919       -12.7327
  53   2.0000      -0.461341       -12.5537
  54   2.0000      -0.456412       -12.4196
  55   2.0000      -0.448345       -12.2001
  56   2.0000      -0.443800       -12.0764
  57   2.0000      -0.435679       -11.8554
  58   2.0000      -0.431982       -11.7548
  59   2.0000      -0.423598       -11.5267
  60   2.0000      -0.423129       -11.5139
  61   2.0000      -0.413379       -11.2486
  62   2.0000      -0.397781       -10.8242
  63   2.0000      -0.349666        -9.5149
  64   2.0000      -0.332171        -9.0388
  65   2.0000      -0.327476        -8.9111
  66   2.0000      -0.292519        -7.9599
  67   0.0000       0.032560         0.8860
  68   0.0000       0.059720         1.6251
  69   0.0000       0.113669         3.0931
  70   0.0000       0.119336         3.2473
  71   0.0000       0.127368         3.4658

MULLIKEN ATOMIC CHARGES
-----------------------
   0 S :    0.129206
   1 C :   -0.118900
   2 C :   -0.141282
   3 C :    0.058507
   4 C :   -0.190499
   5 H :    0.032539
   6 C :    0.067269
   7 H :    0.046101
   8 H :    0.017132
   9 C :   -0.073903
  10 H :    0.039969
  11 H :    0.023974
  12 C :   -0.101743
  13 H :    0.024665
  14 H :    0.051105
  15 H :    0.049682
  16 S :    0.135380
  17 C :   -0.123541
  18 C :   -0.028922
  19 C :    0.001178
  20 C :   -0.158565
  21 H :    0.022950
  22 C :    0.096534
  23 H :    0.018024
  24 H :    0.013938
  25 C :   -0.113341
  26 H :    0.028325
  27 H :    0.033037
  28 C :   -0.046326
  29 H :    0.014376
  30 H :    0.022975
  31 H :    0.033141
  32 H :    0.059163
  33 H :    0.077852
Sum of atomic charges:    0.0000000

LOEWDIN ATOMIC CHARGES
----------------------
   0 S :    0.426715
   1 C :   -0.218619
   2 C :   -0.058366
   3 C :   -0.069877
   4 C :   -0.193987
   5 H :    0.040272
   6 C :   -0.035177
   7 H :    0.036084
   8 H :    0.029838
   9 C :   -0.041357
  10 H :    0.028393
  11 H :    0.016829
  12 C :   -0.076543
  13 H :    0.020978
  14 H :    0.032208
  15 H :    0.029234
  16 S :    0.450833
  17 C :   -0.198190
  18 C :   -0.063597
  19 C :   -0.050464
  20 C :   -0.232259
  21 H :    0.033480
  22 C :   -0.033237
  23 H :    0.029365
  24 H :    0.026676
  25 C :   -0.046734
  26 H :    0.022449
  27 H :    0.029485
  28 C :   -0.073153
  29 H :    0.019842
  30 H :    0.025410
  31 H :    0.025057
  32 H :    0.030419
  33 H :    0.037995

  Mayer bond orders larger than 0.100000
B(  0-S ,  1-C ) :   1.1572 B(  0-S ,  4-C ) :   1.1771 B(  1-C ,  2-C ) :   1.5324
B(  1-C ,  4-C ) :   0.1163 B(  1-C , 32-H ) :   0.9720 B(  2-C ,  3-C ) :   1.3036
B(  2-C ,  6-C ) :   1.0265 B(  3-C ,  4-C ) :   1.5551 B(  3-C ,  5-H ) :   0.9763
B(  4-C , 20-C ) :   1.0090 B(  6-C ,  7-H ) :   0.9325 B(  6-C ,  8-H ) :   0.9484
B(  6-C ,  9-C ) :   1.0641 B(  9-C , 10-H ) :   0.9598 B(  9-C , 11-H ) :   0.9579
B(  9-C , 12-C ) :   1.0626 B( 12-C , 13-H ) :   0.9774 B( 12-C , 14-H ) :   0.9758
B( 12-C , 15-H ) :   0.9720 B( 16-S , 17-C ) :   1.1835 B( 16-S , 20-C ) :   1.1627
B( 17-C , 18-C ) :   1.5773 B( 17-C , 33-H ) :   0.9586 B( 18-C , 19-C ) :   1.2493
B( 18-C , 21-H ) :   1.0014 B( 19-C , 20-C ) :   1.5813 B( 19-C , 22-C ) :   1.0418
B( 22-C , 23-H ) :   0.9269 B( 22-C , 24-H ) :   0.9370 B( 22-C , 25-C ) :   1.0765
B( 25-C , 26-H ) :   0.9567 B( 25-C , 27-H ) :   0.9626 B( 25-C , 28-C ) :   1.0502
B( 28-C , 29-H ) :   0.9740 B( 28-C , 30-H ) :   0.9816 B( 28-C , 31-H ) :   0.9814

Dispersion correction           -0.014696058
FINAL SINGLE POINT ENERGY     -1339.855206851277

DIPOLE MOMENT
-------------
                                X             Y             Z
Electronic contribution:     -4.53972       6.55690      13.83407
Nuclear contribution   :      4.89976      -6.75926     -14.08993
                        -----------------------------------------
Total Dipole Moment    :      0.36003      -0.20236      -0.25586
                        -----------------------------------------
Magnitude (a.u.)       :      0.48584
Magnitude (Debye)      :      1.23490

Rotational constants in cm-1:     0.021564     0.008080     0.007158
Rotational constants in MHz :   646.468783   242.228091   214.595975

                             ****ORCA TERMINATED NORMALLY****
TOTAL RUN TIME: 0 days 0 hours 0 minutes 34 seconds 808 msec
