                         Program Version 4.2.1 -  RELEASE  -
|  1> ! wB97X-D3 SP def2-SVP
|  2> %pal
|  3> nprocs 16
|  4> end
|  5>
|  6> * xyz 0 1
|  7> S 	 43.4205 	 15.8062 	 87.0727
|  8> C 	 44.9025 	 15.9285 	 86.2178
|  9> C 	 45.0312 	 15.1448 	 85.112
| 10> C 	 43.7118 	 14.6247 	 84.7995
| 11> C 	 42.7488 	 14.7949 	 85.8164
| 12> H 	 43.405 	 14.0924 	 83.8964
| 13> C 	 46.1944 	 14.9608 	 84.1545
| 14> H 	 46.9286 	 15.5611 	 84.5785
| 15> H 	 45.6989 	 15.3222 	 83.2037
| 16> C 	 46.8091 	 13.5703 	 84.2006
| 17> H 	 47.0434 	 13.2505 	 85.2561
| 18> H 	 46.2014 	 12.8107 	 83.8173
| 19> C 	 48.0531 	 13.3451 	 83.4137
| 20> H 	 48.4015 	 12.266 	 83.4024
| 21> H 	 47.7505 	 13.511 	 82.3738
| 22> H 	 48.8914 	 13.9414 	 83.7285
| 23> S 	 40.0199 	 15.3018 	 85.8351
| 24> C 	 39.0509 	 14.0493 	 86.4932
| 25> C 	 39.6611 	 12.7884 	 86.4574
| 26> C 	 40.9975 	 12.8969 	 86.0128
| 27> C 	 41.4185 	 14.1924 	 85.9219
| 28> H 	 39.1272 	 11.9052 	 86.8395
| 29> C 	 41.7967 	 11.6289 	 85.924
| 30> H 	 41.7941 	 11.0875 	 86.8959
| 31> H 	 42.8581 	 11.9628 	 85.7334
| 32> C 	 41.3281 	 10.663 	 84.8251
| 33> H 	 41.1479 	 11.1955 	 83.8823
| 34> H 	 40.3304 	 10.2416 	 85.0604
| 35> C 	 42.3779 	 9.59396 	 84.6526
| 36> H 	 41.9105 	 8.74687 	 84.0687
| 37> H 	 42.7208 	 9.19091 	 85.5888
| 38> H 	 43.3102 	 10.0246 	 84.198
| 39> H 	 45.7079 	 16.5795 	 86.6238
| 40> H 	 38.0633 	 14.1741 	 86.9869
| 41> *
| 42>
| 43>                          ****END OF INPUT****

CARTESIAN COORDINATES (ANGSTROEM)
---------------------------------
  S     43.420500   15.806200   87.072700
  C     44.902500   15.928500   86.217800
  C     45.031200   15.144800   85.112000
  C     43.711800   14.624700   84.799500
  C     42.748800   14.794900   85.816400
  H     43.405000   14.092400   83.896400
  C     46.194400   14.960800   84.154500
  H     46.928600   15.561100   84.578500
  H     45.698900   15.322200   83.203700
  C     46.809100   13.570300   84.200600
  H     47.043400   13.250500   85.256100
  H     46.201400   12.810700   83.817300
  C     48.053100   13.345100   83.413700
  H     48.401500   12.266000   83.402400
  H     47.750500   13.511000   82.373800
  H     48.891400   13.941400   83.728500
  S     40.019900   15.301800   85.835100
  C     39.050900   14.049300   86.493200
  C     39.661100   12.788400   86.457400
  C     40.997500   12.896900   86.012800
  C     41.418500   14.192400   85.921900
  H     39.127200   11.905200   86.839500
  C     41.796700   11.628900   85.924000
  H     41.794100   11.087500   86.895900
  H     42.858100   11.962800   85.733400
  C     41.328100   10.663000   84.825100
  H     41.147900   11.195500   83.882300
  H     40.330400   10.241600   85.060400
  C     42.377900    9.593960   84.652600
  H     41.910500    8.746870   84.068700
  H     42.720800    9.190910   85.588800
  H     43.310200   10.024600   84.198000
  H     45.707900   16.579500   86.623800
  H     38.063300   14.174100   86.986900

 Total Charge           Charge          ....    0
 Multiplicity           Mult            ....    1
 Number of Electrons    NEL             ....  134
 Basis Dimension        Dim             ....  322

ORBITAL ENERGIES
----------------

  NO   OCC          E(Eh)            E(eV)
   0   2.0000     -88.963997     -2420.8334
   1   2.0000     -88.962099     -2420.7818
   2   2.0000     -10.326630      -281.0019
   3   2.0000     -10.322837      -280.8987
   4   2.0000     -10.315465      -280.6981
   5   2.0000     -10.312753      -280.6243
   6   2.0000     -10.300961      -280.3034
   7   2.0000     -10.298614      -280.2395
   8   2.0000     -10.296942      -280.1940
   9   2.0000     -10.296652      -280.1861
  10   2.0000     -10.292174      -280.0643
  11   2.0000     -10.290793      -280.0267
  12   2.0000     -10.287683      -279.9421
  13   2.0000     -10.283946      -279.8404
  14   2.0000     -10.282192      -279.7927
  15   2.0000     -10.279273      -279.7132
  16   2.0000      -8.079545      -219.8556
  17   2.0000      -8.077244      -219.7930
  18   2.0000      -6.037959      -164.3012
  19   2.0000      -6.035673      -164.2390
  20   2.0000      -6.033973      -164.1928
  21   2.0000      -6.031962      -164.1380
  22   2.0000      -6.030321      -164.0934
  23   2.0000      -6.027803      -164.0249
  24   2.0000      -1.005775       -27.3685
  25   2.0000      -0.986614       -26.8471
  26   2.0000      -0.920187       -25.0396
  27   2.0000      -0.911506       -24.8033
  28   2.0000      -0.868851       -23.6426
  29   2.0000      -0.854961       -23.2647
  30   2.0000      -0.849367       -23.1125
  31   2.0000      -0.807545       -21.9744
  32   2.0000      -0.783265       -21.3137
  33   2.0000      -0.768556       -20.9135
  34   2.0000      -0.701927       -19.1004
  35   2.0000      -0.696019       -18.9396
  36   2.0000      -0.689046       -18.7499
  37   2.0000      -0.656910       -17.8754
  38   2.0000      -0.641710       -17.4618
  39   2.0000      -0.619192       -16.8491
  40   2.0000      -0.592960       -16.1353
  41   2.0000      -0.576275       -15.6812
  42   2.0000      -0.565998       -15.4016
  43   2.0000      -0.559763       -15.2319
  44   2.0000      -0.525571       -14.3015
  45   2.0000      -0.523499       -14.2451
  46   2.0000      -0.518713       -14.1149
  47   2.0000      -0.516388       -14.0516
  48   2.0000      -0.508154       -13.8276
  49   2.0000      -0.497848       -13.5471
  50   2.0000      -0.489072       -13.3083
  51   2.0000      -0.476354       -12.9622
  52   2.0000      -0.467874       -12.7315
  53   2.0000      -0.465970       -12.6797
  54   2.0000      -0.458837       -12.4856
  55   2.0000      -0.448382       -12.2011
  56   2.0000      -0.445106       -12.1119
  57   2.0000      -0.433552       -11.7975
  58   2.0000      -0.430902       -11.7254
  59   2.0000      -0.424992       -11.5646
  60   2.0000      -0.419380       -11.4119
  61   2.0000      -0.416487       -11.3332
  62   2.0000      -0.415164       -11.2972
  63   2.0000      -0.332936        -9.0597
  64   2.0000      -0.327286        -8.9059
  65   2.0000      -0.322749        -8.7824
  66   2.0000      -0.298993        -8.1360
  67   0.0000       0.031336         0.8527
  68   0.0000       0.069808         1.8996
  69   0.0000       0.107773         2.9327
  70   0.0000       0.122773         3.3408
  71   0.0000       0.124860         3.3976

MULLIKEN ATOMIC CHARGES
-----------------------
   0 S :    0.128592
   1 C :   -0.139802
   2 C :   -0.114722
   3 C :    0.031588
   4 C :   -0.182423
   5 H :    0.014472
   6 C :    0.137249
   7 H :   -0.007039
   8 H :    0.058199
   9 C :   -0.075939
  10 H :    0.033906
  11 H :    0.009742
  12 C :   -0.055483
  13 H :    0.039502
  14 H :    0.023937
  15 H :    0.031947
  16 S :    0.114054
  17 C :   -0.101675
  18 C :   -0.063848
  19 C :    0.034236
  20 C :   -0.200971
  21 H :    0.032423
  22 C :    0.019938
  23 H :    0.040032
  24 H :    0.028468
  25 C :   -0.085125
  26 H :    0.031911
  27 H :    0.029239
  28 C :   -0.037636
  29 H :    0.044307
  30 H :    0.019097
  31 H :    0.038682
  32 H :    0.056857
  33 H :    0.066285
Sum of atomic charges:   -0.0000000

LOEWDIN ATOMIC CHARGES
----------------------
   0 S :    0.422265
   1 C :   -0.209510
   2 C :   -0.067793
   3 C :   -0.058772
   4 C :   -0.209089
   5 H :    0.029113
   6 C :   -0.023365
   7 H :    0.023162
   8 H :    0.048786
   9 C :   -0.046379
  10 H :    0.032263
  11 H :    0.016034
  12 C :   -0.066614
  13 H :    0.034843
  14 H :    0.024913
  15 H :    0.017884
  16 S :    0.397261
  17 C :   -0.194790
  18 C :   -0.078377
  19 C :   -0.051927
  20 C :   -0.196264
  21 H :    0.036651
  22 C :   -0.035685
  23 H :    0.034943
  24 H :    0.032186
  25 C :   -0.044088
  26 H :    0.026274
  27 H :    0.023640
  28 C :   -0.067669
  29 H :    0.033362
  30 H :    0.019315
  31 H :    0.031290
  32 H :    0.031412
  33 H :    0.034726

  Mayer bond orders larger than 0.100000
B(  0-S ,  1-C ) :   1.1541 B(  0-S ,  4-C ) :   1.1519 B(  1-C ,  2-C ) :   1.6279
B(  1-C , 32-H ) :   0.9564 B(  2-C ,  3-C ) :   1.2166 B(  2-C ,  6-C ) :   1.0152
B(  3-C ,  4-C ) :   1.5875 B(  3-C ,  5-H ) :   0.9905 B(  4-C , 20-C ) :   1.0367
B(  6-C ,  7-H ) :   0.9238 B(  6-C ,  8-H ) :   0.9389 B(  6-C ,  9-C ) :   1.0633
B(  9-C , 10-H ) :   0.9518 B(  9-C , 11-H ) :   0.9532 B(  9-C , 12-C ) :   1.0969
B( 12-C , 13-H ) :   0.9727 B( 12-C , 14-H ) :   0.9713 B( 12-C , 15-H ) :   0.9750
B( 16-S , 17-C ) :   1.1599 B( 16-S , 20-C ) :   1.1263 B( 17-C , 18-C ) :   1.6244
B( 17-C , 33-H ) :   0.9602 B( 18-C , 19-C ) :   1.2006 B( 18-C , 21-H ) :   0.9898
B( 19-C , 20-C ) :   1.6151 B( 19-C , 22-C ) :   1.0506 B( 22-C , 23-H ) :   0.9344
B( 22-C , 24-H ) :   0.9387 B( 22-C , 25-C ) :   1.0536 B( 25-C , 26-H ) :   0.9548
B( 25-C , 27-H ) :   0.9517 B( 25-C , 28-C ) :   1.0882 B( 28-C , 29-H ) :   0.9726
B( 28-C , 30-H ) :   0.9693 B( 28-C , 31-H ) :   0.9727

Dispersion correction           -0.013749718
FINAL SINGLE POINT ENERGY     -1339.862372099157

DIPOLE MOMENT
-------------
                                X             Y             Z
Electronic contribution:    -18.63625      22.68675      12.78066
Nuclear contribution   :     18.95947     -23.22550     -12.94402
                        -----------------------------------------
Total Dipole Moment    :      0.32322      -0.53874      -0.16336
                        -----------------------------------------
Magnitude (a.u.)       :      0.64916
Magnitude (Debye)      :      1.65003

Rotational constants in cm-1:     0.017016     0.009016     0.006351
Rotational constants in MHz :   510.126428   270.283197   190.389010

                             ****ORCA TERMINATED NORMALLY****
TOTAL RUN TIME: 0 days 0 hours 0 minutes 30 seconds 82 msec
