                         Program Version 4.2.1 -  RELEASE  -
|  1> ! wB97X-D3 SP def2-SVP
|  2> %pal
|  3> nprocs 16
|  4> end
|  5>
|  6> * xyz 0 1
|  7> S 	 -6.14924 	 -6.02766 	 84.2842
|  8> C 	 -7.50892 	 -6.89313 	 83.7037
|  9> C 	 -7.14946 	 -8.08414 	 83.1855
| 10> C 	 -5.76807 	 -8.40672 	 83.2972
| 11> C 	 -5.04212 	 -7.37207 	 83.9499
| 12> H 	 -5.21695 	 -9.23649 	 82.8222
| 13> C 	 -8.07919 	 -9.12674 	 82.5465
| 14> H 	 -8.62223 	 -9.70931 	 83.3118
| 15> H 	 -7.36195 	 -9.89303 	 82.0694
| 16> C 	 -8.91388 	 -8.64274 	 81.3321
| 17> H 	 -9.25153 	 -9.61277 	 80.9022
| 18> H 	 -9.77654 	 -8.04767 	 81.7471
| 19> C 	 -8.05639 	 -7.86357 	 80.3113
| 20> H 	 -6.98467 	 -8.00172 	 80.3692
| 21> H 	 -8.43615 	 -8.28476 	 79.3614
| 22> H 	 -8.4114 	 -6.83383 	 80.2658
| 23> S 	 -2.73113 	 -6.39152 	 83.0439
| 24> C 	 -1.20111 	 -7.10172 	 83.6857
| 25> C 	 -1.41796 	 -7.88361 	 84.7928
| 26> C 	 -2.79769 	 -8.1614 	 84.9821
| 27> C 	 -3.59956 	 -7.34384 	 84.1953
| 28> H 	 -0.553292 	 -8.24355 	 85.4118
| 29> C 	 -3.2723 	 -9.09886 	 86.1009
| 30> H 	 -2.59934 	 -9.97541 	 86.058
| 31> H 	 -4.22634 	 -9.46501 	 85.8357
| 32> C 	 -3.25401 	 -8.53108 	 87.5785
| 33> H 	 -3.93686 	 -9.11653 	 88.19
| 34> H 	 -3.772 	 -7.52548 	 87.5443
| 35> C 	 -1.91493 	 -8.31159 	 88.2324
| 36> H 	 -1.20784 	 -7.78545 	 87.4797
| 37> H 	 -1.54478 	 -9.29913 	 88.381
| 38> H 	 -1.94842 	 -7.77314 	 89.1491
| 39> H 	 -8.4997 	 -6.532 	 83.6753
| 40> H 	 -0.160335 	 -6.8646 	 83.575
| 41> *
| 42>
| 43>                          ****END OF INPUT****

CARTESIAN COORDINATES (ANGSTROEM)
---------------------------------
  S     -6.149240   -6.027660   84.284200
  C     -7.508920   -6.893130   83.703700
  C     -7.149460   -8.084140   83.185500
  C     -5.768070   -8.406720   83.297200
  C     -5.042120   -7.372070   83.949900
  H     -5.216950   -9.236490   82.822200
  C     -8.079190   -9.126740   82.546500
  H     -8.622230   -9.709310   83.311800
  H     -7.361950   -9.893030   82.069400
  C     -8.913880   -8.642740   81.332100
  H     -9.251530   -9.612770   80.902200
  H     -9.776540   -8.047670   81.747100
  C     -8.056390   -7.863570   80.311300
  H     -6.984670   -8.001720   80.369200
  H     -8.436150   -8.284760   79.361400
  H     -8.411400   -6.833830   80.265800
  S     -2.731130   -6.391520   83.043900
  C     -1.201110   -7.101720   83.685700
  C     -1.417960   -7.883610   84.792800
  C     -2.797690   -8.161400   84.982100
  C     -3.599560   -7.343840   84.195300
  H     -0.553292   -8.243550   85.411800
  C     -3.272300   -9.098860   86.100900
  H     -2.599340   -9.975410   86.058000
  H     -4.226340   -9.465010   85.835700
  C     -3.254010   -8.531080   87.578500
  H     -3.936860   -9.116530   88.190000
  H     -3.772000   -7.525480   87.544300
  C     -1.914930   -8.311590   88.232400
  H     -1.207840   -7.785450   87.479700
  H     -1.544780   -9.299130   88.381000
  H     -1.948420   -7.773140   89.149100
  H     -8.499700   -6.532000   83.675300
  H     -0.160335   -6.864600   83.575000

 Total Charge           Charge          ....    0
 Multiplicity           Mult            ....    1
 Number of Electrons    NEL             ....  134
 Basis Dimension        Dim             ....  322

ORBITAL ENERGIES
----------------

  NO   OCC          E(Eh)            E(eV)
   0   2.0000     -88.970025     -2420.9975
   1   2.0000     -88.966785     -2420.9093
   2   2.0000     -10.332186      -281.1531
   3   2.0000     -10.325601      -280.9739
   4   2.0000     -10.315878      -280.7093
   5   2.0000     -10.305560      -280.4285
   6   2.0000     -10.303961      -280.3850
   7   2.0000     -10.297614      -280.2123
   8   2.0000     -10.295858      -280.1645
   9   2.0000     -10.295818      -280.1635
  10   2.0000     -10.294292      -280.1219
  11   2.0000     -10.293390      -280.0974
  12   2.0000     -10.292238      -280.0660
  13   2.0000     -10.288321      -279.9594
  14   2.0000     -10.277825      -279.6738
  15   2.0000     -10.277124      -279.6548
  16   2.0000      -8.084040      -219.9779
  17   2.0000      -8.081625      -219.9122
  18   2.0000      -6.042751      -164.4316
  19   2.0000      -6.040056      -164.3583
  20   2.0000      -6.038694      -164.3212
  21   2.0000      -6.036045      -164.2491
  22   2.0000      -6.034543      -164.2083
  23   2.0000      -6.032532      -164.1535
  24   2.0000      -1.006174       -27.3794
  25   2.0000      -0.985108       -26.8061
  26   2.0000      -0.905490       -24.6396
  27   2.0000      -0.901349       -24.5270
  28   2.0000      -0.870976       -23.7005
  29   2.0000      -0.848898       -23.0997
  30   2.0000      -0.844794       -22.9880
  31   2.0000      -0.813856       -22.1461
  32   2.0000      -0.779932       -21.2230
  33   2.0000      -0.771592       -20.9961
  34   2.0000      -0.708238       -19.2721
  35   2.0000      -0.693188       -18.8626
  36   2.0000      -0.687050       -18.6956
  37   2.0000      -0.659456       -17.9447
  38   2.0000      -0.641367       -17.4525
  39   2.0000      -0.602486       -16.3945
  40   2.0000      -0.586072       -15.9478
  41   2.0000      -0.573098       -15.5948
  42   2.0000      -0.555382       -15.1127
  43   2.0000      -0.549610       -14.9556
  44   2.0000      -0.538220       -14.6457
  45   2.0000      -0.536416       -14.5966
  46   2.0000      -0.521646       -14.1947
  47   2.0000      -0.509365       -13.8605
  48   2.0000      -0.502206       -13.6657
  49   2.0000      -0.488360       -13.2889
  50   2.0000      -0.487154       -13.2561
  51   2.0000      -0.478560       -13.0223
  52   2.0000      -0.472102       -12.8465
  53   2.0000      -0.469099       -12.7648
  54   2.0000      -0.458484       -12.4760
  55   2.0000      -0.443933       -12.0800
  56   2.0000      -0.441151       -12.0043
  57   2.0000      -0.437060       -11.8930
  58   2.0000      -0.428456       -11.6589
  59   2.0000      -0.423572       -11.5260
  60   2.0000      -0.414029       -11.2663
  61   2.0000      -0.406984       -11.0746
  62   2.0000      -0.405669       -11.0388
  63   2.0000      -0.344343        -9.3700
  64   2.0000      -0.330344        -8.9891
  65   2.0000      -0.323651        -8.8070
  66   2.0000      -0.301898        -8.2151
  67   0.0000       0.036656         0.9974
  68   0.0000       0.057704         1.5702
  69   0.0000       0.106620         2.9013
  70   0.0000       0.122045         3.3210
  71   0.0000       0.125191         3.4066

MULLIKEN ATOMIC CHARGES
-----------------------
   0 S :    0.115709
   1 C :   -0.096905
   2 C :   -0.082301
   3 C :    0.035832
   4 C :   -0.189455
   5 H :    0.034642
   6 C :    0.003546
   7 H :    0.051253
   8 H :    0.022012
   9 C :   -0.106509
  10 H :    0.041208
  11 H :    0.041637
  12 C :   -0.030815
  13 H :    0.050728
  14 H :    0.026743
  15 H :    0.036372
  16 S :    0.121327
  17 C :   -0.066768
  18 C :   -0.085155
  19 C :   -0.041191
  20 C :   -0.164707
  21 H :    0.047607
  22 C :    0.095936
  23 H :    0.020024
  24 H :    0.011868
  25 C :   -0.082696
  26 H :    0.029234
  27 H :    0.030763
  28 C :   -0.037576
  29 H :    0.037015
  30 H :    0.019992
  31 H :    0.040309
  32 H :    0.028464
  33 H :    0.041859
Sum of atomic charges:    0.0000000

LOEWDIN ATOMIC CHARGES
----------------------
   0 S :    0.416081
   1 C :   -0.201837
   2 C :   -0.075249
   3 C :   -0.063461
   4 C :   -0.198547
   5 H :    0.038804
   6 C :   -0.040698
   7 H :    0.032023
   8 H :    0.030958
   9 C :   -0.047132
  10 H :    0.027444
  11 H :    0.025104
  12 C :   -0.069725
  13 H :    0.028622
  14 H :    0.032135
  15 H :    0.031293
  16 S :    0.405550
  17 C :   -0.178314
  18 C :   -0.074637
  19 C :   -0.054212
  20 C :   -0.208993
  21 H :    0.041582
  22 C :   -0.024525
  23 H :    0.029579
  24 H :    0.024355
  25 C :   -0.042550
  26 H :    0.022404
  27 H :    0.028339
  28 C :   -0.066203
  29 H :    0.035149
  30 H :    0.019018
  31 H :    0.025299
  32 H :    0.023364
  33 H :    0.028980

  Mayer bond orders larger than 0.100000
B(  0-S ,  1-C ) :   1.1417 B(  0-S ,  4-C ) :   1.1669 B(  1-C ,  2-C ) :   1.6098
B(  1-C , 32-H ) :   0.9777 B(  2-C ,  3-C ) :   1.2635 B(  2-C ,  6-C ) :   0.9986
B(  3-C ,  4-C ) :   1.5530 B(  3-C ,  5-H ) :   0.9863 B(  4-C , 20-C ) :   1.0044
B(  6-C ,  7-H ) :   0.9452 B(  6-C ,  8-H ) :   0.9524 B(  6-C ,  9-C ) :   1.0626
B(  9-C , 10-H ) :   0.9691 B(  9-C , 11-H ) :   0.9580 B(  9-C , 12-C ) :   1.0541
B( 12-C , 13-H ) :   0.9791 B( 12-C , 14-H ) :   0.9764 B( 12-C , 15-H ) :   0.9738
B( 16-S , 17-C ) :   1.1287 B( 16-S , 20-C ) :   1.1466 B( 17-C , 18-C ) :   1.6654
B( 17-C , 33-H ) :   0.9576 B( 18-C , 19-C ) :   1.2164 B( 18-C , 21-H ) :   0.9681
B( 19-C , 20-C ) :   1.6225 B( 19-C , 22-C ) :   1.0487 B( 22-C , 23-H ) :   0.9363
B( 22-C , 24-H ) :   0.9272 B( 22-C , 25-C ) :   1.0579 B( 25-C , 26-H ) :   0.9576
B( 25-C , 27-H ) :   0.9556 B( 25-C , 28-C ) :   1.0760 B( 28-C , 29-H ) :   0.9689
B( 28-C , 30-H ) :   0.9753 B( 28-C , 31-H ) :   0.9710

Dispersion correction           -0.014712518
FINAL SINGLE POINT ENERGY     -1339.860500389708

DIPOLE MOMENT
-------------
                                X             Y             Z
Electronic contribution:      6.16881      13.81464      -3.46417
Nuclear contribution   :     -6.26392     -14.29342       3.54980
                        -----------------------------------------
Total Dipole Moment    :     -0.09511      -0.47878       0.08563
                        -----------------------------------------
Magnitude (a.u.)       :      0.49559
Magnitude (Debye)      :      1.25969

Rotational constants in cm-1:     0.023563     0.007530     0.006724
Rotational constants in MHz :   706.401884   225.747862   201.570144

                             ****ORCA TERMINATED NORMALLY****
TOTAL RUN TIME: 0 days 0 hours 0 minutes 33 seconds 923 msec
