                         Program Version 4.2.1 -  RELEASE  -
|  1> ! wB97X-D3 SP def2-SVP
|  2> %pal
|  3> nprocs 16
|  4> end
|  5>
|  6> * xyz 0 1
|  7> S 	 55.9237 	 11.058 	 70.364
|  8> C 	 56.8177 	 11.783 	 71.7363
|  9> C 	 56.9172 	 10.8963 	 72.8238
| 10> C 	 56.4369 	 9.62471 	 72.4585
| 11> C 	 55.9197 	 9.56922 	 71.2006
| 12> H 	 56.521 	 8.68323 	 72.9067
| 13> C 	 57.4346 	 11.1364 	 74.2892
| 14> H 	 56.618 	 10.777 	 74.9969
| 15> H 	 57.4037 	 12.2668 	 74.4085
| 16> C 	 58.8556 	 10.5743 	 74.5389
| 17> H 	 58.8509 	 9.53223 	 74.1359
| 18> H 	 59.5071 	 11.154 	 73.9739
| 19> C 	 59.2618 	 10.5082 	 76.0136
| 20> H 	 59.2662 	 11.5908 	 76.398
| 21> H 	 58.6583 	 9.85769 	 76.6216
| 22> H 	 60.307 	 10.0878 	 76.0635
| 23> S 	 56.635 	 6.97908 	 70.6073
| 24> C 	 55.3779 	 5.92411 	 69.7946
| 25> C 	 54.2744 	 6.61668 	 69.4508
| 26> C 	 54.3411 	 7.91936 	 69.9251
| 27> C 	 55.4706 	 8.30839 	 70.6141
| 28> H 	 53.4828 	 6.13339 	 68.9392
| 29> C 	 53.1429 	 8.8593 	 69.6921
| 30> H 	 53.3718 	 9.77776 	 70.1474
| 31> H 	 52.4282 	 8.34213 	 70.3204
| 32> C 	 52.6494 	 9.0112 	 68.2436
| 33> H 	 52.4356 	 8.02309 	 67.8147
| 34> H 	 53.4755 	 9.53553 	 67.7524
| 35> C 	 51.4157 	 9.88712 	 68.1942
| 36> H 	 51.4944 	 10.8896 	 68.532
| 37> H 	 50.7182 	 9.37616 	 68.8511
| 38> H 	 51.0611 	 9.85716 	 67.1534
| 39> H 	 57.0729 	 12.7931 	 71.8912
| 40> H 	 55.4961 	 4.87888 	 69.4012
| 41> *
| 42>
| 43>                          ****END OF INPUT****

CARTESIAN COORDINATES (ANGSTROEM)
---------------------------------
  S     55.923700   11.058000   70.364000
  C     56.817700   11.783000   71.736300
  C     56.917200   10.896300   72.823800
  C     56.436900    9.624710   72.458500
  C     55.919700    9.569220   71.200600
  H     56.521000    8.683230   72.906700
  C     57.434600   11.136400   74.289200
  H     56.618000   10.777000   74.996900
  H     57.403700   12.266800   74.408500
  C     58.855600   10.574300   74.538900
  H     58.850900    9.532230   74.135900
  H     59.507100   11.154000   73.973900
  C     59.261800   10.508200   76.013600
  H     59.266200   11.590800   76.398000
  H     58.658300    9.857690   76.621600
  H     60.307000   10.087800   76.063500
  S     56.635000    6.979080   70.607300
  C     55.377900    5.924110   69.794600
  C     54.274400    6.616680   69.450800
  C     54.341100    7.919360   69.925100
  C     55.470600    8.308390   70.614100
  H     53.482800    6.133390   68.939200
  C     53.142900    8.859300   69.692100
  H     53.371800    9.777760   70.147400
  H     52.428200    8.342130   70.320400
  C     52.649400    9.011200   68.243600
  H     52.435600    8.023090   67.814700
  H     53.475500    9.535530   67.752400
  C     51.415700    9.887120   68.194200
  H     51.494400   10.889600   68.532000
  H     50.718200    9.376160   68.851100
  H     51.061100    9.857160   67.153400
  H     57.072900   12.793100   71.891200
  H     55.496100    4.878880   69.401200

 Total Charge           Charge          ....    0
 Multiplicity           Mult            ....    1
 Number of Electrons    NEL             ....  134
 Basis Dimension        Dim             ....  322

ORBITAL ENERGIES
----------------

  NO   OCC          E(Eh)            E(eV)
   0   2.0000     -88.973050     -2421.0798
   1   2.0000     -88.964952     -2420.8594
   2   2.0000     -10.323346      -280.9125
   3   2.0000     -10.322894      -280.9002
   4   2.0000     -10.321637      -280.8660
   5   2.0000     -10.315900      -280.7099
   6   2.0000     -10.307248      -280.4745
   7   2.0000     -10.306407      -280.4516
   8   2.0000     -10.295682      -280.1598
   9   2.0000     -10.287947      -279.9493
  10   2.0000     -10.287597      -279.9397
  11   2.0000     -10.286355      -279.9059
  12   2.0000     -10.286279      -279.9039
  13   2.0000     -10.282190      -279.7926
  14   2.0000     -10.280356      -279.7427
  15   2.0000     -10.272753      -279.5358
  16   2.0000      -8.087217      -220.0644
  17   2.0000      -8.078100      -219.8163
  18   2.0000      -6.045762      -164.5135
  19   2.0000      -6.041910      -164.4087
  20   2.0000      -6.037878      -164.2990
  21   2.0000      -6.036828      -164.2704
  22   2.0000      -6.032959      -164.1652
  23   2.0000      -6.028597      -164.0465
  24   2.0000      -1.008625       -27.4461
  25   2.0000      -0.983491       -26.7621
  26   2.0000      -0.908779       -24.7291
  27   2.0000      -0.906668       -24.6717
  28   2.0000      -0.873250       -23.7623
  29   2.0000      -0.855142       -23.2696
  30   2.0000      -0.844579       -22.9822
  31   2.0000      -0.816751       -22.2249
  32   2.0000      -0.779681       -21.2162
  33   2.0000      -0.765836       -20.8395
  34   2.0000      -0.704267       -19.1641
  35   2.0000      -0.698355       -19.0032
  36   2.0000      -0.694456       -18.8971
  37   2.0000      -0.667226       -18.1561
  38   2.0000      -0.639683       -17.4066
  39   2.0000      -0.615857       -16.7583
  40   2.0000      -0.588207       -16.0059
  41   2.0000      -0.573072       -15.5941
  42   2.0000      -0.568604       -15.4725
  43   2.0000      -0.563315       -15.3286
  44   2.0000      -0.529762       -14.4156
  45   2.0000      -0.522313       -14.2129
  46   2.0000      -0.520279       -14.1575
  47   2.0000      -0.511616       -13.9218
  48   2.0000      -0.501539       -13.6476
  49   2.0000      -0.496709       -13.5162
  50   2.0000      -0.486521       -13.2389
  51   2.0000      -0.480949       -13.0873
  52   2.0000      -0.472055       -12.8453
  53   2.0000      -0.463395       -12.6096
  54   2.0000      -0.456323       -12.4172
  55   2.0000      -0.452790       -12.3210
  56   2.0000      -0.445430       -12.1208
  57   2.0000      -0.436097       -11.8668
  58   2.0000      -0.435174       -11.8417
  59   2.0000      -0.426028       -11.5928
  60   2.0000      -0.423067       -11.5122
  61   2.0000      -0.415523       -11.3070
  62   2.0000      -0.405360       -11.0304
  63   2.0000      -0.347723        -9.4620
  64   2.0000      -0.336705        -9.1622
  65   2.0000      -0.329086        -8.9549
  66   2.0000      -0.291421        -7.9300
  67   0.0000       0.032643         0.8883
  68   0.0000       0.069633         1.8948
  69   0.0000       0.097794         2.6611
  70   0.0000       0.105296         2.8653
  71   0.0000       0.134610         3.6629

MULLIKEN ATOMIC CHARGES
-----------------------
   0 S :    0.128498
   1 C :   -0.104644
   2 C :   -0.079030
   3 C :    0.026374
   4 C :   -0.144599
   5 H :   -0.007912
   6 C :    0.012522
   7 H :    0.050680
   8 H :    0.025117
   9 C :   -0.045240
  10 H :    0.035894
  11 H :    0.020693
  12 C :   -0.062982
  13 H :    0.042789
  14 H :    0.036727
  15 H :    0.044848
  16 S :    0.086774
  17 C :   -0.103572
  18 C :   -0.025057
  19 C :   -0.037415
  20 C :   -0.150763
  21 H :    0.010642
  22 C :    0.066855
  23 H :   -0.003031
  24 H :    0.025312
  25 C :   -0.076865
  26 H :    0.031682
  27 H :    0.034048
  28 C :   -0.016312
  29 H :    0.031612
  30 H :    0.017222
  31 H :    0.037371
  32 H :    0.024837
  33 H :    0.066925
Sum of atomic charges:    0.0000000

LOEWDIN ATOMIC CHARGES
----------------------
   0 S :    0.417257
   1 C :   -0.188386
   2 C :   -0.053283
   3 C :   -0.064420
   4 C :   -0.203201
   5 H :    0.019863
   6 C :   -0.036067
   7 H :    0.039188
   8 H :    0.029599
   9 C :   -0.039169
  10 H :    0.029330
  11 H :    0.018398
  12 C :   -0.069593
  13 H :    0.033489
  14 H :    0.021325
  15 H :    0.034219
  16 S :    0.366196
  17 C :   -0.161317
  18 C :   -0.070997
  19 C :   -0.059430
  20 C :   -0.192424
  21 H :    0.031399
  22 C :   -0.029329
  23 H :    0.010327
  24 H :    0.029920
  25 C :   -0.036762
  26 H :    0.024240
  27 H :    0.026679
  28 C :   -0.060082
  29 H :    0.021421
  30 H :    0.023896
  31 H :    0.029926
  32 H :    0.017172
  33 H :    0.040617

  Mayer bond orders larger than 0.100000
B(  0-S ,  1-C ) :   1.1268 B(  0-S ,  4-C ) :   1.1456 B(  1-C ,  2-C ) :   1.6282
B(  1-C , 32-H ) :   0.9680 B(  2-C ,  3-C ) :   1.2131 B(  2-C ,  6-C ) :   1.0110
B(  3-C ,  4-C ) :   1.5861 B(  3-C ,  5-H ) :   1.0026 B(  4-C , 20-C ) :   1.0235
B(  6-C ,  7-H ) :   0.9503 B(  6-C ,  8-H ) :   0.9405 B(  6-C ,  9-C ) :   1.0480
B(  9-C , 10-H ) :   0.9605 B(  9-C , 11-H ) :   0.9520 B(  9-C , 12-C ) :   1.0836
B( 12-C , 13-H ) :   0.9729 B( 12-C , 14-H ) :   0.9766 B( 12-C , 15-H ) :   0.9727
B( 16-S , 17-C ) :   1.1300 B( 16-S , 20-C ) :   1.1099 B( 17-C , 18-C ) :   1.6493
B( 17-C , 33-H ) :   0.9533 B( 18-C , 19-C ) :   1.2215 B( 18-C , 21-H ) :   0.9952
B( 19-C , 20-C ) :   1.6269 B( 19-C , 22-C ) :   1.0255 B( 22-C , 23-H ) :   0.9361
B( 22-C , 24-H ) :   0.9302 B( 22-C , 25-C ) :   1.0663 B( 25-C , 26-H ) :   0.9515
B( 25-C , 27-H ) :   0.9531 B( 25-C , 28-C ) :   1.0910 B( 28-C , 29-H ) :   0.9748
B( 28-C , 30-H ) :   0.9724 B( 28-C , 31-H ) :   0.9730

Dispersion correction           -0.013657891
FINAL SINGLE POINT ENERGY     -1339.862515767127

DIPOLE MOMENT
-------------
                                X             Y             Z
Electronic contribution:      4.96029      -6.24826      -8.78790
Nuclear contribution   :     -5.18884       6.25021       8.94338
                        -----------------------------------------
Total Dipole Moment    :     -0.22855       0.00195       0.15548
                        -----------------------------------------
Magnitude (a.u.)       :      0.27643
Magnitude (Debye)      :      0.70263

Rotational constants in cm-1:     0.022688     0.007360     0.005965
Rotational constants in MHz :   680.183657   220.654744   178.828063

                             ****ORCA TERMINATED NORMALLY****
TOTAL RUN TIME: 0 days 0 hours 0 minutes 27 seconds 616 msec
