                         Program Version 4.2.1 -  RELEASE  -
|  1> ! wB97X-D3 SP def2-SVP
|  2> %pal
|  3> nprocs 16
|  4> end
|  5>
|  6> * xyz 0 1
|  7> S 	 21.3706 	 -1.12231 	 81.8305
|  8> C 	 22.6883 	 -0.454135 	 81.0011
|  9> C 	 22.5009 	 0.916562 	 80.8064
| 10> C 	 21.1553 	 1.27793 	 81.0735
| 11> C 	 20.4333 	 0.359947 	 81.819
| 12> H 	 20.7398 	 2.29593 	 80.9769
| 13> C 	 23.446 	 1.98231 	 80.265
| 14> H 	 22.8866 	 2.53444 	 79.4785
| 15> H 	 24.2898 	 1.42175 	 79.7958
| 16> C 	 24.0952 	 2.84972 	 81.3417
| 17> H 	 23.2333 	 3.17896 	 81.9879
| 18> H 	 24.7627 	 2.17496 	 82.0089
| 19> C 	 24.9582 	 4.02088 	 80.7585
| 20> H 	 25.1938 	 4.76889 	 81.5597
| 21> H 	 25.8027 	 3.70222 	 80.1341
| 22> H 	 24.2727 	 4.52067 	 80.1229
| 23> S 	 19.031 	 1.09261 	 84.1333
| 24> C 	 17.3144 	 1.03873 	 84.0763
| 25> C 	 16.8101 	 0.759388 	 82.8356
| 26> C 	 17.8367 	 0.536372 	 81.8683
| 27> C 	 19.1282 	 0.479376 	 82.5156
| 28> H 	 15.7517 	 0.823959 	 82.7322
| 29> C 	 17.6005 	 0.397472 	 80.4015
| 30> H 	 18.4655 	 0.794354 	 79.915
| 31> H 	 16.7669 	 1.15144 	 80.2527
| 32> C 	 17.0455 	 -1.02772 	 79.8737
| 33> H 	 16.1569 	 -1.31048 	 80.4384
| 34> H 	 17.8155 	 -1.77683 	 80.0847
| 35> C 	 16.7165 	 -0.953421 	 78.3626
| 36> H 	 16.1765 	 -1.7908 	 78.0572
| 37> H 	 17.4671 	 -0.780864 	 77.624
| 38> H 	 15.9378 	 -0.185513 	 78.3056
| 39> H 	 23.7337 	 -0.918274 	 81.1003
| 40> H 	 16.6543 	 1.32304 	 84.8541
| 41> *
| 42>
| 43>                          ****END OF INPUT****

CARTESIAN COORDINATES (ANGSTROEM)
---------------------------------
  S     21.370600   -1.122310   81.830500
  C     22.688300   -0.454135   81.001100
  C     22.500900    0.916562   80.806400
  C     21.155300    1.277930   81.073500
  C     20.433300    0.359947   81.819000
  H     20.739800    2.295930   80.976900
  C     23.446000    1.982310   80.265000
  H     22.886600    2.534440   79.478500
  H     24.289800    1.421750   79.795800
  C     24.095200    2.849720   81.341700
  H     23.233300    3.178960   81.987900
  H     24.762700    2.174960   82.008900
  C     24.958200    4.020880   80.758500
  H     25.193800    4.768890   81.559700
  H     25.802700    3.702220   80.134100
  H     24.272700    4.520670   80.122900
  S     19.031000    1.092610   84.133300
  C     17.314400    1.038730   84.076300
  C     16.810100    0.759388   82.835600
  C     17.836700    0.536372   81.868300
  C     19.128200    0.479376   82.515600
  H     15.751700    0.823959   82.732200
  C     17.600500    0.397472   80.401500
  H     18.465500    0.794354   79.915000
  H     16.766900    1.151440   80.252700
  C     17.045500   -1.027720   79.873700
  H     16.156900   -1.310480   80.438400
  H     17.815500   -1.776830   80.084700
  C     16.716500   -0.953421   78.362600
  H     16.176500   -1.790800   78.057200
  H     17.467100   -0.780864   77.624000
  H     15.937800   -0.185513   78.305600
  H     23.733700   -0.918274   81.100300
  H     16.654300    1.323040   84.854100

 Total Charge           Charge          ....    0
 Multiplicity           Mult            ....    1
 Number of Electrons    NEL             ....  134
 Basis Dimension        Dim             ....  322

ORBITAL ENERGIES
----------------

  NO   OCC          E(Eh)            E(eV)
   0   2.0000     -88.969407     -2420.9806
   1   2.0000     -88.961578     -2420.7676
   2   2.0000     -10.329002      -281.0664
   3   2.0000     -10.327170      -281.0166
   4   2.0000     -10.315076      -280.6875
   5   2.0000     -10.311208      -280.5822
   6   2.0000     -10.307953      -280.4937
   7   2.0000     -10.301073      -280.3065
   8   2.0000     -10.298754      -280.2433
   9   2.0000     -10.296328      -280.1773
  10   2.0000     -10.294365      -280.1239
  11   2.0000     -10.293931      -280.1121
  12   2.0000     -10.293104      -280.0896
  13   2.0000     -10.289922      -280.0030
  14   2.0000     -10.283465      -279.8273
  15   2.0000     -10.270932      -279.4863
  16   2.0000      -8.084590      -219.9929
  17   2.0000      -8.077349      -219.7959
  18   2.0000      -6.042904      -164.4358
  19   2.0000      -6.039100      -164.3323
  20   2.0000      -6.035666      -164.2388
  21   2.0000      -6.035473      -164.2336
  22   2.0000      -6.031507      -164.1256
  23   2.0000      -6.028422      -164.0417
  24   2.0000      -1.007256       -27.4088
  25   2.0000      -0.989360       -26.9218
  26   2.0000      -0.907487       -24.6940
  27   2.0000      -0.900348       -24.4997
  28   2.0000      -0.866860       -23.5884
  29   2.0000      -0.852776       -23.2052
  30   2.0000      -0.846525       -23.0351
  31   2.0000      -0.815126       -22.1807
  32   2.0000      -0.781006       -21.2523
  33   2.0000      -0.765618       -20.8335
  34   2.0000      -0.707670       -19.2567
  35   2.0000      -0.695097       -18.9145
  36   2.0000      -0.689604       -18.7651
  37   2.0000      -0.653868       -17.7926
  38   2.0000      -0.638547       -17.3758
  39   2.0000      -0.620379       -16.8814
  40   2.0000      -0.591315       -16.0905
  41   2.0000      -0.567515       -15.4429
  42   2.0000      -0.559852       -15.2343
  43   2.0000      -0.554927       -15.1003
  44   2.0000      -0.526239       -14.3197
  45   2.0000      -0.519166       -14.1272
  46   2.0000      -0.514648       -14.0043
  47   2.0000      -0.509848       -13.8737
  48   2.0000      -0.500997       -13.6328
  49   2.0000      -0.498372       -13.5614
  50   2.0000      -0.490452       -13.3459
  51   2.0000      -0.473796       -12.8927
  52   2.0000      -0.471262       -12.8237
  53   2.0000      -0.468789       -12.7564
  54   2.0000      -0.460525       -12.5315
  55   2.0000      -0.445315       -12.1176
  56   2.0000      -0.442008       -12.0276
  57   2.0000      -0.440539       -11.9877
  58   2.0000      -0.431581       -11.7439
  59   2.0000      -0.428424       -11.6580
  60   2.0000      -0.418850       -11.3975
  61   2.0000      -0.417154       -11.3513
  62   2.0000      -0.411803       -11.2057
  63   2.0000      -0.337758        -9.1909
  64   2.0000      -0.329635        -8.9698
  65   2.0000      -0.315651        -8.5893
  66   2.0000      -0.306676        -8.3451
  67   0.0000       0.041281         1.1233
  68   0.0000       0.053020         1.4428
  69   0.0000       0.107735         2.9316
  70   0.0000       0.120117         3.2685
  71   0.0000       0.134092         3.6488

MULLIKEN ATOMIC CHARGES
-----------------------
   0 S :    0.112476
   1 C :   -0.125312
   2 C :   -0.129992
   3 C :    0.039690
   4 C :   -0.200271
   5 H :    0.022228
   6 C :    0.036927
   7 H :    0.042175
   8 H :    0.022324
   9 C :   -0.121291
  10 H :    0.037355
  11 H :    0.040479
  12 C :   -0.021526
  13 H :    0.049316
  14 H :    0.044421
  15 H :    0.012505
  16 S :    0.135074
  17 C :   -0.079554
  18 C :   -0.024865
  19 C :   -0.037975
  20 C :   -0.156948
  21 H :    0.007325
  22 C :    0.056403
  23 H :    0.023028
  24 H :    0.027946
  25 C :   -0.061730
  26 H :    0.030338
  27 H :    0.039407
  28 C :   -0.010142
  29 H :    0.013464
  30 H :    0.039847
  31 H :    0.012786
  32 H :    0.083673
  33 H :    0.040421
Sum of atomic charges:   -0.0000000

LOEWDIN ATOMIC CHARGES
----------------------
   0 S :    0.431359
   1 C :   -0.237807
   2 C :   -0.068775
   3 C :   -0.071056
   4 C :   -0.200749
   5 H :    0.033194
   6 C :   -0.039933
   7 H :    0.034315
   8 H :    0.031259
   9 C :   -0.049059
  10 H :    0.026724
  11 H :    0.030198
  12 C :   -0.068321
  13 H :    0.036339
  14 H :    0.029725
  15 H :    0.018390
  16 S :    0.437052
  17 C :   -0.188351
  18 C :   -0.072697
  19 C :   -0.041873
  20 C :   -0.229209
  21 H :    0.028860
  22 C :   -0.036460
  23 H :    0.027483
  24 H :    0.037862
  25 C :   -0.025914
  26 H :    0.026324
  27 H :    0.024325
  28 C :   -0.063779
  29 H :    0.019065
  30 H :    0.024817
  31 H :    0.026387
  32 H :    0.046958
  33 H :    0.023346

  Mayer bond orders larger than 0.100000
B(  0-S ,  1-C ) :   1.1705 B(  0-S ,  4-C ) :   1.1724 B(  1-C ,  2-C ) :   1.5887
B(  1-C ,  4-C ) :   0.1038 B(  1-C , 32-H ) :   0.9496 B(  2-C ,  3-C ) :   1.2682
B(  2-C ,  6-C ) :   1.0236 B(  3-C ,  4-C ) :   1.5725 B(  3-C ,  5-H ) :   0.9826
B(  4-C , 20-C ) :   1.0108 B(  6-C ,  7-H ) :   0.9449 B(  6-C ,  8-H ) :   0.9405
B(  6-C ,  9-C ) :   1.0542 B(  9-C , 10-H ) :   0.9590 B(  9-C , 11-H ) :   0.9544
B(  9-C , 12-C ) :   1.0664 B( 12-C , 13-H ) :   0.9741 B( 12-C , 14-H ) :   0.9748
B( 12-C , 15-H ) :   0.9733 B( 16-S , 17-C ) :   1.1737 B( 16-S , 20-C ) :   1.1631
B( 17-C , 18-C ) :   1.6053 B( 17-C , 33-H ) :   0.9664 B( 18-C , 19-C ) :   1.2576
B( 18-C , 21-H ) :   0.9950 B( 19-C , 20-C ) :   1.5317 B( 19-C , 22-C ) :   1.0532
B( 22-C , 23-H ) :   0.9276 B( 22-C , 24-H ) :   0.9340 B( 22-C , 25-C ) :   1.0486
B( 25-C , 26-H ) :   0.9567 B( 25-C , 27-H ) :   0.9591 B( 25-C , 28-C ) :   1.0778
B( 28-C , 29-H ) :   0.9714 B( 28-C , 30-H ) :   0.9788 B( 28-C , 31-H ) :   0.9719

Dispersion correction           -0.013912431
FINAL SINGLE POINT ENERGY     -1339.864263897487

DIPOLE MOMENT
-------------
                                X             Y             Z
Electronic contribution:     -3.23966      -8.85187      18.27395
Nuclear contribution   :      3.04337       9.31720     -18.53629
                        -----------------------------------------
Total Dipole Moment    :     -0.19629       0.46532      -0.26234
                        -----------------------------------------
Magnitude (a.u.)       :      0.56910
Magnitude (Debye)      :      1.44654

Rotational constants in cm-1:     0.018083     0.007709     0.006606
Rotational constants in MHz :   542.127021   231.101579   198.041234

                             ****ORCA TERMINATED NORMALLY****
TOTAL RUN TIME: 0 days 0 hours 0 minutes 34 seconds 2 msec
