                         Program Version 4.2.1 -  RELEASE  -
|  1> ! wB97X-D3 SP def2-SVP
|  2> %pal
|  3> nprocs 16
|  4> end
|  5>
|  6> * xyz 0 1
|  7> S 	 -37.0186 	 70.8025 	 170.635
|  8> C 	 -35.8622 	 70.7281 	 171.976
|  9> C 	 -36.3805 	 70.9515 	 173.224
| 10> C 	 -37.7997 	 71.0939 	 173.146
| 11> C 	 -38.3043 	 70.895 	 171.914
| 12> H 	 -38.4475 	 71.3583 	 173.928
| 13> C 	 -35.6037 	 71.1254 	 174.608
| 14> H 	 -34.5828 	 70.7373 	 174.402
| 15> H 	 -36.0037 	 70.535 	 175.391
| 16> C 	 -35.5788 	 72.6495 	 174.972
| 17> H 	 -35.5237 	 73.0725 	 173.992
| 18> H 	 -36.5384 	 73.0009 	 175.355
| 19> C 	 -34.4833 	 73.1366 	 175.95
| 20> H 	 -34.4194 	 72.6763 	 176.965
| 21> H 	 -33.5397 	 72.9147 	 175.577
| 22> H 	 -34.3541 	 74.2311 	 175.988
| 23> S 	 -40.9001 	 71.1415 	 172.868
| 24> C 	 -42.1248 	 70.2391 	 172.096
| 25> C 	 -41.7002 	 69.5881 	 170.956
| 26> C 	 -40.327 	 69.722 	 170.752
| 27> C 	 -39.7575 	 70.5831 	 171.711
| 28> H 	 -42.3781 	 68.9358 	 170.411
| 29> C 	 -39.5835 	 68.9163 	 169.749
| 30> H 	 -38.6976 	 69.3786 	 169.468
| 31> H 	 -40.2397 	 68.9971 	 168.892
| 32> C 	 -39.335 	 67.4519 	 170.093
| 33> H 	 -38.8164 	 66.9213 	 169.305
| 34> H 	 -40.3102 	 66.9338 	 170.203
| 35> C 	 -38.3008 	 67.33 	 171.18
| 36> H 	 -37.3659 	 67.7525 	 170.854
| 37> H 	 -38.0075 	 66.255 	 171.357
| 38> H 	 -38.5488 	 67.9019 	 172.054
| 39> H 	 -34.8475 	 70.6141 	 171.741
| 40> H 	 -43.1423 	 69.9424 	 172.488
| 41> *
| 42>
| 43>                          ****END OF INPUT****

CARTESIAN COORDINATES (ANGSTROEM)
---------------------------------
  S    -37.018600   70.802500  170.635000
  C    -35.862200   70.728100  171.976000
  C    -36.380500   70.951500  173.224000
  C    -37.799700   71.093900  173.146000
  C    -38.304300   70.895000  171.914000
  H    -38.447500   71.358300  173.928000
  C    -35.603700   71.125400  174.608000
  H    -34.582800   70.737300  174.402000
  H    -36.003700   70.535000  175.391000
  C    -35.578800   72.649500  174.972000
  H    -35.523700   73.072500  173.992000
  H    -36.538400   73.000900  175.355000
  C    -34.483300   73.136600  175.950000
  H    -34.419400   72.676300  176.965000
  H    -33.539700   72.914700  175.577000
  H    -34.354100   74.231100  175.988000
  S    -40.900100   71.141500  172.868000
  C    -42.124800   70.239100  172.096000
  C    -41.700200   69.588100  170.956000
  C    -40.327000   69.722000  170.752000
  C    -39.757500   70.583100  171.711000
  H    -42.378100   68.935800  170.411000
  C    -39.583500   68.916300  169.749000
  H    -38.697600   69.378600  169.468000
  H    -40.239700   68.997100  168.892000
  C    -39.335000   67.451900  170.093000
  H    -38.816400   66.921300  169.305000
  H    -40.310200   66.933800  170.203000
  C    -38.300800   67.330000  171.180000
  H    -37.365900   67.752500  170.854000
  H    -38.007500   66.255000  171.357000
  H    -38.548800   67.901900  172.054000
  H    -34.847500   70.614100  171.741000
  H    -43.142300   69.942400  172.488000

 Total Charge           Charge          ....    0
 Multiplicity           Mult            ....    1
 Number of Electrons    NEL             ....  134
 Basis Dimension        Dim             ....  322

ORBITAL ENERGIES
----------------

  NO   OCC          E(Eh)            E(eV)
   0   2.0000     -88.971577     -2421.0397
   1   2.0000     -88.970621     -2421.0137
   2   2.0000     -10.333014      -281.1756
   3   2.0000     -10.325485      -280.9707
   4   2.0000     -10.314876      -280.6820
   5   2.0000     -10.313856      -280.6543
   6   2.0000     -10.307488      -280.4810
   7   2.0000     -10.302448      -280.3439
   8   2.0000     -10.296537      -280.1830
   9   2.0000     -10.289709      -279.9972
  10   2.0000     -10.288479      -279.9637
  11   2.0000     -10.286987      -279.9231
  12   2.0000     -10.280401      -279.7439
  13   2.0000     -10.279152      -279.7099
  14   2.0000     -10.276860      -279.6476
  15   2.0000     -10.265707      -279.3441
  16   2.0000      -8.087046      -220.0597
  17   2.0000      -8.083596      -219.9658
  18   2.0000      -6.045465      -164.5055
  19   2.0000      -6.042292      -164.4191
  20   2.0000      -6.041505      -164.3977
  21   2.0000      -6.038696      -164.3213
  22   2.0000      -6.037856      -164.2984
  23   2.0000      -6.033923      -164.1914
  24   2.0000      -1.011042       -27.5119
  25   2.0000      -0.985976       -26.8298
  26   2.0000      -0.916392       -24.9363
  27   2.0000      -0.901922       -24.5425
  28   2.0000      -0.869546       -23.6615
  29   2.0000      -0.853962       -23.2375
  30   2.0000      -0.847064       -23.0498
  31   2.0000      -0.813522       -22.1370
  32   2.0000      -0.785454       -21.3733
  33   2.0000      -0.773093       -21.0369
  34   2.0000      -0.706302       -19.2195
  35   2.0000      -0.701945       -19.1009
  36   2.0000      -0.688739       -18.7416
  37   2.0000      -0.669408       -18.2155
  38   2.0000      -0.638910       -17.3856
  39   2.0000      -0.620733       -16.8910
  40   2.0000      -0.595417       -16.2021
  41   2.0000      -0.572373       -15.5751
  42   2.0000      -0.558191       -15.1891
  43   2.0000      -0.547298       -14.8927
  44   2.0000      -0.543780       -14.7970
  45   2.0000      -0.518917       -14.1204
  46   2.0000      -0.516907       -14.0658
  47   2.0000      -0.508065       -13.8252
  48   2.0000      -0.503682       -13.7059
  49   2.0000      -0.492775       -13.4091
  50   2.0000      -0.486470       -13.2375
  51   2.0000      -0.479517       -13.0483
  52   2.0000      -0.473982       -12.8977
  53   2.0000      -0.468694       -12.7538
  54   2.0000      -0.462267       -12.5789
  55   2.0000      -0.453571       -12.3423
  56   2.0000      -0.444091       -12.0843
  57   2.0000      -0.435656       -11.8548
  58   2.0000      -0.431508       -11.7419
  59   2.0000      -0.429723       -11.6934
  60   2.0000      -0.420774       -11.4498
  61   2.0000      -0.419605       -11.4180
  62   2.0000      -0.403237       -10.9726
  63   2.0000      -0.356496        -9.7008
  64   2.0000      -0.336122        -9.1463
  65   2.0000      -0.332887        -9.0583
  66   2.0000      -0.280585        -7.6351
  67   0.0000       0.022575         0.6143
  68   0.0000       0.084656         2.3036
  69   0.0000       0.094110         2.5609
  70   0.0000       0.119442         3.2502
  71   0.0000       0.133281         3.6268

MULLIKEN ATOMIC CHARGES
-----------------------
   0 S :    0.088504
   1 C :   -0.126006
   2 C :   -0.070015
   3 C :   -0.014534
   4 C :   -0.088451
   5 H :    0.003741
   6 C :    0.088981
   7 H :    0.023370
   8 H :    0.031637
   9 C :   -0.073903
  10 H :    0.032867
  11 H :    0.032740
  12 C :   -0.030887
  13 H :    0.040507
  14 H :   -0.002353
  15 H :    0.035573
  16 S :    0.116995
  17 C :   -0.104785
  18 C :   -0.046650
  19 C :   -0.087867
  20 C :   -0.133409
  21 H :    0.016347
  22 C :    0.111106
  23 H :   -0.010879
  24 H :    0.015529
  25 C :   -0.036216
  26 H :    0.020461
  27 H :    0.027786
  28 C :   -0.040467
  29 H :    0.009058
  30 H :    0.034047
  31 H :    0.039059
  32 H :    0.026443
  33 H :    0.071672
Sum of atomic charges:   -0.0000000

LOEWDIN ATOMIC CHARGES
----------------------
   0 S :    0.378565
   1 C :   -0.177099
   2 C :   -0.055072
   3 C :   -0.065227
   4 C :   -0.155770
   5 H :    0.017414
   6 C :   -0.015885
   7 H :    0.031419
   8 H :    0.022491
   9 C :   -0.039802
  10 H :    0.026183
  11 H :    0.023754
  12 C :   -0.074729
  13 H :    0.032943
  14 H :    0.014146
  15 H :    0.034247
  16 S :    0.444104
  17 C :   -0.214801
  18 C :   -0.070406
  19 C :   -0.061391
  20 C :   -0.203704
  21 H :    0.032489
  22 C :   -0.032242
  23 H :    0.001505
  24 H :    0.033186
  25 C :   -0.037640
  26 H :    0.026190
  27 H :    0.022999
  28 C :   -0.065907
  29 H :    0.018666
  30 H :    0.030999
  31 H :    0.021850
  32 H :    0.012549
  33 H :    0.043975

  Mayer bond orders larger than 0.100000
B(  0-S ,  1-C ) :   1.1171 B(  0-S ,  4-C ) :   1.1104 B(  1-C ,  2-C ) :   1.6565
B(  1-C , 32-H ) :   0.9706 B(  2-C ,  3-C ) :   1.1957 B(  2-C ,  6-C ) :   1.0222
B(  3-C ,  4-C ) :   1.6243 B(  3-C ,  5-H ) :   0.9935 B(  4-C , 20-C ) :   1.0405
B(  6-C ,  7-H ) :   0.9453 B(  6-C ,  8-H ) :   0.9454 B(  6-C ,  9-C ) :   1.0431
B(  9-C , 10-H ) :   0.9583 B(  9-C , 11-H ) :   0.9571 B(  9-C , 12-C ) :   1.0824
B( 12-C , 13-H ) :   0.9747 B( 12-C , 14-H ) :   0.9690 B( 12-C , 15-H ) :   0.9723
B( 16-S , 17-C ) :   1.1668 B( 16-S , 20-C ) :   1.1591 B( 17-C , 18-C ) :   1.5971
B( 17-C , 33-H ) :   0.9537 B( 18-C , 19-C ) :   1.2843 B( 18-C , 21-H ) :   0.9887
B( 19-C , 20-C ) :   1.5362 B( 19-C , 22-C ) :   1.0435 B( 22-C , 23-H ) :   0.9224
B( 22-C , 24-H ) :   0.9170 B( 22-C , 25-C ) :   1.0858 B( 25-C , 26-H ) :   0.9505
B( 25-C , 27-H ) :   0.9560 B( 25-C , 28-C ) :   1.0694 B( 28-C , 29-H ) :   0.9658
B( 28-C , 30-H ) :   0.9712 B( 28-C , 31-H ) :   0.9786

Dispersion correction           -0.015525982
FINAL SINGLE POINT ENERGY     -1339.856359855041

DIPOLE MOMENT
-------------
                                X             Y             Z
Electronic contribution:    -13.65571       5.67927      -8.14078
Nuclear contribution   :     13.89469      -5.92601       8.36062
                        -----------------------------------------
Total Dipole Moment    :      0.23899      -0.24674       0.21984
                        -----------------------------------------
Magnitude (a.u.)       :      0.40783
Magnitude (Debye)      :      1.03662

Rotational constants in cm-1:     0.022620     0.008368     0.006857
Rotational constants in MHz :   678.116299   250.860015   205.573828

                             ****ORCA TERMINATED NORMALLY****
TOTAL RUN TIME: 0 days 0 hours 0 minutes 37 seconds 617 msec
