                         Program Version 4.2.1 -  RELEASE  -
|  1> ! wB97X-D3 SP def2-SVP
|  2> %pal
|  3> nprocs 16
|  4> end
|  5>
|  6> * xyz 0 1
|  7> S 	 -62.4895 	 52.2936 	 124.464
|  8> C 	 -63.3559 	 52.2175 	 125.938
|  9> C 	 -64.4661 	 53.0274 	 125.973
| 10> C 	 -64.5878 	 53.8255 	 124.799
| 11> C 	 -63.5249 	 53.573 	 123.889
| 12> H 	 -65.2556 	 54.6722 	 124.666
| 13> C 	 -65.5136 	 53.0639 	 127.13
| 14> H 	 -65.6158 	 54.0347 	 127.475
| 15> H 	 -65.0507 	 52.5291 	 128.026
| 16> C 	 -66.9848 	 52.6672 	 126.811
| 17> H 	 -66.9818 	 51.5848 	 126.74
| 18> H 	 -67.7344 	 52.9459 	 127.622
| 19> C 	 -67.531 	 53.2362 	 125.441
| 20> H 	 -67.0893 	 52.5517 	 124.769
| 21> H 	 -68.5958 	 52.9803 	 125.373
| 22> H 	 -67.3237 	 54.2484 	 125.272
| 23> S 	 -61.7382 	 55.3013 	 122.628
| 24> C 	 -62.1992 	 55.816 	 121.012
| 25> C 	 -63.3116 	 55.1435 	 120.502
| 26> C 	 -63.945 	 54.3399 	 121.49
| 27> C 	 -63.208 	 54.3023 	 122.691
| 28> H 	 -63.6471 	 55.2631 	 119.461
| 29> C 	 -65.229 	 53.5636 	 121.249
| 30> H 	 -65.9286 	 54.2187 	 120.808
| 31> H 	 -65.653 	 53.1631 	 122.201
| 32> C 	 -65.0302 	 52.2136 	 120.455
| 33> H 	 -64.4428 	 51.5616 	 121.14
| 34> H 	 -64.4969 	 52.4361 	 119.556
| 35> C 	 -66.2686 	 51.3617 	 120.116
| 36> H 	 -65.9122 	 50.437 	 119.753
| 37> H 	 -66.9432 	 51.8108 	 119.375
| 38> H 	 -66.8802 	 51.1543 	 121.027
| 39> H 	 -63.2707 	 51.5129 	 126.742
| 40> H 	 -61.3854 	 56.3067 	 120.332
| 41> *
| 42>
| 43>                          ****END OF INPUT****

CARTESIAN COORDINATES (ANGSTROEM)
---------------------------------
  S    -62.489500   52.293600  124.464000
  C    -63.355900   52.217500  125.938000
  C    -64.466100   53.027400  125.973000
  C    -64.587800   53.825500  124.799000
  C    -63.524900   53.573000  123.889000
  H    -65.255600   54.672200  124.666000
  C    -65.513600   53.063900  127.130000
  H    -65.615800   54.034700  127.475000
  H    -65.050700   52.529100  128.026000
  C    -66.984800   52.667200  126.811000
  H    -66.981800   51.584800  126.740000
  H    -67.734400   52.945900  127.622000
  C    -67.531000   53.236200  125.441000
  H    -67.089300   52.551700  124.769000
  H    -68.595800   52.980300  125.373000
  H    -67.323700   54.248400  125.272000
  S    -61.738200   55.301300  122.628000
  C    -62.199200   55.816000  121.012000
  C    -63.311600   55.143500  120.502000
  C    -63.945000   54.339900  121.490000
  C    -63.208000   54.302300  122.691000
  H    -63.647100   55.263100  119.461000
  C    -65.229000   53.563600  121.249000
  H    -65.928600   54.218700  120.808000
  H    -65.653000   53.163100  122.201000
  C    -65.030200   52.213600  120.455000
  H    -64.442800   51.561600  121.140000
  H    -64.496900   52.436100  119.556000
  C    -66.268600   51.361700  120.116000
  H    -65.912200   50.437000  119.753000
  H    -66.943200   51.810800  119.375000
  H    -66.880200   51.154300  121.027000
  H    -63.270700   51.512900  126.742000
  H    -61.385400   56.306700  120.332000

 Total Charge           Charge          ....    0
 Multiplicity           Mult            ....    1
 Number of Electrons    NEL             ....  134
 Basis Dimension        Dim             ....  322

ORBITAL ENERGIES
----------------

  NO   OCC          E(Eh)            E(eV)
   0   2.0000     -88.970703     -2421.0159
   1   2.0000     -88.968331     -2420.9514
   2   2.0000     -10.328066      -281.0410
   3   2.0000     -10.325941      -280.9832
   4   2.0000     -10.325914      -280.9824
   5   2.0000     -10.308783      -280.5163
   6   2.0000     -10.305743      -280.4335
   7   2.0000     -10.301475      -280.3174
   8   2.0000     -10.299649      -280.2677
   9   2.0000     -10.297268      -280.2029
  10   2.0000     -10.295857      -280.1645
  11   2.0000     -10.295287      -280.1490
  12   2.0000     -10.289957      -280.0040
  13   2.0000     -10.287021      -279.9241
  14   2.0000     -10.277974      -279.6779
  15   2.0000     -10.274521      -279.5839
  16   2.0000      -8.085858      -220.0274
  17   2.0000      -8.082453      -219.9347
  18   2.0000      -6.044240      -164.4721
  19   2.0000      -6.040856      -164.3800
  20   2.0000      -6.040267      -164.3640
  21   2.0000      -6.037113      -164.2782
  22   2.0000      -6.036767      -164.2688
  23   2.0000      -6.033285      -164.1740
  24   2.0000      -1.005526       -27.3617
  25   2.0000      -0.981412       -26.7056
  26   2.0000      -0.905069       -24.6282
  27   2.0000      -0.900981       -24.5169
  28   2.0000      -0.867163       -23.5967
  29   2.0000      -0.851065       -23.1587
  30   2.0000      -0.844826       -22.9889
  31   2.0000      -0.810763       -22.0620
  32   2.0000      -0.788166       -21.4471
  33   2.0000      -0.769839       -20.9484
  34   2.0000      -0.702321       -19.1111
  35   2.0000      -0.695547       -18.9268
  36   2.0000      -0.688143       -18.7253
  37   2.0000      -0.656777       -17.8718
  38   2.0000      -0.639422       -17.3995
  39   2.0000      -0.611660       -16.6441
  40   2.0000      -0.591832       -16.1046
  41   2.0000      -0.571854       -15.5609
  42   2.0000      -0.565641       -15.3919
  43   2.0000      -0.547735       -14.9046
  44   2.0000      -0.537696       -14.6314
  45   2.0000      -0.524356       -14.2684
  46   2.0000      -0.516737       -14.0611
  47   2.0000      -0.508108       -13.8263
  48   2.0000      -0.503615       -13.7041
  49   2.0000      -0.494819       -13.4647
  50   2.0000      -0.483353       -13.1527
  51   2.0000      -0.479699       -13.0533
  52   2.0000      -0.467207       -12.7134
  53   2.0000      -0.465083       -12.6555
  54   2.0000      -0.458386       -12.4733
  55   2.0000      -0.452304       -12.3078
  56   2.0000      -0.444154       -12.0861
  57   2.0000      -0.436626       -11.8812
  58   2.0000      -0.431165       -11.7326
  59   2.0000      -0.424689       -11.5564
  60   2.0000      -0.420975       -11.4553
  61   2.0000      -0.418080       -11.3765
  62   2.0000      -0.411975       -11.2104
  63   2.0000      -0.340180        -9.2568
  64   2.0000      -0.331295        -9.0150
  65   2.0000      -0.328859        -8.9487
  66   2.0000      -0.295125        -8.0308
  67   0.0000       0.031280         0.8512
  68   0.0000       0.059904         1.6301
  69   0.0000       0.116411         3.1677
  70   0.0000       0.119578         3.2539
  71   0.0000       0.124097         3.3768

MULLIKEN ATOMIC CHARGES
-----------------------
   0 S :    0.135577
   1 C :   -0.093163
   2 C :   -0.124602
   3 C :    0.052148
   4 C :   -0.203930
   5 H :    0.019838
   6 C :    0.087976
   7 H :    0.014368
   8 H :    0.027881
   9 C :   -0.120818
  10 H :    0.026959
  11 H :    0.044763
  12 C :   -0.033307
  13 H :    0.037801
  14 H :    0.033721
  15 H :    0.036240
  16 S :    0.120196
  17 C :   -0.132537
  18 C :   -0.044444
  19 C :   -0.017198
  20 C :   -0.175513
  21 H :    0.033058
  22 C :    0.084105
  23 H :    0.019967
  24 H :    0.026777
  25 C :   -0.097956
  26 H :    0.034967
  27 H :    0.022780
  28 C :   -0.033637
  29 H :    0.029842
  30 H :    0.032865
  31 H :    0.030104
  32 H :    0.032300
  33 H :    0.092872
Sum of atomic charges:   -0.0000000

LOEWDIN ATOMIC CHARGES
----------------------
   0 S :    0.433008
   1 C :   -0.212619
   2 C :   -0.065700
   3 C :   -0.052901
   4 C :   -0.203863
   5 H :    0.033208
   6 C :   -0.033567
   7 H :    0.019658
   8 H :    0.036495
   9 C :   -0.039483
  10 H :    0.019749
  11 H :    0.029203
  12 C :   -0.058342
  13 H :    0.024408
  14 H :    0.031139
  15 H :    0.014370
  16 S :    0.397777
  17 C :   -0.203946
  18 C :   -0.072663
  19 C :   -0.047962
  20 C :   -0.203089
  21 H :    0.037577
  22 C :   -0.031710
  23 H :    0.021032
  24 H :    0.034989
  25 C :   -0.035050
  26 H :    0.030248
  27 H :    0.014841
  28 C :   -0.064599
  29 H :    0.022820
  30 H :    0.023500
  31 H :    0.028006
  32 H :    0.025843
  33 H :    0.047621

  Mayer bond orders larger than 0.100000
B(  0-S ,  1-C ) :   1.1434 B(  0-S ,  4-C ) :   1.1687 B(  1-C ,  2-C ) :   1.6275
B(  1-C , 32-H ) :   0.9587 B(  2-C ,  3-C ) :   1.2588 B(  2-C ,  6-C ) :   1.0147
B(  3-C ,  4-C ) :   1.5467 B(  3-C ,  5-H ) :   0.9880 B(  4-C , 20-C ) :   1.0475
B(  6-C ,  7-H ) :   0.9385 B(  6-C ,  8-H ) :   0.9457 B(  6-C ,  9-C ) :   1.0501
B(  9-C , 10-H ) :   0.9623 B(  9-C , 11-H ) :   0.9614 B(  9-C , 12-C ) :   1.0790
B( 12-C , 13-H ) :   0.9693 B( 12-C , 14-H ) :   0.9686 B( 12-C , 15-H ) :   0.9765
B( 16-S , 17-C ) :   1.1579 B( 16-S , 20-C ) :   1.1426 B( 17-C , 18-C ) :   1.6038
B( 17-C , 20-C ) :   0.1054 B( 17-C , 33-H ) :   0.9488 B( 18-C , 19-C ) :   1.2500
B( 18-C , 21-H ) :   0.9840 B( 19-C , 20-C ) :   1.5796 B( 19-C , 22-C ) :   1.0523
B( 22-C , 23-H ) :   0.9352 B( 22-C , 24-H ) :   0.9282 B( 22-C , 25-C ) :   1.0556
B( 25-C , 26-H ) :   0.9584 B( 25-C , 27-H ) :   0.9605 B( 25-C , 28-C ) :   1.0854
B( 28-C , 29-H ) :   0.9734 B( 28-C , 30-H ) :   0.9754 B( 28-C , 31-H ) :   0.9728

Dispersion correction           -0.014949559
FINAL SINGLE POINT ENERGY     -1339.867774609223

DIPOLE MOMENT
-------------
                                X             Y             Z
Electronic contribution:     26.59567       8.95700       1.20757
Nuclear contribution   :    -27.13987      -9.12160      -1.30396
                        -----------------------------------------
Total Dipole Moment    :     -0.54421      -0.16460      -0.09638
                        -----------------------------------------
Magnitude (a.u.)       :      0.57667
Magnitude (Debye)      :      1.46577

Rotational constants in cm-1:     0.016620     0.009763     0.007542
Rotational constants in MHz :   498.258095   292.700037   226.100621

                             ****ORCA TERMINATED NORMALLY****
TOTAL RUN TIME: 0 days 0 hours 0 minutes 34 seconds 125 msec
