                         Program Version 4.2.1 -  RELEASE  -
|  1> ! wB97X-D3 SP def2-SVP
|  2> %pal
|  3> nprocs 16
|  4> end
|  5>
|  6> * xyz 0 1
|  7> S 	 54.7769 	 8.54164 	 75.7109
|  8> C 	 53.7121 	 9.87612 	 76.0671
|  9> C 	 53.0734 	 10.3239 	 74.878
| 10> C 	 53.5285 	 9.65282 	 73.7173
| 11> C 	 54.5162 	 8.68623 	 73.9526
| 12> H 	 53.297 	 9.87293 	 72.7157
| 13> C 	 52.2212 	 11.5794 	 74.7773
| 14> H 	 51.6086 	 11.623 	 75.7033
| 15> H 	 51.4572 	 11.4314 	 73.9227
| 16> C 	 53.0231 	 12.8808 	 74.6923
| 17> H 	 53.7999 	 12.8368 	 75.4373
| 18> H 	 53.5215 	 12.8105 	 73.774
| 19> C 	 52.0626 	 14.125 	 74.9183
| 20> H 	 51.5518 	 14.3408 	 73.9519
| 21> H 	 51.3726 	 14.0758 	 75.7849
| 22> H 	 52.6325 	 15.0686 	 75.0317
| 23> S 	 55.7298 	 6.23495 	 73.3569
| 24> C 	 56.6632 	 6.0279 	 71.9002
| 25> C 	 56.2961 	 6.96048 	 70.9423
| 26> C 	 55.4969 	 8.04336 	 71.5427
| 27> C 	 55.1317 	 7.78716 	 72.8926
| 28> H 	 56.6589 	 6.94522 	 69.9622
| 29> C 	 55.2676 	 9.31507 	 70.7406
| 30> H 	 54.1684 	 9.45416 	 70.6827
| 31> H 	 55.5942 	 9.04249 	 69.7365
| 32> C 	 56.0024 	 10.5704 	 71.2247
| 33> H 	 56.9746 	 10.2142 	 71.5923
| 34> H 	 55.5115 	 11.0342 	 72.1547
| 35> C 	 56.1404 	 11.6546 	 70.1088
| 36> H 	 55.2033 	 12.2047 	 70.0083
| 37> H 	 56.3731 	 11.2236 	 69.1755
| 38> H 	 56.9155 	 12.3565 	 70.4312
| 39> H 	 53.4694 	 10.3225 	 77.0832
| 40> H 	 57.2122 	 5.11037 	 71.7224
| 41> *
| 42>
| 43>                          ****END OF INPUT****

CARTESIAN COORDINATES (ANGSTROEM)
---------------------------------
  S     54.776900    8.541640   75.710900
  C     53.712100    9.876120   76.067100
  C     53.073400   10.323900   74.878000
  C     53.528500    9.652820   73.717300
  C     54.516200    8.686230   73.952600
  H     53.297000    9.872930   72.715700
  C     52.221200   11.579400   74.777300
  H     51.608600   11.623000   75.703300
  H     51.457200   11.431400   73.922700
  C     53.023100   12.880800   74.692300
  H     53.799900   12.836800   75.437300
  H     53.521500   12.810500   73.774000
  C     52.062600   14.125000   74.918300
  H     51.551800   14.340800   73.951900
  H     51.372600   14.075800   75.784900
  H     52.632500   15.068600   75.031700
  S     55.729800    6.234950   73.356900
  C     56.663200    6.027900   71.900200
  C     56.296100    6.960480   70.942300
  C     55.496900    8.043360   71.542700
  C     55.131700    7.787160   72.892600
  H     56.658900    6.945220   69.962200
  C     55.267600    9.315070   70.740600
  H     54.168400    9.454160   70.682700
  H     55.594200    9.042490   69.736500
  C     56.002400   10.570400   71.224700
  H     56.974600   10.214200   71.592300
  H     55.511500   11.034200   72.154700
  C     56.140400   11.654600   70.108800
  H     55.203300   12.204700   70.008300
  H     56.373100   11.223600   69.175500
  H     56.915500   12.356500   70.431200
  H     53.469400   10.322500   77.083200
  H     57.212200    5.110370   71.722400

 Total Charge           Charge          ....    0
 Multiplicity           Mult            ....    1
 Number of Electrons    NEL             ....  134
 Basis Dimension        Dim             ....  322

ORBITAL ENERGIES
----------------

  NO   OCC          E(Eh)            E(eV)
   0   2.0000     -88.973308     -2421.0868
   1   2.0000     -88.965003     -2420.8608
   2   2.0000     -10.340388      -281.3763
   3   2.0000     -10.335493      -281.2431
   4   2.0000     -10.324651      -280.9480
   5   2.0000     -10.319623      -280.8112
   6   2.0000     -10.310331      -280.5584
   7   2.0000     -10.304195      -280.3914
   8   2.0000     -10.298399      -280.2337
   9   2.0000     -10.298092      -280.2253
  10   2.0000     -10.294831      -280.1366
  11   2.0000     -10.292698      -280.0786
  12   2.0000     -10.292348      -280.0690
  13   2.0000     -10.290637      -280.0225
  14   2.0000     -10.287380      -279.9338
  15   2.0000     -10.278167      -279.6831
  16   2.0000      -8.086820      -220.0536
  17   2.0000      -8.080357      -219.8777
  18   2.0000      -6.045438      -164.5047
  19   2.0000      -6.041334      -164.3931
  20   2.0000      -6.038883      -164.3264
  21   2.0000      -6.037687      -164.2938
  22   2.0000      -6.034646      -164.2111
  23   2.0000      -6.031205      -164.1174
  24   2.0000      -1.000922       -27.2365
  25   2.0000      -0.981628       -26.7114
  26   2.0000      -0.907562       -24.6960
  27   2.0000      -0.905865       -24.6499
  28   2.0000      -0.862343       -23.4655
  29   2.0000      -0.849728       -23.1223
  30   2.0000      -0.843735       -22.9592
  31   2.0000      -0.813542       -22.1376
  32   2.0000      -0.777687       -21.1619
  33   2.0000      -0.766486       -20.8571
  34   2.0000      -0.706210       -19.2170
  35   2.0000      -0.703456       -19.1420
  36   2.0000      -0.686365       -18.6769
  37   2.0000      -0.667664       -18.1681
  38   2.0000      -0.638688       -17.3796
  39   2.0000      -0.619234       -16.8502
  40   2.0000      -0.591591       -16.0980
  41   2.0000      -0.568229       -15.4623
  42   2.0000      -0.564086       -15.3495
  43   2.0000      -0.556628       -15.1466
  44   2.0000      -0.524336       -14.2679
  45   2.0000      -0.516275       -14.0485
  46   2.0000      -0.514839       -14.0095
  47   2.0000      -0.507704       -13.8153
  48   2.0000      -0.503751       -13.7078
  49   2.0000      -0.499688       -13.5972
  50   2.0000      -0.489845       -13.3293
  51   2.0000      -0.485360       -13.2073
  52   2.0000      -0.474940       -12.9238
  53   2.0000      -0.469341       -12.7714
  54   2.0000      -0.456731       -12.4283
  55   2.0000      -0.448767       -12.2116
  56   2.0000      -0.442198       -12.0328
  57   2.0000      -0.436905       -11.8888
  58   2.0000      -0.435602       -11.8533
  59   2.0000      -0.426613       -11.6087
  60   2.0000      -0.418711       -11.3937
  61   2.0000      -0.415506       -11.3065
  62   2.0000      -0.412715       -11.2305
  63   2.0000      -0.355745        -9.6803
  64   2.0000      -0.332998        -9.0613
  65   2.0000      -0.327210        -8.9038
  66   2.0000      -0.284280        -7.7357
  67   0.0000       0.018501         0.5034
  68   0.0000       0.077096         2.0979
  69   0.0000       0.102171         2.7802
  70   0.0000       0.117056         3.1852
  71   0.0000       0.129368         3.5203

MULLIKEN ATOMIC CHARGES
-----------------------
   0 S :    0.123338
   1 C :   -0.143318
   2 C :   -0.085206
   3 C :    0.042209
   4 C :   -0.126178
   5 H :   -0.020310
   6 C :   -0.006522
   7 H :    0.020722
   8 H :    0.043267
   9 C :   -0.010339
  10 H :    0.021891
  11 H :    0.014255
  12 C :   -0.072393
  13 H :    0.038397
  14 H :    0.049679
  15 H :    0.033557
  16 S :    0.095581
  17 C :   -0.101280
  18 C :    0.004342
  19 C :   -0.109197
  20 C :   -0.118584
  21 H :    0.008245
  22 C :    0.052214
  23 H :    0.042641
  24 H :    0.005766
  25 C :   -0.100599
  26 H :    0.034282
  27 H :    0.049277
  28 C :   -0.021533
  29 H :    0.031294
  30 H :    0.020587
  31 H :    0.040889
  32 H :    0.077548
  33 H :    0.065475
Sum of atomic charges:    0.0000000

LOEWDIN ATOMIC CHARGES
----------------------
   0 S :    0.407644
   1 C :   -0.216427
   2 C :   -0.066985
   3 C :   -0.060620
   4 C :   -0.181174
   5 H :    0.020994
   6 C :   -0.040634
   7 H :    0.026580
   8 H :    0.036633
   9 C :   -0.031598
  10 H :    0.022213
  11 H :    0.017982
  12 C :   -0.073859
  13 H :    0.031357
  14 H :    0.030393
  15 H :    0.028312
  16 S :    0.414748
  17 C :   -0.184677
  18 C :   -0.062824
  19 C :   -0.056856
  20 C :   -0.205355
  21 H :    0.023007
  22 C :   -0.039627
  23 H :    0.029964
  24 H :    0.027561
  25 C :   -0.045010
  26 H :    0.025525
  27 H :    0.032494
  28 C :   -0.059107
  29 H :    0.026358
  30 H :    0.015814
  31 H :    0.031249
  32 H :    0.046814
  33 H :    0.029109

  Mayer bond orders larger than 0.100000
B(  0-S ,  1-C ) :   1.1528 B(  0-S ,  4-C ) :   1.1548 B(  1-C ,  2-C ) :   1.5600
B(  1-C ,  4-C ) :   0.1060 B(  1-C , 32-H ) :   0.9594 B(  2-C ,  3-C ) :   1.2783
B(  2-C ,  6-C ) :   1.0379 B(  3-C ,  4-C ) :   1.5293 B(  3-C ,  5-H ) :   0.9982
B(  4-C , 20-C ) :   1.0526 B(  6-C ,  7-H ) :   0.9396 B(  6-C ,  8-H ) :   0.9455
B(  6-C ,  9-C ) :   1.0498 B(  9-C , 10-H ) :   0.9569 B(  9-C , 11-H ) :   0.9560
B(  9-C , 12-C ) :   1.0640 B( 12-C , 13-H ) :   0.9760 B( 12-C , 14-H ) :   0.9776
B( 12-C , 15-H ) :   0.9759 B( 16-S , 17-C ) :   1.1684 B( 16-S , 20-C ) :   1.1428
B( 17-C , 18-C ) :   1.5883 B( 17-C , 33-H ) :   0.9658 B( 18-C , 19-C ) :   1.2602
B( 18-C , 21-H ) :   0.9941 B( 19-C , 20-C ) :   1.5642 B( 19-C , 22-C ) :   1.0477
B( 22-C , 23-H ) :   0.9283 B( 22-C , 24-H ) :   0.9315 B( 22-C , 25-C ) :   1.0535
B( 25-C , 26-H ) :   0.9582 B( 25-C , 27-H ) :   0.9480 B( 25-C , 28-C ) :   1.0774
B( 28-C , 29-H ) :   0.9761 B( 28-C , 30-H ) :   0.9775 B( 28-C , 31-H ) :   0.9760

Dispersion correction           -0.014429002
FINAL SINGLE POINT ENERGY     -1339.873707780898

DIPOLE MOMENT
-------------
                                X             Y             Z
Electronic contribution:      6.56942     -30.24416      11.02648
Nuclear contribution   :     -6.60051      30.81764     -11.44993
                        -----------------------------------------
Total Dipole Moment    :     -0.03108       0.57348      -0.42344
                        -----------------------------------------
Magnitude (a.u.)       :      0.71354
Magnitude (Debye)      :      1.81368

Rotational constants in cm-1:     0.018730     0.008896     0.006388
Rotational constants in MHz :   561.518705   266.699753   191.520580

                             ****ORCA TERMINATED NORMALLY****
TOTAL RUN TIME: 0 days 0 hours 0 minutes 30 seconds 149 msec
