                         Program Version 4.2.1 -  RELEASE  -
|  1> ! wB97X-D3 SP def2-SVP
|  2> %pal
|  3> nprocs 16
|  4> end
|  5>
|  6> * xyz 0 1
|  7> S 	 36.1351 	 18.6781 	 82.7535
|  8> C 	 34.5981 	 18.5688 	 81.881
|  9> C 	 34.7186 	 17.782 	 80.7637
| 10> C 	 36.0545 	 17.2688 	 80.5843
| 11> C 	 36.9033 	 17.6096 	 81.5896
| 12> H 	 36.5169 	 16.6913 	 79.7936
| 13> C 	 33.6233 	 17.6412 	 79.7288
| 14> H 	 34.0891 	 17.9316 	 78.7536
| 15> H 	 32.9112 	 18.4061 	 79.9122
| 16> C 	 32.8868 	 16.2832 	 79.7115
| 17> H 	 33.6745 	 15.5731 	 79.4171
| 18> H 	 32.6172 	 16.108 	 80.7375
| 19> C 	 31.7955 	 16.2294 	 78.5129
| 20> H 	 32.1655 	 16.6542 	 77.5154
| 21> H 	 31.4661 	 15.2192 	 78.3123
| 22> H 	 30.8987 	 16.7973 	 78.9082
| 23> S 	 39.4511 	 18.602 	 81.4475
| 24> C 	 40.7755 	 17.5226 	 81.8237
| 25> C 	 40.3219 	 16.2168 	 82.0141
| 26> C 	 38.9001 	 16.0362 	 81.9866
| 27> C 	 38.2793 	 17.2519 	 81.6671
| 28> H 	 41.0041 	 15.4248 	 82.1488
| 29> C 	 38.1402 	 14.7724 	 82.2683
| 30> H 	 38.7373 	 13.8809 	 82.3179
| 31> H 	 37.5652 	 14.5292 	 81.336
| 32> C 	 37.1398 	 14.8512 	 83.4309
| 33> H 	 36.4324 	 15.5791 	 83.1267
| 34> H 	 37.7302 	 15.2597 	 84.2854
| 35> C 	 36.4246 	 13.5588 	 83.8726
| 36> H 	 35.6365 	 13.7748 	 84.6381
| 37> H 	 37.0914 	 12.8442 	 84.3103
| 38> H 	 35.9721 	 13.0585 	 82.9748
| 39> H 	 33.7121 	 19.1027 	 82.1274
| 40> H 	 41.878 	 17.7509 	 81.692
| 41> *
| 42>
| 43>                          ****END OF INPUT****

CARTESIAN COORDINATES (ANGSTROEM)
---------------------------------
  S     36.135100   18.678100   82.753500
  C     34.598100   18.568800   81.881000
  C     34.718600   17.782000   80.763700
  C     36.054500   17.268800   80.584300
  C     36.903300   17.609600   81.589600
  H     36.516900   16.691300   79.793600
  C     33.623300   17.641200   79.728800
  H     34.089100   17.931600   78.753600
  H     32.911200   18.406100   79.912200
  C     32.886800   16.283200   79.711500
  H     33.674500   15.573100   79.417100
  H     32.617200   16.108000   80.737500
  C     31.795500   16.229400   78.512900
  H     32.165500   16.654200   77.515400
  H     31.466100   15.219200   78.312300
  H     30.898700   16.797300   78.908200
  S     39.451100   18.602000   81.447500
  C     40.775500   17.522600   81.823700
  C     40.321900   16.216800   82.014100
  C     38.900100   16.036200   81.986600
  C     38.279300   17.251900   81.667100
  H     41.004100   15.424800   82.148800
  C     38.140200   14.772400   82.268300
  H     38.737300   13.880900   82.317900
  H     37.565200   14.529200   81.336000
  C     37.139800   14.851200   83.430900
  H     36.432400   15.579100   83.126700
  H     37.730200   15.259700   84.285400
  C     36.424600   13.558800   83.872600
  H     35.636500   13.774800   84.638100
  H     37.091400   12.844200   84.310300
  H     35.972100   13.058500   82.974800
  H     33.712100   19.102700   82.127400
  H     41.878000   17.750900   81.692000

 Total Charge           Charge          ....    0
 Multiplicity           Mult            ....    1
 Number of Electrons    NEL             ....  134
 Basis Dimension        Dim             ....  322

ORBITAL ENERGIES
----------------

  NO   OCC          E(Eh)            E(eV)
   0   2.0000     -88.967146     -2420.9191
   1   2.0000     -88.964005     -2420.8337
   2   2.0000     -10.325632      -280.9747
   3   2.0000     -10.323879      -280.9270
   4   2.0000     -10.322562      -280.8912
   5   2.0000     -10.313710      -280.6503
   6   2.0000     -10.308690      -280.5137
   7   2.0000     -10.301637      -280.3218
   8   2.0000     -10.296376      -280.1786
   9   2.0000     -10.293808      -280.1087
  10   2.0000     -10.293454      -280.0991
  11   2.0000     -10.292465      -280.0722
  12   2.0000     -10.291990      -280.0593
  13   2.0000     -10.289740      -279.9981
  14   2.0000     -10.281485      -279.7734
  15   2.0000     -10.280778      -279.7542
  16   2.0000      -8.081066      -219.8970
  17   2.0000      -8.078339      -219.8228
  18   2.0000      -6.039634      -164.3468
  19   2.0000      -6.036901      -164.2724
  20   2.0000      -6.035658      -164.2386
  21   2.0000      -6.032952      -164.1650
  22   2.0000      -6.031828      -164.1344
  23   2.0000      -6.028992      -164.0572
  24   2.0000      -1.005150       -27.3515
  25   2.0000      -0.978887       -26.6369
  26   2.0000      -0.907516       -24.6948
  27   2.0000      -0.905887       -24.6504
  28   2.0000      -0.868244       -23.6261
  29   2.0000      -0.848731       -23.0951
  30   2.0000      -0.840692       -22.8764
  31   2.0000      -0.812239       -22.1021
  32   2.0000      -0.781964       -21.2783
  33   2.0000      -0.768199       -20.9038
  34   2.0000      -0.710090       -19.3225
  35   2.0000      -0.700296       -19.0560
  36   2.0000      -0.689664       -18.7667
  37   2.0000      -0.659704       -17.9515
  38   2.0000      -0.647534       -17.6203
  39   2.0000      -0.614593       -16.7239
  40   2.0000      -0.594640       -16.1810
  41   2.0000      -0.566548       -15.4165
  42   2.0000      -0.563512       -15.3339
  43   2.0000      -0.553393       -15.0586
  44   2.0000      -0.520872       -14.1737
  45   2.0000      -0.515777       -14.0350
  46   2.0000      -0.514191       -13.9919
  47   2.0000      -0.511026       -13.9057
  48   2.0000      -0.506747       -13.7893
  49   2.0000      -0.495336       -13.4788
  50   2.0000      -0.490888       -13.3578
  51   2.0000      -0.484259       -13.1774
  52   2.0000      -0.464880       -12.6500
  53   2.0000      -0.463575       -12.6145
  54   2.0000      -0.458240       -12.4693
  55   2.0000      -0.451567       -12.2878
  56   2.0000      -0.446982       -12.1630
  57   2.0000      -0.441050       -12.0016
  58   2.0000      -0.431739       -11.7482
  59   2.0000      -0.421522       -11.4702
  60   2.0000      -0.418252       -11.3812
  61   2.0000      -0.413602       -11.2547
  62   2.0000      -0.411460       -11.1964
  63   2.0000      -0.337366        -9.1802
  64   2.0000      -0.332611        -9.0508
  65   2.0000      -0.325950        -8.8696
  66   2.0000      -0.301124        -8.1940
  67   0.0000       0.033708         0.9173
  68   0.0000       0.058937         1.6038
  69   0.0000       0.113586         3.0908
  70   0.0000       0.118928         3.2362
  71   0.0000       0.128954         3.5090

MULLIKEN ATOMIC CHARGES
-----------------------
   0 S :    0.113771
   1 C :   -0.112425
   2 C :   -0.077294
   3 C :    0.048615
   4 C :   -0.187198
   5 H :    0.014384
   6 C :    0.059450
   7 H :    0.034266
   8 H :   -0.000468
   9 C :   -0.065974
  10 H :    0.028465
  11 H :    0.035481
  12 C :   -0.080462
  13 H :    0.051946
  14 H :    0.039885
  15 H :    0.046918
  16 S :    0.113540
  17 C :   -0.105395
  18 C :   -0.031944
  19 C :    0.005740
  20 C :   -0.211539
  21 H :   -0.001263
  22 C :    0.088777
  23 H :    0.001332
  24 H :    0.023328
  25 C :   -0.091517
  26 H :    0.044101
  27 H :    0.037075
  28 C :   -0.047820
  29 H :    0.048537
  30 H :    0.026144
  31 H :    0.031756
  32 H :    0.037576
  33 H :    0.082213
Sum of atomic charges:    0.0000000

LOEWDIN ATOMIC CHARGES
----------------------
   0 S :    0.390072
   1 C :   -0.183388
   2 C :   -0.063205
   3 C :   -0.059445
   4 C :   -0.199938
   5 H :    0.035070
   6 C :   -0.033443
   7 H :    0.034679
   8 H :    0.018525
   9 C :   -0.036938
  10 H :    0.023108
  11 H :    0.024569
  12 C :   -0.073116
  13 H :    0.036873
  14 H :    0.022197
  15 H :    0.031601
  16 S :    0.392487
  17 C :   -0.197226
  18 C :   -0.068290
  19 C :   -0.043972
  20 C :   -0.188002
  21 H :    0.022179
  22 C :   -0.037849
  23 H :    0.023091
  24 H :    0.036479
  25 C :   -0.039814
  26 H :    0.020175
  27 H :    0.028918
  28 C :   -0.067941
  29 H :    0.035727
  30 H :    0.019049
  31 H :    0.028451
  32 H :    0.023716
  33 H :    0.045600

  Mayer bond orders larger than 0.100000
B(  0-S ,  1-C ) :   1.1214 B(  0-S ,  4-C ) :   1.1272 B(  1-C ,  2-C ) :   1.6405
B(  1-C , 32-H ) :   0.9714 B(  2-C ,  3-C ) :   1.1856 B(  2-C ,  6-C ) :   1.0257
B(  3-C ,  4-C ) :   1.6262 B(  3-C ,  5-H ) :   0.9926 B(  4-C , 20-C ) :   1.0467
B(  6-C ,  7-H ) :   0.9424 B(  6-C ,  8-H ) :   0.9408 B(  6-C ,  9-C ) :   1.0457
B(  9-C , 10-H ) :   0.9628 B(  9-C , 11-H ) :   0.9608 B(  9-C , 12-C ) :   1.0541
B( 12-C , 13-H ) :   0.9752 B( 12-C , 14-H ) :   0.9792 B( 12-C , 15-H ) :   0.9788
B( 16-S , 17-C ) :   1.1485 B( 16-S , 20-C ) :   1.1437 B( 17-C , 18-C ) :   1.6088
B( 17-C , 20-C ) :   0.1059 B( 17-C , 33-H ) :   0.9562 B( 18-C , 19-C ) :   1.2444
B( 18-C , 21-H ) :   0.9909 B( 19-C , 20-C ) :   1.5747 B( 19-C , 22-C ) :   1.0486
B( 22-C , 23-H ) :   0.9315 B( 22-C , 24-H ) :   0.9208 B( 22-C , 25-C ) :   1.0497
B( 25-C , 26-H ) :   0.9523 B( 25-C , 27-H ) :   0.9586 B( 25-C , 28-C ) :   1.0898
B( 28-C , 29-H ) :   0.9738 B( 28-C , 30-H ) :   0.9749 B( 28-C , 31-H ) :   0.9722

Dispersion correction           -0.014633812
FINAL SINGLE POINT ENERGY     -1339.880900813405

DIPOLE MOMENT
-------------
                                X             Y             Z
Electronic contribution:     19.77830      20.14062       5.45774
Nuclear contribution   :    -20.00474     -20.63024      -5.76681
                        -----------------------------------------
Total Dipole Moment    :     -0.22644      -0.48962      -0.30906
                        -----------------------------------------
Magnitude (a.u.)       :      0.62171
Magnitude (Debye)      :      1.58026

Rotational constants in cm-1:     0.018838     0.008350     0.007030
Rotational constants in MHz :   564.753685   250.323646   210.748376

                             ****ORCA TERMINATED NORMALLY****
TOTAL RUN TIME: 0 days 0 hours 0 minutes 29 seconds 921 msec
