                         Program Version 4.2.1 -  RELEASE  -
|  1> ! wB97X-D3 SP def2-SVP
|  2> %pal
|  3> nprocs 16
|  4> end
|  5>
|  6> * xyz 0 1
|  7> S 	 45.3784 	 19.4789 	 46.0458
|  8> C 	 44.8094 	 18.0471 	 45.2431
|  9> C 	 43.4728 	 18.1487 	 44.9016
| 10> C 	 42.9284 	 19.3927 	 45.3918
| 11> C 	 43.7337 	 20.0902 	 46.1824
| 12> H 	 41.9252 	 19.7203 	 45.2663
| 13> C 	 42.6582 	 17.1252 	 44.1479
| 14> H 	 43.2769 	 16.2442 	 44.2195
| 15> H 	 42.6736 	 17.5299 	 43.0823
| 16> C 	 41.2713 	 16.7438 	 44.6708
| 17> H 	 40.5786 	 17.5787 	 44.8076
| 18> H 	 40.8751 	 16.1284 	 43.87
| 19> C 	 41.3684 	 15.9828 	 46.027
| 20> H 	 41.6743 	 14.9422 	 45.8531
| 21> H 	 41.9534 	 16.5592 	 46.6937
| 22> H 	 40.4032 	 15.9568 	 46.5657
| 23> S 	 44.3624 	 22.7702 	 46.267
| 24> C 	 43.4616 	 23.8552 	 47.3382
| 25> C 	 42.3912 	 23.1936 	 47.9334
| 26> C 	 42.3032 	 21.8032 	 47.6155
| 27> C 	 43.413 	 21.3275 	 46.8392
| 28> H 	 41.6481 	 23.852 	 48.4962
| 29> C 	 41.2543 	 20.8404 	 48.2476
| 30> H 	 41.5153 	 20.8966 	 49.3324
| 31> H 	 41.4669 	 19.8344 	 47.9314
| 32> C 	 39.7992 	 21.2029 	 47.9003
| 33> H 	 39.3862 	 21.9477 	 48.5225
| 34> H 	 39.1404 	 20.2974 	 48.1436
| 35> C 	 39.4779 	 21.3686 	 46.3792
| 36> H 	 39.2444 	 22.4151 	 46.1753
| 37> H 	 38.5333 	 20.9107 	 46.0203
| 38> H 	 40.2148 	 20.8027 	 45.855
| 39> H 	 45.4924 	 17.2863 	 44.9416
| 40> H 	 43.8707 	 24.8578 	 47.4061
| 41> *
| 42>
| 43>                          ****END OF INPUT****

CARTESIAN COORDINATES (ANGSTROEM)
---------------------------------
  S     45.378400   19.478900   46.045800
  C     44.809400   18.047100   45.243100
  C     43.472800   18.148700   44.901600
  C     42.928400   19.392700   45.391800
  C     43.733700   20.090200   46.182400
  H     41.925200   19.720300   45.266300
  C     42.658200   17.125200   44.147900
  H     43.276900   16.244200   44.219500
  H     42.673600   17.529900   43.082300
  C     41.271300   16.743800   44.670800
  H     40.578600   17.578700   44.807600
  H     40.875100   16.128400   43.870000
  C     41.368400   15.982800   46.027000
  H     41.674300   14.942200   45.853100
  H     41.953400   16.559200   46.693700
  H     40.403200   15.956800   46.565700
  S     44.362400   22.770200   46.267000
  C     43.461600   23.855200   47.338200
  C     42.391200   23.193600   47.933400
  C     42.303200   21.803200   47.615500
  C     43.413000   21.327500   46.839200
  H     41.648100   23.852000   48.496200
  C     41.254300   20.840400   48.247600
  H     41.515300   20.896600   49.332400
  H     41.466900   19.834400   47.931400
  C     39.799200   21.202900   47.900300
  H     39.386200   21.947700   48.522500
  H     39.140400   20.297400   48.143600
  C     39.477900   21.368600   46.379200
  H     39.244400   22.415100   46.175300
  H     38.533300   20.910700   46.020300
  H     40.214800   20.802700   45.855000
  H     45.492400   17.286300   44.941600
  H     43.870700   24.857800   47.406100

 Total Charge           Charge          ....    0
 Multiplicity           Mult            ....    1
 Number of Electrons    NEL             ....  134
 Basis Dimension        Dim             ....  322

ORBITAL ENERGIES
----------------

  NO   OCC          E(Eh)            E(eV)
   0   2.0000     -88.961120     -2420.7551
   1   2.0000     -88.959209     -2420.7031
   2   2.0000     -10.332147      -281.1520
   3   2.0000     -10.322405      -280.8869
   4   2.0000     -10.322180      -280.8808
   5   2.0000     -10.314666      -280.6763
   6   2.0000     -10.311591      -280.5927
   7   2.0000     -10.304793      -280.4077
   8   2.0000     -10.301083      -280.3067
   9   2.0000     -10.299126      -280.2535
  10   2.0000     -10.296733      -280.1884
  11   2.0000     -10.291633      -280.0496
  12   2.0000     -10.291594      -280.0485
  13   2.0000     -10.286402      -279.9072
  14   2.0000     -10.281153      -279.7644
  15   2.0000     -10.279333      -279.7149
  16   2.0000      -8.076387      -219.7697
  17   2.0000      -8.073129      -219.6810
  18   2.0000      -6.034931      -164.2188
  19   2.0000      -6.031640      -164.1293
  20   2.0000      -6.030985      -164.1115
  21   2.0000      -6.027724      -164.0227
  22   2.0000      -6.026906      -164.0004
  23   2.0000      -6.023966      -163.9205
  24   2.0000      -1.006246       -27.3813
  25   2.0000      -0.975144       -26.5350
  26   2.0000      -0.913084       -24.8463
  27   2.0000      -0.903094       -24.5744
  28   2.0000      -0.871950       -23.7270
  29   2.0000      -0.847112       -23.0511
  30   2.0000      -0.840382       -22.8680
  31   2.0000      -0.814023       -22.1507
  32   2.0000      -0.783610       -21.3231
  33   2.0000      -0.771996       -21.0071
  34   2.0000      -0.713026       -19.4024
  35   2.0000      -0.699130       -19.0243
  36   2.0000      -0.694221       -18.8907
  37   2.0000      -0.650256       -17.6944
  38   2.0000      -0.644167       -17.5287
  39   2.0000      -0.624256       -16.9869
  40   2.0000      -0.595580       -16.2065
  41   2.0000      -0.564114       -15.3503
  42   2.0000      -0.562362       -15.3026
  43   2.0000      -0.555358       -15.1121
  44   2.0000      -0.543206       -14.7814
  45   2.0000      -0.530720       -14.4416
  46   2.0000      -0.520949       -14.1757
  47   2.0000      -0.514782       -14.0079
  48   2.0000      -0.502743       -13.6803
  49   2.0000      -0.492261       -13.3951
  50   2.0000      -0.489413       -13.3176
  51   2.0000      -0.479424       -13.0458
  52   2.0000      -0.471462       -12.8291
  53   2.0000      -0.465417       -12.6646
  54   2.0000      -0.454061       -12.3556
  55   2.0000      -0.449762       -12.2386
  56   2.0000      -0.446972       -12.1627
  57   2.0000      -0.437475       -11.9043
  58   2.0000      -0.434973       -11.8362
  59   2.0000      -0.425857       -11.5881
  60   2.0000      -0.422728       -11.5030
  61   2.0000      -0.415692       -11.3116
  62   2.0000      -0.392278       -10.6744
  63   2.0000      -0.346518        -9.4292
  64   2.0000      -0.328174        -8.9301
  65   2.0000      -0.324044        -8.8177
  66   2.0000      -0.292265        -7.9529
  67   0.0000       0.026264         0.7147
  68   0.0000       0.067254         1.8301
  69   0.0000       0.106267         2.8917
  70   0.0000       0.121270         3.2999
  71   0.0000       0.126626         3.4457

MULLIKEN ATOMIC CHARGES
-----------------------
   0 S :    0.101548
   1 C :   -0.115557
   2 C :   -0.112583
   3 C :    0.054209
   4 C :   -0.139122
   5 H :   -0.029197
   6 C :    0.064981
   7 H :    0.012139
   8 H :    0.060428
   9 C :   -0.063039
  10 H :    0.029124
  11 H :    0.032121
  12 C :   -0.057549
  13 H :    0.043926
  14 H :    0.036035
  15 H :    0.030416
  16 S :    0.068754
  17 C :   -0.110926
  18 C :   -0.044049
  19 C :   -0.041797
  20 C :   -0.145411
  21 H :    0.051556
  22 C :    0.074176
  23 H :    0.055135
  24 H :    0.017564
  25 C :   -0.105344
  26 H :    0.024556
  27 H :    0.036500
  28 C :   -0.020679
  29 H :    0.042778
  30 H :    0.024093
  31 H :    0.013891
  32 H :    0.040369
  33 H :    0.070952
Sum of atomic charges:   -0.0000000

LOEWDIN ATOMIC CHARGES
----------------------
   0 S :    0.396525
   1 C :   -0.193086
   2 C :   -0.065433
   3 C :   -0.056563
   4 C :   -0.195506
   5 H :    0.021376
   6 C :   -0.037495
   7 H :    0.029197
   8 H :    0.046266
   9 C :   -0.040471
  10 H :    0.021173
  11 H :    0.027172
  12 C :   -0.063800
  13 H :    0.029179
  14 H :    0.021990
  15 H :    0.029513
  16 S :    0.363893
  17 C :   -0.171251
  18 C :   -0.086396
  19 C :   -0.052296
  20 C :   -0.178132
  21 H :    0.046784
  22 C :   -0.028467
  23 H :    0.044021
  24 H :    0.025238
  25 C :   -0.048483
  26 H :    0.014781
  27 H :    0.035813
  28 C :   -0.067233
  29 H :    0.031528
  30 H :    0.028905
  31 H :    0.020177
  32 H :    0.022263
  33 H :    0.028819

  Mayer bond orders larger than 0.100000
B(  0-S ,  1-C ) :   1.1357 B(  0-S ,  4-C ) :   1.1282 B(  1-C ,  2-C ) :   1.6206
B(  1-C , 32-H ) :   0.9715 B(  2-C ,  3-C ) :   1.2084 B(  2-C ,  6-C ) :   1.0163
B(  3-C ,  4-C ) :   1.6044 B(  3-C ,  5-H ) :   1.0064 B(  4-C , 20-C ) :   1.0471
B(  6-C ,  7-H ) :   0.9387 B(  6-C ,  8-H ) :   0.9303 B(  6-C ,  9-C ) :   1.0705
B(  9-C , 10-H ) :   0.9583 B(  9-C , 11-H ) :   0.9552 B(  9-C , 12-C ) :   1.0682
B( 12-C , 13-H ) :   0.9754 B( 12-C , 14-H ) :   0.9775 B( 12-C , 15-H ) :   0.9750
B( 16-S , 17-C ) :   1.1621 B( 16-S , 20-C ) :   1.1354 B( 17-C , 18-C ) :   1.5895
B( 17-C , 20-C ) :   0.1150 B( 17-C , 33-H ) :   0.9715 B( 18-C , 19-C ) :   1.2340
B( 18-C , 21-H ) :   0.9809 B( 19-C , 20-C ) :   1.5780 B( 19-C , 22-C ) :   1.0294
B( 22-C , 23-H ) :   0.9464 B( 22-C , 24-H ) :   0.9373 B( 22-C , 25-C ) :   1.0699
B( 25-C , 26-H ) :   0.9650 B( 25-C , 27-H ) :   0.9613 B( 25-C , 28-C ) :   1.0546
B( 28-C , 29-H ) :   0.9736 B( 28-C , 30-H ) :   0.9736 B( 28-C , 31-H ) :   0.9788

Dispersion correction           -0.015392205
FINAL SINGLE POINT ENERGY     -1339.859189396088

DIPOLE MOMENT
-------------
                                X             Y             Z
Electronic contribution:     25.85073      14.60766       0.01966
Nuclear contribution   :    -26.59649     -14.85595      -0.06097
                        -----------------------------------------
Total Dipole Moment    :     -0.74576      -0.24829      -0.04131
                        -----------------------------------------
Magnitude (a.u.)       :      0.78709
Magnitude (Debye)      :      2.00062

Rotational constants in cm-1:     0.017952     0.010394     0.007259
Rotational constants in MHz :   538.184171   311.617818   217.634028

                             ****ORCA TERMINATED NORMALLY****
TOTAL RUN TIME: 0 days 0 hours 0 minutes 34 seconds 371 msec
