                         Program Version 4.2.1 -  RELEASE  -
|  1> ! wB97X-D3 SP def2-SVP
|  2> %pal
|  3> nprocs 16
|  4> end
|  5>
|  6> * xyz 0 1
|  7> S 	 41.1869 	 15.1522 	 47.5291
|  8> C 	 41.7026 	 14.3459 	 48.9483
|  9> C 	 40.8312 	 14.4856 	 50.0093
| 10> C 	 39.612 	 15.1009 	 49.6583
| 11> C 	 39.5856 	 15.4079 	 48.2992
| 12> H 	 38.6995 	 15.2244 	 50.2554
| 13> C 	 41.2063 	 14.2357 	 51.4382
| 14> H 	 41.7963 	 13.3037 	 51.4145
| 15> H 	 40.4237 	 14.0418 	 52.1435
| 16> C 	 42.0239 	 15.4882 	 51.9245
| 17> H 	 42.8304 	 15.6185 	 51.2261
| 18> H 	 41.5109 	 16.4648 	 52.0699
| 19> C 	 42.626 	 15.1579 	 53.3336
| 20> H 	 43.6129 	 15.5505 	 53.419
| 21> H 	 41.9947 	 15.505 	 54.1725
| 22> H 	 42.6583 	 14.0988 	 53.5143
| 23> S 	 38.6705 	 17.6987 	 47.1224
| 24> C 	 37.09 	 17.7504 	 46.3985
| 25> C 	 36.5007 	 16.4559 	 46.5111
| 26> C 	 37.376 	 15.4612 	 47.0106
| 27> C 	 38.5423 	 16.0004 	 47.4901
| 28> H 	 35.5413 	 16.2186 	 46.2457
| 29> C 	 36.974 	 14.0115 	 46.9233
| 30> H 	 36.0373 	 13.7853 	 47.3779
| 31> H 	 37.761 	 13.4812 	 47.4072
| 32> C 	 36.7873 	 13.4232 	 45.568
| 33> H 	 35.8873 	 13.8413 	 45.0563
| 34> H 	 36.5832 	 12.2948 	 45.6984
| 35> C 	 37.9151 	 13.5923 	 44.5944
| 36> H 	 38.8621 	 13.1574 	 44.9508
| 37> H 	 38.1134 	 14.6443 	 44.4679
| 38> H 	 37.8053 	 13.1907 	 43.5485
| 39> H 	 42.6801 	 14.0015 	 49.1204
| 40> H 	 36.6296 	 18.5702 	 45.8618
| 41> *
| 42>
| 43>                          ****END OF INPUT****

CARTESIAN COORDINATES (ANGSTROEM)
---------------------------------
  S     41.186900   15.152200   47.529100
  C     41.702600   14.345900   48.948300
  C     40.831200   14.485600   50.009300
  C     39.612000   15.100900   49.658300
  C     39.585600   15.407900   48.299200
  H     38.699500   15.224400   50.255400
  C     41.206300   14.235700   51.438200
  H     41.796300   13.303700   51.414500
  H     40.423700   14.041800   52.143500
  C     42.023900   15.488200   51.924500
  H     42.830400   15.618500   51.226100
  H     41.510900   16.464800   52.069900
  C     42.626000   15.157900   53.333600
  H     43.612900   15.550500   53.419000
  H     41.994700   15.505000   54.172500
  H     42.658300   14.098800   53.514300
  S     38.670500   17.698700   47.122400
  C     37.090000   17.750400   46.398500
  C     36.500700   16.455900   46.511100
  C     37.376000   15.461200   47.010600
  C     38.542300   16.000400   47.490100
  H     35.541300   16.218600   46.245700
  C     36.974000   14.011500   46.923300
  H     36.037300   13.785300   47.377900
  H     37.761000   13.481200   47.407200
  C     36.787300   13.423200   45.568000
  H     35.887300   13.841300   45.056300
  H     36.583200   12.294800   45.698400
  C     37.915100   13.592300   44.594400
  H     38.862100   13.157400   44.950800
  H     38.113400   14.644300   44.467900
  H     37.805300   13.190700   43.548500
  H     42.680100   14.001500   49.120400
  H     36.629600   18.570200   45.861800

 Total Charge           Charge          ....    0
 Multiplicity           Mult            ....    1
 Number of Electrons    NEL             ....  134
 Basis Dimension        Dim             ....  322

ORBITAL ENERGIES
----------------

  NO   OCC          E(Eh)            E(eV)
   0   2.0000     -88.966266     -2420.8952
   1   2.0000     -88.965946     -2420.8865
   2   2.0000     -10.329093      -281.0689
   3   2.0000     -10.321396      -280.8595
   4   2.0000     -10.320434      -280.8333
   5   2.0000     -10.305812      -280.4354
   6   2.0000     -10.297315      -280.2042
   7   2.0000     -10.296894      -280.1927
   8   2.0000     -10.296252      -280.1753
   9   2.0000     -10.293581      -280.1026
  10   2.0000     -10.290631      -280.0223
  11   2.0000     -10.288012      -279.9510
  12   2.0000     -10.287703      -279.9426
  13   2.0000     -10.281517      -279.7743
  14   2.0000     -10.273203      -279.5481
  15   2.0000     -10.268634      -279.4237
  16   2.0000      -8.081006      -219.8954
  17   2.0000      -8.080864      -219.8915
  18   2.0000      -6.039361      -164.3394
  19   2.0000      -6.039309      -164.3380
  20   2.0000      -6.035659      -164.2386
  21   2.0000      -6.035185      -164.2257
  22   2.0000      -6.031842      -164.1348
  23   2.0000      -6.031781      -164.1331
  24   2.0000      -1.007506       -27.4156
  25   2.0000      -0.985954       -26.8292
  26   2.0000      -0.916339       -24.9348
  27   2.0000      -0.908492       -24.7213
  28   2.0000      -0.865927       -23.5631
  29   2.0000      -0.850913       -23.1545
  30   2.0000      -0.847222       -23.0541
  31   2.0000      -0.811857       -22.0917
  32   2.0000      -0.785841       -21.3838
  33   2.0000      -0.767725       -20.8908
  34   2.0000      -0.703605       -19.1461
  35   2.0000      -0.702671       -19.1207
  36   2.0000      -0.690231       -18.7821
  37   2.0000      -0.665155       -18.0998
  38   2.0000      -0.646423       -17.5901
  39   2.0000      -0.615564       -16.7503
  40   2.0000      -0.596782       -16.2393
  41   2.0000      -0.573795       -15.6137
  42   2.0000      -0.558000       -15.1840
  43   2.0000      -0.551565       -15.0089
  44   2.0000      -0.543235       -14.7822
  45   2.0000      -0.525610       -14.3026
  46   2.0000      -0.517794       -14.0899
  47   2.0000      -0.511084       -13.9073
  48   2.0000      -0.509198       -13.8560
  49   2.0000      -0.499497       -13.5920
  50   2.0000      -0.496702       -13.5160
  51   2.0000      -0.476142       -12.9565
  52   2.0000      -0.468619       -12.7518
  53   2.0000      -0.458213       -12.4686
  54   2.0000      -0.451919       -12.2973
  55   2.0000      -0.448038       -12.1917
  56   2.0000      -0.442673       -12.0457
  57   2.0000      -0.438147       -11.9226
  58   2.0000      -0.437099       -11.8941
  59   2.0000      -0.429210       -11.6794
  60   2.0000      -0.418297       -11.3824
  61   2.0000      -0.410727       -11.1765
  62   2.0000      -0.405175       -11.0254
  63   2.0000      -0.339005        -9.2248
  64   2.0000      -0.329187        -8.9576
  65   2.0000      -0.320542        -8.7224
  66   2.0000      -0.300204        -8.1690
  67   0.0000       0.038040         1.0351
  68   0.0000       0.053046         1.4435
  69   0.0000       0.113653         3.0926
  70   0.0000       0.122957         3.3458
  71   0.0000       0.131857         3.5880

MULLIKEN ATOMIC CHARGES
-----------------------
   0 S :    0.115262
   1 C :   -0.081161
   2 C :   -0.098956
   3 C :    0.062157
   4 C :   -0.203715
   5 H :    0.027511
   6 C :    0.049815
   7 H :    0.033628
   8 H :    0.021264
   9 C :   -0.080791
  10 H :    0.024084
  11 H :    0.051444
  12 C :   -0.039853
  13 H :    0.031262
  14 H :    0.032858
  15 H :    0.015423
  16 S :    0.124334
  17 C :   -0.095361
  18 C :   -0.007665
  19 C :   -0.035753
  20 C :   -0.187938
  21 H :   -0.019977
  22 C :    0.149999
  23 H :    0.022011
  24 H :    0.016034
  25 C :   -0.119604
  26 H :    0.027095
  27 H :    0.041191
  28 C :   -0.057013
  29 H :    0.023211
  30 H :    0.032377
  31 H :    0.037529
  32 H :    0.024410
  33 H :    0.064889
Sum of atomic charges:    0.0000000

LOEWDIN ATOMIC CHARGES
----------------------
   0 S :    0.406680
   1 C :   -0.203365
   2 C :   -0.066403
   3 C :   -0.050072
   4 C :   -0.182499
   5 H :    0.041394
   6 C :   -0.030031
   7 H :    0.034784
   8 H :    0.024521
   9 C :   -0.031882
  10 H :    0.019013
  11 H :    0.034270
  12 C :   -0.068519
  13 H :    0.022141
  14 H :    0.027144
  15 H :    0.018250
  16 S :    0.422363
  17 C :   -0.192709
  18 C :   -0.056735
  19 C :   -0.055539
  20 C :   -0.217249
  21 H :    0.011841
  22 C :   -0.027253
  23 H :    0.033285
  24 H :    0.028863
  25 C :   -0.048313
  26 H :    0.022751
  27 H :    0.034117
  28 C :   -0.076836
  29 H :    0.023323
  30 H :    0.023751
  31 H :    0.031307
  32 H :    0.015538
  33 H :    0.032069

  Mayer bond orders larger than 0.100000
B(  0-S ,  1-C ) :   1.1480 B(  0-S ,  4-C ) :   1.1542 B(  1-C ,  2-C ) :   1.6093
B(  1-C ,  4-C ) :   0.1044 B(  1-C , 32-H ) :   0.9666 B(  2-C ,  3-C ) :   1.2384
B(  2-C ,  6-C ) :   1.0368 B(  3-C ,  4-C ) :   1.5854 B(  3-C ,  5-H ) :   0.9947
B(  4-C , 20-C ) :   1.0058 B(  6-C ,  7-H ) :   0.9394 B(  6-C ,  8-H ) :   0.9458
B(  6-C ,  9-C ) :   1.0519 B(  9-C , 10-H ) :   0.9647 B(  9-C , 11-H ) :   0.9619
B(  9-C , 12-C ) :   1.0638 B( 12-C , 13-H ) :   0.9771 B( 12-C , 14-H ) :   0.9774
B( 12-C , 15-H ) :   0.9771 B( 16-S , 17-C ) :   1.1658 B( 16-S , 20-C ) :   1.1594
B( 17-C , 18-C ) :   1.5564 B( 17-C , 20-C ) :   0.1087 B( 17-C , 33-H ) :   0.9719
B( 18-C , 19-C ) :   1.2654 B( 18-C , 21-H ) :   1.0007 B( 19-C , 20-C ) :   1.5827
B( 19-C , 22-C ) :   1.0510 B( 22-C , 23-H ) :   0.9251 B( 22-C , 24-H ) :   0.9225
B( 22-C , 25-C ) :   1.0797 B( 25-C , 26-H ) :   0.9501 B( 25-C , 27-H ) :   0.9523
B( 25-C , 28-C ) :   1.0805 B( 28-C , 29-H ) :   0.9726 B( 28-C , 30-H ) :   0.9685
B( 28-C , 31-H ) :   0.9733

Dispersion correction           -0.014679398
FINAL SINGLE POINT ENERGY     -1339.868857436702

DIPOLE MOMENT
-------------
                                X             Y             Z
Electronic contribution:     -0.34589      12.85981      -9.79564
Nuclear contribution   :      0.17093     -13.06454      10.15727
                        -----------------------------------------
Total Dipole Moment    :     -0.17496      -0.20473       0.36163
                        -----------------------------------------
Magnitude (a.u.)       :      0.45089
Magnitude (Debye)      :      1.14607

Rotational constants in cm-1:     0.024565     0.007333     0.006675
Rotational constants in MHz :   736.427814   219.825328   200.122248

                             ****ORCA TERMINATED NORMALLY****
TOTAL RUN TIME: 0 days 0 hours 0 minutes 34 seconds 918 msec
