                         Program Version 4.2.1 -  RELEASE  -
|  1> ! wB97X-D3 SP def2-SVP
|  2> %pal
|  3> nprocs 16
|  4> end
|  5>
|  6> * xyz 0 1
|  7> S 	 10.1165 	 -6.24044 	 91.9872
|  8> C 	 9.62031 	 -6.90852 	 93.4548
|  9> C 	 10.4574 	 -8.01385 	 93.7615
| 10> C 	 11.3823 	 -8.34541 	 92.7369
| 11> C 	 11.2391 	 -7.51803 	 91.6515
| 12> H 	 12.1718 	 -9.01805 	 92.7054
| 13> C 	 10.3525 	 -8.78787 	 95.0193
| 14> H 	 10.4442 	 -8.08182 	 95.8813
| 15> H 	 11.2905 	 -9.34356 	 95.158
| 16> C 	 9.13926 	 -9.61326 	 95.2578
| 17> H 	 8.89981 	 -9.66432 	 96.2804
| 18> H 	 8.25837 	 -9.14641 	 94.7549
| 19> C 	 9.27214 	 -11.0441 	 94.6707
| 20> H 	 9.89223 	 -11.7076 	 95.328
| 21> H 	 8.35265 	 -11.4486 	 94.3098
| 22> H 	 10.0055 	 -11.0952 	 93.9005
| 23> S 	 13.0488 	 -6.23845 	 89.8767
| 24> C 	 13.6569 	 -7.04923 	 88.491
| 25> C 	 13.1884 	 -8.34842 	 88.4826
| 26> C 	 12.2799 	 -8.68916 	 89.5687
| 27> C 	 12.0367 	 -7.63199 	 90.4283
| 28> H 	 13.3824 	 -8.95947 	 87.5758
| 29> C 	 11.6585 	 -10.0835 	 89.5656
| 30> H 	 10.8291 	 -10.0256 	 90.3324
| 31> H 	 12.3851 	 -10.8515 	 89.7968
| 32> C 	 10.8581 	 -10.4692 	 88.2637
| 33> H 	 11.399 	 -10.6121 	 87.2898
| 34> H 	 10.2267 	 -9.56378 	 88.0975
| 35> C 	 9.88315 	 -11.6031 	 88.3486
| 36> H 	 9.07743 	 -11.6022 	 87.603
| 37> H 	 9.29592 	 -11.6246 	 89.2761
| 38> H 	 10.4762 	 -12.518 	 88.1624
| 39> H 	 8.91344 	 -6.43985 	 94.1357
| 40> H 	 14.1587 	 -6.63384 	 87.6845
| 41> *
| 42>
| 43>                          ****END OF INPUT****

CARTESIAN COORDINATES (ANGSTROEM)
---------------------------------
  S     10.116500   -6.240440   91.987200
  C      9.620310   -6.908520   93.454800
  C     10.457400   -8.013850   93.761500
  C     11.382300   -8.345410   92.736900
  C     11.239100   -7.518030   91.651500
  H     12.171800   -9.018050   92.705400
  C     10.352500   -8.787870   95.019300
  H     10.444200   -8.081820   95.881300
  H     11.290500   -9.343560   95.158000
  C      9.139260   -9.613260   95.257800
  H      8.899810   -9.664320   96.280400
  H      8.258370   -9.146410   94.754900
  C      9.272140  -11.044100   94.670700
  H      9.892230  -11.707600   95.328000
  H      8.352650  -11.448600   94.309800
  H     10.005500  -11.095200   93.900500
  S     13.048800   -6.238450   89.876700
  C     13.656900   -7.049230   88.491000
  C     13.188400   -8.348420   88.482600
  C     12.279900   -8.689160   89.568700
  C     12.036700   -7.631990   90.428300
  H     13.382400   -8.959470   87.575800
  C     11.658500  -10.083500   89.565600
  H     10.829100  -10.025600   90.332400
  H     12.385100  -10.851500   89.796800
  C     10.858100  -10.469200   88.263700
  H     11.399000  -10.612100   87.289800
  H     10.226700   -9.563780   88.097500
  C      9.883150  -11.603100   88.348600
  H      9.077430  -11.602200   87.603000
  H      9.295920  -11.624600   89.276100
  H     10.476200  -12.518000   88.162400
  H      8.913440   -6.439850   94.135700
  H     14.158700   -6.633840   87.684500

 Total Charge           Charge          ....    0
 Multiplicity           Mult            ....    1
 Number of Electrons    NEL             ....  134
 Basis Dimension        Dim             ....  322

ORBITAL ENERGIES
----------------

  NO   OCC          E(Eh)            E(eV)
   0   2.0000     -88.969779     -2420.9908
   1   2.0000     -88.961138     -2420.7556
   2   2.0000     -10.333430      -281.1869
   3   2.0000     -10.327408      -281.0230
   4   2.0000     -10.316541      -280.7274
   5   2.0000     -10.312119      -280.6070
   6   2.0000     -10.308532      -280.5094
   7   2.0000     -10.302832      -280.3543
   8   2.0000     -10.300094      -280.2798
   9   2.0000     -10.294357      -280.1237
  10   2.0000     -10.290772      -280.0261
  11   2.0000     -10.289749      -279.9983
  12   2.0000     -10.287098      -279.9262
  13   2.0000     -10.282971      -279.8139
  14   2.0000     -10.277921      -279.6764
  15   2.0000     -10.273817      -279.5648
  16   2.0000      -8.085657      -220.0219
  17   2.0000      -8.075828      -219.7545
  18   2.0000      -6.043883      -164.4624
  19   2.0000      -6.039837      -164.3523
  20   2.0000      -6.036806      -164.2698
  21   2.0000      -6.034416      -164.2048
  22   2.0000      -6.030274      -164.0921
  23   2.0000      -6.026558      -163.9910
  24   2.0000      -1.011595       -27.5269
  25   2.0000      -0.985653       -26.8210
  26   2.0000      -0.917637       -24.9702
  27   2.0000      -0.904272       -24.6065
  28   2.0000      -0.874584       -23.7987
  29   2.0000      -0.853726       -23.2311
  30   2.0000      -0.847787       -23.0695
  31   2.0000      -0.815556       -22.1924
  32   2.0000      -0.781041       -21.2532
  33   2.0000      -0.771427       -20.9916
  34   2.0000      -0.710263       -19.3272
  35   2.0000      -0.701712       -19.0946
  36   2.0000      -0.690483       -18.7890
  37   2.0000      -0.660098       -17.9622
  38   2.0000      -0.649513       -17.6742
  39   2.0000      -0.614159       -16.7121
  40   2.0000      -0.594184       -16.1686
  41   2.0000      -0.576619       -15.6906
  42   2.0000      -0.570715       -15.5299
  43   2.0000      -0.553849       -15.0710
  44   2.0000      -0.539016       -14.6674
  45   2.0000      -0.526436       -14.3251
  46   2.0000      -0.522187       -14.2094
  47   2.0000      -0.518050       -14.0969
  48   2.0000      -0.508289       -13.8312
  49   2.0000      -0.496575       -13.5125
  50   2.0000      -0.493870       -13.4389
  51   2.0000      -0.484752       -13.1908
  52   2.0000      -0.473960       -12.8971
  53   2.0000      -0.466341       -12.6898
  54   2.0000      -0.460083       -12.5195
  55   2.0000      -0.448300       -12.1989
  56   2.0000      -0.443296       -12.0627
  57   2.0000      -0.433731       -11.8024
  58   2.0000      -0.421311       -11.4645
  59   2.0000      -0.419582       -11.4174
  60   2.0000      -0.415570       -11.3082
  61   2.0000      -0.411068       -11.1857
  62   2.0000      -0.403693       -10.9850
  63   2.0000      -0.349770        -9.5177
  64   2.0000      -0.331211        -9.0127
  65   2.0000      -0.325836        -8.8664
  66   2.0000      -0.296332        -8.0636
  67   0.0000       0.028432         0.7737
  68   0.0000       0.069169         1.8822
  69   0.0000       0.118639         3.2283
  70   0.0000       0.122267         3.3271
  71   0.0000       0.130185         3.5425

MULLIKEN ATOMIC CHARGES
-----------------------
   0 S :    0.136730
   1 C :   -0.111212
   2 C :   -0.090784
   3 C :    0.062630
   4 C :   -0.170327
   5 H :   -0.007740
   6 C :    0.033952
   7 H :    0.026082
   8 H :    0.014545
   9 C :   -0.022668
  10 H :    0.020355
  11 H :    0.028631
  12 C :   -0.040404
  13 H :    0.022219
  14 H :    0.038577
  15 H :    0.005839
  16 S :    0.088701
  17 C :   -0.058404
  18 C :   -0.054007
  19 C :   -0.036293
  20 C :   -0.158175
  21 H :    0.034158
  22 C :    0.073878
  23 H :    0.036112
  24 H :    0.042455
  25 C :   -0.125075
  26 H :    0.037550
  27 H :    0.032212
  28 C :   -0.051633
  29 H :    0.032611
  30 H :    0.029451
  31 H :    0.033570
  32 H :    0.058415
  33 H :    0.038048
Sum of atomic charges:   -0.0000000

LOEWDIN ATOMIC CHARGES
----------------------
   0 S :    0.452969
   1 C :   -0.217804
   2 C :   -0.061316
   3 C :   -0.048288
   4 C :   -0.206788
   5 H :    0.025411
   6 C :   -0.045425
   7 H :    0.036192
   8 H :    0.029529
   9 C :   -0.037128
  10 H :    0.018231
  11 H :    0.030013
  12 C :   -0.069037
  13 H :    0.031475
  14 H :    0.022973
  15 H :    0.019304
  16 S :    0.386667
  17 C :   -0.182365
  18 C :   -0.077646
  19 C :   -0.057895
  20 C :   -0.182718
  21 H :    0.035733
  22 C :   -0.030372
  23 H :    0.038889
  24 H :    0.028833
  25 C :   -0.056358
  26 H :    0.025738
  27 H :    0.028464
  28 C :   -0.072284
  29 H :    0.029247
  30 H :    0.025289
  31 H :    0.026539
  32 H :    0.033162
  33 H :    0.020766

  Mayer bond orders larger than 0.100000
B(  0-S ,  1-C ) :   1.1762 B(  0-S ,  4-C ) :   1.1796 B(  1-C ,  2-C ) :   1.5353
B(  1-C ,  4-C ) :   0.1014 B(  1-C , 32-H ) :   0.9728 B(  2-C ,  3-C ) :   1.2694
B(  2-C ,  6-C ) :   1.0437 B(  3-C ,  4-C ) :   1.5244 B(  3-C ,  5-H ) :   1.0130
B(  4-C , 20-C ) :   1.0357 B(  6-C ,  7-H ) :   0.9288 B(  6-C ,  8-H ) :   0.9425
B(  6-C ,  9-C ) :   1.0705 B(  9-C , 10-H ) :   0.9551 B(  9-C , 11-H ) :   0.9588
B(  9-C , 12-C ) :   1.0694 B( 12-C , 13-H ) :   0.9686 B( 12-C , 14-H ) :   0.9774
B( 12-C , 15-H ) :   0.9748 B( 16-S , 17-C ) :   1.1530 B( 16-S , 20-C ) :   1.1207
B( 17-C , 18-C ) :   1.6259 B( 17-C , 33-H ) :   0.9737 B( 18-C , 19-C ) :   1.2182
B( 18-C , 21-H ) :   0.9817 B( 19-C , 20-C ) :   1.6219 B( 19-C , 22-C ) :   1.0497
B( 22-C , 23-H ) :   0.9353 B( 22-C , 24-H ) :   0.9359 B( 22-C , 25-C ) :   1.0453
B( 25-C , 26-H ) :   0.9532 B( 25-C , 27-H ) :   0.9578 B( 25-C , 28-C ) :   1.0969
B( 28-C , 29-H ) :   0.9731 B( 28-C , 30-H ) :   0.9702 B( 28-C , 31-H ) :   0.9762

Dispersion correction           -0.013927388
FINAL SINGLE POINT ENERGY     -1339.864372777037

DIPOLE MOMENT
-------------
                                X             Y             Z
Electronic contribution:     10.67697      27.32370      -4.54431
Nuclear contribution   :    -10.80591     -27.80449       4.63671
                        -----------------------------------------
Total Dipole Moment    :     -0.12893      -0.48079       0.09240
                        -----------------------------------------
Magnitude (a.u.)       :      0.50628
Magnitude (Debye)      :      1.28686

Rotational constants in cm-1:     0.016937     0.009099     0.006648
Rotational constants in MHz :   507.763965   272.787970   199.315919

                             ****ORCA TERMINATED NORMALLY****
TOTAL RUN TIME: 0 days 0 hours 0 minutes 33 seconds 281 msec
