                         Program Version 4.2.1 -  RELEASE  -
|  1> ! wB97X-D3 SP def2-SVP
|  2> %pal
|  3> nprocs 16
|  4> end
|  5>
|  6> * xyz 0 1
|  7> S 	 0.334368 	 20.5498 	 52.7137
|  8> C 	 1.88985 	 20.3718 	 51.9132
|  9> C 	 2.96635 	 20.2736 	 52.8908
| 10> C 	 2.37499 	 20.3592 	 54.1874
| 11> C 	 0.972336 	 20.5136 	 54.2912
| 12> H 	 2.85969 	 20.127 	 55.0478
| 13> C 	 4.4019 	 19.9585 	 52.6389
| 14> H 	 4.43165 	 19.5215 	 51.5972
| 15> H 	 4.82245 	 19.0901 	 53.1956
| 16> C 	 5.39991 	 21.145 	 52.7713
| 17> H 	 5.04298 	 22.0033 	 52.2259
| 18> H 	 5.34667 	 21.627 	 53.7543
| 19> C 	 6.85078 	 20.8593 	 52.2925
| 20> H 	 7.54271 	 21.5947 	 52.4827
| 21> H 	 7.24122 	 19.9492 	 52.7819
| 22> H 	 6.96667 	 20.6383 	 51.2599
| 23> S 	 -1.22919 	 19.4137 	 55.7047
| 24> C 	 -1.60009 	 20.0002 	 57.3359
| 25> C 	 -0.662011 	 20.9662 	 57.7924
| 26> C 	 0.351234 	 21.2491 	 56.7638
| 27> C 	 0.144267 	 20.5655 	 55.5355
| 28> H 	 -0.60723 	 21.2136 	 58.8477
| 29> C 	 1.46272 	 22.2651 	 56.972
| 30> H 	 0.980358 	 23.2497 	 56.9648
| 31> H 	 2.16729 	 22.3266 	 56.1349
| 32> C 	 2.25614 	 22.0404 	 58.3229
| 33> H 	 1.57262 	 22.2237 	 59.1422
| 34> H 	 2.94747 	 22.885 	 58.43
| 35> C 	 2.98336 	 20.6466 	 58.4174
| 36> H 	 3.86349 	 20.6811 	 57.787
| 37> H 	 2.28255 	 19.9726 	 57.9058
| 38> H 	 3.2608 	 20.2746 	 59.4731
| 39> H 	 2.09027 	 20.2452 	 50.8636
| 40> H 	 -2.37007 	 19.596 	 57.9807
| 41> *
| 42>
| 43>                          ****END OF INPUT****

CARTESIAN COORDINATES (ANGSTROEM)
---------------------------------
  S      0.334368   20.549800   52.713700
  C      1.889850   20.371800   51.913200
  C      2.966350   20.273600   52.890800
  C      2.374990   20.359200   54.187400
  C      0.972336   20.513600   54.291200
  H      2.859690   20.127000   55.047800
  C      4.401900   19.958500   52.638900
  H      4.431650   19.521500   51.597200
  H      4.822450   19.090100   53.195600
  C      5.399910   21.145000   52.771300
  H      5.042980   22.003300   52.225900
  H      5.346670   21.627000   53.754300
  C      6.850780   20.859300   52.292500
  H      7.542710   21.594700   52.482700
  H      7.241220   19.949200   52.781900
  H      6.966670   20.638300   51.259900
  S     -1.229190   19.413700   55.704700
  C     -1.600090   20.000200   57.335900
  C     -0.662011   20.966200   57.792400
  C      0.351234   21.249100   56.763800
  C      0.144267   20.565500   55.535500
  H     -0.607230   21.213600   58.847700
  C      1.462720   22.265100   56.972000
  H      0.980358   23.249700   56.964800
  H      2.167290   22.326600   56.134900
  C      2.256140   22.040400   58.322900
  H      1.572620   22.223700   59.142200
  H      2.947470   22.885000   58.430000
  C      2.983360   20.646600   58.417400
  H      3.863490   20.681100   57.787000
  H      2.282550   19.972600   57.905800
  H      3.260800   20.274600   59.473100
  H      2.090270   20.245200   50.863600
  H     -2.370070   19.596000   57.980700

 Total Charge           Charge          ....    0
 Multiplicity           Mult            ....    1
 Number of Electrons    NEL             ....  134
 Basis Dimension        Dim             ....  322

ORBITAL ENERGIES
----------------

  NO   OCC          E(Eh)            E(eV)
   0   2.0000     -88.973373     -2421.0886
   1   2.0000     -88.970347     -2421.0062
   2   2.0000     -10.339625      -281.3555
   3   2.0000     -10.333672      -281.1935
   4   2.0000     -10.329152      -281.0705
   5   2.0000     -10.323449      -280.9153
   6   2.0000     -10.316214      -280.7185
   7   2.0000     -10.311146      -280.5805
   8   2.0000     -10.306266      -280.4477
   9   2.0000     -10.303382      -280.3693
  10   2.0000     -10.295394      -280.1519
  11   2.0000     -10.292575      -280.0752
  12   2.0000     -10.290779      -280.0263
  13   2.0000     -10.288232      -279.9570
  14   2.0000     -10.286612      -279.9129
  15   2.0000     -10.274192      -279.5750
  16   2.0000      -8.087987      -220.0853
  17   2.0000      -8.083657      -219.9675
  18   2.0000      -6.046427      -164.5316
  19   2.0000      -6.042250      -164.4180
  20   2.0000      -6.042199      -164.4166
  21   2.0000      -6.039129      -164.3330
  22   2.0000      -6.038347      -164.3118
  23   2.0000      -6.034426      -164.2051
  24   2.0000      -0.999605       -27.2006
  25   2.0000      -0.973966       -26.5030
  26   2.0000      -0.909018       -24.7356
  27   2.0000      -0.900192       -24.4955
  28   2.0000      -0.862467       -23.4689
  29   2.0000      -0.849491       -23.1158
  30   2.0000      -0.838125       -22.8065
  31   2.0000      -0.811615       -22.0852
  32   2.0000      -0.784433       -21.3455
  33   2.0000      -0.770919       -20.9778
  34   2.0000      -0.714394       -19.4396
  35   2.0000      -0.702665       -19.1205
  36   2.0000      -0.693683       -18.8761
  37   2.0000      -0.654278       -17.8038
  38   2.0000      -0.646496       -17.5921
  39   2.0000      -0.620446       -16.8832
  40   2.0000      -0.593787       -16.1578
  41   2.0000      -0.574060       -15.6210
  42   2.0000      -0.551028       -14.9942
  43   2.0000      -0.546166       -14.8619
  44   2.0000      -0.534232       -14.5372
  45   2.0000      -0.527065       -14.3422
  46   2.0000      -0.520163       -14.1544
  47   2.0000      -0.505981       -13.7684
  48   2.0000      -0.501646       -13.6505
  49   2.0000      -0.497229       -13.5303
  50   2.0000      -0.486805       -13.2466
  51   2.0000      -0.477327       -12.9887
  52   2.0000      -0.469366       -12.7721
  53   2.0000      -0.465349       -12.6628
  54   2.0000      -0.459092       -12.4925
  55   2.0000      -0.448900       -12.2152
  56   2.0000      -0.445783       -12.1304
  57   2.0000      -0.440611       -11.9896
  58   2.0000      -0.438832       -11.9412
  59   2.0000      -0.430553       -11.7160
  60   2.0000      -0.422409       -11.4943
  61   2.0000      -0.413478       -11.2513
  62   2.0000      -0.407327       -11.0839
  63   2.0000      -0.343224        -9.3396
  64   2.0000      -0.332502        -9.0478
  65   2.0000      -0.329500        -8.9661
  66   2.0000      -0.290203        -7.8968
  67   0.0000       0.023710         0.6452
  68   0.0000       0.062909         1.7118
  69   0.0000       0.103104         2.8056
  70   0.0000       0.115051         3.1307
  71   0.0000       0.121100         3.2953

MULLIKEN ATOMIC CHARGES
-----------------------
   0 S :    0.133138
   1 C :   -0.112391
   2 C :   -0.092884
   3 C :    0.071300
   4 C :   -0.165371
   5 H :   -0.036272
   6 C :    0.033110
   7 H :    0.021651
   8 H :    0.041263
   9 C :   -0.060399
  10 H :    0.017775
  11 H :    0.024095
  12 C :   -0.009758
  13 H :    0.018300
  14 H :    0.019150
  15 H :    0.021897
  16 S :    0.099973
  17 C :   -0.098373
  18 C :   -0.029999
  19 C :   -0.069015
  20 C :   -0.128255
  21 H :    0.038104
  22 C :    0.042573
  23 H :    0.045600
  24 H :    0.028261
  25 C :   -0.091077
  26 H :    0.023372
  27 H :    0.027464
  28 C :   -0.069517
  29 H :    0.033949
  30 H :    0.049299
  31 H :    0.058595
  32 H :    0.048123
  33 H :    0.066317
Sum of atomic charges:   -0.0000000

LOEWDIN ATOMIC CHARGES
----------------------
   0 S :    0.445335
   1 C :   -0.202046
   2 C :   -0.057039
   3 C :   -0.056812
   4 C :   -0.218390
   5 H :    0.008983
   6 C :   -0.041180
   7 H :    0.036465
   8 H :    0.037013
   9 C :   -0.042922
  10 H :    0.023278
  11 H :    0.026433
  12 C :   -0.060005
  13 H :    0.017529
  14 H :    0.026855
  15 H :    0.022809
  16 S :    0.380843
  17 C :   -0.172445
  18 C :   -0.072972
  19 C :   -0.050232
  20 C :   -0.192707
  21 H :    0.034830
  22 C :   -0.034035
  23 H :    0.039260
  24 H :    0.028937
  25 C :   -0.041205
  26 H :    0.016500
  27 H :    0.022706
  28 C :   -0.073992
  29 H :    0.022947
  30 H :    0.028910
  31 H :    0.038810
  32 H :    0.026546
  33 H :    0.030995

  Mayer bond orders larger than 0.100000
B(  0-S ,  1-C ) :   1.1772 B(  0-S ,  4-C ) :   1.1813 B(  1-C ,  2-C ) :   1.5291
B(  1-C ,  4-C ) :   0.1123 B(  1-C , 32-H ) :   0.9685 B(  2-C ,  3-C ) :   1.3051
B(  2-C ,  6-C ) :   1.0377 B(  3-C ,  4-C ) :   1.5124 B(  3-C ,  5-H ) :   1.0033
B(  4-C , 20-C ) :   1.0299 B(  6-C ,  7-H ) :   0.9398 B(  6-C ,  8-H ) :   0.9438
B(  6-C ,  9-C ) :   1.0445 B(  9-C , 10-H ) :   0.9527 B(  9-C , 11-H ) :   0.9567
B(  9-C , 12-C ) :   1.0759 B( 12-C , 13-H ) :   0.9743 B( 12-C , 14-H ) :   0.9743
B( 12-C , 15-H ) :   0.9752 B( 16-S , 17-C ) :   1.1611 B( 16-S , 20-C ) :   1.1239
B( 17-C , 18-C ) :   1.6128 B( 17-C , 33-H ) :   0.9654 B( 18-C , 19-C ) :   1.2254
B( 18-C , 21-H ) :   0.9829 B( 19-C , 20-C ) :   1.5907 B( 19-C , 22-C ) :   1.0392
B( 22-C , 23-H ) :   0.9360 B( 22-C , 24-H ) :   0.9433 B( 22-C , 25-C ) :   1.0644
B( 25-C , 26-H ) :   0.9598 B( 25-C , 27-H ) :   0.9588 B( 25-C , 28-C ) :   1.0499
B( 28-C , 29-H ) :   0.9738 B( 28-C , 30-H ) :   0.9764 B( 28-C , 31-H ) :   0.9746

Dispersion correction           -0.014471155
FINAL SINGLE POINT ENERGY     -1339.863002096040

DIPOLE MOMENT
-------------
                                X             Y             Z
Electronic contribution:    -29.91098      -5.95195      -6.54942
Nuclear contribution   :     30.51651       6.01590       6.85191
                        -----------------------------------------
Total Dipole Moment    :      0.60553       0.06395       0.30249
                        -----------------------------------------
Magnitude (a.u.)       :      0.67990
Magnitude (Debye)      :      1.72816

Rotational constants in cm-1:     0.018845     0.008449     0.006274
Rotational constants in MHz :   564.946484   253.289959   188.104307

                             ****ORCA TERMINATED NORMALLY****
TOTAL RUN TIME: 0 days 0 hours 0 minutes 35 seconds 21 msec
