                         Program Version 4.2.1 -  RELEASE  -
|  1> ! wB97X-D3 SP def2-SVP
|  2> %pal
|  3> nprocs 16
|  4> end
|  5>
|  6> * xyz 0 1
|  7> S 	 -94.1618 	 59.746 	 127.173
|  8> C 	 -92.7185 	 59.1617 	 127.904
|  9> C 	 -92.7312 	 59.3309 	 129.253
| 10> C 	 -93.9668 	 59.8318 	 129.73
| 11> C 	 -94.872 	 60.1158 	 128.74
| 12> H 	 -94.249 	 59.8823 	 130.763
| 13> C 	 -91.7232 	 58.7952 	 130.266
| 14> H 	 -92.2019 	 58.2806 	 131.087
| 15> H 	 -91.1961 	 59.623 	 130.766
| 16> C 	 -90.6148 	 57.8865 	 129.705
| 17> H 	 -90.9901 	 57.2699 	 128.93
| 18> H 	 -90.0575 	 58.6157 	 129.076
| 19> C 	 -89.8165 	 57.0368 	 130.741
| 20> H 	 -89.067 	 56.5244 	 130.198
| 21> H 	 -89.4556 	 57.5888 	 131.581
| 22> H 	 -90.4855 	 56.2608 	 131.158
| 23> S 	 -97.3878 	 59.3558 	 127.915
| 24> C 	 -98.7069 	 60.4788 	 128.213
| 25> C 	 -98.3644 	 61.4581 	 129.155
| 26> C 	 -96.9874 	 61.3943 	 129.557
| 27> C 	 -96.3675 	 60.3999 	 128.831
| 28> H 	 -99.0699 	 62.2093 	 129.411
| 29> C 	 -96.5181 	 62.3609 	 130.569
| 30> H 	 -95.7146 	 61.9453 	 131.153
| 31> H 	 -97.3852 	 62.5871 	 131.22
| 32> C 	 -96.1086 	 63.7507 	 129.991
| 33> H 	 -96.9743 	 64.062 	 129.413
| 34> H 	 -95.3743 	 63.5886 	 129.23
| 35> C 	 -95.7989 	 64.8598 	 131.01
| 36> H 	 -96.3978 	 64.8913 	 131.936
| 37> H 	 -95.7845 	 65.7816 	 130.394
| 38> H 	 -94.7602 	 64.853 	 131.357
| 39> H 	 -91.9047 	 58.7258 	 127.385
| 40> H 	 -99.7021 	 60.4308 	 127.739
| 41> *
| 42>
| 43>                          ****END OF INPUT****

CARTESIAN COORDINATES (ANGSTROEM)
---------------------------------
  S    -94.161800   59.746000  127.173000
  C    -92.718500   59.161700  127.904000
  C    -92.731200   59.330900  129.253000
  C    -93.966800   59.831800  129.730000
  C    -94.872000   60.115800  128.740000
  H    -94.249000   59.882300  130.763000
  C    -91.723200   58.795200  130.266000
  H    -92.201900   58.280600  131.087000
  H    -91.196100   59.623000  130.766000
  C    -90.614800   57.886500  129.705000
  H    -90.990100   57.269900  128.930000
  H    -90.057500   58.615700  129.076000
  C    -89.816500   57.036800  130.741000
  H    -89.067000   56.524400  130.198000
  H    -89.455600   57.588800  131.581000
  H    -90.485500   56.260800  131.158000
  S    -97.387800   59.355800  127.915000
  C    -98.706900   60.478800  128.213000
  C    -98.364400   61.458100  129.155000
  C    -96.987400   61.394300  129.557000
  C    -96.367500   60.399900  128.831000
  H    -99.069900   62.209300  129.411000
  C    -96.518100   62.360900  130.569000
  H    -95.714600   61.945300  131.153000
  H    -97.385200   62.587100  131.220000
  C    -96.108600   63.750700  129.991000
  H    -96.974300   64.062000  129.413000
  H    -95.374300   63.588600  129.230000
  C    -95.798900   64.859800  131.010000
  H    -96.397800   64.891300  131.936000
  H    -95.784500   65.781600  130.394000
  H    -94.760200   64.853000  131.357000
  H    -91.904700   58.725800  127.385000
  H    -99.702100   60.430800  127.739000

 Total Charge           Charge          ....    0
 Multiplicity           Mult            ....    1
 Number of Electrons    NEL             ....  134
 Basis Dimension        Dim             ....  322

ORBITAL ENERGIES
----------------

  NO   OCC          E(Eh)            E(eV)
   0   2.0000     -88.968758     -2420.9630
   1   2.0000     -88.963270     -2420.8137
   2   2.0000     -10.329071      -281.0683
   3   2.0000     -10.327871      -281.0357
   4   2.0000     -10.317990      -280.7668
   5   2.0000     -10.306911      -280.4653
   6   2.0000     -10.300219      -280.2832
   7   2.0000     -10.296474      -280.1813
   8   2.0000     -10.292060      -280.0612
   9   2.0000     -10.290745      -280.0254
  10   2.0000     -10.290154      -280.0093
  11   2.0000     -10.288455      -279.9631
  12   2.0000     -10.285437      -279.8810
  13   2.0000     -10.284419      -279.8533
  14   2.0000     -10.283392      -279.8253
  15   2.0000     -10.280924      -279.7582
  16   2.0000      -8.083686      -219.9683
  17   2.0000      -8.078443      -219.8256
  18   2.0000      -6.042158      -164.4155
  19   2.0000      -6.038282      -164.3100
  20   2.0000      -6.036909      -164.2727
  21   2.0000      -6.034347      -164.2029
  22   2.0000      -6.032870      -164.1627
  23   2.0000      -6.029242      -164.0640
  24   2.0000      -1.008117       -27.4323
  25   2.0000      -0.988100       -26.8876
  26   2.0000      -0.910986       -24.7892
  27   2.0000      -0.907025       -24.6814
  28   2.0000      -0.860809       -23.4238
  29   2.0000      -0.854176       -23.2433
  30   2.0000      -0.848747       -23.0956
  31   2.0000      -0.813407       -22.1339
  32   2.0000      -0.784208       -21.3394
  33   2.0000      -0.773468       -21.0471
  34   2.0000      -0.713508       -19.4156
  35   2.0000      -0.703605       -19.1461
  36   2.0000      -0.682817       -18.5804
  37   2.0000      -0.666017       -18.1233
  38   2.0000      -0.643001       -17.4969
  39   2.0000      -0.616409       -16.7734
  40   2.0000      -0.596712       -16.2374
  41   2.0000      -0.570253       -15.5174
  42   2.0000      -0.561413       -15.2768
  43   2.0000      -0.559361       -15.2210
  44   2.0000      -0.527368       -14.3504
  45   2.0000      -0.526354       -14.3228
  46   2.0000      -0.518766       -14.1163
  47   2.0000      -0.504707       -13.7338
  48   2.0000      -0.502083       -13.6624
  49   2.0000      -0.497533       -13.5386
  50   2.0000      -0.492953       -13.4139
  51   2.0000      -0.481281       -13.0963
  52   2.0000      -0.479577       -13.0500
  53   2.0000      -0.466449       -12.6927
  54   2.0000      -0.456238       -12.4149
  55   2.0000      -0.453526       -12.3411
  56   2.0000      -0.448812       -12.2128
  57   2.0000      -0.437454       -11.9037
  58   2.0000      -0.434090       -11.8122
  59   2.0000      -0.429486       -11.6869
  60   2.0000      -0.423907       -11.5351
  61   2.0000      -0.412653       -11.2288
  62   2.0000      -0.408456       -11.1146
  63   2.0000      -0.345211        -9.3937
  64   2.0000      -0.332819        -9.0565
  65   2.0000      -0.326294        -8.8789
  66   2.0000      -0.292448        -7.9579
  67   0.0000       0.032908         0.8955
  68   0.0000       0.075978         2.0675
  69   0.0000       0.104584         2.8459
  70   0.0000       0.127863         3.4793
  71   0.0000       0.136822         3.7231

MULLIKEN ATOMIC CHARGES
-----------------------
   0 S :    0.106248
   1 C :   -0.125511
   2 C :   -0.061915
   3 C :    0.026078
   4 C :   -0.142910
   5 H :    0.008932
   6 C :    0.058339
   7 H :    0.021195
   8 H :    0.033596
   9 C :   -0.122276
  10 H :    0.017810
  11 H :    0.023653
  12 C :   -0.000653
  13 H :    0.031038
  14 H :    0.032113
  15 H :    0.034248
  16 S :    0.131337
  17 C :   -0.114874
  18 C :   -0.034945
  19 C :   -0.012923
  20 C :   -0.178960
  21 H :    0.012046
  22 C :    0.079006
  23 H :    0.016971
  24 H :    0.025008
  25 C :   -0.075314
  26 H :    0.014364
  27 H :    0.029500
  28 C :   -0.038046
  29 H :    0.042578
  30 H :    0.038738
  31 H :    0.027185
  32 H :    0.035080
  33 H :    0.063266
Sum of atomic charges:   -0.0000000

LOEWDIN ATOMIC CHARGES
----------------------
   0 S :    0.407998
   1 C :   -0.202137
   2 C :   -0.065273
   3 C :   -0.062171
   4 C :   -0.186947
   5 H :    0.028711
   6 C :   -0.032457
   7 H :    0.024492
   8 H :    0.034290
   9 C :   -0.048216
  10 H :    0.014055
  11 H :    0.024158
  12 C :   -0.053319
  13 H :    0.025373
  14 H :    0.022358
  15 H :    0.031953
  16 S :    0.416451
  17 C :   -0.192358
  18 C :   -0.061558
  19 C :   -0.057253
  20 C :   -0.204025
  21 H :    0.025770
  22 C :   -0.031466
  23 H :    0.024216
  24 H :    0.036115
  25 C :   -0.036937
  26 H :    0.021255
  27 H :    0.024647
  28 C :   -0.073351
  29 H :    0.029610
  30 H :    0.035854
  31 H :    0.025774
  32 H :    0.021501
  33 H :    0.032889

  Mayer bond orders larger than 0.100000
B(  0-S ,  1-C ) :   1.1333 B(  0-S ,  4-C ) :   1.1543 B(  1-C ,  2-C ) :   1.6300
B(  1-C , 32-H ) :   0.9643 B(  2-C ,  3-C ) :   1.2468 B(  2-C ,  6-C ) :   1.0109
B(  3-C ,  4-C ) :   1.5943 B(  3-C ,  5-H ) :   0.9969 B(  4-C , 20-C ) :   0.9921
B(  6-C ,  7-H ) :   0.9533 B(  6-C ,  8-H ) :   0.9273 B(  6-C ,  9-C ) :   1.0699
B(  9-C , 10-H ) :   0.9566 B(  9-C , 11-H ) :   0.9525 B(  9-C , 12-C ) :   1.0743
B( 12-C , 13-H ) :   0.9727 B( 12-C , 14-H ) :   0.9790 B( 12-C , 15-H ) :   0.9724
B( 16-S , 17-C ) :   1.1393 B( 16-S , 20-C ) :   1.1599 B( 17-C , 18-C ) :   1.6256
B( 17-C , 33-H ) :   0.9649 B( 18-C , 19-C ) :   1.2230 B( 18-C , 21-H ) :   0.9898
B( 19-C , 20-C ) :   1.6046 B( 19-C , 22-C ) :   1.0575 B( 22-C , 23-H ) :   0.9286
B( 22-C , 24-H ) :   0.9279 B( 22-C , 25-C ) :   1.0639 B( 25-C , 26-H ) :   0.9584
B( 25-C , 27-H ) :   0.9536 B( 25-C , 28-C ) :   1.0731 B( 28-C , 29-H ) :   0.9742
B( 28-C , 30-H ) :   0.9723 B( 28-C , 31-H ) :   0.9735

Dispersion correction           -0.013360072
FINAL SINGLE POINT ENERGY     -1339.875821172314

DIPOLE MOMENT
-------------
                                X             Y             Z
Electronic contribution:    -16.17360      -7.69597     -17.78906
Nuclear contribution   :     16.32377       7.84327      18.27371
                        -----------------------------------------
Total Dipole Moment    :      0.15017       0.14731       0.48465
                        -----------------------------------------
Magnitude (a.u.)       :      0.52833
Magnitude (Debye)      :      1.34292

Rotational constants in cm-1:     0.019558     0.007399     0.006005
Rotational constants in MHz :   586.331189   221.828129   180.013867

                             ****ORCA TERMINATED NORMALLY****
TOTAL RUN TIME: 0 days 0 hours 0 minutes 33 seconds 42 msec
