                         Program Version 4.2.1 -  RELEASE  -
|  1> ! wB97X-D3 SP def2-SVP
|  2> %pal
|  3> nprocs 16
|  4> end
|  5>
|  6> * xyz 0 1
|  7> S 	 -2.73179 	 -9.93262 	 70.4311
|  8> C 	 -3.46169 	 -11.5458 	 70.2925
|  9> C 	 -2.74063 	 -12.4791 	 70.9398
| 10> C 	 -1.71443 	 -11.9615 	 71.7691
| 11> C 	 -1.6117 	 -10.6045 	 71.6115
| 12> H 	 -1.10816 	 -12.5729 	 72.3755
| 13> C 	 -2.94223 	 -13.9421 	 70.7805
| 14> H 	 -2.02487 	 -14.3343 	 70.4986
| 15> H 	 -3.68321 	 -14.0407 	 69.9566
| 16> C 	 -3.40154 	 -14.7003 	 71.9775
| 17> H 	 -2.51526 	 -14.7648 	 72.6666
| 18> H 	 -4.10321 	 -14.1753 	 72.646
| 19> C 	 -3.71836 	 -16.1671 	 71.6538
| 20> H 	 -4.66869 	 -16.0866 	 71.1556
| 21> H 	 -3.05756 	 -16.6645 	 71.0016
| 22> H 	 -3.74393 	 -16.7964 	 72.5455
| 23> S 	 -1.44239 	 -8.35871 	 73.1753
| 24> C 	 0.0807287 	 -7.96591 	 73.8843
| 25> C 	 0.987664 	 -8.94952 	 73.6919
| 26> C 	 0.547454 	 -9.90858 	 72.761
| 27> C 	 -0.71778 	 -9.67442 	 72.3712
| 28> H 	 1.92272 	 -8.82347 	 74.2181
| 29> C 	 1.46895 	 -11.0794 	 72.2853
| 30> H 	 2.24752 	 -10.6792 	 71.5847
| 31> H 	 0.849862 	 -11.6517 	 71.5792
| 32> C 	 2.12358 	 -11.949 	 73.3872
| 33> H 	 1.28531 	 -12.3976 	 74.0003
| 34> H 	 2.77349 	 -11.287 	 73.964
| 35> C 	 3.01059 	 -13.0452 	 72.7848
| 36> H 	 3.81158 	 -12.6732 	 72.1243
| 37> H 	 2.40221 	 -13.7862 	 72.2891
| 38> H 	 3.57736 	 -13.563 	 73.6623
| 39> H 	 -4.29373 	 -11.8808 	 69.6344
| 40> H 	 0.337384 	 -7.12116 	 74.4384
| 41> *
| 42>
| 43>                          ****END OF INPUT****

CARTESIAN COORDINATES (ANGSTROEM)
---------------------------------
  S     -2.731790   -9.932620   70.431100
  C     -3.461690  -11.545800   70.292500
  C     -2.740630  -12.479100   70.939800
  C     -1.714430  -11.961500   71.769100
  C     -1.611700  -10.604500   71.611500
  H     -1.108160  -12.572900   72.375500
  C     -2.942230  -13.942100   70.780500
  H     -2.024870  -14.334300   70.498600
  H     -3.683210  -14.040700   69.956600
  C     -3.401540  -14.700300   71.977500
  H     -2.515260  -14.764800   72.666600
  H     -4.103210  -14.175300   72.646000
  C     -3.718360  -16.167100   71.653800
  H     -4.668690  -16.086600   71.155600
  H     -3.057560  -16.664500   71.001600
  H     -3.743930  -16.796400   72.545500
  S     -1.442390   -8.358710   73.175300
  C      0.080729   -7.965910   73.884300
  C      0.987664   -8.949520   73.691900
  C      0.547454   -9.908580   72.761000
  C     -0.717780   -9.674420   72.371200
  H      1.922720   -8.823470   74.218100
  C      1.468950  -11.079400   72.285300
  H      2.247520  -10.679200   71.584700
  H      0.849862  -11.651700   71.579200
  C      2.123580  -11.949000   73.387200
  H      1.285310  -12.397600   74.000300
  H      2.773490  -11.287000   73.964000
  C      3.010590  -13.045200   72.784800
  H      3.811580  -12.673200   72.124300
  H      2.402210  -13.786200   72.289100
  H      3.577360  -13.563000   73.662300
  H     -4.293730  -11.880800   69.634400
  H      0.337384   -7.121160   74.438400

 Total Charge           Charge          ....    0
 Multiplicity           Mult            ....    1
 Number of Electrons    NEL             ....  134
 Basis Dimension        Dim             ....  322

ORBITAL ENERGIES
----------------

  NO   OCC          E(Eh)            E(eV)
   0   2.0000     -88.966865     -2420.9115
   1   2.0000     -88.963497     -2420.8198
   2   2.0000     -10.330952      -281.1195
   3   2.0000     -10.317297      -280.7479
   4   2.0000     -10.310058      -280.5509
   5   2.0000     -10.304444      -280.3982
   6   2.0000     -10.296189      -280.1735
   7   2.0000     -10.296181      -280.1733
   8   2.0000     -10.295005      -280.1413
   9   2.0000     -10.289533      -279.9924
  10   2.0000     -10.288597      -279.9670
  11   2.0000     -10.288506      -279.9645
  12   2.0000     -10.287774      -279.9446
  13   2.0000     -10.284969      -279.8682
  14   2.0000     -10.284080      -279.8441
  15   2.0000     -10.275383      -279.6074
  16   2.0000      -8.081013      -219.8955
  17   2.0000      -8.079667      -219.8589
  18   2.0000      -6.039578      -164.3453
  19   2.0000      -6.038019      -164.3029
  20   2.0000      -6.035814      -164.2428
  21   2.0000      -6.034096      -164.1961
  22   2.0000      -6.031544      -164.1267
  23   2.0000      -6.030372      -164.0948
  24   2.0000      -1.016119       -27.6500
  25   2.0000      -0.991797       -26.9882
  26   2.0000      -0.920866       -25.0580
  27   2.0000      -0.904158       -24.6034
  28   2.0000      -0.871161       -23.7055
  29   2.0000      -0.854732       -23.2584
  30   2.0000      -0.848159       -23.0796
  31   2.0000      -0.819921       -22.3112
  32   2.0000      -0.782981       -21.3060
  33   2.0000      -0.772615       -21.0239
  34   2.0000      -0.708535       -19.2802
  35   2.0000      -0.696587       -18.9551
  36   2.0000      -0.695666       -18.9300
  37   2.0000      -0.659075       -17.9343
  38   2.0000      -0.635196       -17.2846
  39   2.0000      -0.628493       -17.1022
  40   2.0000      -0.594825       -16.1860
  41   2.0000      -0.579473       -15.7683
  42   2.0000      -0.568767       -15.4769
  43   2.0000      -0.563019       -15.3205
  44   2.0000      -0.530155       -14.4263
  45   2.0000      -0.521397       -14.1879
  46   2.0000      -0.517761       -14.0890
  47   2.0000      -0.509723       -13.8703
  48   2.0000      -0.507262       -13.8033
  49   2.0000      -0.503474       -13.7002
  50   2.0000      -0.486585       -13.2406
  51   2.0000      -0.478512       -13.0210
  52   2.0000      -0.471809       -12.8386
  53   2.0000      -0.469482       -12.7753
  54   2.0000      -0.458759       -12.4835
  55   2.0000      -0.456391       -12.4190
  56   2.0000      -0.448339       -12.1999
  57   2.0000      -0.443610       -12.0712
  58   2.0000      -0.431441       -11.7401
  59   2.0000      -0.425723       -11.5845
  60   2.0000      -0.423092       -11.5129
  61   2.0000      -0.418774       -11.3954
  62   2.0000      -0.402880       -10.9629
  63   2.0000      -0.347294        -9.4504
  64   2.0000      -0.332527        -9.0485
  65   2.0000      -0.330960        -9.0059
  66   2.0000      -0.296574        -8.0702
  67   0.0000       0.035682         0.9710
  68   0.0000       0.081376         2.2144
  69   0.0000       0.104876         2.8538
  70   0.0000       0.120453         3.2777
  71   0.0000       0.125648         3.4191

MULLIKEN ATOMIC CHARGES
-----------------------
   0 S :    0.105883
   1 C :   -0.132403
   2 C :   -0.095897
   3 C :    0.051864
   4 C :   -0.157415
   5 H :   -0.008468
   6 C :    0.118514
   7 H :    0.010754
   8 H :    0.008898
   9 C :   -0.120779
  10 H :    0.015925
  11 H :    0.039561
  12 C :   -0.008183
  13 H :    0.028676
  14 H :    0.017180
  15 H :    0.036422
  16 S :    0.122487
  17 C :   -0.066528
  18 C :   -0.052663
  19 C :   -0.013543
  20 C :   -0.126115
  21 H :    0.014256
  22 C :    0.039782
  23 H :    0.035122
  24 H :    0.010392
  25 C :   -0.080227
  26 H :    0.047256
  27 H :    0.035327
  28 C :   -0.070039
  29 H :    0.040345
  30 H :    0.034127
  31 H :    0.045006
  32 H :    0.049726
  33 H :    0.024758
Sum of atomic charges:    0.0000000

LOEWDIN ATOMIC CHARGES
----------------------
   0 S :    0.385507
   1 C :   -0.198921
   2 C :   -0.063860
   3 C :   -0.056308
   4 C :   -0.171607
   5 H :    0.024028
   6 C :   -0.026346
   7 H :    0.025412
   8 H :    0.028401
   9 C :   -0.047662
  10 H :    0.021502
  11 H :    0.028065
  12 C :   -0.057844
  13 H :    0.024907
  14 H :    0.019436
  15 H :    0.029317
  16 S :    0.431070
  17 C :   -0.180829
  18 C :   -0.069508
  19 C :   -0.062544
  20 C :   -0.216089
  21 H :    0.031974
  22 C :   -0.037507
  23 H :    0.034409
  24 H :    0.023765
  25 C :   -0.043412
  26 H :    0.032321
  27 H :    0.023661
  28 C :   -0.070631
  29 H :    0.027307
  30 H :    0.021119
  31 H :    0.037007
  32 H :    0.035948
  33 H :    0.017911

  Mayer bond orders larger than 0.100000
B(  0-S ,  1-C ) :   1.1006 B(  0-S ,  4-C ) :   1.1567 B(  1-C ,  2-C ) :   1.6715
B(  1-C , 32-H ) :   0.9544 B(  2-C ,  3-C ) :   1.2110 B(  2-C ,  6-C ) :   1.0271
B(  3-C ,  4-C ) :   1.5890 B(  3-C ,  5-H ) :   1.0015 B(  4-C , 20-C ) :   0.9802
B(  6-C ,  7-H ) :   0.9230 B(  6-C ,  8-H ) :   0.9410 B(  6-C ,  9-C ) :   1.0627
B(  9-C , 10-H ) :   0.9479 B(  9-C , 11-H ) :   0.9620 B(  9-C , 12-C ) :   1.0748
B( 12-C , 13-H ) :   0.9773 B( 12-C , 14-H ) :   0.9717 B( 12-C , 15-H ) :   0.9745
B( 16-S , 17-C ) :   1.1485 B( 16-S , 20-C ) :   1.1563 B( 17-C , 18-C ) :   1.6389
B( 17-C , 33-H ) :   0.9720 B( 18-C , 19-C ) :   1.2175 B( 18-C , 21-H ) :   0.9959
B( 19-C , 20-C ) :   1.6367 B( 19-C , 22-C ) :   1.0216 B( 22-C , 23-H ) :   0.9362
B( 22-C , 24-H ) :   0.9347 B( 22-C , 25-C ) :   1.0570 B( 25-C , 26-H ) :   0.9553
B( 25-C , 27-H ) :   0.9513 B( 25-C , 28-C ) :   1.0863 B( 28-C , 29-H ) :   0.9726
B( 28-C , 30-H ) :   0.9763 B( 28-C , 31-H ) :   0.9740

Dispersion correction           -0.013801419
FINAL SINGLE POINT ENERGY     -1339.871534369169

DIPOLE MOMENT
-------------
                                X             Y             Z
Electronic contribution:     -9.75298      30.14873      -2.70000
Nuclear contribution   :     10.17631     -30.77360       2.86974
                        -----------------------------------------
Total Dipole Moment    :      0.42333      -0.62487       0.16974
                        -----------------------------------------
Magnitude (a.u.)       :      0.77361
Magnitude (Debye)      :      1.96637

Rotational constants in cm-1:     0.016361     0.009170     0.006543
Rotational constants in MHz :   490.492121   274.899959   196.142842

                             ****ORCA TERMINATED NORMALLY****
TOTAL RUN TIME: 0 days 0 hours 0 minutes 34 seconds 48 msec
