                         Program Version 4.2.1 -  RELEASE  -
|  1> ! wB97X-D3 SP def2-SVP
|  2> %pal
|  3> nprocs 16
|  4> end
|  5>
|  6> * xyz 0 1
|  7> S 	 -108.509 	 44.1517 	 129.227
|  8> C 	 -107.408 	 44.9973 	 130.248
|  9> C 	 -106.153 	 44.803 	 129.752
| 10> C 	 -105.999 	 44.049 	 128.557
| 11> C 	 -107.291 	 43.6318 	 128.085
| 12> H 	 -105.091 	 43.7007 	 128.108
| 13> C 	 -104.947 	 45.3743 	 130.492
| 14> H 	 -105.161 	 46.4927 	 130.511
| 15> H 	 -104.093 	 45.4456 	 129.847
| 16> C 	 -104.497 	 44.6874 	 131.807
| 17> H 	 -105.329 	 44.2092 	 132.244
| 18> H 	 -103.833 	 43.8243 	 131.525
| 19> C 	 -103.733 	 45.5304 	 132.791
| 20> H 	 -104.273 	 46.3911 	 133.213
| 21> H 	 -103.303 	 44.9402 	 133.647
| 22> H 	 -102.856 	 45.9489 	 132.325
| 23> S 	 -107.45 	 41.1707 	 126.952
| 24> C 	 -108.274 	 41.0167 	 125.355
| 25> C 	 -108.493 	 42.2422 	 124.743
| 26> C 	 -108.035 	 43.3063 	 125.572
| 27> C 	 -107.681 	 42.9336 	 126.872
| 28> H 	 -109.058 	 42.419 	 123.828
| 29> C 	 -108.375 	 44.7397 	 125.237
| 30> H 	 -107.808 	 45.0243 	 124.268
| 31> H 	 -107.975 	 45.4424 	 125.976
| 32> C 	 -109.814 	 45.1674 	 125.125
| 33> H 	 -110.349 	 44.8302 	 126.046
| 34> H 	 -110.361 	 44.6742 	 124.323
| 35> C 	 -110.055 	 46.7198 	 124.914
| 36> H 	 -109.726 	 47.1906 	 125.936
| 37> H 	 -111.112 	 47.057 	 124.982
| 38> H 	 -109.504 	 47.2385 	 124.054
| 39> H 	 -107.652 	 45.5803 	 131.094
| 40> H 	 -108.645 	 40.0928 	 124.953
| 41> *
| 42>
| 43>                          ****END OF INPUT****

CARTESIAN COORDINATES (ANGSTROEM)
---------------------------------
  S    -108.509000   44.151700  129.227000
  C    -107.408000   44.997300  130.248000
  C    -106.153000   44.803000  129.752000
  C    -105.999000   44.049000  128.557000
  C    -107.291000   43.631800  128.085000
  H    -105.091000   43.700700  128.108000
  C    -104.947000   45.374300  130.492000
  H    -105.161000   46.492700  130.511000
  H    -104.093000   45.445600  129.847000
  C    -104.497000   44.687400  131.807000
  H    -105.329000   44.209200  132.244000
  H    -103.833000   43.824300  131.525000
  C    -103.733000   45.530400  132.791000
  H    -104.273000   46.391100  133.213000
  H    -103.303000   44.940200  133.647000
  H    -102.856000   45.948900  132.325000
  S    -107.450000   41.170700  126.952000
  C    -108.274000   41.016700  125.355000
  C    -108.493000   42.242200  124.743000
  C    -108.035000   43.306300  125.572000
  C    -107.681000   42.933600  126.872000
  H    -109.058000   42.419000  123.828000
  C    -108.375000   44.739700  125.237000
  H    -107.808000   45.024300  124.268000
  H    -107.975000   45.442400  125.976000
  C    -109.814000   45.167400  125.125000
  H    -110.349000   44.830200  126.046000
  H    -110.361000   44.674200  124.323000
  C    -110.055000   46.719800  124.914000
  H    -109.726000   47.190600  125.936000
  H    -111.112000   47.057000  124.982000
  H    -109.504000   47.238500  124.054000
  H    -107.652000   45.580300  131.094000
  H    -108.645000   40.092800  124.953000

 Total Charge           Charge          ....    0
 Multiplicity           Mult            ....    1
 Number of Electrons    NEL             ....  134
 Basis Dimension        Dim             ....  322

ORBITAL ENERGIES
----------------

  NO   OCC          E(Eh)            E(eV)
   0   2.0000     -88.968028     -2420.9431
   1   2.0000     -88.965412     -2420.8719
   2   2.0000     -10.335703      -281.2488
   3   2.0000     -10.330599      -281.1099
   4   2.0000     -10.323923      -280.9282
   5   2.0000     -10.310023      -280.5500
   6   2.0000     -10.307190      -280.4729
   7   2.0000     -10.301131      -280.3080
   8   2.0000     -10.299298      -280.2581
   9   2.0000     -10.299194      -280.2553
  10   2.0000     -10.295794      -280.1628
  11   2.0000     -10.292937      -280.0851
  12   2.0000     -10.291206      -280.0380
  13   2.0000     -10.290639      -280.0225
  14   2.0000     -10.286365      -279.9062
  15   2.0000     -10.280026      -279.7337
  16   2.0000      -8.082881      -219.9464
  17   2.0000      -8.079149      -219.8448
  18   2.0000      -6.041221      -164.3900
  19   2.0000      -6.037754      -164.2956
  20   2.0000      -6.037071      -164.2771
  21   2.0000      -6.034092      -164.1960
  22   2.0000      -6.033880      -164.1902
  23   2.0000      -6.029764      -164.0782
  24   2.0000      -1.005268       -27.3547
  25   2.0000      -0.982564       -26.7369
  26   2.0000      -0.907515       -24.6948
  27   2.0000      -0.902479       -24.5577
  28   2.0000      -0.871594       -23.7173
  29   2.0000      -0.850336       -23.1388
  30   2.0000      -0.841459       -22.8973
  31   2.0000      -0.814793       -22.1716
  32   2.0000      -0.778203       -21.1760
  33   2.0000      -0.764677       -20.8079
  34   2.0000      -0.707147       -19.2425
  35   2.0000      -0.702710       -19.1217
  36   2.0000      -0.691310       -18.8115
  37   2.0000      -0.663750       -18.0616
  38   2.0000      -0.648900       -17.6575
  39   2.0000      -0.609907       -16.5964
  40   2.0000      -0.597556       -16.2603
  41   2.0000      -0.575505       -15.6603
  42   2.0000      -0.556596       -15.1458
  43   2.0000      -0.550703       -14.9854
  44   2.0000      -0.526089       -14.3156
  45   2.0000      -0.520718       -14.1695
  46   2.0000      -0.515670       -14.0321
  47   2.0000      -0.511901       -13.9295
  48   2.0000      -0.510441       -13.8898
  49   2.0000      -0.498218       -13.5572
  50   2.0000      -0.496875       -13.5207
  51   2.0000      -0.479191       -13.0394
  52   2.0000      -0.471014       -12.8169
  53   2.0000      -0.460573       -12.5328
  54   2.0000      -0.454125       -12.3574
  55   2.0000      -0.446510       -12.1501
  56   2.0000      -0.439409       -11.9569
  57   2.0000      -0.436922       -11.8892
  58   2.0000      -0.433467       -11.7952
  59   2.0000      -0.419397       -11.4124
  60   2.0000      -0.415092       -11.2952
  61   2.0000      -0.406474       -11.0607
  62   2.0000      -0.403374       -10.9764
  63   2.0000      -0.337123        -9.1736
  64   2.0000      -0.332470        -9.0470
  65   2.0000      -0.317853        -8.6492
  66   2.0000      -0.310674        -8.4539
  67   0.0000       0.038673         1.0523
  68   0.0000       0.041607         1.1322
  69   0.0000       0.105134         2.8608
  70   0.0000       0.122713         3.3392
  71   0.0000       0.128185         3.4881

MULLIKEN ATOMIC CHARGES
-----------------------
   0 S :    0.124189
   1 C :   -0.095089
   2 C :   -0.105966
   3 C :    0.082646
   4 C :   -0.191818
   5 H :    0.015256
   6 C :    0.025188
   7 H :    0.035578
   8 H :    0.003584
   9 C :   -0.026909
  10 H :    0.017727
  11 H :    0.031681
  12 C :   -0.058441
  13 H :    0.034576
  14 H :    0.039658
  15 H :    0.020938
  16 S :    0.096864
  17 C :   -0.077042
  18 C :   -0.032730
  19 C :    0.028422
  20 C :   -0.185147
  21 H :    0.034436
  22 C :    0.014423
  23 H :    0.035224
  24 H :    0.026887
  25 C :   -0.061279
  26 H :    0.033533
  27 H :    0.021324
  28 C :   -0.119549
  29 H :    0.035879
  30 H :    0.044256
  31 H :    0.060134
  32 H :    0.037772
  33 H :    0.053793
Sum of atomic charges:    0.0000000

LOEWDIN ATOMIC CHARGES
----------------------
   0 S :    0.434176
   1 C :   -0.200845
   2 C :   -0.069649
   3 C :   -0.053141
   4 C :   -0.206043
   5 H :    0.032878
   6 C :   -0.043590
   7 H :    0.038776
   8 H :    0.021992
   9 C :   -0.041949
  10 H :    0.015520
  11 H :    0.034074
  12 C :   -0.070451
  13 H :    0.024868
  14 H :    0.034115
  15 H :    0.021838
  16 S :    0.374428
  17 C :   -0.157089
  18 C :   -0.065661
  19 C :   -0.051563
  20 C :   -0.195048
  21 H :    0.038415
  22 C :   -0.045402
  23 H :    0.037837
  24 H :    0.030924
  25 C :   -0.047261
  26 H :    0.030268
  27 H :    0.015057
  28 C :   -0.087879
  29 H :    0.033756
  30 H :    0.030834
  31 H :    0.034512
  32 H :    0.026717
  33 H :    0.024586

  Mayer bond orders larger than 0.100000
B(  0-S ,  1-C ) :   1.1485 B(  0-S ,  4-C ) :   1.1936 B(  1-C ,  2-C ) :   1.5712
B(  1-C ,  4-C ) :   0.1089 B(  1-C , 32-H ) :   0.9817 B(  2-C ,  3-C ) :   1.2794
B(  2-C ,  6-C ) :   1.0203 B(  3-C ,  4-C ) :   1.5116 B(  3-C ,  5-H ) :   1.0009
B(  4-C , 20-C ) :   1.0127 B(  6-C ,  7-H ) :   0.9492 B(  6-C ,  8-H ) :   0.9394
B(  6-C ,  9-C ) :   1.0354 B(  9-C , 10-H ) :   0.9645 B(  9-C , 11-H ) :   0.9504
B(  9-C , 12-C ) :   1.0848 B( 12-C , 13-H ) :   0.9763 B( 12-C , 14-H ) :   0.9719
B( 12-C , 15-H ) :   0.9733 B( 16-S , 17-C ) :   1.1426 B( 16-S , 20-C ) :   1.1279
B( 17-C , 18-C ) :   1.6252 B( 17-C , 20-C ) :   0.1080 B( 17-C , 33-H ) :   0.9689
B( 18-C , 19-C ) :   1.2103 B( 18-C , 21-H ) :   0.9880 B( 19-C , 20-C ) :   1.6094
B( 19-C , 22-C ) :   1.0668 B( 22-C , 23-H ) :   0.9247 B( 22-C , 24-H ) :   0.9407
B( 22-C , 25-C ) :   1.0574 B( 25-C , 26-H ) :   0.9506 B( 25-C , 27-H ) :   0.9532
B( 25-C , 28-C ) :   1.0686 B( 28-C , 29-H ) :   0.9729 B( 28-C , 30-H ) :   0.9738
B( 28-C , 31-H ) :   0.9747

Dispersion correction           -0.014006115
FINAL SINGLE POINT ENERGY     -1339.860693702510

DIPOLE MOMENT
-------------
                                X             Y             Z
Electronic contribution:     -6.29037     -19.04428      -4.12583
Nuclear contribution   :      6.38908      19.36926       4.09363
                        -----------------------------------------
Total Dipole Moment    :      0.09872       0.32498      -0.03220
                        -----------------------------------------
Magnitude (a.u.)       :      0.34116
Magnitude (Debye)      :      0.86717

Rotational constants in cm-1:     0.021373     0.007257     0.006018
Rotational constants in MHz :   640.761180   217.550060   180.410687

                             ****ORCA TERMINATED NORMALLY****
TOTAL RUN TIME: 0 days 0 hours 0 minutes 31 seconds 512 msec
