                         Program Version 4.2.1 -  RELEASE  -
|  1> ! wB97X-D3 SP def2-SVP
|  2> %pal
|  3> nprocs 16
|  4> end
|  5>
|  6> * xyz 0 1
|  7> S 	 43.8475 	 21.6051 	 46.9859
|  8> C 	 43.0351 	 20.2121 	 46.3615
|  9> C 	 42.1197 	 20.5236 	 45.3572
| 10> C 	 42.149 	 21.9502 	 45.1199
| 11> C 	 43.0931 	 22.6295 	 45.8404
| 12> H 	 41.6966 	 22.5479 	 44.3569
| 13> C 	 41.3701 	 19.471 	 44.5564
| 14> H 	 41.3193 	 18.4965 	 44.9977
| 15> H 	 41.9294 	 19.2597 	 43.6517
| 16> C 	 39.8556 	 19.7639 	 44.3057
| 17> H 	 39.7049 	 20.695 	 43.7306
| 18> H 	 39.524 	 18.95 	 43.6689
| 19> C 	 38.9106 	 19.8731 	 45.5325
| 20> H 	 39.0862 	 20.7234 	 46.1799
| 21> H 	 37.8248 	 19.8468 	 45.3812
| 22> H 	 39.0659 	 19.0173 	 46.1822
| 23> S 	 44.2932 	 24.5815 	 44.3511
| 24> C 	 44.2006 	 26.2489 	 44.9173
| 25> C 	 43.5151 	 26.3526 	 46.0893
| 26> C 	 42.9224 	 25.138 	 46.5328
| 27> C 	 43.2433 	 24.0387 	 45.7129
| 28> H 	 43.3427 	 27.4126 	 46.5067
| 29> C 	 41.9645 	 25.0792 	 47.698
| 30> H 	 42.1656 	 25.9571 	 48.2751
| 31> H 	 42.2822 	 24.1953 	 48.259
| 32> C 	 40.5313 	 24.9772 	 47.2966
| 33> H 	 40.3507 	 24.0658 	 46.712
| 34> H 	 40.1701 	 25.8488 	 46.7274
| 35> C 	 39.7401 	 24.8332 	 48.4916
| 36> H 	 40.0949 	 24.0849 	 49.2161
| 37> H 	 38.7245 	 24.5399 	 48.3037
| 38> H 	 39.5901 	 25.7355 	 49.0832
| 39> H 	 43.1257 	 19.2166 	 46.7862
| 40> H 	 44.6802 	 27.0661 	 44.4133
| 41> *
| 42>
| 43>                          ****END OF INPUT****

CARTESIAN COORDINATES (ANGSTROEM)
---------------------------------
  S     43.847500   21.605100   46.985900
  C     43.035100   20.212100   46.361500
  C     42.119700   20.523600   45.357200
  C     42.149000   21.950200   45.119900
  C     43.093100   22.629500   45.840400
  H     41.696600   22.547900   44.356900
  C     41.370100   19.471000   44.556400
  H     41.319300   18.496500   44.997700
  H     41.929400   19.259700   43.651700
  C     39.855600   19.763900   44.305700
  H     39.704900   20.695000   43.730600
  H     39.524000   18.950000   43.668900
  C     38.910600   19.873100   45.532500
  H     39.086200   20.723400   46.179900
  H     37.824800   19.846800   45.381200
  H     39.065900   19.017300   46.182200
  S     44.293200   24.581500   44.351100
  C     44.200600   26.248900   44.917300
  C     43.515100   26.352600   46.089300
  C     42.922400   25.138000   46.532800
  C     43.243300   24.038700   45.712900
  H     43.342700   27.412600   46.506700
  C     41.964500   25.079200   47.698000
  H     42.165600   25.957100   48.275100
  H     42.282200   24.195300   48.259000
  C     40.531300   24.977200   47.296600
  H     40.350700   24.065800   46.712000
  H     40.170100   25.848800   46.727400
  C     39.740100   24.833200   48.491600
  H     40.094900   24.084900   49.216100
  H     38.724500   24.539900   48.303700
  H     39.590100   25.735500   49.083200
  H     43.125700   19.216600   46.786200
  H     44.680200   27.066100   44.413300

 Total Charge           Charge          ....    0
 Multiplicity           Mult            ....    1
 Number of Electrons    NEL             ....  134
 Basis Dimension        Dim             ....  322

ORBITAL ENERGIES
----------------

  NO   OCC          E(Eh)            E(eV)
   0   2.0000     -88.967825     -2420.9376
   1   2.0000     -88.961669     -2420.7701
   2   2.0000     -10.324355      -280.9400
   3   2.0000     -10.319484      -280.8074
   4   2.0000     -10.314785      -280.6796
   5   2.0000     -10.313729      -280.6508
   6   2.0000     -10.306368      -280.4505
   7   2.0000     -10.303144      -280.3628
   8   2.0000     -10.296254      -280.1753
   9   2.0000     -10.295712      -280.1606
  10   2.0000     -10.292169      -280.0641
  11   2.0000     -10.291120      -280.0356
  12   2.0000     -10.283811      -279.8367
  13   2.0000     -10.277285      -279.6591
  14   2.0000     -10.277137      -279.6551
  15   2.0000     -10.265066      -279.3267
  16   2.0000      -8.083232      -219.9559
  17   2.0000      -8.075609      -219.7485
  18   2.0000      -6.041612      -164.4006
  19   2.0000      -6.037553      -164.2902
  20   2.0000      -6.034177      -164.1983
  21   2.0000      -6.034121      -164.1968
  22   2.0000      -6.030204      -164.0902
  23   2.0000      -6.026448      -163.9880
  24   2.0000      -1.009046       -27.4575
  25   2.0000      -0.981235       -26.7008
  26   2.0000      -0.922833       -25.1116
  27   2.0000      -0.907785       -24.7021
  28   2.0000      -0.872894       -23.7527
  29   2.0000      -0.853394       -23.2220
  30   2.0000      -0.846092       -23.0233
  31   2.0000      -0.813388       -22.1334
  32   2.0000      -0.786744       -21.4084
  33   2.0000      -0.770100       -20.9555
  34   2.0000      -0.709851       -19.3160
  35   2.0000      -0.698833       -19.0162
  36   2.0000      -0.689955       -18.7746
  37   2.0000      -0.660158       -17.9638
  38   2.0000      -0.644292       -17.5321
  39   2.0000      -0.617869       -16.8131
  40   2.0000      -0.595617       -16.2076
  41   2.0000      -0.573847       -15.6152
  42   2.0000      -0.565540       -15.3891
  43   2.0000      -0.550382       -14.9766
  44   2.0000      -0.536193       -14.5906
  45   2.0000      -0.525276       -14.2935
  46   2.0000      -0.520245       -14.1566
  47   2.0000      -0.513105       -13.9623
  48   2.0000      -0.505012       -13.7421
  49   2.0000      -0.497966       -13.5504
  50   2.0000      -0.487174       -13.2567
  51   2.0000      -0.482422       -13.1274
  52   2.0000      -0.470732       -12.8093
  53   2.0000      -0.463449       -12.6111
  54   2.0000      -0.457349       -12.4451
  55   2.0000      -0.451260       -12.2794
  56   2.0000      -0.442709       -12.0467
  57   2.0000      -0.442040       -12.0285
  58   2.0000      -0.432475       -11.7683
  59   2.0000      -0.423018       -11.5109
  60   2.0000      -0.416313       -11.3284
  61   2.0000      -0.415216       -11.2986
  62   2.0000      -0.409213       -11.1352
  63   2.0000      -0.334828        -9.1111
  64   2.0000      -0.332610        -9.0508
  65   2.0000      -0.321834        -8.7575
  66   2.0000      -0.305184        -8.3045
  67   0.0000       0.040627         1.1055
  68   0.0000       0.056775         1.5449
  69   0.0000       0.110993         3.0203
  70   0.0000       0.120340         3.2746
  71   0.0000       0.132869         3.6155

MULLIKEN ATOMIC CHARGES
-----------------------
   0 S :    0.138686
   1 C :   -0.134539
   2 C :   -0.050617
   3 C :    0.030078
   4 C :   -0.158880
   5 H :    0.009187
   6 C :    0.081066
   7 H :    0.007578
   8 H :    0.046063
   9 C :   -0.091254
  10 H :    0.036771
  11 H :    0.029861
  12 C :   -0.054108
  13 H :    0.035443
  14 H :    0.037402
  15 H :    0.012455
  16 S :    0.092867
  17 C :   -0.089897
  18 C :   -0.060775
  19 C :   -0.034421
  20 C :   -0.212907
  21 H :    0.046767
  22 C :    0.096808
  23 H :    0.008430
  24 H :    0.022411
  25 C :   -0.031356
  26 H :    0.032168
  27 H :    0.030436
  28 C :   -0.032128
  29 H :    0.022065
  30 H :    0.014486
  31 H :    0.017337
  32 H :    0.049971
  33 H :    0.052546
Sum of atomic charges:    0.0000000

LOEWDIN ATOMIC CHARGES
----------------------
   0 S :    0.433347
   1 C :   -0.202174
   2 C :   -0.061622
   3 C :   -0.056117
   4 C :   -0.223883
   5 H :    0.028480
   6 C :   -0.029224
   7 H :    0.027332
   8 H :    0.038448
   9 C :   -0.040813
  10 H :    0.022807
  11 H :    0.025450
  12 C :   -0.073111
  13 H :    0.025130
  14 H :    0.030685
  15 H :    0.021227
  16 S :    0.378535
  17 C :   -0.175127
  18 C :   -0.088931
  19 C :   -0.048127
  20 C :   -0.188645
  21 H :    0.046815
  22 C :   -0.025971
  23 H :    0.026448
  24 H :    0.032591
  25 C :   -0.042318
  26 H :    0.031515
  27 H :    0.030960
  28 C :   -0.069042
  29 H :    0.026510
  30 H :    0.021438
  31 H :    0.022014
  32 H :    0.028704
  33 H :    0.026669

  Mayer bond orders larger than 0.100000
B(  0-S ,  1-C ) :   1.1559 B(  0-S ,  4-C ) :   1.1410 B(  1-C ,  2-C ) :   1.5970
B(  1-C , 32-H ) :   0.9676 B(  2-C ,  3-C ) :   1.2196 B(  2-C ,  6-C ) :   1.0269
B(  3-C ,  4-C ) :   1.5819 B(  3-C ,  5-H ) :   0.9934 B(  4-C , 20-C ) :   1.0550
B(  6-C ,  7-H ) :   0.9391 B(  6-C ,  8-H ) :   0.9395 B(  6-C ,  9-C ) :   1.0671
B(  9-C , 10-H ) :   0.9593 B(  9-C , 11-H ) :   0.9579 B(  9-C , 12-C ) :   1.0666
B( 12-C , 13-H ) :   0.9752 B( 12-C , 14-H ) :   0.9766 B( 12-C , 15-H ) :   0.9733
B( 16-S , 17-C ) :   1.1546 B( 16-S , 20-C ) :   1.1267 B( 17-C , 18-C ) :   1.6263
B( 17-C , 20-C ) :   0.1062 B( 17-C , 33-H ) :   0.9656 B( 18-C , 19-C ) :   1.2423
B( 18-C , 21-H ) :   0.9730 B( 19-C , 20-C ) :   1.5908 B( 19-C , 22-C ) :   1.0416
B( 22-C , 23-H ) :   0.9282 B( 22-C , 24-H ) :   0.9171 B( 22-C , 25-C ) :   1.0931
B( 25-C , 26-H ) :   0.9437 B( 25-C , 27-H ) :   0.9453 B( 25-C , 28-C ) :   1.1078
B( 28-C , 29-H ) :   0.9660 B( 28-C , 30-H ) :   0.9663 B( 28-C , 31-H ) :   0.9676

Dispersion correction           -0.014796924
FINAL SINGLE POINT ENERGY     -1339.879516412191

DIPOLE MOMENT
-------------
                                X             Y             Z
Electronic contribution:     26.00744       5.13398      -5.40285
Nuclear contribution   :    -26.51161      -5.19312       5.45694
                        -----------------------------------------
Total Dipole Moment    :     -0.50417      -0.05913       0.05410
                        -----------------------------------------
Magnitude (a.u.)       :      0.51050
Magnitude (Debye)      :      1.29760

Rotational constants in cm-1:     0.017677     0.009293     0.007631
Rotational constants in MHz :   529.933638   278.583291   228.770704

                             ****ORCA TERMINATED NORMALLY****
TOTAL RUN TIME: 0 days 0 hours 0 minutes 33 seconds 538 msec
