                         Program Version 4.2.1 -  RELEASE  -
|  1> ! wB97X-D3 SP def2-SVP
|  2> %pal
|  3> nprocs 16
|  4> end
|  5>
|  6> * xyz 0 1
|  7> S 	 -19.4693 	 -6.04055 	 80.5657
|  8> C 	 -20.7889 	 -6.03288 	 79.4628
|  9> C 	 -21.9993 	 -6.13029 	 80.1415
| 10> C 	 -21.8317 	 -6.05709 	 81.5373
| 11> C 	 -20.5332 	 -5.99338 	 81.8946
| 12> H 	 -22.5567 	 -6.07535 	 82.2885
| 13> C 	 -23.3312 	 -6.17525 	 79.3619
| 14> H 	 -24.136 	 -6.83776 	 79.7915
| 15> H 	 -22.9978 	 -6.57046 	 78.4458
| 16> C 	 -23.9299 	 -4.76573 	 78.9309
| 17> H 	 -24.27 	 -4.2563 	 79.8069
| 18> H 	 -23.1239 	 -4.17296 	 78.5264
| 19> C 	 -25.2345 	 -5.04603 	 78.0546
| 20> H 	 -25.602 	 -4.12451 	 77.6733
| 21> H 	 -25.1053 	 -5.82481 	 77.3152
| 22> H 	 -26.1051 	 -5.33784 	 78.6038
| 23> S 	 -21.1008 	 -5.1822 	 84.4458
| 24> C 	 -19.7364 	 -5.00336 	 85.6229
| 25> C 	 -18.5716 	 -5.49933 	 85.1588
| 26> C 	 -18.7061 	 -6.05938 	 83.782
| 27> C 	 -20.0089 	 -5.8596 	 83.2665
| 28> H 	 -17.6806 	 -5.49933 	 85.7697
| 29> C 	 -17.4922 	 -6.65934 	 83.1191
| 30> H 	 -17.7821 	 -7.29912 	 82.2888
| 31> H 	 -17.0176 	 -7.33259 	 83.8744
| 32> C 	 -16.5591 	 -5.58133 	 82.5478
| 33> H 	 -16.2374 	 -4.81089 	 83.2874
| 34> H 	 -17.2399 	 -5.08579 	 81.8878
| 35> C 	 -15.3387 	 -6.21507 	 81.7946
| 36> H 	 -14.7094 	 -6.91576 	 82.3753
| 37> H 	 -14.6553 	 -5.44046 	 81.5316
| 38> H 	 -15.6533 	 -6.78315 	 80.9013
| 39> H 	 -20.657 	 -5.99408 	 78.3597
| 40> H 	 -19.6946 	 -4.70051 	 86.6346
| 41> *
| 42>
| 43>                          ****END OF INPUT****

CARTESIAN COORDINATES (ANGSTROEM)
---------------------------------
  S    -19.469300   -6.040550   80.565700
  C    -20.788900   -6.032880   79.462800
  C    -21.999300   -6.130290   80.141500
  C    -21.831700   -6.057090   81.537300
  C    -20.533200   -5.993380   81.894600
  H    -22.556700   -6.075350   82.288500
  C    -23.331200   -6.175250   79.361900
  H    -24.136000   -6.837760   79.791500
  H    -22.997800   -6.570460   78.445800
  C    -23.929900   -4.765730   78.930900
  H    -24.270000   -4.256300   79.806900
  H    -23.123900   -4.172960   78.526400
  C    -25.234500   -5.046030   78.054600
  H    -25.602000   -4.124510   77.673300
  H    -25.105300   -5.824810   77.315200
  H    -26.105100   -5.337840   78.603800
  S    -21.100800   -5.182200   84.445800
  C    -19.736400   -5.003360   85.622900
  C    -18.571600   -5.499330   85.158800
  C    -18.706100   -6.059380   83.782000
  C    -20.008900   -5.859600   83.266500
  H    -17.680600   -5.499330   85.769700
  C    -17.492200   -6.659340   83.119100
  H    -17.782100   -7.299120   82.288800
  H    -17.017600   -7.332590   83.874400
  C    -16.559100   -5.581330   82.547800
  H    -16.237400   -4.810890   83.287400
  H    -17.239900   -5.085790   81.887800
  C    -15.338700   -6.215070   81.794600
  H    -14.709400   -6.915760   82.375300
  H    -14.655300   -5.440460   81.531600
  H    -15.653300   -6.783150   80.901300
  H    -20.657000   -5.994080   78.359700
  H    -19.694600   -4.700510   86.634600

 Total Charge           Charge          ....    0
 Multiplicity           Mult            ....    1
 Number of Electrons    NEL             ....  134
 Basis Dimension        Dim             ....  322

ORBITAL ENERGIES
----------------

  NO   OCC          E(Eh)            E(eV)
   0   2.0000     -88.969299     -2420.9777
   1   2.0000     -88.967381     -2420.9255
   2   2.0000     -10.331439      -281.1327
   3   2.0000     -10.324715      -280.9498
   4   2.0000     -10.314724      -280.6779
   5   2.0000     -10.314535      -280.6728
   6   2.0000     -10.308128      -280.4984
   7   2.0000     -10.303230      -280.3651
   8   2.0000     -10.295095      -280.1438
   9   2.0000     -10.293973      -280.1132
  10   2.0000     -10.291418      -280.0437
  11   2.0000     -10.290911      -280.0299
  12   2.0000     -10.287474      -279.9364
  13   2.0000     -10.284881      -279.8658
  14   2.0000     -10.279149      -279.7099
  15   2.0000     -10.277492      -279.6648
  16   2.0000      -8.084766      -219.9977
  17   2.0000      -8.081003      -219.8953
  18   2.0000      -6.043138      -164.4421
  19   2.0000      -6.039948      -164.3553
  20   2.0000      -6.039137      -164.3333
  21   2.0000      -6.035835      -164.2434
  22   2.0000      -6.035697      -164.2397
  23   2.0000      -6.031226      -164.1180
  24   2.0000      -1.015656       -27.6374
  25   2.0000      -0.980415       -26.6784
  26   2.0000      -0.906498       -24.6671
  27   2.0000      -0.902651       -24.5624
  28   2.0000      -0.872126       -23.7318
  29   2.0000      -0.854086       -23.2409
  30   2.0000      -0.837732       -22.7958
  31   2.0000      -0.821288       -22.3484
  32   2.0000      -0.782137       -21.2830
  33   2.0000      -0.765416       -20.8280
  34   2.0000      -0.711296       -19.3553
  35   2.0000      -0.701671       -19.0934
  36   2.0000      -0.690380       -18.7862
  37   2.0000      -0.669881       -18.2284
  38   2.0000      -0.642093       -17.4722
  39   2.0000      -0.618318       -16.8253
  40   2.0000      -0.592042       -16.1103
  41   2.0000      -0.572814       -15.5871
  42   2.0000      -0.560490       -15.2517
  43   2.0000      -0.554055       -15.0766
  44   2.0000      -0.526150       -14.3173
  45   2.0000      -0.521646       -14.1947
  46   2.0000      -0.515392       -14.0245
  47   2.0000      -0.507597       -13.8124
  48   2.0000      -0.503664       -13.7054
  49   2.0000      -0.500523       -13.6199
  50   2.0000      -0.489258       -13.3134
  51   2.0000      -0.479019       -13.0348
  52   2.0000      -0.467405       -12.7187
  53   2.0000      -0.465877       -12.6771
  54   2.0000      -0.461906       -12.5691
  55   2.0000      -0.453703       -12.3459
  56   2.0000      -0.446520       -12.1504
  57   2.0000      -0.440901       -11.9975
  58   2.0000      -0.435722       -11.8566
  59   2.0000      -0.425372       -11.5750
  60   2.0000      -0.420231       -11.4351
  61   2.0000      -0.415993       -11.3197
  62   2.0000      -0.414373       -11.2757
  63   2.0000      -0.363014        -9.8781
  64   2.0000      -0.334897        -9.1130
  65   2.0000      -0.326791        -8.8924
  66   2.0000      -0.283579        -7.7166
  67   0.0000       0.025299         0.6884
  68   0.0000       0.084595         2.3019
  69   0.0000       0.098087         2.6691
  70   0.0000       0.120758         3.2860
  71   0.0000       0.138177         3.7600

MULLIKEN ATOMIC CHARGES
-----------------------
   0 S :    0.103336
   1 C :   -0.143506
   2 C :   -0.058385
   3 C :    0.002182
   4 C :   -0.091090
   5 H :   -0.011847
   6 C :    0.042066
   7 H :    0.043230
   8 H :    0.006101
   9 C :   -0.054616
  10 H :    0.026438
  11 H :    0.031263
  12 C :   -0.030033
  13 H :    0.023953
  14 H :    0.031202
  15 H :    0.020687
  16 S :    0.081382
  17 C :   -0.046956
  18 C :   -0.035944
  19 C :   -0.098800
  20 C :   -0.101742
  21 H :    0.023269
  22 C :    0.032659
  23 H :    0.022058
  24 H :    0.034686
  25 C :   -0.069783
  26 H :    0.035881
  27 H :    0.021538
  28 C :   -0.033399
  29 H :    0.028469
  30 H :    0.029515
  31 H :    0.036067
  32 H :    0.063979
  33 H :    0.036141
Sum of atomic charges:   -0.0000000

LOEWDIN ATOMIC CHARGES
----------------------
   0 S :    0.456168
   1 C :   -0.216644
   2 C :   -0.056356
   3 C :   -0.069851
   4 C :   -0.194565
   5 H :    0.018642
   6 C :   -0.031810
   7 H :    0.036022
   8 H :    0.020344
   9 C :   -0.026687
  10 H :    0.019760
  11 H :    0.022567
  12 C :   -0.064400
  13 H :    0.023552
  14 H :    0.022863
  15 H :    0.025617
  16 S :    0.378870
  17 C :   -0.166555
  18 C :   -0.060420
  19 C :   -0.058175
  20 C :   -0.192623
  21 H :    0.033029
  22 C :   -0.044781
  23 H :    0.018978
  24 H :    0.033364
  25 C :   -0.038598
  26 H :    0.027007
  27 H :    0.012112
  28 C :   -0.067731
  29 H :    0.026437
  30 H :    0.022579
  31 H :    0.028619
  32 H :    0.035441
  33 H :    0.027227

  Mayer bond orders larger than 0.100000
B(  0-S ,  1-C ) :   1.1511 B(  0-S ,  4-C ) :   1.1614 B(  1-C ,  2-C ) :   1.5866
B(  1-C , 32-H ) :   0.9642 B(  2-C ,  3-C ) :   1.2513 B(  2-C ,  6-C ) :   1.0190
B(  3-C ,  4-C ) :   1.5466 B(  3-C ,  5-H ) :   1.0076 B(  4-C , 20-C ) :   1.0599
B(  6-C ,  7-H ) :   0.9506 B(  6-C ,  8-H ) :   0.9361 B(  6-C ,  9-C ) :   1.0562
B(  9-C , 10-H ) :   0.9601 B(  9-C , 11-H ) :   0.9611 B(  9-C , 12-C ) :   1.0629
B( 12-C , 13-H ) :   0.9733 B( 12-C , 14-H ) :   0.9802 B( 12-C , 15-H ) :   0.9734
B( 16-S , 17-C ) :   1.0989 B( 16-S , 20-C ) :   1.1177 B( 17-C , 18-C ) :   1.7039
B( 17-C , 33-H ) :   0.9622 B( 18-C , 19-C ) :   1.1831 B( 18-C , 21-H ) :   0.9831
B( 19-C , 20-C ) :   1.6080 B( 19-C , 22-C ) :   1.0606 B( 22-C , 23-H ) :   0.9335
B( 22-C , 24-H ) :   0.9298 B( 22-C , 25-C ) :   1.0472 B( 25-C , 26-H ) :   0.9599
B( 25-C , 27-H ) :   0.9482 B( 25-C , 28-C ) :   1.0752 B( 28-C , 29-H ) :   0.9762
B( 28-C , 30-H ) :   0.9754 B( 28-C , 31-H ) :   0.9735

Dispersion correction           -0.013798361
FINAL SINGLE POINT ENERGY     -1339.869944679967

DIPOLE MOMENT
-------------
                                X             Y             Z
Electronic contribution:      0.07865      -0.24706      13.86820
Nuclear contribution   :     -0.02373       0.24276     -14.00724
                        -----------------------------------------
Total Dipole Moment    :      0.05492      -0.00430      -0.13904
                        -----------------------------------------
Magnitude (a.u.)       :      0.14956
Magnitude (Debye)      :      0.38015

Rotational constants in cm-1:     0.022548     0.007620     0.005896
Rotational constants in MHz :   675.974379   228.441035   176.764062

                             ****ORCA TERMINATED NORMALLY****
TOTAL RUN TIME: 0 days 0 hours 0 minutes 32 seconds 686 msec
