                         Program Version 4.2.1 -  RELEASE  -
|  1> ! wB97X-D3 SP def2-SVP
|  2> %pal
|  3> nprocs 16
|  4> end
|  5>
|  6> * xyz 0 1
|  7> S 	 -15.2335 	 42.0822 	 32.4816
|  8> C 	 -16.125 	 42.0003 	 33.9661
|  9> C 	 -15.2945 	 41.6882 	 35.0536
| 10> C 	 -13.9387 	 41.6289 	 34.6403
| 11> C 	 -13.7213 	 41.9527 	 33.3421
| 12> H 	 -13.1003 	 41.3615 	 35.228
| 13> C 	 -15.639 	 41.442 	 36.5261
| 14> H 	 -15.7567 	 42.4062 	 37.0753
| 15> H 	 -14.7644 	 40.8942 	 36.9608
| 16> C 	 -16.9694 	 40.6463 	 36.8103
| 17> H 	 -17.2983 	 40.8622 	 37.8484
| 18> H 	 -17.7959 	 41.1328 	 36.2495
| 19> C 	 -17.0848 	 39.0826 	 36.6163
| 20> H 	 -17.9667 	 38.5565 	 36.9977
| 21> H 	 -16.9545 	 38.8134 	 35.5765
| 22> H 	 -16.224 	 38.586 	 37.0872
| 23> S 	 -11.9671 	 43.5749 	 32.015
| 24> C 	 -10.3814 	 43.0105 	 31.5876
| 25> C 	 -10.3506 	 41.6787 	 31.7046
| 26> C 	 -11.4794 	 41.1448 	 32.3358
| 27> C 	 -12.425 	 42.064 	 32.7098
| 28> H 	 -9.50709 	 41.1462 	 31.1596
| 29> C 	 -11.4458 	 39.6453 	 32.5795
| 30> H 	 -11.0116 	 39.1257 	 31.7311
| 31> H 	 -12.5041 	 39.2692 	 32.6784
| 32> C 	 -10.7506 	 39.3651 	 33.9709
| 33> H 	 -10.9377 	 38.3419 	 34.2339
| 34> H 	 -11.3737 	 39.9403 	 34.6838
| 35> C 	 -9.25464 	 39.7035 	 34.0214
| 36> H 	 -8.9949 	 40.7233 	 33.7226
| 37> H 	 -8.83333 	 39.0561 	 33.215
| 38> H 	 -8.77633 	 39.466 	 34.9719
| 39> H 	 -17.2579 	 42.0584 	 34.0039
| 40> H 	 -9.66256 	 43.5906 	 30.9985
| 41> *
| 42>
| 43>                          ****END OF INPUT****

CARTESIAN COORDINATES (ANGSTROEM)
---------------------------------
  S    -15.233500   42.082200   32.481600
  C    -16.125000   42.000300   33.966100
  C    -15.294500   41.688200   35.053600
  C    -13.938700   41.628900   34.640300
  C    -13.721300   41.952700   33.342100
  H    -13.100300   41.361500   35.228000
  C    -15.639000   41.442000   36.526100
  H    -15.756700   42.406200   37.075300
  H    -14.764400   40.894200   36.960800
  C    -16.969400   40.646300   36.810300
  H    -17.298300   40.862200   37.848400
  H    -17.795900   41.132800   36.249500
  C    -17.084800   39.082600   36.616300
  H    -17.966700   38.556500   36.997700
  H    -16.954500   38.813400   35.576500
  H    -16.224000   38.586000   37.087200
  S    -11.967100   43.574900   32.015000
  C    -10.381400   43.010500   31.587600
  C    -10.350600   41.678700   31.704600
  C    -11.479400   41.144800   32.335800
  C    -12.425000   42.064000   32.709800
  H     -9.507090   41.146200   31.159600
  C    -11.445800   39.645300   32.579500
  H    -11.011600   39.125700   31.731100
  H    -12.504100   39.269200   32.678400
  C    -10.750600   39.365100   33.970900
  H    -10.937700   38.341900   34.233900
  H    -11.373700   39.940300   34.683800
  C     -9.254640   39.703500   34.021400
  H     -8.994900   40.723300   33.722600
  H     -8.833330   39.056100   33.215000
  H     -8.776330   39.466000   34.971900
  H    -17.257900   42.058400   34.003900
  H     -9.662560   43.590600   30.998500

 Total Charge           Charge          ....    0
 Multiplicity           Mult            ....    1
 Number of Electrons    NEL             ....  134
 Basis Dimension        Dim             ....  322

ORBITAL ENERGIES
----------------

  NO   OCC          E(Eh)            E(eV)
   0   2.0000     -88.968220     -2420.9483
   1   2.0000     -88.958834     -2420.6929
   2   2.0000     -10.323962      -280.9293
   3   2.0000     -10.321658      -280.8666
   4   2.0000     -10.321505      -280.8624
   5   2.0000     -10.311676      -280.5950
   6   2.0000     -10.306788      -280.4620
   7   2.0000     -10.304476      -280.3991
   8   2.0000     -10.297886      -280.2197
   9   2.0000     -10.297014      -280.1960
  10   2.0000     -10.293522      -280.1010
  11   2.0000     -10.289079      -279.9801
  12   2.0000     -10.288817      -279.9729
  13   2.0000     -10.287406      -279.9345
  14   2.0000     -10.281220      -279.7662
  15   2.0000     -10.279002      -279.7059
  16   2.0000      -8.083259      -219.9567
  17   2.0000      -8.074758      -219.7253
  18   2.0000      -6.041740      -164.4041
  19   2.0000      -6.037774      -164.2962
  20   2.0000      -6.033973      -164.1927
  21   2.0000      -6.033161      -164.1707
  22   2.0000      -6.029169      -164.0620
  23   2.0000      -6.025467      -163.9613
  24   2.0000      -1.016329       -27.6557
  25   2.0000      -0.993031       -27.0217
  26   2.0000      -0.904380       -24.6094
  27   2.0000      -0.900971       -24.5167
  28   2.0000      -0.872126       -23.7317
  29   2.0000      -0.849674       -23.1208
  30   2.0000      -0.842323       -22.9208
  31   2.0000      -0.816317       -22.2131
  32   2.0000      -0.782413       -21.2905
  33   2.0000      -0.771639       -20.9974
  34   2.0000      -0.708466       -19.2783
  35   2.0000      -0.702860       -19.1258
  36   2.0000      -0.689634       -18.7659
  37   2.0000      -0.659078       -17.9344
  38   2.0000      -0.643500       -17.5105
  39   2.0000      -0.613256       -16.6875
  40   2.0000      -0.591660       -16.0999
  41   2.0000      -0.570094       -15.5131
  42   2.0000      -0.550681       -14.9848
  43   2.0000      -0.545837       -14.8530
  44   2.0000      -0.542849       -14.7717
  45   2.0000      -0.532670       -14.4947
  46   2.0000      -0.513605       -13.9759
  47   2.0000      -0.508563       -13.8387
  48   2.0000      -0.502126       -13.6635
  49   2.0000      -0.492312       -13.3965
  50   2.0000      -0.487666       -13.2701
  51   2.0000      -0.480892       -13.0857
  52   2.0000      -0.474738       -12.9183
  53   2.0000      -0.471540       -12.8313
  54   2.0000      -0.463145       -12.6028
  55   2.0000      -0.445776       -12.1302
  56   2.0000      -0.438409       -11.9297
  57   2.0000      -0.435233       -11.8433
  58   2.0000      -0.430194       -11.7062
  59   2.0000      -0.423625       -11.5274
  60   2.0000      -0.422354       -11.4928
  61   2.0000      -0.414280       -11.2731
  62   2.0000      -0.411821       -11.2062
  63   2.0000      -0.343242        -9.3401
  64   2.0000      -0.331010        -9.0072
  65   2.0000      -0.325041        -8.8448
  66   2.0000      -0.302852        -8.2410
  67   0.0000       0.038723         1.0537
  68   0.0000       0.060980         1.6593
  69   0.0000       0.112533         3.0622
  70   0.0000       0.117484         3.1969
  71   0.0000       0.132678         3.6103

MULLIKEN ATOMIC CHARGES
-----------------------
   0 S :    0.130681
   1 C :   -0.159020
   2 C :   -0.053364
   3 C :    0.027477
   4 C :   -0.151566
   5 H :   -0.000569
   6 C :    0.049337
   7 H :    0.058571
   8 H :    0.036101
   9 C :   -0.105373
  10 H :    0.026569
  11 H :    0.025102
  12 C :   -0.048283
  13 H :    0.044494
  14 H :    0.031034
  15 H :    0.022292
  16 S :    0.098359
  17 C :   -0.092093
  18 C :   -0.070509
  19 C :   -0.019379
  20 C :   -0.182389
  21 H :    0.047019
  22 C :    0.036638
  23 H :    0.029146
  24 H :    0.033956
  25 C :   -0.048617
  26 H :    0.024835
  27 H :    0.012612
  28 C :   -0.050878
  29 H :    0.047200
  30 H :    0.023430
  31 H :    0.041740
  32 H :    0.074921
  33 H :    0.060525
Sum of atomic charges:   -0.0000000

LOEWDIN ATOMIC CHARGES
----------------------
   0 S :    0.419389
   1 C :   -0.211207
   2 C :   -0.068583
   3 C :   -0.055890
   4 C :   -0.199435
   5 H :    0.024757
   6 C :   -0.031293
   7 H :    0.044955
   8 H :    0.034819
   9 C :   -0.049684
  10 H :    0.025443
  11 H :    0.022506
  12 C :   -0.073378
  13 H :    0.030627
  14 H :    0.023548
  15 H :    0.024756
  16 S :    0.418395
  17 C :   -0.188701
  18 C :   -0.087809
  19 C :   -0.060150
  20 C :   -0.210827
  21 H :    0.046141
  22 C :   -0.030000
  23 H :    0.025972
  24 H :    0.034901
  25 C :   -0.034902
  26 H :    0.019652
  27 H :    0.019813
  28 C :   -0.069987
  29 H :    0.026452
  30 H :    0.028656
  31 H :    0.026985
  32 H :    0.040168
  33 H :    0.033910

  Mayer bond orders larger than 0.100000
B(  0-S ,  1-C ) :   1.1528 B(  0-S ,  4-C ) :   1.1520 B(  1-C ,  2-C ) :   1.5893
B(  1-C , 32-H ) :   0.9588 B(  2-C ,  3-C ) :   1.2464 B(  2-C ,  6-C ) :   1.0083
B(  3-C ,  4-C ) :   1.5929 B(  3-C ,  5-H ) :   0.9999 B(  4-C , 20-C ) :   1.0309
B(  6-C ,  7-H ) :   0.9361 B(  6-C ,  8-H ) :   0.9500 B(  6-C ,  9-C ) :   1.0677
B(  9-C , 10-H ) :   0.9582 B(  9-C , 11-H ) :   0.9560 B(  9-C , 12-C ) :   1.0614
B( 12-C , 13-H ) :   0.9780 B( 12-C , 14-H ) :   0.9783 B( 12-C , 15-H ) :   0.9747
B( 16-S , 17-C ) :   1.1667 B( 16-S , 20-C ) :   1.1448 B( 17-C , 18-C ) :   1.6098
B( 17-C , 20-C ) :   0.1013 B( 17-C , 33-H ) :   0.9624 B( 18-C , 19-C ) :   1.2530
B( 18-C , 21-H ) :   0.9751 B( 19-C , 20-C ) :   1.5940 B( 19-C , 22-C ) :   1.0456
B( 22-C , 23-H ) :   0.9439 B( 22-C , 24-H ) :   0.9304 B( 22-C , 25-C ) :   1.0684
B( 25-C , 26-H ) :   0.9559 B( 25-C , 27-H ) :   0.9512 B( 25-C , 28-C ) :   1.0742
B( 28-C , 29-H ) :   0.9678 B( 28-C , 30-H ) :   0.9727 B( 28-C , 31-H ) :   0.9730

Dispersion correction           -0.014752398
FINAL SINGLE POINT ENERGY     -1339.877368205855

DIPOLE MOMENT
-------------
                                X             Y             Z
Electronic contribution:     -0.70361      19.38568     -18.32018
Nuclear contribution   :      0.82179     -19.86326      18.57186
                        -----------------------------------------
Total Dipole Moment    :      0.11817      -0.47758       0.25169
                        -----------------------------------------
Magnitude (a.u.)       :      0.55262
Magnitude (Debye)      :      1.40466

Rotational constants in cm-1:     0.021415     0.008184     0.006567
Rotational constants in MHz :   642.004589   245.348231   196.860831

                             ****ORCA TERMINATED NORMALLY****
TOTAL RUN TIME: 0 days 0 hours 0 minutes 34 seconds 439 msec
