                         Program Version 4.2.1 -  RELEASE  -
|  1> ! wB97X-D3 SP def2-SVP
|  2> %pal
|  3> nprocs 16
|  4> end
|  5>
|  6> * xyz 0 1
|  7> S 	 -35.2822 	 62.6148 	 110.821
|  8> C 	 -36.6179 	 63.6621 	 111.241
|  9> C 	 -36.22 	 64.6443 	 112.152
| 10> C 	 -34.8042 	 64.6651 	 112.4
| 11> C 	 -34.1991 	 63.6004 	 111.763
| 12> H 	 -34.1442 	 65.3238 	 112.937
| 13> C 	 -37.1788 	 65.656 	 112.774
| 14> H 	 -37.2353 	 65.3109 	 113.802
| 15> H 	 -38.222 	 65.546 	 112.392
| 16> C 	 -36.7693 	 67.1772 	 112.776
| 17> H 	 -37.4801 	 67.7107 	 113.413
| 18> H 	 -35.7874 	 67.3011 	 113.181
| 19> C 	 -36.716 	 67.839 	 111.392
| 20> H 	 -36.3806 	 68.9027 	 111.442
| 21> H 	 -36.1296 	 67.3222 	 110.632
| 22> H 	 -37.7418 	 67.9856 	 110.963
| 23> S 	 -32.188 	 62.9136 	 113.514
| 24> C 	 -30.555 	 62.9283 	 112.884
| 25> C 	 -30.5418 	 62.7072 	 111.537
| 26> C 	 -31.8233 	 62.9623 	 110.903
| 27> C 	 -32.7736 	 63.3048 	 111.862
| 28> H 	 -29.5676 	 62.5345 	 111.063
| 29> C 	 -31.9271 	 62.9931 	 109.398
| 30> H 	 -32.9485 	 62.8249 	 109.026
| 31> H 	 -31.3876 	 62.1043 	 109.002
| 32> C 	 -31.364 	 64.2497 	 108.657
| 33> H 	 -31.6786 	 64.3079 	 107.577
| 34> H 	 -30.2744 	 64.3263 	 108.781
| 35> C 	 -31.9248 	 65.5308 	 109.299
| 36> H 	 -31.7803 	 65.5777 	 110.334
| 37> H 	 -33.0098 	 65.5492 	 109.207
| 38> H 	 -31.5338 	 66.4531 	 108.95
| 39> H 	 -37.6143 	 63.694 	 110.752
| 40> H 	 -29.6075 	 62.7022 	 113.44
| 41> *
| 42>
| 43>                          ****END OF INPUT****

CARTESIAN COORDINATES (ANGSTROEM)
---------------------------------
  S    -35.282200   62.614800  110.821000
  C    -36.617900   63.662100  111.241000
  C    -36.220000   64.644300  112.152000
  C    -34.804200   64.665100  112.400000
  C    -34.199100   63.600400  111.763000
  H    -34.144200   65.323800  112.937000
  C    -37.178800   65.656000  112.774000
  H    -37.235300   65.310900  113.802000
  H    -38.222000   65.546000  112.392000
  C    -36.769300   67.177200  112.776000
  H    -37.480100   67.710700  113.413000
  H    -35.787400   67.301100  113.181000
  C    -36.716000   67.839000  111.392000
  H    -36.380600   68.902700  111.442000
  H    -36.129600   67.322200  110.632000
  H    -37.741800   67.985600  110.963000
  S    -32.188000   62.913600  113.514000
  C    -30.555000   62.928300  112.884000
  C    -30.541800   62.707200  111.537000
  C    -31.823300   62.962300  110.903000
  C    -32.773600   63.304800  111.862000
  H    -29.567600   62.534500  111.063000
  C    -31.927100   62.993100  109.398000
  H    -32.948500   62.824900  109.026000
  H    -31.387600   62.104300  109.002000
  C    -31.364000   64.249700  108.657000
  H    -31.678600   64.307900  107.577000
  H    -30.274400   64.326300  108.781000
  C    -31.924800   65.530800  109.299000
  H    -31.780300   65.577700  110.334000
  H    -33.009800   65.549200  109.207000
  H    -31.533800   66.453100  108.950000
  H    -37.614300   63.694000  110.752000
  H    -29.607500   62.702200  113.440000

 Total Charge           Charge          ....    0
 Multiplicity           Mult            ....    1
 Number of Electrons    NEL             ....  134
 Basis Dimension        Dim             ....  322

ORBITAL ENERGIES
----------------

  NO   OCC          E(Eh)            E(eV)
   0   2.0000     -88.968725     -2420.9621
   1   2.0000     -88.965524     -2420.8750
   2   2.0000     -10.329733      -281.0863
   3   2.0000     -10.326866      -281.0083
   4   2.0000     -10.317628      -280.7569
   5   2.0000     -10.316540      -280.7273
   6   2.0000     -10.310101      -280.5521
   7   2.0000     -10.307059      -280.4693
   8   2.0000     -10.296710      -280.1877
   9   2.0000     -10.296209      -280.1741
  10   2.0000     -10.295610      -280.1578
  11   2.0000     -10.295464      -280.1538
  12   2.0000     -10.292098      -280.0622
  13   2.0000     -10.290217      -280.0111
  14   2.0000     -10.280289      -279.7409
  15   2.0000     -10.259440      -279.1735
  16   2.0000      -8.083205      -219.9552
  17   2.0000      -8.079680      -219.8593
  18   2.0000      -6.041736      -164.4040
  19   2.0000      -6.038289      -164.3102
  20   2.0000      -6.037699      -164.2941
  21   2.0000      -6.034640      -164.2109
  22   2.0000      -6.034009      -164.1937
  23   2.0000      -6.029968      -164.0838
  24   2.0000      -1.005567       -27.3629
  25   2.0000      -0.982309       -26.7300
  26   2.0000      -0.904656       -24.6170
  27   2.0000      -0.903330       -24.5808
  28   2.0000      -0.867988       -23.6191
  29   2.0000      -0.849249       -23.1092
  30   2.0000      -0.842046       -22.9132
  31   2.0000      -0.813202       -22.1283
  32   2.0000      -0.783205       -21.3121
  33   2.0000      -0.770105       -20.9556
  34   2.0000      -0.707914       -19.2633
  35   2.0000      -0.696203       -18.9446
  36   2.0000      -0.685491       -18.6532
  37   2.0000      -0.658048       -17.9064
  38   2.0000      -0.637446       -17.3458
  39   2.0000      -0.614529       -16.7222
  40   2.0000      -0.592510       -16.1230
  41   2.0000      -0.562708       -15.3121
  42   2.0000      -0.549236       -14.9455
  43   2.0000      -0.544748       -14.8234
  44   2.0000      -0.542988       -14.7754
  45   2.0000      -0.537353       -14.6221
  46   2.0000      -0.513727       -13.9792
  47   2.0000      -0.508737       -13.8434
  48   2.0000      -0.497140       -13.5279
  49   2.0000      -0.493974       -13.4417
  50   2.0000      -0.487855       -13.2752
  51   2.0000      -0.472048       -12.8451
  52   2.0000      -0.467725       -12.7274
  53   2.0000      -0.460035       -12.5182
  54   2.0000      -0.454949       -12.3798
  55   2.0000      -0.449811       -12.2400
  56   2.0000      -0.445045       -12.1103
  57   2.0000      -0.437595       -11.9076
  58   2.0000      -0.434026       -11.8104
  59   2.0000      -0.422142       -11.4871
  60   2.0000      -0.420532       -11.4433
  61   2.0000      -0.417801       -11.3689
  62   2.0000      -0.413344       -11.2477
  63   2.0000      -0.340517        -9.2660
  64   2.0000      -0.331891        -9.0312
  65   2.0000      -0.326682        -8.8895
  66   2.0000      -0.297323        -8.0906
  67   0.0000       0.023881         0.6498
  68   0.0000       0.071069         1.9339
  69   0.0000       0.091684         2.4948
  70   0.0000       0.119379         3.2485
  71   0.0000       0.125005         3.4016

MULLIKEN ATOMIC CHARGES
-----------------------
   0 S :    0.126576
   1 C :   -0.145403
   2 C :   -0.071265
   3 C :    0.016922
   4 C :   -0.152741
   5 H :    0.017257
   6 C :    0.055337
   7 H :    0.041038
   8 H :    0.021220
   9 C :   -0.054947
  10 H :    0.033752
  11 H :    0.028600
  12 C :   -0.082972
  13 H :    0.036057
  14 H :    0.046658
  15 H :    0.023257
  16 S :    0.104834
  17 C :   -0.092165
  18 C :   -0.062435
  19 C :   -0.015108
  20 C :   -0.182089
  21 H :    0.031114
  22 C :    0.053441
  23 H :    0.022461
  24 H :    0.035084
  25 C :   -0.077099
  26 H :    0.049033
  27 H :    0.033195
  28 C :   -0.034520
  29 H :    0.019536
  30 H :    0.021907
  31 H :    0.018943
  32 H :    0.064703
  33 H :    0.069819
Sum of atomic charges:    0.0000000

LOEWDIN ATOMIC CHARGES
----------------------
   0 S :    0.415408
   1 C :   -0.214599
   2 C :   -0.057864
   3 C :   -0.061877
   4 C :   -0.197711
   5 H :    0.033441
   6 C :   -0.033994
   7 H :    0.036677
   8 H :    0.030708
   9 C :   -0.038231
  10 H :    0.028712
  11 H :    0.019812
  12 C :   -0.076040
  13 H :    0.030269
  14 H :    0.025987
  15 H :    0.024962
  16 S :    0.384374
  17 C :   -0.193277
  18 C :   -0.071213
  19 C :   -0.052740
  20 C :   -0.181209
  21 H :    0.034830
  22 C :   -0.040369
  23 H :    0.023985
  24 H :    0.038046
  25 C :   -0.037427
  26 H :    0.034586
  27 H :    0.022233
  28 C :   -0.065914
  29 H :    0.016546
  30 H :    0.024529
  31 H :    0.018773
  32 H :    0.038317
  33 H :    0.040270

  Mayer bond orders larger than 0.100000
B(  0-S ,  1-C ) :   1.1289 B(  0-S ,  4-C ) :   1.1510 B(  1-C ,  2-C ) :   1.6171
B(  1-C , 32-H ) :   0.9616 B(  2-C ,  3-C ) :   1.2024 B(  2-C ,  6-C ) :   1.0204
B(  3-C ,  4-C ) :   1.5711 B(  3-C ,  5-H ) :   0.9983 B(  4-C , 20-C ) :   1.0640
B(  6-C ,  7-H ) :   0.9324 B(  6-C ,  8-H ) :   0.9466 B(  6-C ,  9-C ) :   1.0707
B(  9-C , 10-H ) :   0.9548 B(  9-C , 11-H ) :   0.9557 B(  9-C , 12-C ) :   1.0741
B( 12-C , 13-H ) :   0.9737 B( 12-C , 14-H ) :   0.9771 B( 12-C , 15-H ) :   0.9746
B( 16-S , 17-C ) :   1.1267 B( 16-S , 20-C ) :   1.1323 B( 17-C , 18-C ) :   1.6676
B( 17-C , 33-H ) :   0.9561 B( 18-C , 19-C ) :   1.1907 B( 18-C , 21-H ) :   0.9838
B( 19-C , 20-C ) :   1.5918 B( 19-C , 22-C ) :   1.0559 B( 22-C , 23-H ) :   0.9335
B( 22-C , 24-H ) :   0.9330 B( 22-C , 25-C ) :   1.0636 B( 25-C , 26-H ) :   0.9584
B( 25-C , 27-H ) :   0.9573 B( 25-C , 28-C ) :   1.0759 B( 28-C , 29-H ) :   0.9700
B( 28-C , 30-H ) :   0.9749 B( 28-C , 31-H ) :   0.9734

Dispersion correction           -0.015517723
FINAL SINGLE POINT ENERGY     -1339.877591490631

DIPOLE MOMENT
-------------
                                X             Y             Z
Electronic contribution:      3.75206     -20.72801       9.96617
Nuclear contribution   :     -3.69910      21.05324     -10.12790
                        -----------------------------------------
Total Dipole Moment    :      0.05295       0.32524      -0.16174
                        -----------------------------------------
Magnitude (a.u.)       :      0.36707
Magnitude (Debye)      :      0.93302

Rotational constants in cm-1:     0.019578     0.008704     0.007984
Rotational constants in MHz :   586.944202   260.932155   239.365307

                             ****ORCA TERMINATED NORMALLY****
TOTAL RUN TIME: 0 days 0 hours 0 minutes 29 seconds 469 msec
