                         Program Version 4.2.1 -  RELEASE  -
|  1> ! wB97X-D3 SP def2-SVP
|  2> %pal
|  3> nprocs 16
|  4> end
|  5>
|  6> * xyz 0 1
|  7> S 	 17.7574 	 -6.40556 	 79.7921
|  8> C 	 17.2066 	 -6.90378 	 78.1418
|  9> C 	 16.1075 	 -7.79002 	 78.2284
| 10> C 	 15.5893 	 -7.84 	 79.5602
| 11> C 	 16.3191 	 -7.12655 	 80.5137
| 12> H 	 14.6656 	 -8.21935 	 79.9619
| 13> C 	 15.4191 	 -8.53295 	 77.1064
| 14> H 	 15.6489 	 -7.82003 	 76.2834
| 15> H 	 14.3096 	 -8.62106 	 77.2418
| 16> C 	 16.0435 	 -9.92505 	 76.8188
| 17> H 	 17.1058 	 -9.74066 	 76.6957
| 18> H 	 16.114 	 -10.5862 	 77.7186
| 19> C 	 15.3919 	 -10.5713 	 75.624
| 20> H 	 14.3856 	 -10.9139 	 75.9235
| 21> H 	 15.28 	 -9.81611 	 74.7557
| 22> H 	 15.9478 	 -11.376 	 75.2343
| 23> S 	 14.3197 	 -6.38617 	 82.1471
| 24> C 	 14.603 	 -6.24051 	 83.9271
| 25> C 	 15.9406 	 -6.40156 	 84.193
| 26> C 	 16.7296 	 -6.67431 	 82.9993
| 27> C 	 15.9805 	 -6.72669 	 81.8229
| 28> H 	 16.2706 	 -6.30096 	 85.223
| 29> C 	 18.2645 	 -6.73898 	 83.0609
| 30> H 	 18.6517 	 -5.94243 	 83.6796
| 31> H 	 18.8278 	 -6.66977 	 82.0958
| 32> C 	 18.6852 	 -8.03183 	 83.744
| 33> H 	 18.4686 	 -8.96308 	 83.0933
| 34> H 	 18.1428 	 -8.27092 	 84.6688
| 35> C 	 20.2015 	 -8.08046 	 83.9505
| 36> H 	 20.8117 	 -8.11786 	 83.0383
| 37> H 	 20.619 	 -9.00576 	 84.3324
| 38> H 	 20.6072 	 -7.23589 	 84.5661
| 39> H 	 17.7102 	 -6.61381 	 77.2265
| 40> H 	 13.8295 	 -6.06342 	 84.6928
| 41> *
| 42>
| 43>                          ****END OF INPUT****

CARTESIAN COORDINATES (ANGSTROEM)
---------------------------------
  S     17.757400   -6.405560   79.792100
  C     17.206600   -6.903780   78.141800
  C     16.107500   -7.790020   78.228400
  C     15.589300   -7.840000   79.560200
  C     16.319100   -7.126550   80.513700
  H     14.665600   -8.219350   79.961900
  C     15.419100   -8.532950   77.106400
  H     15.648900   -7.820030   76.283400
  H     14.309600   -8.621060   77.241800
  C     16.043500   -9.925050   76.818800
  H     17.105800   -9.740660   76.695700
  H     16.114000  -10.586200   77.718600
  C     15.391900  -10.571300   75.624000
  H     14.385600  -10.913900   75.923500
  H     15.280000   -9.816110   74.755700
  H     15.947800  -11.376000   75.234300
  S     14.319700   -6.386170   82.147100
  C     14.603000   -6.240510   83.927100
  C     15.940600   -6.401560   84.193000
  C     16.729600   -6.674310   82.999300
  C     15.980500   -6.726690   81.822900
  H     16.270600   -6.300960   85.223000
  C     18.264500   -6.738980   83.060900
  H     18.651700   -5.942430   83.679600
  H     18.827800   -6.669770   82.095800
  C     18.685200   -8.031830   83.744000
  H     18.468600   -8.963080   83.093300
  H     18.142800   -8.270920   84.668800
  C     20.201500   -8.080460   83.950500
  H     20.811700   -8.117860   83.038300
  H     20.619000   -9.005760   84.332400
  H     20.607200   -7.235890   84.566100
  H     17.710200   -6.613810   77.226500
  H     13.829500   -6.063420   84.692800

 Total Charge           Charge          ....    0
 Multiplicity           Mult            ....    1
 Number of Electrons    NEL             ....  134
 Basis Dimension        Dim             ....  322

ORBITAL ENERGIES
----------------

  NO   OCC          E(Eh)            E(eV)
   0   2.0000     -88.966847     -2420.9110
   1   2.0000     -88.964912     -2420.8583
   2   2.0000     -10.328714      -281.0586
   3   2.0000     -10.325342      -280.9668
   4   2.0000     -10.324269      -280.9376
   5   2.0000     -10.323720      -280.9227
   6   2.0000     -10.310150      -280.5534
   7   2.0000     -10.308088      -280.4973
   8   2.0000     -10.300306      -280.2856
   9   2.0000     -10.300006      -280.2774
  10   2.0000     -10.295409      -280.1523
  11   2.0000     -10.293813      -280.1089
  12   2.0000     -10.289965      -280.0042
  13   2.0000     -10.288668      -279.9689
  14   2.0000     -10.282754      -279.8080
  15   2.0000     -10.276490      -279.6375
  16   2.0000      -8.080172      -219.8726
  17   2.0000      -8.079213      -219.8466
  18   2.0000      -6.038878      -164.3262
  19   2.0000      -6.037882      -164.2991
  20   2.0000      -6.034873      -164.2172
  21   2.0000      -6.033780      -164.1875
  22   2.0000      -6.030803      -164.1065
  23   2.0000      -6.029807      -164.0794
  24   2.0000      -1.005473       -27.3603
  25   2.0000      -0.975480       -26.5442
  26   2.0000      -0.912595       -24.8330
  27   2.0000      -0.906684       -24.6721
  28   2.0000      -0.874195       -23.7881
  29   2.0000      -0.850865       -23.1532
  30   2.0000      -0.837853       -22.7992
  31   2.0000      -0.814676       -22.1685
  32   2.0000      -0.781054       -21.2536
  33   2.0000      -0.766684       -20.8625
  34   2.0000      -0.707194       -19.2437
  35   2.0000      -0.701552       -19.0902
  36   2.0000      -0.690663       -18.7939
  37   2.0000      -0.667226       -18.1561
  38   2.0000      -0.638622       -17.3778
  39   2.0000      -0.614185       -16.7128
  40   2.0000      -0.596323       -16.2268
  41   2.0000      -0.574572       -15.6349
  42   2.0000      -0.560495       -15.2518
  43   2.0000      -0.554246       -15.0818
  44   2.0000      -0.524571       -14.2743
  45   2.0000      -0.520134       -14.1536
  46   2.0000      -0.518896       -14.1199
  47   2.0000      -0.513153       -13.9636
  48   2.0000      -0.507691       -13.8150
  49   2.0000      -0.505591       -13.7578
  50   2.0000      -0.490306       -13.3419
  51   2.0000      -0.478467       -13.0197
  52   2.0000      -0.468678       -12.7534
  53   2.0000      -0.464106       -12.6290
  54   2.0000      -0.457757       -12.4562
  55   2.0000      -0.446077       -12.1384
  56   2.0000      -0.439368       -11.9558
  57   2.0000      -0.437159       -11.8957
  58   2.0000      -0.430153       -11.7051
  59   2.0000      -0.423728       -11.5302
  60   2.0000      -0.418105       -11.3772
  61   2.0000      -0.411890       -11.2081
  62   2.0000      -0.403864       -10.9897
  63   2.0000      -0.352767        -9.5993
  64   2.0000      -0.331885        -9.0310
  65   2.0000      -0.328877        -8.9492
  66   2.0000      -0.283355        -7.7105
  67   0.0000       0.020126         0.5477
  68   0.0000       0.071495         1.9455
  69   0.0000       0.103942         2.8284
  70   0.0000       0.110741         3.0134
  71   0.0000       0.121427         3.3042

MULLIKEN ATOMIC CHARGES
-----------------------
   0 S :    0.083792
   1 C :   -0.122794
   2 C :   -0.072389
   3 C :    0.017227
   4 C :   -0.153796
   5 H :    0.009719
   6 C :    0.027277
   7 H :    0.032426
   8 H :    0.042531
   9 C :   -0.076457
  10 H :    0.015410
  11 H :    0.036447
  12 C :   -0.026049
  13 H :    0.036538
  14 H :    0.036326
  15 H :    0.030388
  16 S :    0.089178
  17 C :   -0.116420
  18 C :   -0.016876
  19 C :   -0.025551
  20 C :   -0.109354
  21 H :    0.027918
  22 C :    0.058828
  23 H :    0.027674
  24 H :    0.041000
  25 C :   -0.111222
  26 H :    0.039767
  27 H :    0.035949
  28 C :   -0.055692
  29 H :    0.022254
  30 H :    0.021702
  31 H :    0.032766
  32 H :    0.051530
  33 H :    0.069956
Sum of atomic charges:    0.0000000

LOEWDIN ATOMIC CHARGES
----------------------
   0 S :    0.390186
   1 C :   -0.182147
   2 C :   -0.056056
   3 C :   -0.065873
   4 C :   -0.182082
   5 H :    0.026844
   6 C :   -0.034671
   7 H :    0.036825
   8 H :    0.034774
   9 C :   -0.049015
  10 H :    0.021572
  11 H :    0.030374
  12 C :   -0.065340
  13 H :    0.028695
  14 H :    0.034856
  15 H :    0.019804
  16 S :    0.394395
  17 C :   -0.175528
  18 C :   -0.066145
  19 C :   -0.055732
  20 C :   -0.207324
  21 H :    0.035578
  22 C :   -0.037555
  23 H :    0.030317
  24 H :    0.024673
  25 C :   -0.048300
  26 H :    0.035132
  27 H :    0.022955
  28 C :   -0.082973
  29 H :    0.027126
  30 H :    0.024928
  31 H :    0.025269
  32 H :    0.026730
  33 H :    0.037710

  Mayer bond orders larger than 0.100000
B(  0-S ,  1-C ) :   1.1281 B(  0-S ,  4-C ) :   1.1337 B(  1-C ,  2-C ) :   1.6072
B(  1-C ,  4-C ) :   0.1027 B(  1-C , 32-H ) :   0.9709 B(  2-C ,  3-C ) :   1.2087
B(  2-C ,  6-C ) :   1.0182 B(  3-C ,  4-C ) :   1.5899 B(  3-C ,  5-H ) :   0.9905
B(  4-C , 20-C ) :   1.0739 B(  6-C ,  7-H ) :   0.9379 B(  6-C ,  8-H ) :   0.9486
B(  6-C ,  9-C ) :   1.0548 B(  9-C , 10-H ) :   0.9505 B(  9-C , 11-H ) :   0.9549
B(  9-C , 12-C ) :   1.0798 B( 12-C , 13-H ) :   0.9726 B( 12-C , 14-H ) :   0.9725
B( 12-C , 15-H ) :   0.9733 B( 16-S , 17-C ) :   1.1310 B( 16-S , 20-C ) :   1.1257
B( 17-C , 18-C ) :   1.6339 B( 17-C , 33-H ) :   0.9651 B( 18-C , 19-C ) :   1.2234
B( 18-C , 21-H ) :   0.9874 B( 19-C , 20-C ) :   1.5767 B( 19-C , 22-C ) :   1.0335
B( 22-C , 23-H ) :   0.9398 B( 22-C , 24-H ) :   0.9377 B( 22-C , 25-C ) :   1.0421
B( 25-C , 26-H ) :   0.9519 B( 25-C , 27-H ) :   0.9628 B( 25-C , 28-C ) :   1.0797
B( 28-C , 29-H ) :   0.9689 B( 28-C , 30-H ) :   0.9708 B( 28-C , 31-H ) :   0.9737

Dispersion correction           -0.013540302
FINAL SINGLE POINT ENERGY     -1339.869737965862

DIPOLE MOMENT
-------------
                                X             Y             Z
Electronic contribution:     -9.77751      15.73601       6.44115
Nuclear contribution   :      9.86838     -16.03385      -6.45865
                        -----------------------------------------
Total Dipole Moment    :      0.09087      -0.29784      -0.01750
                        -----------------------------------------
Magnitude (a.u.)       :      0.31188
Magnitude (Debye)      :      0.79274

Rotational constants in cm-1:     0.020116     0.007493     0.006278
Rotational constants in MHz :   603.060026   224.647963   188.213819

                             ****ORCA TERMINATED NORMALLY****
TOTAL RUN TIME: 0 days 0 hours 0 minutes 27 seconds 235 msec
