                         Program Version 4.2.1 -  RELEASE  -
|  1> ! wB97X-D3 SP def2-SVP
|  2> %pal
|  3> nprocs 16
|  4> end
|  5>
|  6> * xyz 0 1
|  7> S 	 -32.231 	 58.052 	 111.814
|  8> C 	 -31.0522 	 56.9654 	 111.029
|  9> C 	 -29.8893 	 56.799 	 111.703
| 10> C 	 -29.8811 	 57.6344 	 112.876
| 11> C 	 -31.057 	 58.328 	 113.082
| 12> H 	 -29.0439 	 57.731 	 113.476
| 13> C 	 -28.7769 	 55.8473 	 111.291
| 14> H 	 -28.6384 	 55.8888 	 110.211
| 15> H 	 -29.102 	 54.8024 	 111.553
| 16> C 	 -27.4161 	 56.05 	 111.966
| 17> H 	 -27.2196 	 57.1497 	 111.87
| 18> H 	 -27.5342 	 55.9511 	 113.044
| 19> C 	 -26.3062 	 55.2135 	 111.318
| 20> H 	 -26.3179 	 55.3083 	 110.25
| 21> H 	 -25.28 	 55.5811 	 111.625
| 22> H 	 -26.354 	 54.1979 	 111.568
| 23> S 	 -30.1225 	 60.5292 	 114.466
| 24> C 	 -31.1399 	 61.215 	 115.799
| 25> C 	 -32.2677 	 60.4982 	 115.904
| 26> C 	 -32.3531 	 59.3881 	 115.003
| 27> C 	 -31.2741 	 59.2762 	 114.187
| 28> H 	 -33.0931 	 60.7926 	 116.529
| 29> C 	 -33.6424 	 58.5694 	 114.949
| 30> H 	 -33.8822 	 58.3583 	 116.045
| 31> H 	 -33.3525 	 57.6285 	 114.564
| 32> C 	 -34.876 	 59.1385 	 114.39
| 33> H 	 -34.6651 	 59.4728 	 113.329
| 34> H 	 -35.1329 	 60.0414 	 114.95
| 35> C 	 -35.9027 	 57.9948 	 114.468
| 36> H 	 -35.8314 	 57.3243 	 113.619
| 37> H 	 -36.9213 	 58.4663 	 114.573
| 38> H 	 -35.7232 	 57.3605 	 115.369
| 39> H 	 -31.3577 	 56.5267 	 110.103
| 40> H 	 -30.8258 	 62.0212 	 116.457
| 41> *
| 42>
| 43>                          ****END OF INPUT****

CARTESIAN COORDINATES (ANGSTROEM)
---------------------------------
  S    -32.231000   58.052000  111.814000
  C    -31.052200   56.965400  111.029000
  C    -29.889300   56.799000  111.703000
  C    -29.881100   57.634400  112.876000
  C    -31.057000   58.328000  113.082000
  H    -29.043900   57.731000  113.476000
  C    -28.776900   55.847300  111.291000
  H    -28.638400   55.888800  110.211000
  H    -29.102000   54.802400  111.553000
  C    -27.416100   56.050000  111.966000
  H    -27.219600   57.149700  111.870000
  H    -27.534200   55.951100  113.044000
  C    -26.306200   55.213500  111.318000
  H    -26.317900   55.308300  110.250000
  H    -25.280000   55.581100  111.625000
  H    -26.354000   54.197900  111.568000
  S    -30.122500   60.529200  114.466000
  C    -31.139900   61.215000  115.799000
  C    -32.267700   60.498200  115.904000
  C    -32.353100   59.388100  115.003000
  C    -31.274100   59.276200  114.187000
  H    -33.093100   60.792600  116.529000
  C    -33.642400   58.569400  114.949000
  H    -33.882200   58.358300  116.045000
  H    -33.352500   57.628500  114.564000
  C    -34.876000   59.138500  114.390000
  H    -34.665100   59.472800  113.329000
  H    -35.132900   60.041400  114.950000
  C    -35.902700   57.994800  114.468000
  H    -35.831400   57.324300  113.619000
  H    -36.921300   58.466300  114.573000
  H    -35.723200   57.360500  115.369000
  H    -31.357700   56.526700  110.103000
  H    -30.825800   62.021200  116.457000

 Total Charge           Charge          ....    0
 Multiplicity           Mult            ....    1
 Number of Electrons    NEL             ....  134
 Basis Dimension        Dim             ....  322

ORBITAL ENERGIES
----------------

  NO   OCC          E(Eh)            E(eV)
   0   2.0000     -88.968500     -2420.9560
   1   2.0000     -88.960885     -2420.7488
   2   2.0000     -10.329799      -281.0881
   3   2.0000     -10.320485      -280.8347
   4   2.0000     -10.317007      -280.7400
   5   2.0000     -10.312151      -280.6079
   6   2.0000     -10.301874      -280.3282
   7   2.0000     -10.297686      -280.2143
   8   2.0000     -10.291668      -280.0505
   9   2.0000     -10.291592      -280.0485
  10   2.0000     -10.290310      -280.0136
  11   2.0000     -10.287727      -279.9433
  12   2.0000     -10.286095      -279.8989
  13   2.0000     -10.283338      -279.8238
  14   2.0000     -10.282532      -279.8019
  15   2.0000     -10.281350      -279.7697
  16   2.0000      -8.082478      -219.9354
  17   2.0000      -8.075409      -219.7431
  18   2.0000      -6.040976      -164.3833
  19   2.0000      -6.037242      -164.2817
  20   2.0000      -6.034106      -164.1964
  21   2.0000      -6.033180      -164.1712
  22   2.0000      -6.030010      -164.0849
  23   2.0000      -6.025917      -163.9735
  24   2.0000      -1.006345       -27.3840
  25   2.0000      -0.983576       -26.7645
  26   2.0000      -0.915996       -24.9255
  27   2.0000      -0.912830       -24.8394
  28   2.0000      -0.871967       -23.7274
  29   2.0000      -0.851149       -23.1609
  30   2.0000      -0.841614       -22.9015
  31   2.0000      -0.817525       -22.2460
  32   2.0000      -0.782563       -21.2946
  33   2.0000      -0.766482       -20.8570
  34   2.0000      -0.713004       -19.4018
  35   2.0000      -0.697737       -18.9864
  36   2.0000      -0.688185       -18.7265
  37   2.0000      -0.667856       -18.1733
  38   2.0000      -0.642159       -17.4740
  39   2.0000      -0.620532       -16.8855
  40   2.0000      -0.597814       -16.2674
  41   2.0000      -0.571559       -15.5529
  42   2.0000      -0.567217       -15.4348
  43   2.0000      -0.564041       -15.3483
  44   2.0000      -0.525496       -14.2995
  45   2.0000      -0.521163       -14.1816
  46   2.0000      -0.515966       -14.0402
  47   2.0000      -0.511702       -13.9241
  48   2.0000      -0.504454       -13.7269
  49   2.0000      -0.501414       -13.6442
  50   2.0000      -0.486347       -13.2342
  51   2.0000      -0.478694       -13.0259
  52   2.0000      -0.474516       -12.9122
  53   2.0000      -0.467965       -12.7340
  54   2.0000      -0.459886       -12.5141
  55   2.0000      -0.452135       -12.3032
  56   2.0000      -0.445120       -12.1123
  57   2.0000      -0.438706       -11.9378
  58   2.0000      -0.435159       -11.8413
  59   2.0000      -0.425730       -11.5847
  60   2.0000      -0.419465       -11.4142
  61   2.0000      -0.413267       -11.2456
  62   2.0000      -0.406248       -11.0546
  63   2.0000      -0.347746        -9.4626
  64   2.0000      -0.334679        -9.1071
  65   2.0000      -0.326832        -8.8936
  66   2.0000      -0.296039        -8.0556
  67   0.0000       0.034982         0.9519
  68   0.0000       0.075561         2.0561
  69   0.0000       0.101700         2.7674
  70   0.0000       0.112513         3.0616
  71   0.0000       0.133352         3.6287

MULLIKEN ATOMIC CHARGES
-----------------------
   0 S :    0.102163
   1 C :   -0.142733
   2 C :   -0.036649
   3 C :    0.018705
   4 C :   -0.133747
   5 H :   -0.017465
   6 C :    0.053289
   7 H :    0.029518
   8 H :    0.047373
   9 C :   -0.129804
  10 H :    0.034575
  11 H :    0.038412
  12 C :   -0.003128
  13 H :    0.025182
  14 H :    0.037885
  15 H :    0.026765
  16 S :    0.087785
  17 C :   -0.096462
  18 C :   -0.008574
  19 C :   -0.048386
  20 C :   -0.128491
  21 H :    0.015612
  22 C :   -0.000347
  23 H :    0.025535
  24 H :    0.014073
  25 C :   -0.034917
  26 H :    0.034444
  27 H :    0.024592
  28 C :   -0.046734
  29 H :    0.042790
  30 H :    0.041611
  31 H :    0.031147
  32 H :    0.035605
  33 H :    0.060373
Sum of atomic charges:   -0.0000000

LOEWDIN ATOMIC CHARGES
----------------------
   0 S :    0.393753
   1 C :   -0.173090
   2 C :   -0.059696
   3 C :   -0.055330
   4 C :   -0.184073
   5 H :    0.016312
   6 C :   -0.033100
   7 H :    0.030335
   8 H :    0.039031
   9 C :   -0.050034
  10 H :    0.027440
  11 H :    0.022886
  12 C :   -0.057302
  13 H :    0.024044
  14 H :    0.036174
  15 H :    0.018898
  16 S :    0.382604
  17 C :   -0.163210
  18 C :   -0.067095
  19 C :   -0.067807
  20 C :   -0.201464
  21 H :    0.030612
  22 C :   -0.042888
  23 H :    0.035513
  24 H :    0.017200
  25 C :   -0.044665
  26 H :    0.026497
  27 H :    0.022912
  28 C :   -0.062927
  29 H :    0.028074
  30 H :    0.031554
  31 H :    0.028011
  32 H :    0.018200
  33 H :    0.032632

  Mayer bond orders larger than 0.100000
B(  0-S ,  1-C ) :   1.1243 B(  0-S ,  4-C ) :   1.1450 B(  1-C ,  2-C ) :   1.6401
B(  1-C , 32-H ) :   0.9755 B(  2-C ,  3-C ) :   1.2230 B(  2-C ,  6-C ) :   1.0079
B(  3-C ,  4-C ) :   1.5695 B(  3-C ,  5-H ) :   1.0080 B(  4-C , 20-C ) :   1.0210
B(  6-C ,  7-H ) :   0.9436 B(  6-C ,  8-H ) :   0.9332 B(  6-C ,  9-C ) :   1.0777
B(  9-C , 10-H ) :   0.9587 B(  9-C , 11-H ) :   0.9471 B(  9-C , 12-C ) :   1.0770
B( 12-C , 13-H ) :   0.9735 B( 12-C , 14-H ) :   0.9728 B( 12-C , 15-H ) :   0.9754
B( 16-S , 17-C ) :   1.1203 B( 16-S , 20-C ) :   1.1284 B( 17-C , 18-C ) :   1.6371
B( 17-C , 33-H ) :   0.9682 B( 18-C , 19-C ) :   1.2212 B( 18-C , 21-H ) :   0.9902
B( 19-C , 20-C ) :   1.6290 B( 19-C , 22-C ) :   1.0391 B( 22-C , 23-H ) :   0.9247
B( 22-C , 24-H ) :   0.9333 B( 22-C , 25-C ) :   1.0759 B( 25-C , 26-H ) :   0.9480
B( 25-C , 27-H ) :   0.9504 B( 25-C , 28-C ) :   1.0636 B( 28-C , 29-H ) :   0.9752
B( 28-C , 30-H ) :   0.9746 B( 28-C , 31-H ) :   0.9715

Dispersion correction           -0.013956387
FINAL SINGLE POINT ENERGY     -1339.886901197784

DIPOLE MOMENT
-------------
                                X             Y             Z
Electronic contribution:     -0.24302      14.22686       0.97933
Nuclear contribution   :      0.27243     -14.55654      -0.95664
                        -----------------------------------------
Total Dipole Moment    :      0.02941      -0.32968       0.02270
                        -----------------------------------------
Magnitude (a.u.)       :      0.33177
Magnitude (Debye)      :      0.84328

Rotational constants in cm-1:     0.021131     0.007851     0.006183
Rotational constants in MHz :   633.495685   235.360743   185.376604

                             ****ORCA TERMINATED NORMALLY****
TOTAL RUN TIME: 0 days 0 hours 0 minutes 29 seconds 309 msec
