                         Program Version 4.2.1 -  RELEASE  -
|  1> ! wB97X-D3 SP def2-SVP
|  2> %pal
|  3> nprocs 16
|  4> end
|  5>
|  6> * xyz 0 1
|  7> S 	 0.871632 	 -11.0629 	 69.6647
|  8> C 	 0.660999 	 -12.2455 	 68.3623
|  9> C 	 0.593483 	 -13.5341 	 68.9453
| 10> C 	 0.47248 	 -13.5118 	 70.3672
| 11> C 	 0.490154 	 -12.1757 	 70.9211
| 12> H 	 0.223376 	 -14.4313 	 70.8923
| 13> C 	 0.406509 	 -14.8426 	 68.2656
| 14> H 	 0.356161 	 -15.6639 	 68.9609
| 15> H 	 1.2913 	 -15.1521 	 67.6699
| 16> C 	 -0.828599 	 -14.8567 	 67.2694
| 17> H 	 -1.75101 	 -14.4701 	 67.7055
| 18> H 	 -0.649037 	 -14.2259 	 66.4049
| 19> C 	 -1.29267 	 -16.2401 	 66.794
| 20> H 	 -0.762602 	 -16.5785 	 65.9534
| 21> H 	 -1.15735 	 -16.9701 	 67.6214
| 22> H 	 -2.4082 	 -16.242 	 66.6469
| 23> S 	 -0.557654 	 -10.3005 	 72.6111
| 24> C 	 -0.599725 	 -10.7064 	 74.3495
| 25> C 	 0.272231 	 -11.7453 	 74.5994
| 26> C 	 0.789126 	 -12.3586 	 73.4392
| 27> C 	 0.284034 	 -11.8232 	 72.2843
| 28> H 	 0.496491 	 -12.1233 	 75.5966
| 29> C 	 1.90102 	 -13.4083 	 73.5356
| 30> H 	 1.42627 	 -14.2933 	 73.3793
| 31> H 	 2.26101 	 -13.4883 	 74.6184
| 32> C 	 3.14682 	 -13.2941 	 72.6137
| 33> H 	 3.99886 	 -12.7889 	 73.0649
| 34> H 	 2.99544 	 -12.7739 	 71.6598
| 35> C 	 3.67887 	 -14.6981 	 72.3701
| 36> H 	 3.19574 	 -15.0853 	 71.4927
| 37> H 	 3.41365 	 -15.3183 	 73.2381
| 38> H 	 4.7755 	 -14.7755 	 72.3344
| 39> H 	 0.75555 	 -12.0868 	 67.3242
| 40> H 	 -1.04613 	 -9.9963 	 75.0228
| 41> *
| 42>
| 43>                          ****END OF INPUT****

CARTESIAN COORDINATES (ANGSTROEM)
---------------------------------
  S      0.871632  -11.062900   69.664700
  C      0.660999  -12.245500   68.362300
  C      0.593483  -13.534100   68.945300
  C      0.472480  -13.511800   70.367200
  C      0.490154  -12.175700   70.921100
  H      0.223376  -14.431300   70.892300
  C      0.406509  -14.842600   68.265600
  H      0.356161  -15.663900   68.960900
  H      1.291300  -15.152100   67.669900
  C     -0.828599  -14.856700   67.269400
  H     -1.751010  -14.470100   67.705500
  H     -0.649037  -14.225900   66.404900
  C     -1.292670  -16.240100   66.794000
  H     -0.762602  -16.578500   65.953400
  H     -1.157350  -16.970100   67.621400
  H     -2.408200  -16.242000   66.646900
  S     -0.557654  -10.300500   72.611100
  C     -0.599725  -10.706400   74.349500
  C      0.272231  -11.745300   74.599400
  C      0.789126  -12.358600   73.439200
  C      0.284034  -11.823200   72.284300
  H      0.496491  -12.123300   75.596600
  C      1.901020  -13.408300   73.535600
  H      1.426270  -14.293300   73.379300
  H      2.261010  -13.488300   74.618400
  C      3.146820  -13.294100   72.613700
  H      3.998860  -12.788900   73.064900
  H      2.995440  -12.773900   71.659800
  C      3.678870  -14.698100   72.370100
  H      3.195740  -15.085300   71.492700
  H      3.413650  -15.318300   73.238100
  H      4.775500  -14.775500   72.334400
  H      0.755550  -12.086800   67.324200
  H     -1.046130   -9.996300   75.022800

 Total Charge           Charge          ....    0
 Multiplicity           Mult            ....    1
 Number of Electrons    NEL             ....  134
 Basis Dimension        Dim             ....  322

ORBITAL ENERGIES
----------------

  NO   OCC          E(Eh)            E(eV)
   0   2.0000     -88.971910     -2421.0487
   1   2.0000     -88.962966     -2420.8054
   2   2.0000     -10.333838      -281.1980
   3   2.0000     -10.324615      -280.9470
   4   2.0000     -10.321656      -280.8666
   5   2.0000     -10.315162      -280.6898
   6   2.0000     -10.303068      -280.3607
   7   2.0000     -10.301461      -280.3170
   8   2.0000     -10.297282      -280.2033
   9   2.0000     -10.296414      -280.1797
  10   2.0000     -10.295370      -280.1513
  11   2.0000     -10.293466      -280.0995
  12   2.0000     -10.287480      -279.9366
  13   2.0000     -10.280514      -279.7470
  14   2.0000     -10.278609      -279.6952
  15   2.0000     -10.271749      -279.5085
  16   2.0000      -8.086018      -220.0317
  17   2.0000      -8.077358      -219.7961
  18   2.0000      -6.044643      -164.4831
  19   2.0000      -6.040374      -164.3669
  20   2.0000      -6.036934      -164.2733
  21   2.0000      -6.035874      -164.2445
  22   2.0000      -6.032189      -164.1442
  23   2.0000      -6.027852      -164.0262
  24   2.0000      -1.007042       -27.4030
  25   2.0000      -0.981254       -26.7013
  26   2.0000      -0.909383       -24.7456
  27   2.0000      -0.907061       -24.6824
  28   2.0000      -0.869712       -23.6661
  29   2.0000      -0.853214       -23.2171
  30   2.0000      -0.848424       -23.0868
  31   2.0000      -0.807926       -21.9848
  32   2.0000      -0.779113       -21.2007
  33   2.0000      -0.770598       -20.9690
  34   2.0000      -0.712200       -19.3799
  35   2.0000      -0.700573       -19.0636
  36   2.0000      -0.692967       -18.8566
  37   2.0000      -0.668614       -18.1939
  38   2.0000      -0.637688       -17.3524
  39   2.0000      -0.617552       -16.8044
  40   2.0000      -0.599809       -16.3216
  41   2.0000      -0.566923       -15.4267
  42   2.0000      -0.565150       -15.3785
  43   2.0000      -0.559575       -15.2268
  44   2.0000      -0.527025       -14.3411
  45   2.0000      -0.522400       -14.2152
  46   2.0000      -0.518492       -14.1089
  47   2.0000      -0.515152       -14.0180
  48   2.0000      -0.506721       -13.7886
  49   2.0000      -0.500038       -13.6067
  50   2.0000      -0.494545       -13.4572
  51   2.0000      -0.483855       -13.1664
  52   2.0000      -0.470321       -12.7981
  53   2.0000      -0.464102       -12.6289
  54   2.0000      -0.454600       -12.3703
  55   2.0000      -0.448752       -12.2112
  56   2.0000      -0.440416       -11.9843
  57   2.0000      -0.433992       -11.8095
  58   2.0000      -0.428741       -11.6666
  59   2.0000      -0.426393       -11.6027
  60   2.0000      -0.420109       -11.4317
  61   2.0000      -0.415488       -11.3060
  62   2.0000      -0.409337       -11.1386
  63   2.0000      -0.349172        -9.5015
  64   2.0000      -0.330566        -8.9952
  65   2.0000      -0.329455        -8.9649
  66   2.0000      -0.282329        -7.6826
  67   0.0000       0.013435         0.3656
  68   0.0000       0.068404         1.8614
  69   0.0000       0.099564         2.7093
  70   0.0000       0.118285         3.2187
  71   0.0000       0.135223         3.6796

MULLIKEN ATOMIC CHARGES
-----------------------
   0 S :    0.121619
   1 C :   -0.108286
   2 C :   -0.074227
   3 C :    0.008322
   4 C :   -0.158157
   5 H :    0.017718
   6 C :    0.070615
   7 H :    0.005325
   8 H :    0.035565
   9 C :   -0.097427
  10 H :    0.033272
  11 H :    0.029988
  12 C :   -0.053564
  13 H :    0.030158
  14 H :    0.023537
  15 H :    0.040822
  16 S :    0.085031
  17 C :   -0.087493
  18 C :   -0.023299
  19 C :   -0.029425
  20 C :   -0.154298
  21 H :    0.019691
  22 C :    0.084674
  23 H :    0.008865
  24 H :    0.032968
  25 C :   -0.057255
  26 H :    0.027128
  27 H :    0.053402
  28 C :   -0.071123
  29 H :    0.032968
  30 H :    0.024759
  31 H :    0.031552
  32 H :    0.035112
  33 H :    0.061461
Sum of atomic charges:   -0.0000000

LOEWDIN ATOMIC CHARGES
----------------------
   0 S :    0.422914
   1 C :   -0.198078
   2 C :   -0.057354
   3 C :   -0.069738
   4 C :   -0.200314
   5 H :    0.029454
   6 C :   -0.034273
   7 H :    0.023261
   8 H :    0.036651
   9 C :   -0.041246
  10 H :    0.026943
  11 H :    0.021333
  12 C :   -0.066504
  13 H :    0.014865
  14 H :    0.026049
  15 H :    0.034605
  16 S :    0.377577
  17 C :   -0.163970
  18 C :   -0.066928
  19 C :   -0.053183
  20 C :   -0.192555
  21 H :    0.032846
  22 C :   -0.024983
  23 H :    0.015951
  24 H :    0.042089
  25 C :   -0.041939
  26 H :    0.024435
  27 H :    0.028081
  28 C :   -0.062897
  29 H :    0.021428
  30 H :    0.023245
  31 H :    0.025408
  32 H :    0.020731
  33 H :    0.026096

  Mayer bond orders larger than 0.100000
B(  0-S ,  1-C ) :   1.1334 B(  0-S ,  4-C ) :   1.1804 B(  1-C ,  2-C ) :   1.5453
B(  1-C ,  4-C ) :   0.1113 B(  1-C , 32-H ) :   0.9797 B(  2-C ,  3-C ) :   1.3048
B(  2-C ,  6-C ) :   1.0462 B(  3-C ,  4-C ) :   1.4755 B(  3-C ,  5-H ) :   0.9911
B(  4-C , 20-C ) :   1.1078 B(  6-C ,  7-H ) :   0.9462 B(  6-C ,  8-H ) :   0.9280
B(  6-C ,  9-C ) :   1.0498 B(  9-C , 10-H ) :   0.9672 B(  9-C , 11-H ) :   0.9564
B(  9-C , 12-C ) :   1.0781 B( 12-C , 13-H ) :   0.9782 B( 12-C , 14-H ) :   0.9745
B( 12-C , 15-H ) :   0.9798 B( 16-S , 17-C ) :   1.1473 B( 16-S , 20-C ) :   1.1200
B( 17-C , 18-C ) :   1.5843 B( 17-C , 20-C ) :   0.1058 B( 17-C , 33-H ) :   0.9741
B( 18-C , 19-C ) :   1.2649 B( 18-C , 21-H ) :   0.9870 B( 19-C , 20-C ) :   1.5789
B( 19-C , 22-C ) :   1.0126 B( 22-C , 23-H ) :   0.9342 B( 22-C , 24-H ) :   0.9334
B( 22-C , 25-C ) :   1.0451 B( 25-C , 26-H ) :   0.9623 B( 25-C , 27-H ) :   0.9645
B( 25-C , 28-C ) :   1.0647 B( 28-C , 29-H ) :   0.9778 B( 28-C , 30-H ) :   0.9761
B( 28-C , 31-H ) :   0.9759

Dispersion correction           -0.014621926
FINAL SINGLE POINT ENERGY     -1339.859243163177

DIPOLE MOMENT
-------------
                                X             Y             Z
Electronic contribution:     -6.23878      26.32409       8.12394
Nuclear contribution   :      6.42148     -26.90027      -8.01990
                        -----------------------------------------
Total Dipole Moment    :      0.18270      -0.57618       0.10404
                        -----------------------------------------
Magnitude (a.u.)       :      0.61334
Magnitude (Debye)      :      1.55898

Rotational constants in cm-1:     0.019497     0.008325     0.006990
Rotational constants in MHz :   584.511147   249.591387   209.549975

                             ****ORCA TERMINATED NORMALLY****
TOTAL RUN TIME: 0 days 0 hours 0 minutes 33 seconds 941 msec
