                         Program Version 4.2.1 -  RELEASE  -
|  1> ! wB97X-D3 SP def2-SVP
|  2> %pal
|  3> nprocs 16
|  4> end
|  5>
|  6> * xyz 0 1
|  7> S 	 -94.774 	 57.7859 	 124.949
|  8> C 	 -93.3694 	 56.7488 	 124.921
|  9> C 	 -92.7451 	 56.6939 	 126.153
| 10> C 	 -93.4663 	 57.4484 	 127.175
| 11> C 	 -94.559 	 58.1576 	 126.662
| 12> H 	 -93.2865 	 57.5472 	 128.218
| 13> C 	 -91.5816 	 55.7587 	 126.559
| 14> H 	 -91.1533 	 55.8422 	 127.567
| 15> H 	 -90.7411 	 56.1049 	 125.965
| 16> C 	 -91.9185 	 54.3162 	 126.326
| 17> H 	 -92.8383 	 54.0287 	 126.753
| 18> H 	 -92.0502 	 54.3391 	 125.297
| 19> C 	 -90.798 	 53.2696 	 126.606
| 20> H 	 -90.4563 	 53.2325 	 127.68
| 21> H 	 -91.2583 	 52.3345 	 126.378
| 22> H 	 -89.9884 	 53.3919 	 125.986
| 23> S 	 -97.2905 	 58.6516 	 127.192
| 24> C 	 -97.79 	 59.9975 	 128.253
| 25> C 	 -96.6508 	 60.4908 	 128.797
| 26> C 	 -95.4248 	 60.0486 	 128.21
| 27> C 	 -95.5763 	 58.9609 	 127.364
| 28> H 	 -96.807 	 61.1326 	 129.612
| 29> C 	 -94.1599 	 60.496 	 128.715
| 30> H 	 -93.5812 	 60.7074 	 127.772
| 31> H 	 -93.6812 	 59.6048 	 129.161
| 32> C 	 -94.0433 	 61.7962 	 129.565
| 33> H 	 -94.4915 	 61.5815 	 130.575
| 34> H 	 -94.6814 	 62.5188 	 129.098
| 35> C 	 -92.6951 	 62.5191 	 129.61
| 36> H 	 -91.8096 	 61.8389 	 129.741
| 37> H 	 -92.6961 	 63.145 	 130.487
| 38> H 	 -92.5688 	 63.1011 	 128.688
| 39> H 	 -92.9213 	 56.2081 	 124.079
| 40> H 	 -98.7639 	 60.1822 	 128.694
| 41> *
| 42>
| 43>                          ****END OF INPUT****

CARTESIAN COORDINATES (ANGSTROEM)
---------------------------------
  S    -94.774000   57.785900  124.949000
  C    -93.369400   56.748800  124.921000
  C    -92.745100   56.693900  126.153000
  C    -93.466300   57.448400  127.175000
  C    -94.559000   58.157600  126.662000
  H    -93.286500   57.547200  128.218000
  C    -91.581600   55.758700  126.559000
  H    -91.153300   55.842200  127.567000
  H    -90.741100   56.104900  125.965000
  C    -91.918500   54.316200  126.326000
  H    -92.838300   54.028700  126.753000
  H    -92.050200   54.339100  125.297000
  C    -90.798000   53.269600  126.606000
  H    -90.456300   53.232500  127.680000
  H    -91.258300   52.334500  126.378000
  H    -89.988400   53.391900  125.986000
  S    -97.290500   58.651600  127.192000
  C    -97.790000   59.997500  128.253000
  C    -96.650800   60.490800  128.797000
  C    -95.424800   60.048600  128.210000
  C    -95.576300   58.960900  127.364000
  H    -96.807000   61.132600  129.612000
  C    -94.159900   60.496000  128.715000
  H    -93.581200   60.707400  127.772000
  H    -93.681200   59.604800  129.161000
  C    -94.043300   61.796200  129.565000
  H    -94.491500   61.581500  130.575000
  H    -94.681400   62.518800  129.098000
  C    -92.695100   62.519100  129.610000
  H    -91.809600   61.838900  129.741000
  H    -92.696100   63.145000  130.487000
  H    -92.568800   63.101100  128.688000
  H    -92.921300   56.208100  124.079000
  H    -98.763900   60.182200  128.694000

 Total Charge           Charge          ....    0
 Multiplicity           Mult            ....    1
 Number of Electrons    NEL             ....  134
 Basis Dimension        Dim             ....  322

ORBITAL ENERGIES
----------------

  NO   OCC          E(Eh)            E(eV)
   0   2.0000     -88.968585     -2420.9583
   1   2.0000     -88.961209     -2420.7576
   2   2.0000     -10.335207      -281.2353
   3   2.0000     -10.326923      -281.0099
   4   2.0000     -10.318320      -280.7758
   5   2.0000     -10.315865      -280.7090
   6   2.0000     -10.308186      -280.5000
   7   2.0000     -10.299444      -280.2621
   8   2.0000     -10.297361      -280.2054
   9   2.0000     -10.291057      -280.0339
  10   2.0000     -10.290826      -280.0276
  11   2.0000     -10.288447      -279.9629
  12   2.0000     -10.285757      -279.8897
  13   2.0000     -10.283667      -279.8328
  14   2.0000     -10.275510      -279.6108
  15   2.0000     -10.275469      -279.6097
  16   2.0000      -8.082842      -219.9453
  17   2.0000      -8.075380      -219.7423
  18   2.0000      -6.041476      -164.3969
  19   2.0000      -6.037290      -164.2830
  20   2.0000      -6.034104      -164.1963
  21   2.0000      -6.033601      -164.1826
  22   2.0000      -6.029878      -164.0813
  23   2.0000      -6.025992      -163.9756
  24   2.0000      -1.005017       -27.3479
  25   2.0000      -0.983311       -26.7573
  26   2.0000      -0.915385       -24.9089
  27   2.0000      -0.910110       -24.7654
  28   2.0000      -0.872159       -23.7327
  29   2.0000      -0.853226       -23.2175
  30   2.0000      -0.844185       -22.9714
  31   2.0000      -0.820681       -22.3319
  32   2.0000      -0.784152       -21.3379
  33   2.0000      -0.769016       -20.9260
  34   2.0000      -0.708233       -19.2720
  35   2.0000      -0.705748       -19.2044
  36   2.0000      -0.701019       -19.0757
  37   2.0000      -0.651119       -17.7178
  38   2.0000      -0.642179       -17.4746
  39   2.0000      -0.615956       -16.7610
  40   2.0000      -0.592637       -16.1265
  41   2.0000      -0.578645       -15.7457
  42   2.0000      -0.572369       -15.5750
  43   2.0000      -0.565515       -15.3885
  44   2.0000      -0.530765       -14.4428
  45   2.0000      -0.525951       -14.3118
  46   2.0000      -0.520453       -14.1622
  47   2.0000      -0.511187       -13.9101
  48   2.0000      -0.504694       -13.7334
  49   2.0000      -0.502127       -13.6636
  50   2.0000      -0.498696       -13.5702
  51   2.0000      -0.479351       -13.0438
  52   2.0000      -0.473004       -12.8711
  53   2.0000      -0.467263       -12.7149
  54   2.0000      -0.461802       -12.5663
  55   2.0000      -0.450892       -12.2694
  56   2.0000      -0.445746       -12.1294
  57   2.0000      -0.442664       -12.0455
  58   2.0000      -0.426099       -11.5947
  59   2.0000      -0.424218       -11.5436
  60   2.0000      -0.415002       -11.2928
  61   2.0000      -0.412169       -11.2157
  62   2.0000      -0.406279       -11.0554
  63   2.0000      -0.349174        -9.5015
  64   2.0000      -0.330384        -8.9902
  65   2.0000      -0.323200        -8.7947
  66   2.0000      -0.293731        -7.9928
  67   0.0000       0.026798         0.7292
  68   0.0000       0.069259         1.8846
  69   0.0000       0.113416         3.0862
  70   0.0000       0.121471         3.3054
  71   0.0000       0.135308         3.6819

MULLIKEN ATOMIC CHARGES
-----------------------
   0 S :    0.124154
   1 C :   -0.129151
   2 C :   -0.080556
   3 C :    0.044223
   4 C :   -0.176177
   5 H :    0.004096
   6 C :    0.064366
   7 H :    0.014649
   8 H :    0.023239
   9 C :   -0.055773
  10 H :    0.026948
  11 H :   -0.002319
  12 C :   -0.012565
  13 H :    0.038618
  14 H :    0.026515
  15 H :    0.014134
  16 S :    0.088401
  17 C :   -0.083489
  18 C :   -0.038311
  19 C :   -0.031264
  20 C :   -0.135176
  21 H :    0.003735
  22 C :    0.016695
  23 H :    0.039388
  24 H :    0.042315
  25 C :   -0.090670
  26 H :    0.037376
  27 H :    0.027227
  28 C :   -0.034696
  29 H :    0.036391
  30 H :    0.033013
  31 H :    0.044118
  32 H :    0.059372
  33 H :    0.061174
Sum of atomic charges:   -0.0000000

LOEWDIN ATOMIC CHARGES
----------------------
   0 S :    0.409250
   1 C :   -0.204848
   2 C :   -0.056514
   3 C :   -0.052880
   4 C :   -0.186841
   5 H :    0.025906
   6 C :   -0.034342
   7 H :    0.026057
   8 H :    0.029933
   9 C :   -0.032985
  10 H :    0.021545
  11 H :    0.014537
  12 C :   -0.053702
  13 H :    0.030232
  14 H :    0.026721
  15 H :    0.012367
  16 S :    0.388119
  17 C :   -0.176171
  18 C :   -0.069670
  19 C :   -0.064274
  20 C :   -0.205275
  21 H :    0.023538
  22 C :   -0.048312
  23 H :    0.044737
  24 H :    0.034930
  25 C :   -0.045952
  26 H :    0.025062
  27 H :    0.024121
  28 C :   -0.063606
  29 H :    0.028507
  30 H :    0.027980
  31 H :    0.029896
  32 H :    0.035705
  33 H :    0.036229

  Mayer bond orders larger than 0.100000
B(  0-S ,  1-C ) :   1.1376 B(  0-S ,  4-C ) :   1.1466 B(  1-C ,  2-C ) :   1.6255
B(  1-C , 32-H ) :   0.9609 B(  2-C ,  3-C ) :   1.2266 B(  2-C ,  6-C ) :   1.0106
B(  3-C ,  4-C ) :   1.5809 B(  3-C ,  5-H ) :   0.9952 B(  4-C , 20-C ) :   1.0436
B(  6-C ,  7-H ) :   0.9514 B(  6-C ,  8-H ) :   0.9356 B(  6-C ,  9-C ) :   1.0592
B(  9-C , 10-H ) :   0.9611 B(  9-C , 11-H ) :   0.9506 B(  9-C , 12-C ) :   1.0860
B( 12-C , 13-H ) :   0.9762 B( 12-C , 14-H ) :   0.9733 B( 12-C , 15-H ) :   0.9748
B( 16-S , 17-C ) :   1.1411 B( 16-S , 20-C ) :   1.1352 B( 17-C , 18-C ) :   1.6232
B( 17-C , 33-H ) :   0.9608 B( 18-C , 19-C ) :   1.2330 B( 18-C , 21-H ) :   0.9914
B( 19-C , 20-C ) :   1.5753 B( 19-C , 22-C ) :   1.0622 B( 22-C , 23-H ) :   0.9160
B( 22-C , 24-H ) :   0.9256 B( 22-C , 25-C ) :   1.0760 B( 25-C , 26-H ) :   0.9482
B( 25-C , 27-H ) :   0.9559 B( 25-C , 28-C ) :   1.0782 B( 28-C , 29-H ) :   0.9769
B( 28-C , 30-H ) :   0.9717 B( 28-C , 31-H ) :   0.9756

Dispersion correction           -0.013293506
FINAL SINGLE POINT ENERGY     -1339.856093579037

DIPOLE MOMENT
-------------
                                X             Y             Z
Electronic contribution:    -23.21536       2.26028     -11.67441
Nuclear contribution   :     23.75284      -2.27772      12.18683
                        -----------------------------------------
Total Dipole Moment    :      0.53748      -0.01745       0.51241
                        -----------------------------------------
Magnitude (a.u.)       :      0.74280
Magnitude (Debye)      :      1.88806

Rotational constants in cm-1:     0.019068     0.007255     0.005887
Rotational constants in MHz :   571.638161   217.495085   176.497778

                             ****ORCA TERMINATED NORMALLY****
TOTAL RUN TIME: 0 days 0 hours 0 minutes 33 seconds 160 msec
