                         Program Version 4.2.1 -  RELEASE  -
|  1> ! wB97X-D3 SP def2-SVP
|  2> %pal
|  3> nprocs 16
|  4> end
|  5>
|  6> * xyz 0 1
|  7> S 	 -83.3553 	 39.2328 	 131.299
|  8> C 	 -83.8628 	 38.5851 	 132.848
|  9> C 	 -85.1963 	 38.8467 	 133.118
| 10> C 	 -85.8702 	 39.4769 	 132.01
| 11> C 	 -84.9534 	 39.6135 	 130.988
| 12> H 	 -86.8894 	 39.7498 	 131.937
| 13> C 	 -85.884 	 38.4323 	 134.397
| 14> H 	 -86.8998 	 38.2371 	 134.056
| 15> H 	 -85.8125 	 39.218 	 135.116
| 16> C 	 -85.4928 	 37.1107 	 134.997
| 17> H 	 -84.5072 	 37.1963 	 135.44
| 18> H 	 -86.0599 	 36.9612 	 135.943
| 19> C 	 -85.6881 	 35.8758 	 134.082
| 20> H 	 -85.491 	 34.9263 	 134.471
| 21> H 	 -86.6366 	 35.9043 	 133.646
| 22> H 	 -84.9401 	 35.9421 	 133.242
| 23> S 	 -86.1242 	 39.2557 	 128.572
| 24> C 	 -86.7293 	 40.6924 	 127.688
| 25> C 	 -86.2546 	 41.8708 	 128.211
| 26> C 	 -85.4495 	 41.6192 	 129.409
| 27> C 	 -85.3944 	 40.2516 	 129.757
| 28> H 	 -86.5786 	 42.8049 	 127.778
| 29> C 	 -84.8577 	 42.6646 	 130.317
| 30> H 	 -84.3492 	 42.1526 	 131.088
| 31> H 	 -85.6945 	 43.2686 	 130.764
| 32> C 	 -83.7731 	 43.5603 	 129.669
| 33> H 	 -84.2028 	 44.2976 	 128.925
| 34> H 	 -82.9919 	 42.9841 	 128.995
| 35> C 	 -82.9258 	 44.3995 	 130.588
| 36> H 	 -82.6905 	 43.7268 	 131.439
| 37> H 	 -83.3493 	 45.3004 	 130.897
| 38> H 	 -81.9801 	 44.7453 	 130.267
| 39> H 	 -83.2948 	 38.0361 	 133.55
| 40> H 	 -87.3543 	 40.5836 	 126.776
| 41> *
| 42>
| 43>                          ****END OF INPUT****

CARTESIAN COORDINATES (ANGSTROEM)
---------------------------------
  S    -83.355300   39.232800  131.299000
  C    -83.862800   38.585100  132.848000
  C    -85.196300   38.846700  133.118000
  C    -85.870200   39.476900  132.010000
  C    -84.953400   39.613500  130.988000
  H    -86.889400   39.749800  131.937000
  C    -85.884000   38.432300  134.397000
  H    -86.899800   38.237100  134.056000
  H    -85.812500   39.218000  135.116000
  C    -85.492800   37.110700  134.997000
  H    -84.507200   37.196300  135.440000
  H    -86.059900   36.961200  135.943000
  C    -85.688100   35.875800  134.082000
  H    -85.491000   34.926300  134.471000
  H    -86.636600   35.904300  133.646000
  H    -84.940100   35.942100  133.242000
  S    -86.124200   39.255700  128.572000
  C    -86.729300   40.692400  127.688000
  C    -86.254600   41.870800  128.211000
  C    -85.449500   41.619200  129.409000
  C    -85.394400   40.251600  129.757000
  H    -86.578600   42.804900  127.778000
  C    -84.857700   42.664600  130.317000
  H    -84.349200   42.152600  131.088000
  H    -85.694500   43.268600  130.764000
  C    -83.773100   43.560300  129.669000
  H    -84.202800   44.297600  128.925000
  H    -82.991900   42.984100  128.995000
  C    -82.925800   44.399500  130.588000
  H    -82.690500   43.726800  131.439000
  H    -83.349300   45.300400  130.897000
  H    -81.980100   44.745300  130.267000
  H    -83.294800   38.036100  133.550000
  H    -87.354300   40.583600  126.776000

 Total Charge           Charge          ....    0
 Multiplicity           Mult            ....    1
 Number of Electrons    NEL             ....  134
 Basis Dimension        Dim             ....  322

ORBITAL ENERGIES
----------------

  NO   OCC          E(Eh)            E(eV)
   0   2.0000     -88.972511     -2421.0651
   1   2.0000     -88.960955     -2420.7507
   2   2.0000     -10.321222      -280.8547
   3   2.0000     -10.319303      -280.8025
   4   2.0000     -10.319016      -280.7947
   5   2.0000     -10.306958      -280.4666
   6   2.0000     -10.304490      -280.3994
   7   2.0000     -10.299075      -280.2521
   8   2.0000     -10.297421      -280.2071
   9   2.0000     -10.293617      -280.1036
  10   2.0000     -10.291515      -280.0464
  11   2.0000     -10.289938      -280.0034
  12   2.0000     -10.288030      -279.9515
  13   2.0000     -10.287899      -279.9480
  14   2.0000     -10.272357      -279.5251
  15   2.0000     -10.265550      -279.3398
  16   2.0000      -8.088095      -220.0883
  17   2.0000      -8.075948      -219.7577
  18   2.0000      -6.046352      -164.5296
  19   2.0000      -6.042595      -164.4274
  20   2.0000      -6.038962      -164.3285
  21   2.0000      -6.034404      -164.2045
  22   2.0000      -6.030414      -164.0959
  23   2.0000      -6.026766      -163.9966
  24   2.0000      -1.013019       -27.5656
  25   2.0000      -0.981334       -26.7035
  26   2.0000      -0.918744       -25.0003
  27   2.0000      -0.903079       -24.5740
  28   2.0000      -0.867370       -23.6023
  29   2.0000      -0.854262       -23.2456
  30   2.0000      -0.847407       -23.0591
  31   2.0000      -0.814190       -22.1552
  32   2.0000      -0.789408       -21.4809
  33   2.0000      -0.766967       -20.8702
  34   2.0000      -0.711875       -19.3711
  35   2.0000      -0.697457       -18.9788
  36   2.0000      -0.689039       -18.7497
  37   2.0000      -0.652013       -17.7422
  38   2.0000      -0.644892       -17.5484
  39   2.0000      -0.607510       -16.5312
  40   2.0000      -0.592752       -16.1296
  41   2.0000      -0.576171       -15.6784
  42   2.0000      -0.569756       -15.5039
  43   2.0000      -0.560518       -15.2525
  44   2.0000      -0.532772       -14.4975
  45   2.0000      -0.522429       -14.2160
  46   2.0000      -0.517585       -14.0842
  47   2.0000      -0.514459       -13.9991
  48   2.0000      -0.510933       -13.9032
  49   2.0000      -0.496330       -13.5058
  50   2.0000      -0.487698       -13.2709
  51   2.0000      -0.476434       -12.9644
  52   2.0000      -0.471482       -12.8297
  53   2.0000      -0.461428       -12.5561
  54   2.0000      -0.457260       -12.4427
  55   2.0000      -0.455526       -12.3955
  56   2.0000      -0.452197       -12.3049
  57   2.0000      -0.446044       -12.1375
  58   2.0000      -0.427492       -11.6327
  59   2.0000      -0.423583       -11.5263
  60   2.0000      -0.412497       -11.2246
  61   2.0000      -0.405100       -11.0233
  62   2.0000      -0.404820       -11.0157
  63   2.0000      -0.338342        -9.2068
  64   2.0000      -0.331710        -9.0263
  65   2.0000      -0.318024        -8.6539
  66   2.0000      -0.304183        -8.2772
  67   0.0000       0.049854         1.3566
  68   0.0000       0.057609         1.5676
  69   0.0000       0.111987         3.0473
  70   0.0000       0.122594         3.3359
  71   0.0000       0.127330         3.4648

MULLIKEN ATOMIC CHARGES
-----------------------
   0 S :    0.147194
   1 C :   -0.098416
   2 C :   -0.110018
   3 C :    0.049130
   4 C :   -0.179059
   5 H :    0.008942
   6 C :    0.109431
   7 H :    0.017875
   8 H :    0.042802
   9 C :   -0.109065
  10 H :    0.016094
  11 H :    0.026438
  12 C :   -0.008518
  13 H :    0.024027
  14 H :    0.020025
  15 H :    0.032020
  16 S :    0.106021
  17 C :   -0.127289
  18 C :   -0.006199
  19 C :   -0.034727
  20 C :   -0.189716
  21 H :    0.022656
  22 C :    0.122273
  23 H :    0.006358
  24 H :    0.045587
  25 C :   -0.147914
  26 H :    0.028113
  27 H :    0.045302
  28 C :   -0.003083
  29 H :    0.021998
  30 H :    0.013254
  31 H :    0.015348
  32 H :    0.022684
  33 H :    0.070433
Sum of atomic charges:   -0.0000000

LOEWDIN ATOMIC CHARGES
----------------------
   0 S :    0.447016
   1 C :   -0.201705
   2 C :   -0.053327
   3 C :   -0.049042
   4 C :   -0.222890
   5 H :    0.030676
   6 C :   -0.029029
   7 H :    0.031176
   8 H :    0.034127
   9 C :   -0.047552
  10 H :    0.016510
  11 H :    0.029000
  12 C :   -0.057486
  13 H :    0.019502
  14 H :    0.018764
  15 H :    0.033508
  16 S :    0.401368
  17 C :   -0.179163
  18 C :   -0.067323
  19 C :   -0.054464
  20 C :   -0.216630
  21 H :    0.034159
  22 C :   -0.031067
  23 H :    0.019959
  24 H :    0.040412
  25 C :   -0.055383
  26 H :    0.022064
  27 H :    0.037266
  28 C :   -0.067547
  29 H :    0.028658
  30 H :    0.014946
  31 H :    0.022620
  32 H :    0.016909
  33 H :    0.033967

  Mayer bond orders larger than 0.100000
B(  0-S ,  1-C ) :   1.1218 B(  0-S ,  4-C ) :   1.1862 B(  1-C ,  2-C ) :   1.6260
B(  1-C , 32-H ) :   0.9686 B(  2-C ,  3-C ) :   1.2328 B(  2-C ,  6-C ) :   1.0006
B(  3-C ,  4-C ) :   1.5591 B(  3-C ,  5-H ) :   1.0055 B(  4-C , 20-C ) :   0.9886
B(  6-C ,  7-H ) :   0.9444 B(  6-C ,  8-H ) :   0.9283 B(  6-C ,  9-C ) :   1.0965
B(  9-C , 10-H ) :   0.9467 B(  9-C , 11-H ) :   0.9503 B(  9-C , 12-C ) :   1.0689
B( 12-C , 13-H ) :   0.9757 B( 12-C , 14-H ) :   0.9754 B( 12-C , 15-H ) :   0.9706
B( 16-S , 17-C ) :   1.1437 B( 16-S , 20-C ) :   1.1579 B( 17-C , 18-C ) :   1.6306
B( 17-C , 33-H ) :   0.9632 B( 18-C , 19-C ) :   1.2017 B( 18-C , 21-H ) :   0.9954
B( 19-C , 20-C ) :   1.6087 B( 19-C , 22-C ) :   1.0618 B( 22-C , 23-H ) :   0.9224
B( 22-C , 24-H ) :   0.9298 B( 22-C , 25-C ) :   1.0458 B( 25-C , 26-H ) :   0.9549
B( 25-C , 27-H ) :   0.9591 B( 25-C , 28-C ) :   1.0864 B( 28-C , 29-H ) :   0.9719
B( 28-C , 30-H ) :   0.9728 B( 28-C , 31-H ) :   0.9722

Dispersion correction           -0.014595799
FINAL SINGLE POINT ENERGY     -1339.861108162024

DIPOLE MOMENT
-------------
                                X             Y             Z
Electronic contribution:     -1.20925      -5.90962     -15.15762
Nuclear contribution   :      0.98740       6.13246      15.57038
                        -----------------------------------------
Total Dipole Moment    :     -0.22185       0.22285       0.41276
                        -----------------------------------------
Magnitude (a.u.)       :      0.51889
Magnitude (Debye)      :      1.31892

Rotational constants in cm-1:     0.020738     0.008190     0.006674
Rotational constants in MHz :   621.717214   245.540898   200.068513

                             ****ORCA TERMINATED NORMALLY****
TOTAL RUN TIME: 0 days 0 hours 0 minutes 35 seconds 378 msec
