                         Program Version 4.2.1 -  RELEASE  -
|  1> ! wB97X-D3 SP def2-SVP
|  2> %pal
|  3> nprocs 16
|  4> end
|  5>
|  6> * xyz 0 1
|  7> S 	 -45.375 	 28.4472 	 86.8881
|  8> C 	 -45.7693 	 28.7712 	 85.2425
|  9> C 	 -45.1945 	 27.8509 	 84.3795
| 10> C 	 -44.2892 	 26.9233 	 85.0339
| 11> C 	 -44.2054 	 27.1903 	 86.3533
| 12> H 	 -43.6714 	 26.2287 	 84.5939
| 13> C 	 -45.4128 	 27.8197 	 82.89
| 14> H 	 -44.7773 	 28.6868 	 82.6039
| 15> H 	 -46.4572 	 27.9987 	 82.619
| 16> C 	 -45.1462 	 26.5144 	 82.0916
| 17> H 	 -43.9899 	 26.439 	 81.965
| 18> H 	 -45.401 	 25.6176 	 82.6547
| 19> C 	 -45.87 	 26.4735 	 80.7521
| 20> H 	 -45.4852 	 25.6206 	 80.1588
| 21> H 	 -46.9098 	 26.3803 	 80.9546
| 22> H 	 -45.768 	 27.4146 	 80.2405
| 23> S 	 -43.4235 	 24.831 	 87.5405
| 24> C 	 -42.3188 	 24.9327 	 88.882
| 25> C 	 -41.9849 	 26.2137 	 89.2183
| 26> C 	 -42.5124 	 27.1359 	 88.2935
| 27> C 	 -43.3287 	 26.5571 	 87.372
| 28> H 	 -41.3434 	 26.3607 	 90.0809
| 29> C 	 -42.2189 	 28.6856 	 88.3213
| 30> H 	 -42.511 	 29.0693 	 89.3168
| 31> H 	 -42.9901 	 29.3103 	 87.7764
| 32> C 	 -40.8143 	 29.0518 	 88.0251
| 33> H 	 -40.2261 	 28.5192 	 88.8566
| 34> H 	 -40.5474 	 30.0711 	 88.1617
| 35> C 	 -40.2623 	 28.7088 	 86.6523
| 36> H 	 -39.4457 	 29.3778 	 86.3793
| 37> H 	 -40.9433 	 28.6646 	 85.7885
| 38> H 	 -39.8075 	 27.6721 	 86.6752
| 39> H 	 -46.5289 	 29.4305 	 84.9426
| 40> H 	 -41.8363 	 24.0734 	 89.3215
| 41> *
| 42>
| 43>                          ****END OF INPUT****

CARTESIAN COORDINATES (ANGSTROEM)
---------------------------------
  S    -45.375000   28.447200   86.888100
  C    -45.769300   28.771200   85.242500
  C    -45.194500   27.850900   84.379500
  C    -44.289200   26.923300   85.033900
  C    -44.205400   27.190300   86.353300
  H    -43.671400   26.228700   84.593900
  C    -45.412800   27.819700   82.890000
  H    -44.777300   28.686800   82.603900
  H    -46.457200   27.998700   82.619000
  C    -45.146200   26.514400   82.091600
  H    -43.989900   26.439000   81.965000
  H    -45.401000   25.617600   82.654700
  C    -45.870000   26.473500   80.752100
  H    -45.485200   25.620600   80.158800
  H    -46.909800   26.380300   80.954600
  H    -45.768000   27.414600   80.240500
  S    -43.423500   24.831000   87.540500
  C    -42.318800   24.932700   88.882000
  C    -41.984900   26.213700   89.218300
  C    -42.512400   27.135900   88.293500
  C    -43.328700   26.557100   87.372000
  H    -41.343400   26.360700   90.080900
  C    -42.218900   28.685600   88.321300
  H    -42.511000   29.069300   89.316800
  H    -42.990100   29.310300   87.776400
  C    -40.814300   29.051800   88.025100
  H    -40.226100   28.519200   88.856600
  H    -40.547400   30.071100   88.161700
  C    -40.262300   28.708800   86.652300
  H    -39.445700   29.377800   86.379300
  H    -40.943300   28.664600   85.788500
  H    -39.807500   27.672100   86.675200
  H    -46.528900   29.430500   84.942600
  H    -41.836300   24.073400   89.321500

 Total Charge           Charge          ....    0
 Multiplicity           Mult            ....    1
 Number of Electrons    NEL             ....  134
 Basis Dimension        Dim             ....  322

ORBITAL ENERGIES
----------------

  NO   OCC          E(Eh)            E(eV)
   0   2.0000     -88.965451     -2420.8730
   1   2.0000     -88.963346     -2420.8157
   2   2.0000     -10.328795      -281.0608
   3   2.0000     -10.321054      -280.8501
   4   2.0000     -10.313169      -280.6356
   5   2.0000     -10.306154      -280.4447
   6   2.0000     -10.301996      -280.3316
   7   2.0000     -10.301789      -280.3259
   8   2.0000     -10.294978      -280.1406
   9   2.0000     -10.293535      -280.1013
  10   2.0000     -10.292413      -280.0708
  11   2.0000     -10.291419      -280.0438
  12   2.0000     -10.288735      -279.9707
  13   2.0000     -10.281855      -279.7835
  14   2.0000     -10.278994      -279.7056
  15   2.0000     -10.273138      -279.5463
  16   2.0000      -8.080730      -219.8879
  17   2.0000      -8.077602      -219.8027
  18   2.0000      -6.039063      -164.3313
  19   2.0000      -6.036076      -164.2500
  20   2.0000      -6.035253      -164.2276
  21   2.0000      -6.032331      -164.1481
  22   2.0000      -6.031565      -164.1272
  23   2.0000      -6.028267      -164.0375
  24   2.0000      -1.008778       -27.4502
  25   2.0000      -0.985978       -26.8298
  26   2.0000      -0.909502       -24.7488
  27   2.0000      -0.905328       -24.6352
  28   2.0000      -0.871102       -23.7039
  29   2.0000      -0.852769       -23.2050
  30   2.0000      -0.845282       -23.0013
  31   2.0000      -0.820360       -22.3231
  32   2.0000      -0.781550       -21.2671
  33   2.0000      -0.768618       -20.9152
  34   2.0000      -0.707184       -19.2435
  35   2.0000      -0.691448       -18.8153
  36   2.0000      -0.683688       -18.6041
  37   2.0000      -0.662475       -18.0269
  38   2.0000      -0.643919       -17.5219
  39   2.0000      -0.621299       -16.9064
  40   2.0000      -0.596616       -16.2348
  41   2.0000      -0.569749       -15.5037
  42   2.0000      -0.566149       -15.4057
  43   2.0000      -0.554019       -15.0756
  44   2.0000      -0.535585       -14.5740
  45   2.0000      -0.527510       -14.3543
  46   2.0000      -0.514618       -14.0035
  47   2.0000      -0.510766       -13.8987
  48   2.0000      -0.505035       -13.7427
  49   2.0000      -0.490864       -13.3571
  50   2.0000      -0.488260       -13.2862
  51   2.0000      -0.483015       -13.1435
  52   2.0000      -0.473501       -12.8846
  53   2.0000      -0.465895       -12.6776
  54   2.0000      -0.457820       -12.4579
  55   2.0000      -0.452411       -12.3107
  56   2.0000      -0.446125       -12.1397
  57   2.0000      -0.434637       -11.8271
  58   2.0000      -0.431912       -11.7529
  59   2.0000      -0.422446       -11.4953
  60   2.0000      -0.410715       -11.1761
  61   2.0000      -0.408859       -11.1256
  62   2.0000      -0.397559       -10.8181
  63   2.0000      -0.346978        -9.4418
  64   2.0000      -0.337888        -9.1944
  65   2.0000      -0.322100        -8.7648
  66   2.0000      -0.295341        -8.0366
  67   0.0000       0.035460         0.9649
  68   0.0000       0.074191         2.0188
  69   0.0000       0.108057         2.9404
  70   0.0000       0.119791         3.2597
  71   0.0000       0.130819         3.5598

MULLIKEN ATOMIC CHARGES
-----------------------
   0 S :    0.106188
   1 C :   -0.100835
   2 C :   -0.097158
   3 C :    0.052732
   4 C :   -0.126479
   5 H :   -0.015805
   6 C :    0.033738
   7 H :    0.059207
   8 H :    0.022474
   9 C :   -0.125605
  10 H :    0.037373
  11 H :    0.036798
  12 C :   -0.024860
  13 H :    0.047669
  14 H :    0.030132
  15 H :    0.031135
  16 S :    0.117290
  17 C :   -0.095883
  18 C :   -0.044347
  19 C :   -0.011709
  20 C :   -0.169569
  21 H :    0.024412
  22 C :    0.062657
  23 H :    0.021105
  24 H :    0.029323
  25 C :   -0.062993
  26 H :    0.027042
  27 H :    0.020568
  28 C :   -0.067575
  29 H :    0.029474
  30 H :    0.038326
  31 H :    0.035295
  32 H :    0.027327
  33 H :    0.052554
Sum of atomic charges:    0.0000000

LOEWDIN ATOMIC CHARGES
----------------------
   0 S :    0.402309
   1 C :   -0.203615
   2 C :   -0.056600
   3 C :   -0.054796
   4 C :   -0.161679
   5 H :    0.020732
   6 C :   -0.043904
   7 H :    0.045469
   8 H :    0.028481
   9 C :   -0.049823
  10 H :    0.027142
  11 H :    0.023212
  12 C :   -0.060966
  13 H :    0.035489
  14 H :    0.022015
  15 H :    0.024173
  16 S :    0.413070
  17 C :   -0.182089
  18 C :   -0.069829
  19 C :   -0.056736
  20 C :   -0.205142
  21 H :    0.036000
  22 C :   -0.043005
  23 H :    0.032696
  24 H :    0.022996
  25 C :   -0.051786
  26 H :    0.030846
  27 H :    0.021184
  28 C :   -0.075580
  29 H :    0.024986
  30 H :    0.027816
  31 H :    0.032185
  32 H :    0.018024
  33 H :    0.026726

  Mayer bond orders larger than 0.100000
B(  0-S ,  1-C ) :   1.1252 B(  0-S ,  4-C ) :   1.1377 B(  1-C ,  2-C ) :   1.6447
B(  1-C , 32-H ) :   0.9762 B(  2-C ,  3-C ) :   1.1965 B(  2-C ,  6-C ) :   1.0072
B(  3-C ,  4-C ) :   1.6128 B(  3-C ,  5-H ) :   1.0102 B(  4-C , 20-C ) :   1.0003
B(  6-C ,  7-H ) :   0.9309 B(  6-C ,  8-H ) :   0.9516 B(  6-C ,  9-C ) :   1.0625
B(  9-C , 10-H ) :   0.9472 B(  9-C , 11-H ) :   0.9599 B(  9-C , 12-C ) :   1.0867
B( 12-C , 13-H ) :   0.9711 B( 12-C , 14-H ) :   0.9712 B( 12-C , 15-H ) :   0.9752
B( 16-S , 17-C ) :   1.1553 B( 16-S , 20-C ) :   1.1463 B( 17-C , 18-C ) :   1.6235
B( 17-C , 33-H ) :   0.9652 B( 18-C , 19-C ) :   1.2282 B( 18-C , 21-H ) :   0.9929
B( 19-C , 20-C ) :   1.6188 B( 19-C , 22-C ) :   1.0164 B( 22-C , 23-H ) :   0.9351
B( 22-C , 24-H ) :   0.9280 B( 22-C , 25-C ) :   1.0846 B( 25-C , 26-H ) :   0.9547
B( 25-C , 27-H ) :   0.9581 B( 25-C , 28-C ) :   1.0624 B( 28-C , 29-H ) :   0.9784
B( 28-C , 30-H ) :   0.9780 B( 28-C , 31-H ) :   0.9737

Dispersion correction           -0.014555452
FINAL SINGLE POINT ENERGY     -1339.872195001392

DIPOLE MOMENT
-------------
                                X             Y             Z
Electronic contribution:     -7.80784      -7.10606      17.58252
Nuclear contribution   :      7.98713       7.19666     -17.88356
                        -----------------------------------------
Total Dipole Moment    :      0.17929       0.09060      -0.30104
                        -----------------------------------------
Magnitude (a.u.)       :      0.36191
Magnitude (Debye)      :      0.91989

Rotational constants in cm-1:     0.020453     0.007833     0.007189
Rotational constants in MHz :   613.172127   234.829066   215.509465

                             ****ORCA TERMINATED NORMALLY****
TOTAL RUN TIME: 0 days 0 hours 0 minutes 31 seconds 623 msec
