                         Program Version 4.2.1 -  RELEASE  -
|  1> ! wB97X-D3 SP def2-SVP
|  2> %pal
|  3> nprocs 16
|  4> end
|  5>
|  6> * xyz 0 1
|  7> S 	 -59.6833 	 49.6599 	 135.595
|  8> C 	 -58.8152 	 49.2845 	 134.072
|  9> C 	 -57.5485 	 49.695 	 134.112
| 10> C 	 -57.1922 	 50.2195 	 135.363
| 11> C 	 -58.2359 	 50.38 	 136.22
| 12> H 	 -56.1898 	 50.4417 	 135.733
| 13> C 	 -56.5415 	 49.4961 	 132.973
| 14> H 	 -57.0602 	 48.9448 	 132.233
| 15> H 	 -55.8661 	 48.7484 	 133.345
| 16> C 	 -55.8481 	 50.7198 	 132.43
| 17> H 	 -56.6253 	 51.4704 	 132.134
| 18> H 	 -55.1491 	 51.1383 	 133.127
| 19> C 	 -54.943 	 50.3862 	 131.196
| 20> H 	 -55.4698 	 49.6637 	 130.475
| 21> H 	 -54.6143 	 51.2055 	 130.677
| 22> H 	 -54.1215 	 49.8186 	 131.516
| 23> S 	 -58.9775 	 49.7367 	 138.818
| 24> C 	 -58.4377 	 50.8242 	 140.056
| 25> C 	 -57.799 	 51.9307 	 139.579
| 26> C 	 -57.514 	 51.9234 	 138.157
| 27> C 	 -58.1614 	 50.8331 	 137.607
| 28> H 	 -57.4593 	 52.5728 	 140.313
| 29> C 	 -56.7664 	 53.0148 	 137.451
| 30> H 	 -56.1902 	 52.5919 	 136.576
| 31> H 	 -55.9623 	 53.3732 	 138.079
| 32> C 	 -57.6988 	 54.1444 	 137.148
| 33> H 	 -56.9446 	 54.9275 	 136.827
| 34> H 	 -58.1925 	 54.7009 	 138.029
| 35> C 	 -58.7254 	 53.8573 	 136.07
| 36> H 	 -59.5219 	 53.0944 	 136.401
| 37> H 	 -58.3284 	 53.4472 	 135.196
| 38> H 	 -59.2155 	 54.8085 	 135.787
| 39> H 	 -59.1985 	 48.5971 	 133.307
| 40> H 	 -58.4528 	 50.7267 	 141.132
| 41> *
| 42>
| 43>                          ****END OF INPUT****

CARTESIAN COORDINATES (ANGSTROEM)
---------------------------------
  S    -59.683300   49.659900  135.595000
  C    -58.815200   49.284500  134.072000
  C    -57.548500   49.695000  134.112000
  C    -57.192200   50.219500  135.363000
  C    -58.235900   50.380000  136.220000
  H    -56.189800   50.441700  135.733000
  C    -56.541500   49.496100  132.973000
  H    -57.060200   48.944800  132.233000
  H    -55.866100   48.748400  133.345000
  C    -55.848100   50.719800  132.430000
  H    -56.625300   51.470400  132.134000
  H    -55.149100   51.138300  133.127000
  C    -54.943000   50.386200  131.196000
  H    -55.469800   49.663700  130.475000
  H    -54.614300   51.205500  130.677000
  H    -54.121500   49.818600  131.516000
  S    -58.977500   49.736700  138.818000
  C    -58.437700   50.824200  140.056000
  C    -57.799000   51.930700  139.579000
  C    -57.514000   51.923400  138.157000
  C    -58.161400   50.833100  137.607000
  H    -57.459300   52.572800  140.313000
  C    -56.766400   53.014800  137.451000
  H    -56.190200   52.591900  136.576000
  H    -55.962300   53.373200  138.079000
  C    -57.698800   54.144400  137.148000
  H    -56.944600   54.927500  136.827000
  H    -58.192500   54.700900  138.029000
  C    -58.725400   53.857300  136.070000
  H    -59.521900   53.094400  136.401000
  H    -58.328400   53.447200  135.196000
  H    -59.215500   54.808500  135.787000
  H    -59.198500   48.597100  133.307000
  H    -58.452800   50.726700  141.132000

 Total Charge           Charge          ....    0
 Multiplicity           Mult            ....    1
 Number of Electrons    NEL             ....  134
 Basis Dimension        Dim             ....  322

ORBITAL ENERGIES
----------------

  NO   OCC          E(Eh)            E(eV)
   0   2.0000     -88.965632     -2420.8779
   1   2.0000     -88.962352     -2420.7887
   2   2.0000     -10.328509      -281.0530
   3   2.0000     -10.323212      -280.9089
   4   2.0000     -10.310992      -280.5764
   5   2.0000     -10.308933      -280.5203
   6   2.0000     -10.305695      -280.4322
   7   2.0000     -10.296063      -280.1701
   8   2.0000     -10.293498      -280.1003
   9   2.0000     -10.293439      -280.0987
  10   2.0000     -10.291265      -280.0396
  11   2.0000     -10.287230      -279.9298
  12   2.0000     -10.285899      -279.8935
  13   2.0000     -10.284867      -279.8655
  14   2.0000     -10.275693      -279.6158
  15   2.0000     -10.272064      -279.5171
  16   2.0000      -8.079509      -219.8546
  17   2.0000      -8.076999      -219.7863
  18   2.0000      -6.038178      -164.3072
  19   2.0000      -6.035546      -164.2356
  20   2.0000      -6.034324      -164.2023
  21   2.0000      -6.031698      -164.1308
  22   2.0000      -6.029960      -164.0836
  23   2.0000      -6.027550      -164.0180
  24   2.0000      -1.007516       -27.4159
  25   2.0000      -0.982841       -26.7445
  26   2.0000      -0.915818       -24.9207
  27   2.0000      -0.913740       -24.8641
  28   2.0000      -0.870596       -23.6901
  29   2.0000      -0.849160       -23.1068
  30   2.0000      -0.841134       -22.8884
  31   2.0000      -0.815474       -22.1902
  32   2.0000      -0.789367       -21.4798
  33   2.0000      -0.778260       -21.1775
  34   2.0000      -0.712033       -19.3754
  35   2.0000      -0.697635       -18.9836
  36   2.0000      -0.689549       -18.7636
  37   2.0000      -0.656055       -17.8522
  38   2.0000      -0.639842       -17.4110
  39   2.0000      -0.621121       -16.9016
  40   2.0000      -0.597752       -16.2656
  41   2.0000      -0.571782       -15.5590
  42   2.0000      -0.562089       -15.2952
  43   2.0000      -0.553409       -15.0590
  44   2.0000      -0.535809       -14.5801
  45   2.0000      -0.525791       -14.3075
  46   2.0000      -0.519557       -14.1379
  47   2.0000      -0.512385       -13.9427
  48   2.0000      -0.505047       -13.7430
  49   2.0000      -0.493129       -13.4187
  50   2.0000      -0.491523       -13.3750
  51   2.0000      -0.472905       -12.8684
  52   2.0000      -0.471274       -12.8240
  53   2.0000      -0.464668       -12.6443
  54   2.0000      -0.458363       -12.4727
  55   2.0000      -0.448648       -12.2083
  56   2.0000      -0.443547       -12.0695
  57   2.0000      -0.442687       -12.0461
  58   2.0000      -0.435583       -11.8528
  59   2.0000      -0.424417       -11.5490
  60   2.0000      -0.423158       -11.5147
  61   2.0000      -0.416756       -11.3405
  62   2.0000      -0.401226       -10.9179
  63   2.0000      -0.348123        -9.4729
  64   2.0000      -0.332709        -9.0535
  65   2.0000      -0.330332        -8.9888
  66   2.0000      -0.289210        -7.8698
  67   0.0000       0.031695         0.8625
  68   0.0000       0.073017         1.9869
  69   0.0000       0.105392         2.8679
  70   0.0000       0.121016         3.2930
  71   0.0000       0.130878         3.5614

MULLIKEN ATOMIC CHARGES
-----------------------
   0 S :    0.087479
   1 C :   -0.146734
   2 C :   -0.071485
   3 C :    0.004015
   4 C :   -0.138287
   5 H :    0.018020
   6 C :    0.112459
   7 H :   -0.011397
   8 H :    0.023191
   9 C :   -0.071940
  10 H :    0.045649
  11 H :    0.029050
  12 C :   -0.026975
  13 H :    0.027938
  14 H :    0.024100
  15 H :    0.016456
  16 S :    0.104080
  17 C :   -0.071509
  18 C :   -0.022128
  19 C :   -0.034638
  20 C :   -0.165458
  21 H :   -0.015861
  22 C :    0.094649
  23 H :    0.031629
  24 H :    0.017494
  25 C :   -0.115271
  26 H :    0.028992
  27 H :    0.048082
  28 C :   -0.028111
  29 H :    0.054785
  30 H :    0.017599
  31 H :    0.034762
  32 H :    0.052759
  33 H :    0.046604
Sum of atomic charges:   -0.0000000

LOEWDIN ATOMIC CHARGES
----------------------
   0 S :    0.381321
   1 C :   -0.187719
   2 C :   -0.064079
   3 C :   -0.071748
   4 C :   -0.189637
   5 H :    0.031301
   6 C :   -0.026663
   7 H :    0.022043
   8 H :    0.031713
   9 C :   -0.035794
  10 H :    0.032436
  11 H :    0.022095
  12 C :   -0.055934
  13 H :    0.030981
  14 H :    0.013604
  15 H :    0.017666
  16 S :    0.372772
  17 C :   -0.186482
  18 C :   -0.064751
  19 C :   -0.045159
  20 C :   -0.173548
  21 H :    0.016966
  22 C :   -0.037036
  23 H :    0.038697
  24 H :    0.032086
  25 C :   -0.050991
  26 H :    0.028429
  27 H :    0.036659
  28 C :   -0.067678
  29 H :    0.038187
  30 H :    0.015618
  31 H :    0.030123
  32 H :    0.032576
  33 H :    0.031945

  Mayer bond orders larger than 0.100000
B(  0-S ,  1-C ) :   1.1044 B(  0-S ,  4-C ) :   1.1403 B(  1-C ,  2-C ) :   1.6667
B(  1-C , 32-H ) :   0.9599 B(  2-C ,  3-C ) :   1.2133 B(  2-C ,  6-C ) :   1.0130
B(  3-C ,  4-C ) :   1.6068 B(  3-C ,  5-H ) :   0.9898 B(  4-C , 20-C ) :   1.0423
B(  6-C ,  7-H ) :   0.9320 B(  6-C ,  8-H ) :   0.9301 B(  6-C ,  9-C ) :   1.0656
B(  9-C , 10-H ) :   0.9582 B(  9-C , 11-H ) :   0.9535 B(  9-C , 12-C ) :   1.0804
B( 12-C , 13-H ) :   0.9763 B( 12-C , 14-H ) :   0.9764 B( 12-C , 15-H ) :   0.9750
B( 16-S , 17-C ) :   1.1226 B( 16-S , 20-C ) :   1.1120 B( 17-C , 18-C ) :   1.6883
B( 17-C , 33-H ) :   0.9611 B( 18-C , 19-C ) :   1.1772 B( 18-C , 21-H ) :   0.9910
B( 19-C , 20-C ) :   1.6388 B( 19-C , 22-C ) :   1.0472 B( 22-C , 23-H ) :   0.9298
B( 22-C , 24-H ) :   0.9194 B( 22-C , 25-C ) :   1.0793 B( 25-C , 26-H ) :   0.9498
B( 25-C , 27-H ) :   0.9528 B( 25-C , 28-C ) :   1.0803 B( 28-C , 29-H ) :   0.9672
B( 28-C , 30-H ) :   0.9720 B( 28-C , 31-H ) :   0.9704

Dispersion correction           -0.015191232
FINAL SINGLE POINT ENERGY     -1339.865881039955

DIPOLE MOMENT
-------------
                                X             Y             Z
Electronic contribution:    -15.70167     -13.89364      18.73546
Nuclear contribution   :     16.45510      14.17953     -18.90053
                        -----------------------------------------
Total Dipole Moment    :      0.75344       0.28590      -0.16507
                        -----------------------------------------
Magnitude (a.u.)       :      0.82259
Magnitude (Debye)      :      2.09085

Rotational constants in cm-1:     0.020794     0.008654     0.007160
Rotational constants in MHz :   623.395535   259.450296   214.637054

                             ****ORCA TERMINATED NORMALLY****
TOTAL RUN TIME: 0 days 0 hours 0 minutes 34 seconds 216 msec
