                         Program Version 4.2.1 -  RELEASE  -
|  1> ! wB97X-D3 SP def2-SVP
|  2> %pal
|  3> nprocs 16
|  4> end
|  5>
|  6> * xyz 0 1
|  7> S 	 32.3961 	 16.589 	 48.7371
|  8> C 	 32.5798 	 17.9346 	 49.8364
|  9> C 	 33.0958 	 17.6136 	 51.0219
| 10> C 	 33.4647 	 16.2549 	 51.0212
| 11> C 	 33.0945 	 15.5727 	 49.9432
| 12> H 	 33.9981 	 15.7468 	 51.8276
| 13> C 	 33.5705 	 18.4823 	 52.1068
| 14> H 	 33.455 	 17.9325 	 53.025
| 15> H 	 32.989 	 19.4028 	 52.0743
| 16> C 	 34.9944 	 18.9205 	 51.7789
| 17> H 	 35.7017 	 18.087 	 51.6065
| 18> H 	 34.9291 	 19.3887 	 50.791
| 19> C 	 35.4876 	 19.8733 	 52.8707
| 20> H 	 35.5105 	 19.4259 	 53.8285
| 21> H 	 36.5013 	 20.128 	 52.572
| 22> H 	 35.0132 	 20.8894 	 52.9512
| 23> S 	 31.8633 	 13.3246 	 49.2605
| 24> C 	 32.6436 	 11.7093 	 49.2507
| 25> C 	 33.8504 	 11.8157 	 49.9207
| 26> C 	 34.2248 	 13.2442 	 50.1619
| 27> C 	 33.2723 	 14.1733 	 49.7583
| 28> H 	 34.4158 	 10.8567 	 50.0212
| 29> C 	 35.6105 	 13.5571 	 50.738
| 30> H 	 35.9033 	 12.745 	 51.4152
| 31> H 	 35.6844 	 14.4189 	 51.4464
| 32> C 	 36.813 	 13.6573 	 49.8075
| 33> H 	 36.7738 	 12.7534 	 49.2441
| 34> H 	 37.7639 	 13.6523 	 50.2871
| 35> C 	 36.6256 	 14.7906 	 48.7922
| 36> H 	 37.0292 	 15.6991 	 49.2436
| 37> H 	 35.5629 	 15.021 	 48.5973
| 38> H 	 37.1524 	 14.5249 	 47.8853
| 39> H 	 32.3703 	 18.9028 	 49.5578
| 40> H 	 32.1596 	 10.7954 	 48.9187
| 41> *
| 42>
| 43>                          ****END OF INPUT****

CARTESIAN COORDINATES (ANGSTROEM)
---------------------------------
  S     32.396100   16.589000   48.737100
  C     32.579800   17.934600   49.836400
  C     33.095800   17.613600   51.021900
  C     33.464700   16.254900   51.021200
  C     33.094500   15.572700   49.943200
  H     33.998100   15.746800   51.827600
  C     33.570500   18.482300   52.106800
  H     33.455000   17.932500   53.025000
  H     32.989000   19.402800   52.074300
  C     34.994400   18.920500   51.778900
  H     35.701700   18.087000   51.606500
  H     34.929100   19.388700   50.791000
  C     35.487600   19.873300   52.870700
  H     35.510500   19.425900   53.828500
  H     36.501300   20.128000   52.572000
  H     35.013200   20.889400   52.951200
  S     31.863300   13.324600   49.260500
  C     32.643600   11.709300   49.250700
  C     33.850400   11.815700   49.920700
  C     34.224800   13.244200   50.161900
  C     33.272300   14.173300   49.758300
  H     34.415800   10.856700   50.021200
  C     35.610500   13.557100   50.738000
  H     35.903300   12.745000   51.415200
  H     35.684400   14.418900   51.446400
  C     36.813000   13.657300   49.807500
  H     36.773800   12.753400   49.244100
  H     37.763900   13.652300   50.287100
  C     36.625600   14.790600   48.792200
  H     37.029200   15.699100   49.243600
  H     35.562900   15.021000   48.597300
  H     37.152400   14.524900   47.885300
  H     32.370300   18.902800   49.557800
  H     32.159600   10.795400   48.918700

 Total Charge           Charge          ....    0
 Multiplicity           Mult            ....    1
 Number of Electrons    NEL             ....  134
 Basis Dimension        Dim             ....  322

ORBITAL ENERGIES
----------------

  NO   OCC          E(Eh)            E(eV)
   0   2.0000     -88.966179     -2420.8928
   1   2.0000     -88.958559     -2420.6855
   2   2.0000     -10.325751      -280.9780
   3   2.0000     -10.321566      -280.8641
   4   2.0000     -10.319197      -280.7996
   5   2.0000     -10.313375      -280.6412
   6   2.0000     -10.306743      -280.4607
   7   2.0000     -10.303065      -280.3607
   8   2.0000     -10.291579      -280.0481
   9   2.0000     -10.290945      -280.0308
  10   2.0000     -10.288679      -279.9692
  11   2.0000     -10.287757      -279.9441
  12   2.0000     -10.283993      -279.8417
  13   2.0000     -10.279398      -279.7166
  14   2.0000     -10.274187      -279.5749
  15   2.0000     -10.266582      -279.3679
  16   2.0000      -8.081638      -219.9125
  17   2.0000      -8.073734      -219.6975
  18   2.0000      -6.040163      -164.3612
  19   2.0000      -6.036203      -164.2534
  20   2.0000      -6.032461      -164.1516
  21   2.0000      -6.032173      -164.1438
  22   2.0000      -6.028083      -164.0325
  23   2.0000      -6.024294      -163.9294
  24   2.0000      -1.020313       -27.7641
  25   2.0000      -0.986322       -26.8392
  26   2.0000      -0.924978       -25.1699
  27   2.0000      -0.905984       -24.6531
  28   2.0000      -0.877978       -23.8910
  29   2.0000      -0.855632       -23.2829
  30   2.0000      -0.836384       -22.7592
  31   2.0000      -0.819949       -22.3120
  32   2.0000      -0.784314       -21.3423
  33   2.0000      -0.772048       -21.0085
  34   2.0000      -0.711166       -19.3518
  35   2.0000      -0.706945       -19.2369
  36   2.0000      -0.689719       -18.7682
  37   2.0000      -0.662251       -18.0208
  38   2.0000      -0.644891       -17.5484
  39   2.0000      -0.629294       -17.1240
  40   2.0000      -0.594275       -16.1710
  41   2.0000      -0.576096       -15.6764
  42   2.0000      -0.562880       -15.3168
  43   2.0000      -0.550452       -14.9786
  44   2.0000      -0.538296       -14.6478
  45   2.0000      -0.531662       -14.4673
  46   2.0000      -0.518290       -14.1034
  47   2.0000      -0.516838       -14.0639
  48   2.0000      -0.506375       -13.7792
  49   2.0000      -0.502030       -13.6609
  50   2.0000      -0.498497       -13.5648
  51   2.0000      -0.475895       -12.9497
  52   2.0000      -0.470372       -12.7995
  53   2.0000      -0.466594       -12.6967
  54   2.0000      -0.458691       -12.4816
  55   2.0000      -0.452945       -12.3253
  56   2.0000      -0.442880       -12.0514
  57   2.0000      -0.440457       -11.9854
  58   2.0000      -0.427476       -11.6322
  59   2.0000      -0.424191       -11.5428
  60   2.0000      -0.421069       -11.4579
  61   2.0000      -0.409084       -11.1318
  62   2.0000      -0.403716       -10.9857
  63   2.0000      -0.355919        -9.6850
  64   2.0000      -0.333143        -9.0653
  65   2.0000      -0.323693        -8.8081
  66   2.0000      -0.294678        -8.0186
  67   0.0000       0.030496         0.8298
  68   0.0000       0.078390         2.1331
  69   0.0000       0.103750         2.8232
  70   0.0000       0.114791         3.1236
  71   0.0000       0.138397         3.7660

MULLIKEN ATOMIC CHARGES
-----------------------
   0 S :    0.123135
   1 C :   -0.100587
   2 C :   -0.048727
   3 C :   -0.021238
   4 C :   -0.127581
   5 H :    0.009627
   6 C :    0.096325
   7 H :    0.026929
   8 H :    0.018626
   9 C :   -0.100390
  10 H :    0.034122
  11 H :    0.023747
  12 C :   -0.017278
  13 H :    0.028423
  14 H :    0.024456
  15 H :    0.039471
  16 S :    0.075275
  17 C :   -0.104903
  18 C :   -0.038610
  19 C :   -0.053229
  20 C :   -0.098361
  21 H :    0.047154
  22 C :    0.011190
  23 H :    0.016355
  24 H :    0.019158
  25 C :   -0.027072
  26 H :    0.003389
  27 H :    0.024063
  28 C :   -0.048949
  29 H :    0.021149
  30 H :    0.041686
  31 H :    0.032797
  32 H :    0.003964
  33 H :    0.065886
Sum of atomic charges:    0.0000000

LOEWDIN ATOMIC CHARGES
----------------------
   0 S :    0.411597
   1 C :   -0.175616
   2 C :   -0.063235
   3 C :   -0.054236
   4 C :   -0.207799
   5 H :    0.032159
   6 C :   -0.027046
   7 H :    0.029246
   8 H :    0.032722
   9 C :   -0.035711
  10 H :    0.026622
  11 H :    0.027311
  12 C :   -0.067388
  13 H :    0.019967
  14 H :    0.026579
  15 H :    0.032465
  16 S :    0.393122
  17 C :   -0.175295
  18 C :   -0.071477
  19 C :   -0.061965
  20 C :   -0.198834
  21 H :    0.043435
  22 C :   -0.043585
  23 H :    0.031607
  24 H :    0.024034
  25 C :   -0.037691
  26 H :    0.016305
  27 H :    0.021061
  28 C :   -0.064712
  29 H :    0.021658
  30 H :    0.030026
  31 H :    0.024078
  32 H :    0.008427
  33 H :    0.032174

  Mayer bond orders larger than 0.100000
B(  0-S ,  1-C ) :   1.1205 B(  0-S ,  4-C ) :   1.1301 B(  1-C ,  2-C ) :   1.6410
B(  1-C , 32-H ) :   0.9737 B(  2-C ,  3-C ) :   1.2076 B(  2-C ,  6-C ) :   1.0439
B(  3-C ,  4-C ) :   1.6198 B(  3-C ,  5-H ) :   0.9947 B(  4-C , 20-C ) :   1.0324
B(  6-C ,  7-H ) :   0.9311 B(  6-C ,  8-H ) :   0.9309 B(  6-C ,  9-C ) :   1.0655
B(  9-C , 10-H ) :   0.9563 B(  9-C , 11-H ) :   0.9512 B(  9-C , 12-C ) :   1.0809
B( 12-C , 13-H ) :   0.9737 B( 12-C , 14-H ) :   0.9708 B( 12-C , 15-H ) :   0.9734
B( 16-S , 17-C ) :   1.1306 B( 16-S , 20-C ) :   1.1412 B( 17-C , 18-C ) :   1.6421
B( 17-C , 33-H ) :   0.9696 B( 18-C , 19-C ) :   1.1951 B( 18-C , 21-H ) :   0.9825
B( 19-C , 20-C ) :   1.6129 B( 19-C , 22-C ) :   1.0457 B( 22-C , 23-H ) :   0.9291
B( 22-C , 24-H ) :   0.9437 B( 22-C , 25-C ) :   1.0814 B( 25-C , 26-H ) :   0.9524
B( 25-C , 27-H ) :   0.9548 B( 25-C , 28-C ) :   1.0710 B( 28-C , 29-H ) :   0.9763
B( 28-C , 30-H ) :   0.9766 B( 28-C , 31-H ) :   0.9763

Dispersion correction           -0.015128908
FINAL SINGLE POINT ENERGY     -1339.864682358488

DIPOLE MOMENT
-------------
                                X             Y             Z
Electronic contribution:    -23.11914     -11.64668     -11.57377
Nuclear contribution   :     23.68560      11.78571      12.02653
                        -----------------------------------------
Total Dipole Moment    :      0.56646       0.13903       0.45275
                        -----------------------------------------
Magnitude (a.u.)       :      0.73837
Magnitude (Debye)      :      1.87680

Rotational constants in cm-1:     0.020593     0.009144     0.007322
Rotational constants in MHz :   617.376253   274.134895   219.520288

                             ****ORCA TERMINATED NORMALLY****
TOTAL RUN TIME: 0 days 0 hours 0 minutes 36 seconds 929 msec
