                         Program Version 4.2.1 -  RELEASE  -
|  1> ! wB97X-D3 SP def2-SVP
|  2> %pal
|  3> nprocs 16
|  4> end
|  5>
|  6> * xyz 0 1
|  7> S 	 -36.2758 	 32.9487 	 42.3426
|  8> C 	 -36.9342 	 32.4049 	 43.9083
|  9> C 	 -35.9291 	 31.8836 	 44.6707
| 10> C 	 -34.6601 	 31.9398 	 44.113
| 11> C 	 -34.7286 	 32.2503 	 42.7944
| 12> H 	 -33.7157 	 31.6007 	 44.5561
| 13> C 	 -36.1427 	 31.3327 	 46.08
| 14> H 	 -37.1285 	 31.6254 	 46.4987
| 15> H 	 -35.3168 	 31.6603 	 46.6108
| 16> C 	 -36.0969 	 29.835 	 46.3446
| 17> H 	 -36.8857 	 29.3507 	 45.6583
| 18> H 	 -35.18 	 29.2948 	 46.0627
| 19> C 	 -36.3701 	 29.4925 	 47.8402
| 20> H 	 -35.605 	 29.9197 	 48.4879
| 21> H 	 -37.2323 	 29.9581 	 48.3105
| 22> H 	 -36.3178 	 28.3981 	 48.021
| 23> S 	 -33.9253 	 33.241 	 40.3771
| 24> C 	 -32.3413 	 32.8813 	 39.7607
| 25> C 	 -31.6474 	 32.0292 	 40.5657
| 26> C 	 -32.365 	 31.6621 	 41.7372
| 27> C 	 -33.6137 	 32.3616 	 41.8471
| 28> H 	 -30.6183 	 31.85 	 40.4604
| 29> C 	 -31.7951 	 30.574 	 42.7765
| 30> H 	 -31.5185 	 29.6391 	 42.3085
| 31> H 	 -32.4393 	 30.2539 	 43.6078
| 32> C 	 -30.5373 	 30.9838 	 43.5421
| 33> H 	 -29.8357 	 31.5234 	 42.9095
| 34> H 	 -30.0297 	 30.1131 	 43.8113
| 35> C 	 -30.8943 	 31.8373 	 44.7434
| 36> H 	 -31.6187 	 32.6137 	 44.5863
| 37> H 	 -29.9766 	 32.3845 	 45.0261
| 38> H 	 -31.1734 	 31.1942 	 45.6321
| 39> H 	 -38.0127 	 32.4582 	 44.2634
| 40> H 	 -32.0245 	 33.4815 	 38.9378
| 41> *
| 42>
| 43>                          ****END OF INPUT****

CARTESIAN COORDINATES (ANGSTROEM)
---------------------------------
  S    -36.275800   32.948700   42.342600
  C    -36.934200   32.404900   43.908300
  C    -35.929100   31.883600   44.670700
  C    -34.660100   31.939800   44.113000
  C    -34.728600   32.250300   42.794400
  H    -33.715700   31.600700   44.556100
  C    -36.142700   31.332700   46.080000
  H    -37.128500   31.625400   46.498700
  H    -35.316800   31.660300   46.610800
  C    -36.096900   29.835000   46.344600
  H    -36.885700   29.350700   45.658300
  H    -35.180000   29.294800   46.062700
  C    -36.370100   29.492500   47.840200
  H    -35.605000   29.919700   48.487900
  H    -37.232300   29.958100   48.310500
  H    -36.317800   28.398100   48.021000
  S    -33.925300   33.241000   40.377100
  C    -32.341300   32.881300   39.760700
  C    -31.647400   32.029200   40.565700
  C    -32.365000   31.662100   41.737200
  C    -33.613700   32.361600   41.847100
  H    -30.618300   31.850000   40.460400
  C    -31.795100   30.574000   42.776500
  H    -31.518500   29.639100   42.308500
  H    -32.439300   30.253900   43.607800
  C    -30.537300   30.983800   43.542100
  H    -29.835700   31.523400   42.909500
  H    -30.029700   30.113100   43.811300
  C    -30.894300   31.837300   44.743400
  H    -31.618700   32.613700   44.586300
  H    -29.976600   32.384500   45.026100
  H    -31.173400   31.194200   45.632100
  H    -38.012700   32.458200   44.263400
  H    -32.024500   33.481500   38.937800

 Total Charge           Charge          ....    0
 Multiplicity           Mult            ....    1
 Number of Electrons    NEL             ....  134
 Basis Dimension        Dim             ....  322

ORBITAL ENERGIES
----------------

  NO   OCC          E(Eh)            E(eV)
   0   2.0000     -88.966426     -2420.8995
   1   2.0000     -88.965917     -2420.8857
   2   2.0000     -10.332886      -281.1721
   3   2.0000     -10.329730      -281.0862
   4   2.0000     -10.316740      -280.7328
   5   2.0000     -10.316697      -280.7316
   6   2.0000     -10.316524      -280.7269
   7   2.0000     -10.298337      -280.2320
   8   2.0000     -10.296279      -280.1760
   9   2.0000     -10.294140      -280.1178
  10   2.0000     -10.294128      -280.1175
  11   2.0000     -10.288449      -279.9629
  12   2.0000     -10.287830      -279.9461
  13   2.0000     -10.282568      -279.8029
  14   2.0000     -10.281137      -279.7640
  15   2.0000     -10.280601      -279.7494
  16   2.0000      -8.081439      -219.9071
  17   2.0000      -8.080663      -219.8860
  18   2.0000      -6.039877      -164.3534
  19   2.0000      -6.039361      -164.3394
  20   2.0000      -6.035812      -164.2428
  21   2.0000      -6.035454      -164.2331
  22   2.0000      -6.032284      -164.1468
  23   2.0000      -6.031051      -164.1132
  24   2.0000      -1.011334       -27.5198
  25   2.0000      -0.987889       -26.8818
  26   2.0000      -0.913400       -24.8549
  27   2.0000      -0.910885       -24.7864
  28   2.0000      -0.871059       -23.7027
  29   2.0000      -0.853002       -23.2114
  30   2.0000      -0.844664       -22.9845
  31   2.0000      -0.814720       -22.1697
  32   2.0000      -0.785056       -21.3624
  33   2.0000      -0.774076       -21.0637
  34   2.0000      -0.707041       -19.2396
  35   2.0000      -0.697647       -18.9839
  36   2.0000      -0.695861       -18.9353
  37   2.0000      -0.662231       -18.0202
  38   2.0000      -0.634891       -17.2763
  39   2.0000      -0.626774       -17.0554
  40   2.0000      -0.609731       -16.5916
  41   2.0000      -0.569159       -15.4876
  42   2.0000      -0.562058       -15.2944
  43   2.0000      -0.554901       -15.0996
  44   2.0000      -0.544456       -14.8154
  45   2.0000      -0.521204       -14.1827
  46   2.0000      -0.518273       -14.1029
  47   2.0000      -0.506962       -13.7951
  48   2.0000      -0.502096       -13.6627
  49   2.0000      -0.495017       -13.4701
  50   2.0000      -0.493460       -13.4277
  51   2.0000      -0.478480       -13.0201
  52   2.0000      -0.475467       -12.9381
  53   2.0000      -0.468829       -12.7575
  54   2.0000      -0.465470       -12.6661
  55   2.0000      -0.454901       -12.3785
  56   2.0000      -0.449681       -12.2365
  57   2.0000      -0.438167       -11.9231
  58   2.0000      -0.425938       -11.5904
  59   2.0000      -0.423632       -11.5276
  60   2.0000      -0.420967       -11.4551
  61   2.0000      -0.415637       -11.3101
  62   2.0000      -0.408108       -11.1052
  63   2.0000      -0.361627        -9.8404
  64   2.0000      -0.340526        -9.2662
  65   2.0000      -0.328199        -8.9307
  66   2.0000      -0.281352        -7.6560
  67   0.0000       0.016860         0.4588
  68   0.0000       0.082337         2.2405
  69   0.0000       0.089551         2.4368
  70   0.0000       0.116271         3.1639
  71   0.0000       0.134324         3.6551

MULLIKEN ATOMIC CHARGES
-----------------------
   0 S :    0.080245
   1 C :   -0.141717
   2 C :   -0.052039
   3 C :   -0.006462
   4 C :   -0.078774
   5 H :   -0.000014
   6 C :    0.094133
   7 H :    0.022803
   8 H :    0.005804
   9 C :   -0.098719
  10 H :    0.034178
  11 H :    0.028038
  12 C :   -0.055620
  13 H :    0.016951
  14 H :    0.026455
  15 H :    0.046107
  16 S :    0.079414
  17 C :   -0.080826
  18 C :    0.007001
  19 C :   -0.043261
  20 C :   -0.132108
  21 H :    0.010620
  22 C :    0.037453
  23 H :    0.026952
  24 H :    0.020953
  25 C :   -0.049121
  26 H :    0.020703
  27 H :    0.014180
  28 C :   -0.081957
  29 H :    0.049740
  30 H :    0.030897
  31 H :    0.041521
  32 H :    0.068271
  33 H :    0.058199
Sum of atomic charges:   -0.0000000

LOEWDIN ATOMIC CHARGES
----------------------
   0 S :    0.376592
   1 C :   -0.200464
   2 C :   -0.062984
   3 C :   -0.069861
   4 C :   -0.168810
   5 H :    0.033419
   6 C :   -0.027469
   7 H :    0.033801
   8 H :    0.021412
   9 C :   -0.046591
  10 H :    0.027452
  11 H :    0.021694
  12 C :   -0.073351
  13 H :    0.023520
  14 H :    0.023304
  15 H :    0.033054
  16 S :    0.409054
  17 C :   -0.175665
  18 C :   -0.065700
  19 C :   -0.050968
  20 C :   -0.195591
  21 H :    0.026621
  22 C :   -0.029879
  23 H :    0.029556
  24 H :    0.029036
  25 C :   -0.038910
  26 H :    0.019728
  27 H :    0.018028
  28 C :   -0.073529
  29 H :    0.024084
  30 H :    0.030357
  31 H :    0.030149
  32 H :    0.045181
  33 H :    0.023730

  Mayer bond orders larger than 0.100000
B(  0-S ,  1-C ) :   1.1029 B(  0-S ,  4-C ) :   1.1386 B(  1-C ,  2-C ) :   1.6376
B(  1-C , 32-H ) :   0.9586 B(  2-C ,  3-C ) :   1.2286 B(  2-C ,  6-C ) :   1.0257
B(  3-C ,  4-C ) :   1.5884 B(  3-C ,  5-H ) :   0.9811 B(  4-C , 20-C ) :   1.0763
B(  6-C ,  7-H ) :   0.9446 B(  6-C ,  8-H ) :   0.9303 B(  6-C ,  9-C ) :   1.0631
B(  9-C , 10-H ) :   0.9544 B(  9-C , 11-H ) :   0.9539 B(  9-C , 12-C ) :   1.0720
B( 12-C , 13-H ) :   0.9714 B( 12-C , 14-H ) :   0.9749 B( 12-C , 15-H ) :   0.9749
B( 16-S , 17-C ) :   1.1660 B( 16-S , 20-C ) :   1.1499 B( 17-C , 18-C ) :   1.5817
B( 17-C , 33-H ) :   0.9731 B( 18-C , 19-C ) :   1.2702 B( 18-C , 21-H ) :   0.9939
B( 19-C , 20-C ) :   1.5581 B( 19-C , 22-C ) :   1.0191 B( 22-C , 23-H ) :   0.9442
B( 22-C , 24-H ) :   0.9486 B( 22-C , 25-C ) :   1.0667 B( 25-C , 26-H ) :   0.9600
B( 25-C , 27-H ) :   0.9509 B( 25-C , 28-C ) :   1.0836 B( 28-C , 29-H ) :   0.9704
B( 28-C , 30-H ) :   0.9714 B( 28-C , 31-H ) :   0.9692

Dispersion correction           -0.014225588
FINAL SINGLE POINT ENERGY     -1339.858937455208

DIPOLE MOMENT
-------------
                                X             Y             Z
Electronic contribution:     -9.11156      15.46000     -27.27917
Nuclear contribution   :      9.65262     -15.76899      27.75633
                        -----------------------------------------
Total Dipole Moment    :      0.54106      -0.30899       0.47716
                        -----------------------------------------
Magnitude (a.u.)       :      0.78479
Magnitude (Debye)      :      1.99478

Rotational constants in cm-1:     0.018635     0.009175     0.006496
Rotational constants in MHz :   558.666369   275.049166   194.743138

                             ****ORCA TERMINATED NORMALLY****
TOTAL RUN TIME: 0 days 0 hours 0 minutes 32 seconds 509 msec
