                         Program Version 4.2.1 -  RELEASE  -
|  1> ! wB97X-D3 SP def2-SVP
|  2> %pal
|  3> nprocs 16
|  4> end
|  5>
|  6> * xyz 0 1
|  7> S 	 53.9393 	 22.6645 	 40.3241
|  8> C 	 54.3273 	 23.3096 	 38.701
|  9> C 	 53.744 	 24.5409 	 38.5448
| 10> C 	 52.9865 	 24.9312 	 39.6974
| 11> C 	 52.9082 	 23.9932 	 40.7043
| 12> H 	 52.4447 	 25.8154 	 39.8397
| 13> C 	 53.8384 	 25.2748 	 37.2481
| 14> H 	 52.8053 	 25.3978 	 37.0091
| 15> H 	 54.2998 	 24.6906 	 36.4833
| 16> C 	 54.5096 	 26.6254 	 37.2227
| 17> H 	 53.9392 	 27.436 	 37.7785
| 18> H 	 55.5004 	 26.4637 	 37.7078
| 19> C 	 54.7608 	 27.1177 	 35.7478
| 20> H 	 53.8104 	 27.3438 	 35.2446
| 21> H 	 55.405 	 27.99 	 35.7853
| 22> H 	 55.247 	 26.3785 	 35.1732
| 23> S 	 53.0955 	 24.113 	 43.3328
| 24> C 	 51.8377 	 24.6311 	 44.4615
| 25> C 	 50.7089 	 24.7828 	 43.7067
| 26> C 	 50.9245 	 24.6965 	 42.2663
| 27> C 	 52.1284 	 24.1484 	 41.9349
| 28> H 	 49.741 	 25.0811 	 44.1356
| 29> C 	 49.7427 	 24.9487 	 41.2788
| 30> H 	 50.1992 	 24.5039 	 40.4025
| 31> H 	 49.6438 	 25.9918 	 41.1914
| 32> C 	 48.4677 	 24.282 	 41.6722
| 33> H 	 48.1365 	 24.6417 	 42.6534
| 34> H 	 48.6692 	 23.2255 	 41.8161
| 35> C 	 47.4084 	 24.5321 	 40.6226
| 36> H 	 47.8454 	 24.4059 	 39.5973
| 37> H 	 47.0407 	 25.57 	 40.5272
| 38> H 	 46.5408 	 23.9471 	 40.6965
| 39> H 	 54.926 	 22.8514 	 37.9023
| 40> H 	 51.7122 	 24.5973 	 45.5526
| 41> *
| 42>
| 43>                          ****END OF INPUT****

CARTESIAN COORDINATES (ANGSTROEM)
---------------------------------
  S     53.939300   22.664500   40.324100
  C     54.327300   23.309600   38.701000
  C     53.744000   24.540900   38.544800
  C     52.986500   24.931200   39.697400
  C     52.908200   23.993200   40.704300
  H     52.444700   25.815400   39.839700
  C     53.838400   25.274800   37.248100
  H     52.805300   25.397800   37.009100
  H     54.299800   24.690600   36.483300
  C     54.509600   26.625400   37.222700
  H     53.939200   27.436000   37.778500
  H     55.500400   26.463700   37.707800
  C     54.760800   27.117700   35.747800
  H     53.810400   27.343800   35.244600
  H     55.405000   27.990000   35.785300
  H     55.247000   26.378500   35.173200
  S     53.095500   24.113000   43.332800
  C     51.837700   24.631100   44.461500
  C     50.708900   24.782800   43.706700
  C     50.924500   24.696500   42.266300
  C     52.128400   24.148400   41.934900
  H     49.741000   25.081100   44.135600
  C     49.742700   24.948700   41.278800
  H     50.199200   24.503900   40.402500
  H     49.643800   25.991800   41.191400
  C     48.467700   24.282000   41.672200
  H     48.136500   24.641700   42.653400
  H     48.669200   23.225500   41.816100
  C     47.408400   24.532100   40.622600
  H     47.845400   24.405900   39.597300
  H     47.040700   25.570000   40.527200
  H     46.540800   23.947100   40.696500
  H     54.926000   22.851400   37.902300
  H     51.712200   24.597300   45.552600

 Total Charge           Charge          ....    0
 Multiplicity           Mult            ....    1
 Number of Electrons    NEL             ....  134
 Basis Dimension        Dim             ....  322

ORBITAL ENERGIES
----------------

  NO   OCC          E(Eh)            E(eV)
   0   2.0000     -88.967527     -2420.9295
   1   2.0000     -88.959495     -2420.7109
   2   2.0000     -10.332082      -281.1502
   3   2.0000     -10.325255      -280.9645
   4   2.0000     -10.318721      -280.7867
   5   2.0000     -10.317571      -280.7554
   6   2.0000     -10.302701      -280.3508
   7   2.0000     -10.301261      -280.3116
   8   2.0000     -10.294879      -280.1379
   9   2.0000     -10.294433      -280.1258
  10   2.0000     -10.291513      -280.0463
  11   2.0000     -10.285929      -279.8944
  12   2.0000     -10.284846      -279.8649
  13   2.0000     -10.284340      -279.8511
  14   2.0000     -10.279776      -279.7269
  15   2.0000     -10.276368      -279.6342
  16   2.0000      -8.081930      -219.9205
  17   2.0000      -8.075152      -219.7361
  18   2.0000      -6.040542      -164.3715
  19   2.0000      -6.036430      -164.2596
  20   2.0000      -6.033989      -164.1932
  21   2.0000      -6.032626      -164.1561
  22   2.0000      -6.029293      -164.0654
  23   2.0000      -6.025666      -163.9667
  24   2.0000      -1.014223       -27.5984
  25   2.0000      -0.988556       -26.9000
  26   2.0000      -0.918505       -24.9938
  27   2.0000      -0.915558       -24.9136
  28   2.0000      -0.875074       -23.8120
  29   2.0000      -0.849777       -23.1236
  30   2.0000      -0.842114       -22.9151
  31   2.0000      -0.821748       -22.3609
  32   2.0000      -0.782956       -21.3053
  33   2.0000      -0.773540       -21.0491
  34   2.0000      -0.711433       -19.3591
  35   2.0000      -0.704561       -19.1721
  36   2.0000      -0.695185       -18.9170
  37   2.0000      -0.659490       -17.9456
  38   2.0000      -0.644430       -17.5358
  39   2.0000      -0.622408       -16.9366
  40   2.0000      -0.590561       -16.0700
  41   2.0000      -0.574352       -15.6289
  42   2.0000      -0.571974       -15.5642
  43   2.0000      -0.569645       -15.5008
  44   2.0000      -0.531021       -14.4498
  45   2.0000      -0.526471       -14.3260
  46   2.0000      -0.516262       -14.0482
  47   2.0000      -0.513216       -13.9653
  48   2.0000      -0.511807       -13.9270
  49   2.0000      -0.507363       -13.8060
  50   2.0000      -0.498569       -13.5668
  51   2.0000      -0.477126       -12.9832
  52   2.0000      -0.473990       -12.8979
  53   2.0000      -0.470334       -12.7985
  54   2.0000      -0.458941       -12.4884
  55   2.0000      -0.449548       -12.2328
  56   2.0000      -0.443949       -12.0805
  57   2.0000      -0.436701       -11.8832
  58   2.0000      -0.435037       -11.8380
  59   2.0000      -0.428887       -11.6706
  60   2.0000      -0.418719       -11.3939
  61   2.0000      -0.413857       -11.2616
  62   2.0000      -0.403650       -10.9839
  63   2.0000      -0.352244        -9.5850
  64   2.0000      -0.330369        -8.9898
  65   2.0000      -0.322355        -8.7717
  66   2.0000      -0.303451        -8.2573
  67   0.0000       0.032262         0.8779
  68   0.0000       0.074810         2.0357
  69   0.0000       0.116502         3.1702
  70   0.0000       0.121015         3.2930
  71   0.0000       0.130607         3.5540

MULLIKEN ATOMIC CHARGES
-----------------------
   0 S :    0.110974
   1 C :   -0.132738
   2 C :   -0.072784
   3 C :    0.050009
   4 C :   -0.145712
   5 H :   -0.012086
   6 C :    0.102571
   7 H :    0.024024
   8 H :    0.000552
   9 C :   -0.120488
  10 H :    0.045128
  11 H :    0.036871
  12 C :   -0.034240
  13 H :    0.033746
  14 H :    0.038729
  15 H :    0.019821
  16 S :    0.084372
  17 C :   -0.066898
  18 C :   -0.061156
  19 C :   -0.119579
  20 C :   -0.107000
  21 H :    0.025938
  22 C :    0.093135
  23 H :    0.024764
  24 H :    0.021945
  25 C :   -0.064956
  26 H :    0.025195
  27 H :    0.034370
  28 C :   -0.028015
  29 H :    0.022557
  30 H :    0.023837
  31 H :    0.025510
  32 H :    0.054970
  33 H :    0.066634
Sum of atomic charges:   -0.0000000

LOEWDIN ATOMIC CHARGES
----------------------
   0 S :    0.400712
   1 C :   -0.190085
   2 C :   -0.059063
   3 C :   -0.057333
   4 C :   -0.203376
   5 H :    0.021360
   6 C :   -0.032954
   7 H :    0.031575
   8 H :    0.025655
   9 C :   -0.042483
  10 H :    0.029429
  11 H :    0.027475
  12 C :   -0.060194
  13 H :    0.026839
  14 H :    0.028075
  15 H :    0.016201
  16 S :    0.419057
  17 C :   -0.191534
  18 C :   -0.076277
  19 C :   -0.061796
  20 C :   -0.211482
  21 H :    0.030089
  22 C :   -0.024184
  23 H :    0.030663
  24 H :    0.023378
  25 C :   -0.040776
  26 H :    0.021834
  27 H :    0.029629
  28 C :   -0.066578
  29 H :    0.030227
  30 H :    0.027748
  31 H :    0.017946
  32 H :    0.036293
  33 H :    0.043934

  Mayer bond orders larger than 0.100000
B(  0-S ,  1-C ) :   1.1179 B(  0-S ,  4-C ) :   1.1543 B(  1-C ,  2-C ) :   1.6218
B(  1-C , 32-H ) :   0.9663 B(  2-C ,  3-C ) :   1.2199 B(  2-C ,  6-C ) :   1.0314
B(  3-C ,  4-C ) :   1.5727 B(  3-C ,  5-H ) :   1.0083 B(  4-C , 20-C ) :   0.9912
B(  6-C ,  7-H ) :   0.9257 B(  6-C ,  8-H ) :   0.9398 B(  6-C ,  9-C ) :   1.0641
B(  9-C , 10-H ) :   0.9533 B(  9-C , 11-H ) :   0.9570 B(  9-C , 12-C ) :   1.0822
B( 12-C , 13-H ) :   0.9760 B( 12-C , 14-H ) :   0.9761 B( 12-C , 15-H ) :   0.9750
B( 16-S , 17-C ) :   1.1405 B( 16-S , 20-C ) :   1.1445 B( 17-C , 18-C ) :   1.6309
B( 17-C , 33-H ) :   0.9601 B( 18-C , 19-C ) :   1.2281 B( 18-C , 21-H ) :   0.9789
B( 19-C , 20-C ) :   1.6360 B( 19-C , 22-C ) :   1.0155 B( 22-C , 23-H ) :   0.9389
B( 22-C , 24-H ) :   0.9263 B( 22-C , 25-C ) :   1.0879 B( 25-C , 26-H ) :   0.9450
B( 25-C , 27-H ) :   0.9526 B( 25-C , 28-C ) :   1.0872 B( 28-C , 29-H ) :   0.9715
B( 28-C , 30-H ) :   0.9714 B( 28-C , 31-H ) :   0.9740

Dispersion correction           -0.013302055
FINAL SINGLE POINT ENERGY     -1339.868051818762

DIPOLE MOMENT
-------------
                                X             Y             Z
Electronic contribution:     13.44257     -13.87698      19.74592
Nuclear contribution   :    -13.90795      14.31180     -20.20234
                        -----------------------------------------
Total Dipole Moment    :     -0.46537       0.43482      -0.45642
                        -----------------------------------------
Magnitude (a.u.)       :      0.78356
Magnitude (Debye)      :      1.99164

Rotational constants in cm-1:     0.017695     0.007722     0.006295
Rotational constants in MHz :   530.481902   231.510418   188.716216

                             ****ORCA TERMINATED NORMALLY****
TOTAL RUN TIME: 0 days 0 hours 0 minutes 28 seconds 799 msec
