                         Program Version 4.2.1 -  RELEASE  -
|  1> ! wB97X-D3 SP def2-SVP
|  2> %pal
|  3> nprocs 16
|  4> end
|  5>
|  6> * xyz 0 1
|  7> S 	 -5.84973 	 -11.1839 	 81.6056
|  8> C 	 -6.41845 	 -10.6906 	 80.019
|  9> C 	 -7.60145 	 -10.0033 	 80.1896
| 10> C 	 -7.97182 	 -9.88535 	 81.5763
| 11> C 	 -7.15708 	 -10.5354 	 82.4805
| 12> H 	 -8.85141 	 -9.41925 	 82.0018
| 13> C 	 -8.5936 	 -9.53769 	 79.0903
| 14> H 	 -9.60183 	 -9.79807 	 79.4315
| 15> H 	 -8.35865 	 -10.0859 	 78.1822
| 16> C 	 -8.47969 	 -8.05141 	 78.7997
| 17> H 	 -9.37988 	 -7.87004 	 78.198
| 18> H 	 -8.37359 	 -7.56827 	 79.766
| 19> C 	 -7.22218 	 -7.7017 	 77.9392
| 20> H 	 -6.34364 	 -8.23717 	 78.3417
| 21> H 	 -7.49322 	 -8.03236 	 76.9357
| 22> H 	 -7.06875 	 -6.62382 	 77.9521
| 23> S 	 -5.89643 	 -10.3424 	 84.9252
| 24> C 	 -6.72563 	 -10.7546 	 86.4011
| 25> C 	 -7.99924 	 -11.1523 	 86.1044
| 26> C 	 -8.37924 	 -11.0876 	 84.7535
| 27> C 	 -7.32571 	 -10.6777 	 83.9239
| 28> H 	 -8.71703 	 -11.4081 	 86.8725
| 29> C 	 -9.80979 	 -11.3855 	 84.3927
| 30> H 	 -9.95445 	 -12.4114 	 84.7972
| 31> H 	 -9.883 	 -11.5262 	 83.3044
| 32> C 	 -10.8607 	 -10.2079 	 84.8048
| 33> H 	 -10.5421 	 -9.30663 	 84.3019
| 34> H 	 -10.7977 	 -10.0104 	 85.8987
| 35> C 	 -12.2428 	 -10.3032 	 84.305
| 36> H 	 -12.266 	 -10.534 	 83.2972
| 37> H 	 -12.7245 	 -9.36606 	 84.5239
| 38> H 	 -12.7223 	 -11.0879 	 84.7605
| 39> H 	 -6.0973 	 -10.9595 	 79.0254
| 40> H 	 -6.25362 	 -10.6751 	 87.3628
| 41> *
| 42>
| 43>                          ****END OF INPUT****

CARTESIAN COORDINATES (ANGSTROEM)
---------------------------------
  S     -5.849730  -11.183900   81.605600
  C     -6.418450  -10.690600   80.019000
  C     -7.601450  -10.003300   80.189600
  C     -7.971820   -9.885350   81.576300
  C     -7.157080  -10.535400   82.480500
  H     -8.851410   -9.419250   82.001800
  C     -8.593600   -9.537690   79.090300
  H     -9.601830   -9.798070   79.431500
  H     -8.358650  -10.085900   78.182200
  C     -8.479690   -8.051410   78.799700
  H     -9.379880   -7.870040   78.198000
  H     -8.373590   -7.568270   79.766000
  C     -7.222180   -7.701700   77.939200
  H     -6.343640   -8.237170   78.341700
  H     -7.493220   -8.032360   76.935700
  H     -7.068750   -6.623820   77.952100
  S     -5.896430  -10.342400   84.925200
  C     -6.725630  -10.754600   86.401100
  C     -7.999240  -11.152300   86.104400
  C     -8.379240  -11.087600   84.753500
  C     -7.325710  -10.677700   83.923900
  H     -8.717030  -11.408100   86.872500
  C     -9.809790  -11.385500   84.392700
  H     -9.954450  -12.411400   84.797200
  H     -9.883000  -11.526200   83.304400
  C    -10.860700  -10.207900   84.804800
  H    -10.542100   -9.306630   84.301900
  H    -10.797700  -10.010400   85.898700
  C    -12.242800  -10.303200   84.305000
  H    -12.266000  -10.534000   83.297200
  H    -12.724500   -9.366060   84.523900
  H    -12.722300  -11.087900   84.760500
  H     -6.097300  -10.959500   79.025400
  H     -6.253620  -10.675100   87.362800

 Total Charge           Charge          ....    0
 Multiplicity           Mult            ....    1
 Number of Electrons    NEL             ....  134
 Basis Dimension        Dim             ....  322

ORBITAL ENERGIES
----------------

  NO   OCC          E(Eh)            E(eV)
   0   2.0000     -88.964648     -2420.8512
   1   2.0000     -88.964212     -2420.8393
   2   2.0000     -10.332903      -281.1726
   3   2.0000     -10.327987      -281.0388
   4   2.0000     -10.318075      -280.7691
   5   2.0000     -10.315261      -280.6925
   6   2.0000     -10.304349      -280.3956
   7   2.0000     -10.302233      -280.3380
   8   2.0000     -10.300691      -280.2961
   9   2.0000     -10.292668      -280.0777
  10   2.0000     -10.292511      -280.0735
  11   2.0000     -10.290739      -280.0253
  12   2.0000     -10.290017      -280.0056
  13   2.0000     -10.284904      -279.8665
  14   2.0000     -10.278731      -279.6985
  15   2.0000     -10.263852      -279.2936
  16   2.0000      -8.079971      -219.8672
  17   2.0000      -8.078896      -219.8379
  18   2.0000      -6.038621      -164.3192
  19   2.0000      -6.037398      -164.2860
  20   2.0000      -6.034154      -164.1977
  21   2.0000      -6.033316      -164.1749
  22   2.0000      -6.030730      -164.1045
  23   2.0000      -6.029759      -164.0781
  24   2.0000      -1.010207       -27.4891
  25   2.0000      -0.988178       -26.8897
  26   2.0000      -0.913518       -24.8581
  27   2.0000      -0.908944       -24.7336
  28   2.0000      -0.870981       -23.7006
  29   2.0000      -0.864606       -23.5271
  30   2.0000      -0.839717       -22.8499
  31   2.0000      -0.814683       -22.1686
  32   2.0000      -0.782415       -21.2906
  33   2.0000      -0.776011       -21.1163
  34   2.0000      -0.708609       -19.2822
  35   2.0000      -0.700004       -19.0481
  36   2.0000      -0.689615       -18.7654
  37   2.0000      -0.662898       -18.0384
  38   2.0000      -0.641974       -17.4690
  39   2.0000      -0.618319       -16.8253
  40   2.0000      -0.599694       -16.3185
  41   2.0000      -0.577503       -15.7147
  42   2.0000      -0.565637       -15.3918
  43   2.0000      -0.549095       -14.9416
  44   2.0000      -0.544085       -14.8053
  45   2.0000      -0.540784       -14.7155
  46   2.0000      -0.518288       -14.1033
  47   2.0000      -0.516674       -14.0594
  48   2.0000      -0.509204       -13.8561
  49   2.0000      -0.506359       -13.7787
  50   2.0000      -0.485484       -13.2107
  51   2.0000      -0.483754       -13.1636
  52   2.0000      -0.471390       -12.8272
  53   2.0000      -0.468069       -12.7368
  54   2.0000      -0.459753       -12.5105
  55   2.0000      -0.452447       -12.3117
  56   2.0000      -0.439367       -11.9558
  57   2.0000      -0.437509       -11.9052
  58   2.0000      -0.430809       -11.7229
  59   2.0000      -0.427656       -11.6371
  60   2.0000      -0.420148       -11.4328
  61   2.0000      -0.414396       -11.2763
  62   2.0000      -0.405799       -11.0423
  63   2.0000      -0.350813        -9.5461
  64   2.0000      -0.331987        -9.0338
  65   2.0000      -0.327165        -8.9026
  66   2.0000      -0.295199        -8.0328
  67   0.0000       0.030931         0.8417
  68   0.0000       0.070669         1.9230
  69   0.0000       0.115377         3.1396
  70   0.0000       0.120243         3.2720
  71   0.0000       0.129895         3.5346

MULLIKEN ATOMIC CHARGES
-----------------------
   0 S :    0.112721
   1 C :   -0.100089
   2 C :   -0.124417
   3 C :    0.020018
   4 C :   -0.135834
   5 H :    0.000526
   6 C :    0.068690
   7 H :    0.033344
   8 H :    0.010308
   9 C :   -0.073190
  10 H :    0.036629
  11 H :    0.035275
  12 C :   -0.059034
  13 H :    0.040886
  14 H :    0.027874
  15 H :    0.042710
  16 S :    0.094206
  17 C :   -0.081081
  18 C :   -0.028417
  19 C :   -0.029787
  20 C :   -0.170353
  21 H :    0.015462
  22 C :    0.050544
  23 H :    0.040380
  24 H :    0.016336
  25 C :   -0.098414
  26 H :    0.022840
  27 H :    0.035393
  28 C :    0.044850
  29 H :    0.007978
  30 H :    0.035702
  31 H :    0.004646
  32 H :    0.043709
  33 H :    0.059590
Sum of atomic charges:   -0.0000000

LOEWDIN ATOMIC CHARGES
----------------------
   0 S :    0.426113
   1 C :   -0.203687
   2 C :   -0.063860
   3 C :   -0.075303
   4 C :   -0.210688
   5 H :    0.026234
   6 C :   -0.026584
   7 H :    0.031136
   8 H :    0.023719
   9 C :   -0.039921
  10 H :    0.026729
  11 H :    0.023507
  12 C :   -0.063935
  13 H :    0.027215
  14 H :    0.022857
  15 H :    0.027047
  16 S :    0.399692
  17 C :   -0.178114
  18 C :   -0.074311
  19 C :   -0.057688
  20 C :   -0.190317
  21 H :    0.030659
  22 C :   -0.036893
  23 H :    0.037202
  24 H :    0.027652
  25 C :   -0.034058
  26 H :    0.024392
  27 H :    0.025643
  28 C :   -0.050835
  29 H :    0.018167
  30 H :    0.032714
  31 H :    0.013649
  32 H :    0.032010
  33 H :    0.029857

  Mayer bond orders larger than 0.100000
B(  0-S ,  1-C ) :   1.1326 B(  0-S ,  4-C ) :   1.1658 B(  1-C ,  2-C ) :   1.6097
B(  1-C , 32-H ) :   0.9678 B(  2-C ,  3-C ) :   1.2362 B(  2-C ,  6-C ) :   1.0137
B(  3-C ,  4-C ) :   1.5720 B(  3-C ,  5-H ) :   0.9983 B(  4-C , 20-C ) :   1.0313
B(  6-C ,  7-H ) :   0.9474 B(  6-C ,  8-H ) :   0.9412 B(  6-C ,  9-C ) :   1.0623
B(  9-C , 10-H ) :   0.9589 B(  9-C , 11-H ) :   0.9588 B(  9-C , 12-C ) :   1.0726
B( 12-C , 13-H ) :   0.9759 B( 12-C , 14-H ) :   0.9768 B( 12-C , 15-H ) :   0.9763
B( 16-S , 17-C ) :   1.1598 B( 16-S , 20-C ) :   1.1481 B( 17-C , 18-C ) :   1.5742
B( 17-C , 20-C ) :   0.1065 B( 17-C , 33-H ) :   0.9744 B( 18-C , 19-C ) :   1.2697
B( 18-C , 21-H ) :   0.9891 B( 19-C , 20-C ) :   1.5693 B( 19-C , 22-C ) :   1.0509
B( 22-C , 23-H ) :   0.9343 B( 22-C , 24-H ) :   0.9313 B( 22-C , 25-C ) :   1.0378
B( 25-C , 26-H ) :   0.9574 B( 25-C , 27-H ) :   0.9577 B( 25-C , 28-C ) :   1.0951
B( 28-C , 29-H ) :   0.9658 B( 28-C , 30-H ) :   0.9703 B( 28-C , 31-H ) :   0.9681

Dispersion correction           -0.013963775
FINAL SINGLE POINT ENERGY     -1339.873554858930

DIPOLE MOMENT
-------------
                                X             Y             Z
Electronic contribution:     23.28064      -9.26922      11.87429
Nuclear contribution   :    -24.07655       9.34799     -11.90979
                        -----------------------------------------
Total Dipole Moment    :     -0.79591       0.07877      -0.03550
                        -----------------------------------------
Magnitude (a.u.)       :      0.80059
Magnitude (Debye)      :      2.03493

Rotational constants in cm-1:     0.017970     0.008597     0.006394
Rotational constants in MHz :   538.726534   257.722027   191.688397

                             ****ORCA TERMINATED NORMALLY****
TOTAL RUN TIME: 0 days 0 hours 0 minutes 33 seconds 406 msec
