                         Program Version 4.2.1 -  RELEASE  -
|  1> ! wB97X-D3 SP def2-SVP
|  2> %pal
|  3> nprocs 16
|  4> end
|  5>
|  6> * xyz 0 1
|  7> S 	 -42.6459 	 26.107 	 80.5484
|  8> C 	 -41.3237 	 26.8638 	 81.2865
|  9> C 	 -40.1508 	 26.2114 	 81.0987
| 10> C 	 -40.4131 	 24.9836 	 80.3108
| 11> C 	 -41.6978 	 24.8742 	 79.8021
| 12> H 	 -39.6683 	 24.2335 	 80.1165
| 13> C 	 -38.863 	 26.8011 	 81.6788
| 14> H 	 -38.5087 	 26.1443 	 82.5381
| 15> H 	 -38.9863 	 27.8099 	 82.1127
| 16> C 	 -37.6336 	 26.7017 	 80.7161
| 17> H 	 -37.3243 	 25.5791 	 80.7401
| 18> H 	 -37.932 	 27.01 	 79.7617
| 19> C 	 -36.5041 	 27.6852 	 81.1352
| 20> H 	 -35.9179 	 27.9522 	 80.2673
| 21> H 	 -36.843 	 28.6508 	 81.6606
| 22> H 	 -35.9327 	 27.1951 	 81.9526
| 23> S 	 -43.7275 	 23.0997 	 79.8044
| 24> C 	 -43.8025 	 21.9328 	 78.4926
| 25> C 	 -42.7082 	 22.0331 	 77.6427
| 26> C 	 -41.8544 	 23.0951 	 77.9958
| 27> C 	 -42.2858 	 23.7891 	 79.0742
| 28> H 	 -42.7015 	 21.3012 	 76.8152
| 29> C 	 -40.6019 	 23.386 	 77.2046
| 30> H 	 -39.6595 	 23.1487 	 77.727
| 31> H 	 -40.4732 	 24.4706 	 77.0893
| 32> C 	 -40.4558 	 22.8341 	 75.8281
| 33> H 	 -40.5506 	 21.7594 	 75.8561
| 34> H 	 -39.4044 	 22.9246 	 75.4485
| 35> C 	 -41.3951 	 23.5533 	 74.875
| 36> H 	 -41.1708 	 24.5802 	 74.7984
| 37> H 	 -42.4578 	 23.4111 	 75.1927
| 38> H 	 -41.315 	 23.2934 	 73.8097
| 39> H 	 -41.4579 	 27.7962 	 81.8168
| 40> H 	 -44.4693 	 21.0774 	 78.3117
| 41> *
| 42>
| 43>                          ****END OF INPUT****

CARTESIAN COORDINATES (ANGSTROEM)
---------------------------------
  S    -42.645900   26.107000   80.548400
  C    -41.323700   26.863800   81.286500
  C    -40.150800   26.211400   81.098700
  C    -40.413100   24.983600   80.310800
  C    -41.697800   24.874200   79.802100
  H    -39.668300   24.233500   80.116500
  C    -38.863000   26.801100   81.678800
  H    -38.508700   26.144300   82.538100
  H    -38.986300   27.809900   82.112700
  C    -37.633600   26.701700   80.716100
  H    -37.324300   25.579100   80.740100
  H    -37.932000   27.010000   79.761700
  C    -36.504100   27.685200   81.135200
  H    -35.917900   27.952200   80.267300
  H    -36.843000   28.650800   81.660600
  H    -35.932700   27.195100   81.952600
  S    -43.727500   23.099700   79.804400
  C    -43.802500   21.932800   78.492600
  C    -42.708200   22.033100   77.642700
  C    -41.854400   23.095100   77.995800
  C    -42.285800   23.789100   79.074200
  H    -42.701500   21.301200   76.815200
  C    -40.601900   23.386000   77.204600
  H    -39.659500   23.148700   77.727000
  H    -40.473200   24.470600   77.089300
  C    -40.455800   22.834100   75.828100
  H    -40.550600   21.759400   75.856100
  H    -39.404400   22.924600   75.448500
  C    -41.395100   23.553300   74.875000
  H    -41.170800   24.580200   74.798400
  H    -42.457800   23.411100   75.192700
  H    -41.315000   23.293400   73.809700
  H    -41.457900   27.796200   81.816800
  H    -44.469300   21.077400   78.311700

 Total Charge           Charge          ....    0
 Multiplicity           Mult            ....    1
 Number of Electrons    NEL             ....  134
 Basis Dimension        Dim             ....  322

ORBITAL ENERGIES
----------------

  NO   OCC          E(Eh)            E(eV)
   0   2.0000     -88.968646     -2420.9599
   1   2.0000     -88.959532     -2420.7119
   2   2.0000     -10.325864      -280.9810
   3   2.0000     -10.322331      -280.8849
   4   2.0000     -10.317699      -280.7589
   5   2.0000     -10.305819      -280.4356
   6   2.0000     -10.303747      -280.3792
   7   2.0000     -10.301749      -280.3248
   8   2.0000     -10.301216      -280.3103
   9   2.0000     -10.299339      -280.2593
  10   2.0000     -10.294197      -280.1193
  11   2.0000     -10.293152      -280.0909
  12   2.0000     -10.288330      -279.9597
  13   2.0000     -10.287565      -279.9389
  14   2.0000     -10.284961      -279.8680
  15   2.0000     -10.272940      -279.5409
  16   2.0000      -8.082978      -219.9490
  17   2.0000      -8.076269      -219.7665
  18   2.0000      -6.041512      -164.3979
  19   2.0000      -6.037606      -164.2916
  20   2.0000      -6.034686      -164.2122
  21   2.0000      -6.033649      -164.1839
  22   2.0000      -6.030421      -164.0961
  23   2.0000      -6.027074      -164.0050
  24   2.0000      -1.014765       -27.6132
  25   2.0000      -0.989888       -26.9362
  26   2.0000      -0.917071       -24.9548
  27   2.0000      -0.906855       -24.6768
  28   2.0000      -0.875167       -23.8145
  29   2.0000      -0.851599       -23.1732
  30   2.0000      -0.840591       -22.8737
  31   2.0000      -0.816812       -22.2266
  32   2.0000      -0.783317       -21.3151
  33   2.0000      -0.771556       -20.9951
  34   2.0000      -0.712536       -19.3891
  35   2.0000      -0.698505       -19.0073
  36   2.0000      -0.687593       -18.7104
  37   2.0000      -0.658871       -17.9288
  38   2.0000      -0.644631       -17.5413
  39   2.0000      -0.619163       -16.8483
  40   2.0000      -0.600655       -16.3447
  41   2.0000      -0.575332       -15.6556
  42   2.0000      -0.560203       -15.2439
  43   2.0000      -0.555815       -15.1245
  44   2.0000      -0.534316       -14.5395
  45   2.0000      -0.523211       -14.2373
  46   2.0000      -0.521108       -14.1801
  47   2.0000      -0.510463       -13.8904
  48   2.0000      -0.503537       -13.7019
  49   2.0000      -0.498939       -13.5768
  50   2.0000      -0.490574       -13.3492
  51   2.0000      -0.474645       -12.9157
  52   2.0000      -0.470569       -12.8048
  53   2.0000      -0.465274       -12.6608
  54   2.0000      -0.461925       -12.5696
  55   2.0000      -0.446959       -12.1624
  56   2.0000      -0.441939       -12.0258
  57   2.0000      -0.433710       -11.8019
  58   2.0000      -0.433083       -11.7848
  59   2.0000      -0.428945       -11.6722
  60   2.0000      -0.424556       -11.5528
  61   2.0000      -0.412192       -11.2163
  62   2.0000      -0.408769       -11.1232
  63   2.0000      -0.353052        -9.6070
  64   2.0000      -0.334184        -9.0936
  65   2.0000      -0.322803        -8.7839
  66   2.0000      -0.292184        -7.9507
  67   0.0000       0.030895         0.8407
  68   0.0000       0.076114         2.0712
  69   0.0000       0.108823         2.9612
  70   0.0000       0.124920         3.3993
  71   0.0000       0.130243         3.5441

MULLIKEN ATOMIC CHARGES
-----------------------
   0 S :    0.102838
   1 C :   -0.129154
   2 C :   -0.058429
   3 C :    0.027500
   4 C :   -0.159404
   5 H :    0.005457
   6 C :    0.029559
   7 H :    0.043460
   8 H :    0.026692
   9 C :   -0.096695
  10 H :    0.054885
  11 H :    0.024987
  12 C :   -0.079332
  13 H :    0.047407
  14 H :    0.040055
  15 H :    0.036671
  16 S :    0.118455
  17 C :   -0.085949
  18 C :   -0.087993
  19 C :    0.010459
  20 C :   -0.140015
  21 H :    0.033653
  22 C :    0.050753
  23 H :    0.035266
  24 H :    0.023703
  25 C :   -0.070493
  26 H :    0.021474
  27 H :    0.026273
  28 C :   -0.044457
  29 H :    0.016381
  30 H :    0.045119
  31 H :    0.026201
  32 H :    0.049924
  33 H :    0.054752
Sum of atomic charges:   -0.0000000

LOEWDIN ATOMIC CHARGES
----------------------
   0 S :    0.426872
   1 C :   -0.206863
   2 C :   -0.066670
   3 C :   -0.057097
   4 C :   -0.206086
   5 H :    0.024110
   6 C :   -0.036445
   7 H :    0.038670
   8 H :    0.029069
   9 C :   -0.043171
  10 H :    0.036831
  11 H :    0.011505
  12 C :   -0.074377
  13 H :    0.026260
  14 H :    0.032952
  15 H :    0.028549
  16 S :    0.405254
  17 C :   -0.189040
  18 C :   -0.076121
  19 C :   -0.057259
  20 C :   -0.191960
  21 H :    0.038947
  22 C :   -0.038591
  23 H :    0.034891
  24 H :    0.035057
  25 C :   -0.047890
  26 H :    0.017875
  27 H :    0.032148
  28 C :   -0.068920
  29 H :    0.020186
  30 H :    0.031633
  31 H :    0.026161
  32 H :    0.027637
  33 H :    0.035882

  Mayer bond orders larger than 0.100000
B(  0-S ,  1-C ) :   1.1522 B(  0-S ,  4-C ) :   1.1510 B(  1-C ,  2-C ) :   1.6162
B(  1-C , 32-H ) :   0.9690 B(  2-C ,  3-C ) :   1.2239 B(  2-C ,  6-C ) :   1.0280
B(  3-C ,  4-C ) :   1.5653 B(  3-C ,  5-H ) :   0.9962 B(  4-C , 20-C ) :   1.0579
B(  6-C ,  7-H ) :   0.9389 B(  6-C ,  8-H ) :   0.9529 B(  6-C ,  9-C ) :   1.0411
B(  9-C , 10-H ) :   0.9547 B(  9-C , 11-H ) :   0.9704 B(  9-C , 12-C ) :   1.0690
B( 12-C , 13-H ) :   0.9787 B( 12-C , 14-H ) :   0.9764 B( 12-C , 15-H ) :   0.9758
B( 16-S , 17-C ) :   1.1444 B( 16-S , 20-C ) :   1.1305 B( 17-C , 18-C ) :   1.6440
B( 17-C , 33-H ) :   0.9571 B( 18-C , 19-C ) :   1.2176 B( 18-C , 21-H ) :   0.9813
B( 19-C , 20-C ) :   1.6355 B( 19-C , 22-C ) :   1.0314 B( 22-C , 23-H ) :   0.9231
B( 22-C , 24-H ) :   0.9286 B( 22-C , 25-C ) :   1.0953 B( 25-C , 26-H ) :   0.9427
B( 25-C , 27-H ) :   0.9474 B( 25-C , 28-C ) :   1.0795 B( 28-C , 29-H ) :   0.9695
B( 28-C , 30-H ) :   0.9752 B( 28-C , 31-H ) :   0.9728

Dispersion correction           -0.013722154
FINAL SINGLE POINT ENERGY     -1339.870232453571

DIPOLE MOMENT
-------------
                                X             Y             Z
Electronic contribution:    -25.61667      -4.58429      11.09932
Nuclear contribution   :     26.28768       4.52749     -11.26814
                        -----------------------------------------
Total Dipole Moment    :      0.67102      -0.05680      -0.16882
                        -----------------------------------------
Magnitude (a.u.)       :      0.69426
Magnitude (Debye)      :      1.76466

Rotational constants in cm-1:     0.019172     0.008132     0.006226
Rotational constants in MHz :   574.748716   243.803417   186.662466

                             ****ORCA TERMINATED NORMALLY****
TOTAL RUN TIME: 0 days 0 hours 0 minutes 29 seconds 715 msec
