                         Program Version 4.2.1 -  RELEASE  -
|  1> ! wB97X-D3 SP def2-SVP
|  2> %pal
|  3> nprocs 16
|  4> end
|  5>
|  6> * xyz 0 1
|  7> S 	 -97.6928 	 60.0061 	 130.848
|  8> C 	 -97.6337 	 59.6706 	 132.574
|  9> C 	 -96.752 	 60.5093 	 133.192
| 10> C 	 -96.121 	 61.4143 	 132.261
| 11> C 	 -96.4431 	 61.1855 	 130.955
| 12> H 	 -95.3454 	 62.1452 	 132.478
| 13> C 	 -96.5112 	 60.6438 	 134.658
| 14> H 	 -97.4595 	 60.5726 	 135.21
| 15> H 	 -96.2313 	 61.6647 	 134.812
| 16> C 	 -95.6485 	 59.5994 	 135.295
| 17> H 	 -96.1696 	 58.6701 	 135.334
| 18> H 	 -94.7554 	 59.3631 	 134.745
| 19> C 	 -95.3 	 59.879 	 136.774
| 20> H 	 -96.1883 	 59.8445 	 137.416
| 21> H 	 -94.6701 	 59.1492 	 137.195
| 22> H 	 -94.7053 	 60.8357 	 136.822
| 23> S 	 -97.1908 	 62.5774 	 128.804
| 24> C 	 -95.9809 	 63.1738 	 127.731
| 25> C 	 -94.6787 	 62.8556 	 128.081
| 26> C 	 -94.6945 	 61.9371 	 129.225
| 27> C 	 -95.9578 	 61.84 	 129.763
| 28> H 	 -93.908 	 63.3062 	 127.396
| 29> C 	 -93.4291 	 61.2746 	 129.703
| 30> H 	 -93.5795 	 60.2423 	 129.768
| 31> H 	 -93.2634 	 61.6525 	 130.697
| 32> C 	 -92.0664 	 61.733 	 129.063
| 33> H 	 -92.0837 	 62.803 	 128.779
| 34> H 	 -91.9578 	 61.3176 	 128.066
| 35> C 	 -90.8955 	 61.2766 	 129.99
| 36> H 	 -90.8862 	 61.7339 	 130.969
| 37> H 	 -89.8984 	 61.5852 	 129.684
| 38> H 	 -90.8616 	 60.1365 	 130.062
| 39> H 	 -98.2493 	 58.8918 	 133.069
| 40> H 	 -96.1784 	 63.7944 	 126.869
| 41> *
| 42>
| 43>                          ****END OF INPUT****

CARTESIAN COORDINATES (ANGSTROEM)
---------------------------------
  S    -97.692800   60.006100  130.848000
  C    -97.633700   59.670600  132.574000
  C    -96.752000   60.509300  133.192000
  C    -96.121000   61.414300  132.261000
  C    -96.443100   61.185500  130.955000
  H    -95.345400   62.145200  132.478000
  C    -96.511200   60.643800  134.658000
  H    -97.459500   60.572600  135.210000
  H    -96.231300   61.664700  134.812000
  C    -95.648500   59.599400  135.295000
  H    -96.169600   58.670100  135.334000
  H    -94.755400   59.363100  134.745000
  C    -95.300000   59.879000  136.774000
  H    -96.188300   59.844500  137.416000
  H    -94.670100   59.149200  137.195000
  H    -94.705300   60.835700  136.822000
  S    -97.190800   62.577400  128.804000
  C    -95.980900   63.173800  127.731000
  C    -94.678700   62.855600  128.081000
  C    -94.694500   61.937100  129.225000
  C    -95.957800   61.840000  129.763000
  H    -93.908000   63.306200  127.396000
  C    -93.429100   61.274600  129.703000
  H    -93.579500   60.242300  129.768000
  H    -93.263400   61.652500  130.697000
  C    -92.066400   61.733000  129.063000
  H    -92.083700   62.803000  128.779000
  H    -91.957800   61.317600  128.066000
  C    -90.895500   61.276600  129.990000
  H    -90.886200   61.733900  130.969000
  H    -89.898400   61.585200  129.684000
  H    -90.861600   60.136500  130.062000
  H    -98.249300   58.891800  133.069000
  H    -96.178400   63.794400  126.869000

 Total Charge           Charge          ....    0
 Multiplicity           Mult            ....    1
 Number of Electrons    NEL             ....  134
 Basis Dimension        Dim             ....  322

ORBITAL ENERGIES
----------------

  NO   OCC          E(Eh)            E(eV)
   0   2.0000     -88.964559     -2420.8487
   1   2.0000     -88.960754     -2420.7452
   2   2.0000     -10.321365      -280.8586
   3   2.0000     -10.319082      -280.7965
   4   2.0000     -10.313568      -280.6465
   5   2.0000     -10.311901      -280.6011
   6   2.0000     -10.308311      -280.5034
   7   2.0000     -10.299248      -280.2568
   8   2.0000     -10.297641      -280.2131
   9   2.0000     -10.295340      -280.1504
  10   2.0000     -10.289792      -279.9995
  11   2.0000     -10.287258      -279.9305
  12   2.0000     -10.286441      -279.9083
  13   2.0000     -10.285064      -279.8708
  14   2.0000     -10.279780      -279.7270
  15   2.0000     -10.278519      -279.6927
  16   2.0000      -8.080343      -219.8773
  17   2.0000      -8.076174      -219.7639
  18   2.0000      -6.038696      -164.3213
  19   2.0000      -6.034812      -164.2156
  20   2.0000      -6.034671      -164.2117
  21   2.0000      -6.031086      -164.1142
  22   2.0000      -6.030519      -164.0988
  23   2.0000      -6.026972      -164.0022
  24   2.0000      -1.011845       -27.5337
  25   2.0000      -0.986057       -26.8320
  26   2.0000      -0.917093       -24.9554
  27   2.0000      -0.906608       -24.6701
  28   2.0000      -0.871125       -23.7045
  29   2.0000      -0.850279       -23.1373
  30   2.0000      -0.844031       -22.9672
  31   2.0000      -0.815499       -22.1909
  32   2.0000      -0.783301       -21.3147
  33   2.0000      -0.772241       -21.0137
  34   2.0000      -0.713440       -19.4137
  35   2.0000      -0.705471       -19.1968
  36   2.0000      -0.696252       -18.9460
  37   2.0000      -0.653165       -17.7735
  38   2.0000      -0.640374       -17.4255
  39   2.0000      -0.619158       -16.8482
  40   2.0000      -0.598098       -16.2751
  41   2.0000      -0.568258       -15.4631
  42   2.0000      -0.567275       -15.4363
  43   2.0000      -0.562768       -15.3137
  44   2.0000      -0.524982       -14.2855
  45   2.0000      -0.523398       -14.2424
  46   2.0000      -0.521118       -14.1803
  47   2.0000      -0.509926       -13.8758
  48   2.0000      -0.500914       -13.6306
  49   2.0000      -0.499456       -13.5909
  50   2.0000      -0.492245       -13.3947
  51   2.0000      -0.476947       -12.9784
  52   2.0000      -0.470105       -12.7922
  53   2.0000      -0.464566       -12.6415
  54   2.0000      -0.461379       -12.5548
  55   2.0000      -0.450027       -12.2459
  56   2.0000      -0.444614       -12.0986
  57   2.0000      -0.434890       -11.8339
  58   2.0000      -0.432824       -11.7777
  59   2.0000      -0.430474       -11.7138
  60   2.0000      -0.422596       -11.4994
  61   2.0000      -0.416934       -11.3454
  62   2.0000      -0.412816       -11.2333
  63   2.0000      -0.341630        -9.2962
  64   2.0000      -0.329617        -8.9693
  65   2.0000      -0.327559        -8.9133
  66   2.0000      -0.295515        -8.0414
  67   0.0000       0.039447         1.0734
  68   0.0000       0.070648         1.9224
  69   0.0000       0.111723         3.0401
  70   0.0000       0.126807         3.4506
  71   0.0000       0.133526         3.6334

MULLIKEN ATOMIC CHARGES
-----------------------
   0 S :    0.103316
   1 C :   -0.138353
   2 C :   -0.074672
   3 C :    0.032591
   4 C :   -0.169235
   5 H :    0.013132
   6 C :    0.090283
   7 H :    0.018061
   8 H :    0.010958
   9 C :   -0.054670
  10 H :    0.013730
  11 H :    0.022065
  12 C :   -0.047928
  13 H :    0.031824
  14 H :    0.020466
  15 H :    0.036870
  16 S :    0.124116
  17 C :   -0.086788
  18 C :   -0.081873
  19 C :   -0.034050
  20 C :   -0.164345
  21 H :    0.045346
  22 C :    0.106306
  23 H :    0.033991
  24 H :    0.018691
  25 C :   -0.083836
  26 H :    0.034592
  27 H :    0.026820
  28 C :   -0.058473
  29 H :    0.031915
  30 H :    0.022841
  31 H :    0.049918
  32 H :    0.059461
  33 H :    0.046931
Sum of atomic charges:   -0.0000000

LOEWDIN ATOMIC CHARGES
----------------------
   0 S :    0.405203
   1 C :   -0.196811
   2 C :   -0.063452
   3 C :   -0.065794
   4 C :   -0.204327
   5 H :    0.032198
   6 C :   -0.033869
   7 H :    0.035167
   8 H :    0.026713
   9 C :   -0.038363
  10 H :    0.020872
  11 H :    0.020603
  12 C :   -0.063762
  13 H :    0.025909
  14 H :    0.018810
  15 H :    0.029959
  16 S :    0.425726
  17 C :   -0.192295
  18 C :   -0.085327
  19 C :   -0.044918
  20 C :   -0.215186
  21 H :    0.045583
  22 C :   -0.027867
  23 H :    0.029044
  24 H :    0.034275
  25 C :   -0.041546
  26 H :    0.026921
  27 H :    0.021329
  28 C :   -0.071735
  29 H :    0.023707
  30 H :    0.024658
  31 H :    0.037504
  32 H :    0.036011
  33 H :    0.025059

  Mayer bond orders larger than 0.100000
B(  0-S ,  1-C ) :   1.1283 B(  0-S ,  4-C ) :   1.1556 B(  1-C ,  2-C ) :   1.6223
B(  1-C , 32-H ) :   0.9680 B(  2-C ,  3-C ) :   1.2225 B(  2-C ,  6-C ) :   1.0243
B(  3-C ,  4-C ) :   1.6041 B(  3-C ,  5-H ) :   0.9936 B(  4-C , 20-C ) :   1.0211
B(  6-C ,  7-H ) :   0.9327 B(  6-C ,  8-H ) :   0.9435 B(  6-C ,  9-C ) :   1.0600
B(  9-C , 10-H ) :   0.9503 B(  9-C , 11-H ) :   0.9575 B(  9-C , 12-C ) :   1.0902
B( 12-C , 13-H ) :   0.9736 B( 12-C , 14-H ) :   0.9735 B( 12-C , 15-H ) :   0.9764
B( 16-S , 17-C ) :   1.1590 B( 16-S , 20-C ) :   1.1416 B( 17-C , 18-C ) :   1.6517
B( 17-C , 33-H ) :   0.9605 B( 18-C , 19-C ) :   1.1929 B( 18-C , 21-H ) :   0.9781
B( 19-C , 20-C ) :   1.6341 B( 19-C , 22-C ) :   1.0318 B( 22-C , 23-H ) :   0.9275
B( 22-C , 24-H ) :   0.9330 B( 22-C , 25-C ) :   1.0634 B( 25-C , 26-H ) :   0.9510
B( 25-C , 27-H ) :   0.9524 B( 25-C , 28-C ) :   1.0744 B( 28-C , 29-H ) :   0.9750
B( 28-C , 30-H ) :   0.9725 B( 28-C , 31-H ) :   0.9750

Dispersion correction           -0.013284380
FINAL SINGLE POINT ENERGY     -1339.872837352777

DIPOLE MOMENT
-------------
                                X             Y             Z
Electronic contribution:    -23.62225       3.97173     -19.16673
Nuclear contribution   :     24.21419      -3.94344      19.47909
                        -----------------------------------------
Total Dipole Moment    :      0.59194       0.02829       0.31236
                        -----------------------------------------
Magnitude (a.u.)       :      0.66990
Magnitude (Debye)      :      1.70274

Rotational constants in cm-1:     0.017111     0.008278     0.006029
Rotational constants in MHz :   512.972342   248.160789   180.735498

                             ****ORCA TERMINATED NORMALLY****
TOTAL RUN TIME: 0 days 0 hours 0 minutes 32 seconds 684 msec
