                         Program Version 4.2.1 -  RELEASE  -
|  1> ! wB97X-D3 SP def2-SVP
|  2> %pal
|  3> nprocs 16
|  4> end
|  5>
|  6> * xyz 0 1
|  7> S 	 -89.424 	 49.9585 	 130.413
|  8> C 	 -89.6472 	 51.7159 	 130.084
|  9> C 	 -88.4763 	 52.4048 	 130.005
| 10> C 	 -87.3684 	 51.5005 	 130.214
| 11> C 	 -87.6872 	 50.1824 	 130.527
| 12> H 	 -86.3223 	 51.8565 	 130.124
| 13> C 	 -88.3052 	 53.8613 	 129.624
| 14> H 	 -88.9331 	 53.9444 	 128.717
| 15> H 	 -87.2661 	 54.191 	 129.404
| 16> C 	 -88.8855 	 54.8003 	 130.645
| 17> H 	 -88.7264 	 55.863 	 130.352
| 18> H 	 -89.9308 	 54.6191 	 130.665
| 19> C 	 -88.3464 	 54.6515 	 132.085
| 20> H 	 -87.3419 	 54.8353 	 132.148
| 21> H 	 -88.736 	 55.4524 	 132.745
| 22> H 	 -88.5068 	 53.6112 	 132.362
| 23> S 	 -87.0011 	 47.7394 	 129.6
| 24> C 	 -85.9235 	 46.677 	 130.512
| 25> C 	 -85.3243 	 47.4017 	 131.569
| 26> C 	 -85.8523 	 48.7792 	 131.691
| 27> C 	 -86.8485 	 49.0015 	 130.754
| 28> H 	 -84.5958 	 46.8693 	 132.17
| 29> C 	 -85.524 	 49.6691 	 132.863
| 30> H 	 -86.0716 	 50.638 	 132.76
| 31> H 	 -84.4209 	 49.9616 	 132.849
| 32> C 	 -85.7278 	 48.9597 	 134.189
| 33> H 	 -85.3476 	 49.637 	 134.968
| 34> H 	 -85.1133 	 48.0772 	 134.216
| 35> C 	 -87.2197 	 48.7217 	 134.507
| 36> H 	 -87.3641 	 48.1842 	 135.338
| 37> H 	 -87.7961 	 48.2535 	 133.74
| 38> H 	 -87.8149 	 49.5994 	 134.698
| 39> H 	 -90.6414 	 52.189 	 129.924
| 40> H 	 -85.4748 	 45.7054 	 130.164
| 41> *
| 42>
| 43>                          ****END OF INPUT****

CARTESIAN COORDINATES (ANGSTROEM)
---------------------------------
  S    -89.424000   49.958500  130.413000
  C    -89.647200   51.715900  130.084000
  C    -88.476300   52.404800  130.005000
  C    -87.368400   51.500500  130.214000
  C    -87.687200   50.182400  130.527000
  H    -86.322300   51.856500  130.124000
  C    -88.305200   53.861300  129.624000
  H    -88.933100   53.944400  128.717000
  H    -87.266100   54.191000  129.404000
  C    -88.885500   54.800300  130.645000
  H    -88.726400   55.863000  130.352000
  H    -89.930800   54.619100  130.665000
  C    -88.346400   54.651500  132.085000
  H    -87.341900   54.835300  132.148000
  H    -88.736000   55.452400  132.745000
  H    -88.506800   53.611200  132.362000
  S    -87.001100   47.739400  129.600000
  C    -85.923500   46.677000  130.512000
  C    -85.324300   47.401700  131.569000
  C    -85.852300   48.779200  131.691000
  C    -86.848500   49.001500  130.754000
  H    -84.595800   46.869300  132.170000
  C    -85.524000   49.669100  132.863000
  H    -86.071600   50.638000  132.760000
  H    -84.420900   49.961600  132.849000
  C    -85.727800   48.959700  134.189000
  H    -85.347600   49.637000  134.968000
  H    -85.113300   48.077200  134.216000
  C    -87.219700   48.721700  134.507000
  H    -87.364100   48.184200  135.338000
  H    -87.796100   48.253500  133.740000
  H    -87.814900   49.599400  134.698000
  H    -90.641400   52.189000  129.924000
  H    -85.474800   45.705400  130.164000

 Total Charge           Charge          ....    0
 Multiplicity           Mult            ....    1
 Number of Electrons    NEL             ....  134
 Basis Dimension        Dim             ....  322

ORBITAL ENERGIES
----------------

  NO   OCC          E(Eh)            E(eV)
   0   2.0000     -88.967284     -2420.9229
   1   2.0000     -88.965719     -2420.8803
   2   2.0000     -10.333142      -281.1791
   3   2.0000     -10.326534      -280.9993
   4   2.0000     -10.324858      -280.9537
   5   2.0000     -10.319424      -280.8058
   6   2.0000     -10.308245      -280.5016
   7   2.0000     -10.303408      -280.3700
   8   2.0000     -10.303057      -280.3604
   9   2.0000     -10.299823      -280.2724
  10   2.0000     -10.297586      -280.2116
  11   2.0000     -10.295025      -280.1419
  12   2.0000     -10.285137      -279.8728
  13   2.0000     -10.283915      -279.8396
  14   2.0000     -10.269210      -279.4394
  15   2.0000     -10.256780      -279.1012
  16   2.0000      -8.081171      -219.8999
  17   2.0000      -8.080691      -219.8868
  18   2.0000      -6.039794      -164.3511
  19   2.0000      -6.039312      -164.3380
  20   2.0000      -6.035868      -164.2443
  21   2.0000      -6.035050      -164.2220
  22   2.0000      -6.031769      -164.1328
  23   2.0000      -6.031412      -164.1231
  24   2.0000      -1.004800       -27.3420
  25   2.0000      -0.979949       -26.6658
  26   2.0000      -0.917922       -24.9779
  27   2.0000      -0.909141       -24.7390
  28   2.0000      -0.866620       -23.5819
  29   2.0000      -0.844354       -22.9760
  30   2.0000      -0.838840       -22.8260
  31   2.0000      -0.811877       -22.0923
  32   2.0000      -0.787959       -21.4415
  33   2.0000      -0.777867       -21.1668
  34   2.0000      -0.707049       -19.2398
  35   2.0000      -0.701944       -19.1009
  36   2.0000      -0.692029       -18.8311
  37   2.0000      -0.655039       -17.8245
  38   2.0000      -0.632991       -17.2246
  39   2.0000      -0.613899       -16.7050
  40   2.0000      -0.592919       -16.1341
  41   2.0000      -0.580664       -15.8007
  42   2.0000      -0.555555       -15.1174
  43   2.0000      -0.550200       -14.9717
  44   2.0000      -0.546232       -14.8637
  45   2.0000      -0.531673       -14.4676
  46   2.0000      -0.515338       -14.0230
  47   2.0000      -0.505570       -13.7573
  48   2.0000      -0.498147       -13.5553
  49   2.0000      -0.495357       -13.4794
  50   2.0000      -0.493184       -13.4202
  51   2.0000      -0.473589       -12.8870
  52   2.0000      -0.468856       -12.7582
  53   2.0000      -0.465374       -12.6635
  54   2.0000      -0.456715       -12.4278
  55   2.0000      -0.445688       -12.1278
  56   2.0000      -0.440972       -11.9995
  57   2.0000      -0.436742       -11.8843
  58   2.0000      -0.433344       -11.7919
  59   2.0000      -0.428125       -11.6499
  60   2.0000      -0.422572       -11.4988
  61   2.0000      -0.414549       -11.2805
  62   2.0000      -0.412770       -11.2321
  63   2.0000      -0.342586        -9.3222
  64   2.0000      -0.333909        -9.0861
  65   2.0000      -0.324071        -8.8184
  66   2.0000      -0.298567        -8.1244
  67   0.0000       0.032545         0.8856
  68   0.0000       0.064073         1.7435
  69   0.0000       0.105888         2.8814
  70   0.0000       0.111512         3.0344
  71   0.0000       0.129538         3.5249

MULLIKEN ATOMIC CHARGES
-----------------------
   0 S :    0.104740
   1 C :   -0.145754
   2 C :   -0.108667
   3 C :    0.042355
   4 C :   -0.171376
   5 H :    0.019453
   6 C :    0.081990
   7 H :    0.043337
   8 H :    0.032172
   9 C :   -0.092487
  10 H :    0.030797
  11 H :    0.018374
  12 C :   -0.026853
  13 H :   -0.000298
  14 H :    0.036678
  15 H :    0.049443
  16 S :    0.116948
  17 C :   -0.116056
  18 C :   -0.063596
  19 C :   -0.006721
  20 C :   -0.161289
  21 H :    0.028107
  22 C :    0.035236
  23 H :    0.033993
  24 H :    0.038514
  25 C :   -0.062356
  26 H :    0.028699
  27 H :    0.027573
  28 C :    0.011528
  29 H :   -0.002595
  30 H :    0.024311
  31 H :    0.014351
  32 H :    0.059249
  33 H :    0.080200
Sum of atomic charges:    0.0000000

LOEWDIN ATOMIC CHARGES
----------------------
   0 S :    0.386327
   1 C :   -0.186478
   2 C :   -0.067500
   3 C :   -0.064820
   4 C :   -0.194102
   5 H :    0.034150
   6 C :   -0.030977
   7 H :    0.041707
   8 H :    0.033349
   9 C :   -0.040852
  10 H :    0.026052
  11 H :    0.015495
  12 C :   -0.062475
  13 H :    0.009162
  14 H :    0.033686
  15 H :    0.029480
  16 S :    0.414485
  17 C :   -0.198855
  18 C :   -0.067073
  19 C :   -0.053753
  20 C :   -0.215022
  21 H :    0.029989
  22 C :   -0.039802
  23 H :    0.033550
  24 H :    0.039092
  25 C :   -0.033659
  26 H :    0.028132
  27 H :    0.020499
  28 C :   -0.058427
  29 H :    0.008714
  30 H :    0.024859
  31 H :    0.028172
  32 H :    0.033469
  33 H :    0.043424

  Mayer bond orders larger than 0.100000
B(  0-S ,  1-C ) :   1.1247 B(  0-S ,  4-C ) :   1.1475 B(  1-C ,  2-C ) :   1.6384
B(  1-C , 32-H ) :   0.9593 B(  2-C ,  3-C ) :   1.2281 B(  2-C ,  6-C ) :   0.9996
B(  3-C ,  4-C ) :   1.5861 B(  3-C ,  5-H ) :   0.9917 B(  4-C , 20-C ) :   1.0118
B(  6-C ,  7-H ) :   0.9389 B(  6-C ,  8-H ) :   0.9479 B(  6-C ,  9-C ) :   1.0791
B(  9-C , 10-H ) :   0.9567 B(  9-C , 11-H ) :   0.9573 B(  9-C , 12-C ) :   1.0774
B( 12-C , 13-H ) :   0.9730 B( 12-C , 14-H ) :   0.9719 B( 12-C , 15-H ) :   0.9709
B( 16-S , 17-C ) :   1.1383 B( 16-S , 20-C ) :   1.1593 B( 17-C , 18-C ) :   1.6376
B( 17-C , 33-H ) :   0.9589 B( 18-C , 19-C ) :   1.1952 B( 18-C , 21-H ) :   0.9857
B( 19-C , 20-C ) :   1.6015 B( 19-C , 22-C ) :   1.0575 B( 22-C , 23-H ) :   0.9347
B( 22-C , 24-H ) :   0.9271 B( 22-C , 25-C ) :   1.0813 B( 25-C , 26-H ) :   0.9519
B( 25-C , 27-H ) :   0.9540 B( 25-C , 28-C ) :   1.0705 B( 28-C , 29-H ) :   0.9705
B( 28-C , 30-H ) :   0.9749 B( 28-C , 31-H ) :   0.9696

Dispersion correction           -0.015021769
FINAL SINGLE POINT ENERGY     -1339.873704569942

DIPOLE MOMENT
-------------
                                X             Y             Z
Electronic contribution:     -3.62780     -18.29419     -16.71872
Nuclear contribution   :      3.99359      18.74983      16.92324
                        -----------------------------------------
Total Dipole Moment    :      0.36579       0.45564       0.20452
                        -----------------------------------------
Magnitude (a.u.)       :      0.61906
Magnitude (Debye)      :      1.57353

Rotational constants in cm-1:     0.021132     0.008672     0.007181
Rotational constants in MHz :   633.510537   259.987410   215.267911

                             ****ORCA TERMINATED NORMALLY****
TOTAL RUN TIME: 0 days 0 hours 0 minutes 35 seconds 318 msec
