                         Program Version 4.2.1 -  RELEASE  -
|  1> ! wB97X-D3 SP def2-SVP
|  2> %pal
|  3> nprocs 16
|  4> end
|  5>
|  6> * xyz 0 1
|  7> S 	 -67.2794 	 37.4085 	 142.866
|  8> C 	 -68.4791 	 36.1143 	 142.818
|  9> C 	 -68.0173 	 34.9413 	 143.406
| 10> C 	 -66.5978 	 35.0278 	 143.567
| 11> C 	 -66.0247 	 36.2296 	 143.26
| 12> H 	 -65.837 	 34.256 	 143.9
| 13> C 	 -68.7076 	 33.548 	 143.441
| 14> H 	 -69.631 	 33.7111 	 143.943
| 15> H 	 -68.058 	 32.8699 	 143.985
| 16> C 	 -69.0695 	 32.8694 	 142.023
| 17> H 	 -68.0965 	 32.6949 	 141.522
| 18> H 	 -69.4938 	 31.8511 	 142.083
| 19> C 	 -70.1156 	 33.7048 	 141.149
| 20> H 	 -70.3329 	 33.3013 	 140.191
| 21> H 	 -71.0825 	 33.6824 	 141.664
| 22> H 	 -69.8117 	 34.7568 	 141.075
| 23> S 	 -64.1931 	 37.8587 	 144.641
| 24> C 	 -62.5075 	 37.6775 	 144.331
| 25> C 	 -62.2797 	 36.864 	 143.255
| 26> C 	 -63.4352 	 36.268 	 142.739
| 27> C 	 -64.617 	 36.6344 	 143.408
| 28> H 	 -61.2466 	 36.5632 	 143.014
| 29> C 	 -63.3869 	 35.3015 	 141.482
| 30> H 	 -64.239 	 34.63 	 141.464
| 31> H 	 -62.541 	 34.5052 	 141.629
| 32> C 	 -63.2443 	 36.0373 	 140.186
| 33> H 	 -63.2297 	 35.2822 	 139.398
| 34> H 	 -62.3552 	 36.6497 	 140.178
| 35> C 	 -64.5076 	 36.8979 	 139.814
| 36> H 	 -64.4467 	 37.4173 	 138.915
| 37> H 	 -64.7454 	 37.662 	 140.552
| 38> H 	 -65.3562 	 36.2179 	 139.848
| 39> H 	 -69.4737 	 36.2521 	 142.519
| 40> H 	 -61.7344 	 38.2968 	 144.836
| 41> *
| 42>
| 43>                          ****END OF INPUT****

CARTESIAN COORDINATES (ANGSTROEM)
---------------------------------
  S    -67.279400   37.408500  142.866000
  C    -68.479100   36.114300  142.818000
  C    -68.017300   34.941300  143.406000
  C    -66.597800   35.027800  143.567000
  C    -66.024700   36.229600  143.260000
  H    -65.837000   34.256000  143.900000
  C    -68.707600   33.548000  143.441000
  H    -69.631000   33.711100  143.943000
  H    -68.058000   32.869900  143.985000
  C    -69.069500   32.869400  142.023000
  H    -68.096500   32.694900  141.522000
  H    -69.493800   31.851100  142.083000
  C    -70.115600   33.704800  141.149000
  H    -70.332900   33.301300  140.191000
  H    -71.082500   33.682400  141.664000
  H    -69.811700   34.756800  141.075000
  S    -64.193100   37.858700  144.641000
  C    -62.507500   37.677500  144.331000
  C    -62.279700   36.864000  143.255000
  C    -63.435200   36.268000  142.739000
  C    -64.617000   36.634400  143.408000
  H    -61.246600   36.563200  143.014000
  C    -63.386900   35.301500  141.482000
  H    -64.239000   34.630000  141.464000
  H    -62.541000   34.505200  141.629000
  C    -63.244300   36.037300  140.186000
  H    -63.229700   35.282200  139.398000
  H    -62.355200   36.649700  140.178000
  C    -64.507600   36.897900  139.814000
  H    -64.446700   37.417300  138.915000
  H    -64.745400   37.662000  140.552000
  H    -65.356200   36.217900  139.848000
  H    -69.473700   36.252100  142.519000
  H    -61.734400   38.296800  144.836000

 Total Charge           Charge          ....    0
 Multiplicity           Mult            ....    1
 Number of Electrons    NEL             ....  134
 Basis Dimension        Dim             ....  322

ORBITAL ENERGIES
----------------

  NO   OCC          E(Eh)            E(eV)
   0   2.0000     -88.967576     -2420.9308
   1   2.0000     -88.964807     -2420.8555
   2   2.0000     -10.331723      -281.1405
   3   2.0000     -10.329488      -281.0797
   4   2.0000     -10.318673      -280.7854
   5   2.0000     -10.317894      -280.7642
   6   2.0000     -10.308694      -280.5138
   7   2.0000     -10.307726      -280.4875
   8   2.0000     -10.301525      -280.3187
   9   2.0000     -10.301080      -280.3066
  10   2.0000     -10.299958      -280.2761
  11   2.0000     -10.298685      -280.2415
  12   2.0000     -10.291749      -280.0527
  13   2.0000     -10.283351      -279.8242
  14   2.0000     -10.281931      -279.7856
  15   2.0000     -10.264624      -279.3146
  16   2.0000      -8.081837      -219.9180
  17   2.0000      -8.079625      -219.8578
  18   2.0000      -6.040396      -164.3675
  19   2.0000      -6.038065      -164.3041
  20   2.0000      -6.036470      -164.2607
  21   2.0000      -6.034041      -164.1946
  22   2.0000      -6.032503      -164.1528
  23   2.0000      -6.030521      -164.0988
  24   2.0000      -1.004580       -27.3360
  25   2.0000      -0.985158       -26.8075
  26   2.0000      -0.903814       -24.5940
  27   2.0000      -0.898682       -24.4544
  28   2.0000      -0.863819       -23.5057
  29   2.0000      -0.845621       -23.0105
  30   2.0000      -0.841357       -22.8945
  31   2.0000      -0.809840       -22.0369
  32   2.0000      -0.784736       -21.3537
  33   2.0000      -0.775704       -21.1080
  34   2.0000      -0.706110       -19.2142
  35   2.0000      -0.701028       -19.0760
  36   2.0000      -0.690318       -18.7845
  37   2.0000      -0.651775       -17.7357
  38   2.0000      -0.646824       -17.6010
  39   2.0000      -0.613399       -16.6914
  40   2.0000      -0.597901       -16.2697
  41   2.0000      -0.564515       -15.3612
  42   2.0000      -0.546221       -14.8634
  43   2.0000      -0.545060       -14.8318
  44   2.0000      -0.543462       -14.7883
  45   2.0000      -0.537152       -14.6167
  46   2.0000      -0.513661       -13.9774
  47   2.0000      -0.507855       -13.8194
  48   2.0000      -0.501135       -13.6366
  49   2.0000      -0.489158       -13.3107
  50   2.0000      -0.482794       -13.1375
  51   2.0000      -0.478139       -13.0108
  52   2.0000      -0.469824       -12.7846
  53   2.0000      -0.461833       -12.5671
  54   2.0000      -0.459210       -12.4958
  55   2.0000      -0.447989       -12.1904
  56   2.0000      -0.441727       -12.0200
  57   2.0000      -0.440766       -11.9938
  58   2.0000      -0.436407       -11.8752
  59   2.0000      -0.431879       -11.7520
  60   2.0000      -0.417799       -11.3689
  61   2.0000      -0.412213       -11.2169
  62   2.0000      -0.403254       -10.9731
  63   2.0000      -0.341159        -9.2834
  64   2.0000      -0.334663        -9.1066
  65   2.0000      -0.331224        -9.0131
  66   2.0000      -0.299234        -8.1426
  67   0.0000       0.034841         0.9481
  68   0.0000       0.052288         1.4228
  69   0.0000       0.110491         3.0066
  70   0.0000       0.122370         3.3299
  71   0.0000       0.126720         3.4482

MULLIKEN ATOMIC CHARGES
-----------------------
   0 S :    0.112166
   1 C :   -0.112553
   2 C :   -0.065961
   3 C :    0.015846
   4 C :   -0.170454
   5 H :    0.036375
   6 C :    0.067411
   7 H :    0.027054
   8 H :    0.032731
   9 C :   -0.084540
  10 H :    0.033983
  11 H :    0.038811
  12 C :   -0.067944
  13 H :    0.032605
  14 H :    0.028328
  15 H :    0.038320
  16 S :    0.104505
  17 C :   -0.107015
  18 C :   -0.041633
  19 C :   -0.025684
  20 C :   -0.182652
  21 H :    0.031156
  22 C :    0.037846
  23 H :    0.014796
  24 H :    0.038367
  25 C :   -0.045599
  26 H :    0.029836
  27 H :    0.029940
  28 C :   -0.035111
  29 H :    0.023171
  30 H :    0.027932
  31 H :    0.022457
  32 H :    0.040513
  33 H :    0.074995
Sum of atomic charges:   -0.0000000

LOEWDIN ATOMIC CHARGES
----------------------
   0 S :    0.394061
   1 C :   -0.174601
   2 C :   -0.063352
   3 C :   -0.065472
   4 C :   -0.195564
   5 H :    0.044704
   6 C :   -0.021983
   7 H :    0.024894
   8 H :    0.031452
   9 C :   -0.037235
  10 H :    0.023250
  11 H :    0.027027
  12 C :   -0.069393
  13 H :    0.022613
  14 H :    0.025699
  15 H :    0.024966
  16 S :    0.402224
  17 C :   -0.193066
  18 C :   -0.085033
  19 C :   -0.052885
  20 C :   -0.196388
  21 H :    0.037999
  22 C :   -0.033698
  23 H :    0.023809
  24 H :    0.038372
  25 C :   -0.036810
  26 H :    0.026653
  27 H :    0.020450
  28 C :   -0.059140
  29 H :    0.015940
  30 H :    0.022207
  31 H :    0.024720
  32 H :    0.014433
  33 H :    0.039149

  Mayer bond orders larger than 0.100000
B(  0-S ,  1-C ) :   1.1475 B(  0-S ,  4-C ) :   1.1261 B(  1-C ,  2-C ) :   1.6113
B(  1-C , 32-H ) :   0.9667 B(  2-C ,  3-C ) :   1.2059 B(  2-C ,  6-C ) :   1.0278
B(  3-C ,  4-C ) :   1.6390 B(  3-C ,  5-H ) :   0.9780 B(  4-C , 20-C ) :   1.0279
B(  6-C ,  7-H ) :   0.9400 B(  6-C ,  8-H ) :   0.9493 B(  6-C ,  9-C ) :   1.0497
B(  9-C , 10-H ) :   0.9623 B(  9-C , 11-H ) :   0.9600 B(  9-C , 12-C ) :   1.0627
B( 12-C , 13-H ) :   0.9747 B( 12-C , 14-H ) :   0.9770 B( 12-C , 15-H ) :   0.9740
B( 16-S , 17-C ) :   1.1726 B( 16-S , 20-C ) :   1.1428 B( 17-C , 18-C ) :   1.5939
B( 17-C , 20-C ) :   0.1067 B( 17-C , 33-H ) :   0.9594 B( 18-C , 19-C ) :   1.2697
B( 18-C , 21-H ) :   0.9835 B( 19-C , 20-C ) :   1.5882 B( 19-C , 22-C ) :   1.0209
B( 22-C , 23-H ) :   0.9373 B( 22-C , 24-H ) :   0.9425 B( 22-C , 25-C ) :   1.0774
B( 25-C , 26-H ) :   0.9533 B( 25-C , 27-H ) :   0.9581 B( 25-C , 28-C ) :   1.0688
B( 28-C , 29-H ) :   0.9760 B( 28-C , 30-H ) :   0.9750 B( 28-C , 31-H ) :   0.9750

Dispersion correction           -0.015434368
FINAL SINGLE POINT ENERGY     -1339.871320823574

DIPOLE MOMENT
-------------
                                X             Y             Z
Electronic contribution:      6.84495      16.96927      17.56066
Nuclear contribution   :     -6.81208     -17.52998     -17.80973
                        -----------------------------------------
Total Dipole Moment    :      0.03287      -0.56070      -0.24907
                        -----------------------------------------
Magnitude (a.u.)       :      0.61441
Magnitude (Debye)      :      1.56171

Rotational constants in cm-1:     0.021839     0.008327     0.007259
Rotational constants in MHz :   654.705777   249.633892   217.628078

                             ****ORCA TERMINATED NORMALLY****
TOTAL RUN TIME: 0 days 0 hours 0 minutes 35 seconds 521 msec
