                         Program Version 4.2.1 -  RELEASE  -
|  1> ! wB97X-D3 SP def2-SVP
|  2> %pal
|  3> nprocs 16
|  4> end
|  5>
|  6> * xyz 0 1
|  7> S 	 21.1477 	 3.11954 	 79.5436
|  8> C 	 22.3463 	 2.49217 	 80.5402
|  9> C 	 22.7074 	 3.3779 	 81.5355
| 10> C 	 21.9187 	 4.54269 	 81.5556
| 11> C 	 20.9557 	 4.57099 	 80.6311
| 12> H 	 21.997 	 5.28404 	 82.3147
| 13> C 	 23.8259 	 3.0728 	 82.6087
| 14> H 	 24.5085 	 3.85413 	 82.6797
| 15> H 	 24.5093 	 2.30837 	 82.2273
| 16> C 	 23.2641 	 2.6071 	 83.9686
| 17> H 	 22.8823 	 3.46845 	 84.5002
| 18> H 	 22.5064 	 1.90645 	 83.7822
| 19> C 	 24.3654 	 1.97682 	 84.8333
| 20> H 	 25.2356 	 2.60342 	 84.8788
| 21> H 	 24.0319 	 1.89805 	 85.8815
| 22> H 	 24.6102 	 0.994882 	 84.5545
| 23> S 	 19.9695 	 6.16214 	 78.6761
| 24> C 	 19.057 	 7.59781 	 78.9721
| 25> C 	 18.7804 	 7.72357 	 80.3093
| 26> C 	 19.3876 	 6.62643 	 81.0608
| 27> C 	 20.0598 	 5.69107 	 80.3003
| 28> H 	 18.3731 	 8.59529 	 80.7771
| 29> C 	 19.2654 	 6.6221 	 82.5596
| 30> H 	 18.7699 	 7.48965 	 82.8617
| 31> H 	 20.2339 	 6.68797 	 83.0258
| 32> C 	 18.635 	 5.29983 	 83.1251
| 33> H 	 19.2937 	 4.53905 	 82.7762
| 34> H 	 17.6588 	 5.14988 	 82.6697
| 35> C 	 18.5103 	 5.24674 	 84.6859
| 36> H 	 17.8159 	 5.99143 	 85.0485
| 37> H 	 19.464 	 5.52207 	 85.1261
| 38> H 	 18.1138 	 4.23713 	 85.0616
| 39> H 	 22.7439 	 1.50009 	 80.3997
| 40> H 	 18.6576 	 8.2744 	 78.2299
| 41> *
| 42>
| 43>                          ****END OF INPUT****

CARTESIAN COORDINATES (ANGSTROEM)
---------------------------------
  S     21.147700    3.119540   79.543600
  C     22.346300    2.492170   80.540200
  C     22.707400    3.377900   81.535500
  C     21.918700    4.542690   81.555600
  C     20.955700    4.570990   80.631100
  H     21.997000    5.284040   82.314700
  C     23.825900    3.072800   82.608700
  H     24.508500    3.854130   82.679700
  H     24.509300    2.308370   82.227300
  C     23.264100    2.607100   83.968600
  H     22.882300    3.468450   84.500200
  H     22.506400    1.906450   83.782200
  C     24.365400    1.976820   84.833300
  H     25.235600    2.603420   84.878800
  H     24.031900    1.898050   85.881500
  H     24.610200    0.994882   84.554500
  S     19.969500    6.162140   78.676100
  C     19.057000    7.597810   78.972100
  C     18.780400    7.723570   80.309300
  C     19.387600    6.626430   81.060800
  C     20.059800    5.691070   80.300300
  H     18.373100    8.595290   80.777100
  C     19.265400    6.622100   82.559600
  H     18.769900    7.489650   82.861700
  H     20.233900    6.687970   83.025800
  C     18.635000    5.299830   83.125100
  H     19.293700    4.539050   82.776200
  H     17.658800    5.149880   82.669700
  C     18.510300    5.246740   84.685900
  H     17.815900    5.991430   85.048500
  H     19.464000    5.522070   85.126100
  H     18.113800    4.237130   85.061600
  H     22.743900    1.500090   80.399700
  H     18.657600    8.274400   78.229900

 Total Charge           Charge          ....    0
 Multiplicity           Mult            ....    1
 Number of Electrons    NEL             ....  134
 Basis Dimension        Dim             ....  322

ORBITAL ENERGIES
----------------

  NO   OCC          E(Eh)            E(eV)
   0   2.0000     -88.966528     -2420.9023
   1   2.0000     -88.962957     -2420.8051
   2   2.0000     -10.333541      -281.1900
   3   2.0000     -10.323294      -280.9111
   4   2.0000     -10.314818      -280.6805
   5   2.0000     -10.311546      -280.5914
   6   2.0000     -10.300830      -280.2998
   7   2.0000     -10.300517      -280.2913
   8   2.0000     -10.293392      -280.0974
   9   2.0000     -10.290339      -280.0144
  10   2.0000     -10.289579      -279.9937
  11   2.0000     -10.282915      -279.8123
  12   2.0000     -10.282265      -279.7947
  13   2.0000     -10.282234      -279.7938
  14   2.0000     -10.281194      -279.7655
  15   2.0000     -10.273691      -279.5613
  16   2.0000      -8.081641      -219.9126
  17   2.0000      -8.079180      -219.8457
  18   2.0000      -6.040100      -164.3595
  19   2.0000      -6.037682      -164.2937
  20   2.0000      -6.036136      -164.2516
  21   2.0000      -6.033294      -164.1743
  22   2.0000      -6.032386      -164.1496
  23   2.0000      -6.030023      -164.0853
  24   2.0000      -1.014792       -27.6139
  25   2.0000      -0.993213       -27.0267
  26   2.0000      -0.907999       -24.7079
  27   2.0000      -0.904201       -24.6045
  28   2.0000      -0.876974       -23.8637
  29   2.0000      -0.855307       -23.2741
  30   2.0000      -0.842455       -22.9244
  31   2.0000      -0.821089       -22.3430
  32   2.0000      -0.779199       -21.2031
  33   2.0000      -0.768796       -20.9200
  34   2.0000      -0.709506       -19.3066
  35   2.0000      -0.704295       -19.1648
  36   2.0000      -0.691286       -18.8108
  37   2.0000      -0.671098       -18.2615
  38   2.0000      -0.647805       -17.6277
  39   2.0000      -0.628923       -17.1139
  40   2.0000      -0.594991       -16.1905
  41   2.0000      -0.577083       -15.7032
  42   2.0000      -0.564712       -15.3666
  43   2.0000      -0.558670       -15.2022
  44   2.0000      -0.524055       -14.2602
  45   2.0000      -0.518846       -14.1185
  46   2.0000      -0.513625       -13.9765
  47   2.0000      -0.510683       -13.8964
  48   2.0000      -0.508677       -13.8418
  49   2.0000      -0.503823       -13.7097
  50   2.0000      -0.496760       -13.5175
  51   2.0000      -0.487469       -13.2647
  52   2.0000      -0.475947       -12.9512
  53   2.0000      -0.470274       -12.7968
  54   2.0000      -0.462136       -12.5753
  55   2.0000      -0.448108       -12.1936
  56   2.0000      -0.443808       -12.0766
  57   2.0000      -0.437387       -11.9019
  58   2.0000      -0.428994       -11.6735
  59   2.0000      -0.426746       -11.6124
  60   2.0000      -0.421089       -11.4584
  61   2.0000      -0.417283       -11.3548
  62   2.0000      -0.414755       -11.2861
  63   2.0000      -0.362570        -9.8660
  64   2.0000      -0.335441        -9.1278
  65   2.0000      -0.323984        -8.8161
  66   2.0000      -0.291052        -7.9199
  67   0.0000       0.031962         0.8697
  68   0.0000       0.074408         2.0247
  69   0.0000       0.109827         2.9885
  70   0.0000       0.122436         3.3317
  71   0.0000       0.137129         3.7315

MULLIKEN ATOMIC CHARGES
-----------------------
   0 S :    0.105811
   1 C :   -0.110985
   2 C :   -0.093637
   3 C :    0.047504
   4 C :   -0.135818
   5 H :   -0.002503
   6 C :    0.072646
   7 H :    0.007426
   8 H :    0.007032
   9 C :   -0.036638
  10 H :    0.026574
  11 H :    0.023174
  12 C :   -0.037724
  13 H :    0.023880
  14 H :    0.028510
  15 H :    0.024421
  16 S :    0.105570
  17 C :   -0.086098
  18 C :   -0.019856
  19 C :   -0.097906
  20 C :   -0.112761
  21 H :    0.018329
  22 C :    0.100192
  23 H :   -0.012156
  24 H :    0.012744
  25 C :   -0.082310
  26 H :    0.037630
  27 H :    0.032138
  28 C :   -0.051325
  29 H :    0.025305
  30 H :    0.021572
  31 H :    0.051303
  32 H :    0.049312
  33 H :    0.058640
Sum of atomic charges:   -0.0000000

LOEWDIN ATOMIC CHARGES
----------------------
   0 S :    0.400768
   1 C :   -0.206665
   2 C :   -0.064561
   3 C :   -0.055056
   4 C :   -0.168373
   5 H :    0.029504
   6 C :   -0.026762
   7 H :    0.018411
   8 H :    0.027900
   9 C :   -0.030306
  10 H :    0.022694
  11 H :    0.019192
  12 C :   -0.060148
  13 H :    0.022034
  14 H :    0.029674
  15 H :    0.017234
  16 S :    0.440923
  17 C :   -0.192238
  18 C :   -0.070263
  19 C :   -0.059495
  20 C :   -0.216672
  21 H :    0.029793
  22 C :   -0.028291
  23 H :    0.016128
  24 H :    0.024165
  25 C :   -0.032343
  26 H :    0.020094
  27 H :    0.023301
  28 C :   -0.070011
  29 H :    0.020781
  30 H :    0.019976
  31 H :    0.037008
  32 H :    0.029207
  33 H :    0.032397

  Mayer bond orders larger than 0.100000
B(  0-S ,  1-C ) :   1.1587 B(  0-S ,  4-C ) :   1.1315 B(  1-C ,  2-C ) :   1.6036
B(  1-C , 32-H ) :   0.9685 B(  2-C ,  3-C ) :   1.2569 B(  2-C ,  6-C ) :   1.0186
B(  3-C ,  4-C ) :   1.5794 B(  3-C ,  5-H ) :   1.0004 B(  4-C , 20-C ) :   1.0312
B(  6-C ,  7-H ) :   0.9375 B(  6-C ,  8-H ) :   0.9454 B(  6-C ,  9-C ) :   1.0572
B(  9-C , 10-H ) :   0.9558 B(  9-C , 11-H ) :   0.9584 B(  9-C , 12-C ) :   1.0907
B( 12-C , 13-H ) :   0.9741 B( 12-C , 14-H ) :   0.9730 B( 12-C , 15-H ) :   0.9763
B( 16-S , 17-C ) :   1.1736 B( 16-S , 20-C ) :   1.1499 B( 17-C , 18-C ) :   1.5855
B( 17-C , 33-H ) :   0.9670 B( 18-C , 19-C ) :   1.2674 B( 18-C , 21-H ) :   0.9914
B( 19-C , 20-C ) :   1.5821 B( 19-C , 22-C ) :   1.0626 B( 22-C , 23-H ) :   0.9266
B( 22-C , 24-H ) :   0.9253 B( 22-C , 25-C ) :   1.0535 B( 25-C , 26-H ) :   0.9563
B( 25-C , 27-H ) :   0.9590 B( 25-C , 28-C ) :   1.0794 B( 28-C , 29-H ) :   0.9765
B( 28-C , 30-H ) :   0.9735 B( 28-C , 31-H ) :   0.9751

Dispersion correction           -0.014253275
FINAL SINGLE POINT ENERGY     -1339.881491817724

DIPOLE MOMENT
-------------
                                X             Y             Z
Electronic contribution:     -5.41072       4.94215     -31.14946
Nuclear contribution   :      5.63558      -4.81065      31.78290
                        -----------------------------------------
Total Dipole Moment    :      0.22486       0.13150       0.63344
                        -----------------------------------------
Magnitude (a.u.)       :      0.68491
Magnitude (Debye)      :      1.74089

Rotational constants in cm-1:     0.018915     0.008865     0.006653
Rotational constants in MHz :   567.045079   265.764900   199.464164

                             ****ORCA TERMINATED NORMALLY****
TOTAL RUN TIME: 0 days 0 hours 0 minutes 33 seconds 233 msec
