                         Program Version 4.2.1 -  RELEASE  -
|  1> ! wB97X-D3 SP def2-SVP
|  2> %pal
|  3> nprocs 16
|  4> end
|  5>
|  6> * xyz 0 1
|  7> S 	 -46.9062 	 33.1145 	 98.0845
|  8> C 	 -46.548 	 34.3209 	 96.9512
|  9> C 	 -46.2241 	 35.5306 	 97.587
| 10> C 	 -46.0442 	 35.3554 	 99.0013
| 11> C 	 -46.3253 	 34.0611 	 99.4146
| 12> H 	 -45.8413 	 36.1899 	 99.637
| 13> C 	 -45.8233 	 36.8409 	 96.8819
| 14> H 	 -46.7158 	 37.1353 	 96.2437
| 15> H 	 -44.859 	 36.6765 	 96.2915
| 16> C 	 -45.6184 	 38.0803 	 97.7631
| 17> H 	 -46.5189 	 38.2554 	 98.3447
| 18> H 	 -44.8369 	 37.9325 	 98.4965
| 19> C 	 -45.3185 	 39.282 	 96.9063
| 20> H 	 -45.3121 	 40.2063 	 97.398
| 21> H 	 -44.3236 	 39.2071 	 96.427
| 22> H 	 -45.9138 	 39.2981 	 96.0223
| 23> S 	 -47.5373 	 32.4459 	 101.294
| 24> C 	 -46.8321 	 32.4623 	 102.939
| 25> C 	 -45.7629 	 33.2773 	 103.148
| 26> C 	 -45.4593 	 33.9982 	 101.887
| 27> C 	 -46.2833 	 33.6297 	 100.799
| 28> H 	 -45.2571 	 33.3608 	 104.074
| 29> C 	 -44.3505 	 35.0041 	 101.885
| 30> H 	 -44.1924 	 35.0143 	 100.851
| 31> H 	 -43.3552 	 34.7193 	 102.25
| 32> C 	 -44.6271 	 36.4113 	 102.28
| 33> H 	 -44.5485 	 36.3518 	 103.393
| 34> H 	 -45.6226 	 36.7771 	 102.014
| 35> C 	 -43.5351 	 37.4569 	 101.883
| 36> H 	 -43.0783 	 37.0546 	 101.012
| 37> H 	 -42.7983 	 37.3874 	 102.652
| 38> H 	 -44.0656 	 38.4196 	 101.716
| 39> H 	 -46.6105 	 34.2215 	 95.8611
| 40> H 	 -47.1052 	 31.6769 	 103.623
| 41> *
| 42>
| 43>                          ****END OF INPUT****

CARTESIAN COORDINATES (ANGSTROEM)
---------------------------------
  S    -46.906200   33.114500   98.084500
  C    -46.548000   34.320900   96.951200
  C    -46.224100   35.530600   97.587000
  C    -46.044200   35.355400   99.001300
  C    -46.325300   34.061100   99.414600
  H    -45.841300   36.189900   99.637000
  C    -45.823300   36.840900   96.881900
  H    -46.715800   37.135300   96.243700
  H    -44.859000   36.676500   96.291500
  C    -45.618400   38.080300   97.763100
  H    -46.518900   38.255400   98.344700
  H    -44.836900   37.932500   98.496500
  C    -45.318500   39.282000   96.906300
  H    -45.312100   40.206300   97.398000
  H    -44.323600   39.207100   96.427000
  H    -45.913800   39.298100   96.022300
  S    -47.537300   32.445900  101.294000
  C    -46.832100   32.462300  102.939000
  C    -45.762900   33.277300  103.148000
  C    -45.459300   33.998200  101.887000
  C    -46.283300   33.629700  100.799000
  H    -45.257100   33.360800  104.074000
  C    -44.350500   35.004100  101.885000
  H    -44.192400   35.014300  100.851000
  H    -43.355200   34.719300  102.250000
  C    -44.627100   36.411300  102.280000
  H    -44.548500   36.351800  103.393000
  H    -45.622600   36.777100  102.014000
  C    -43.535100   37.456900  101.883000
  H    -43.078300   37.054600  101.012000
  H    -42.798300   37.387400  102.652000
  H    -44.065600   38.419600  101.716000
  H    -46.610500   34.221500   95.861100
  H    -47.105200   31.676900  103.623000

 Total Charge           Charge          ....    0
 Multiplicity           Mult            ....    1
 Number of Electrons    NEL             ....  134
 Basis Dimension        Dim             ....  322

ORBITAL ENERGIES
----------------

  NO   OCC          E(Eh)            E(eV)
   0   2.0000     -88.971656     -2421.0418
   1   2.0000     -88.964442     -2420.8455
   2   2.0000     -10.334783      -281.2237
   3   2.0000     -10.329418      -281.0778
   4   2.0000     -10.316215      -280.7185
   5   2.0000     -10.315349      -280.6949
   6   2.0000     -10.310895      -280.5737
   7   2.0000     -10.304504      -280.3998
   8   2.0000     -10.303730      -280.3788
   9   2.0000     -10.294947      -280.1398
  10   2.0000     -10.293078      -280.0889
  11   2.0000     -10.286949      -279.9221
  12   2.0000     -10.285014      -279.8695
  13   2.0000     -10.280347      -279.7425
  14   2.0000     -10.279123      -279.7092
  15   2.0000     -10.273234      -279.5489
  16   2.0000      -8.087304      -220.0667
  17   2.0000      -8.078328      -219.8225
  18   2.0000      -6.045776      -164.5139
  19   2.0000      -6.041624      -164.4010
  20   2.0000      -6.038109      -164.3053
  21   2.0000      -6.037043      -164.2763
  22   2.0000      -6.033203      -164.1718
  23   2.0000      -6.028690      -164.0490
  24   2.0000      -1.008919       -27.4541
  25   2.0000      -0.977629       -26.6026
  26   2.0000      -0.916501       -24.9393
  27   2.0000      -0.913981       -24.8707
  28   2.0000      -0.872949       -23.7542
  29   2.0000      -0.855793       -23.2873
  30   2.0000      -0.846444       -23.0329
  31   2.0000      -0.815964       -22.2035
  32   2.0000      -0.781546       -21.2669
  33   2.0000      -0.770128       -20.9563
  34   2.0000      -0.713156       -19.4060
  35   2.0000      -0.696840       -18.9620
  36   2.0000      -0.689848       -18.7717
  37   2.0000      -0.663021       -18.0417
  38   2.0000      -0.637880       -17.3576
  39   2.0000      -0.625337       -17.0163
  40   2.0000      -0.599201       -16.3051
  41   2.0000      -0.574622       -15.6363
  42   2.0000      -0.573695       -15.6110
  43   2.0000      -0.567277       -15.4364
  44   2.0000      -0.535177       -14.5629
  45   2.0000      -0.526350       -14.3227
  46   2.0000      -0.516753       -14.0616
  47   2.0000      -0.508173       -13.8281
  48   2.0000      -0.503760       -13.7080
  49   2.0000      -0.499171       -13.5831
  50   2.0000      -0.495374       -13.4798
  51   2.0000      -0.480993       -13.0885
  52   2.0000      -0.476276       -12.9601
  53   2.0000      -0.470052       -12.7908
  54   2.0000      -0.459741       -12.5102
  55   2.0000      -0.448574       -12.2063
  56   2.0000      -0.446276       -12.1438
  57   2.0000      -0.441840       -12.0231
  58   2.0000      -0.429927       -11.6989
  59   2.0000      -0.424661       -11.5556
  60   2.0000      -0.421999       -11.4832
  61   2.0000      -0.419744       -11.4218
  62   2.0000      -0.395002       -10.7485
  63   2.0000      -0.357846        -9.7375
  64   2.0000      -0.333700        -9.0804
  65   2.0000      -0.328082        -8.9276
  66   2.0000      -0.283357        -7.7105
  67   0.0000       0.022016         0.5991
  68   0.0000       0.074000         2.0136
  69   0.0000       0.099817         2.7162
  70   0.0000       0.118834         3.2336
  71   0.0000       0.122771         3.3408

MULLIKEN ATOMIC CHARGES
-----------------------
   0 S :    0.134692
   1 C :   -0.123153
   2 C :   -0.083006
   3 C :   -0.004051
   4 C :   -0.103916
   5 H :   -0.001596
   6 C :   -0.010016
   7 H :    0.047063
   8 H :    0.061487
   9 C :   -0.101412
  10 H :    0.031629
  11 H :    0.033025
  12 C :    0.013206
  13 H :    0.026598
  14 H :    0.015931
  15 H :    0.010972
  16 S :    0.074793
  17 C :   -0.077626
  18 C :    0.007261
  19 C :   -0.076465
  20 C :   -0.122210
  21 H :    0.013587
  22 C :    0.076121
  23 H :   -0.010022
  24 H :    0.022859
  25 C :   -0.113455
  26 H :    0.023479
  27 H :    0.036635
  28 C :   -0.012216
  29 H :    0.017004
  30 H :    0.028233
  31 H :    0.054802
  32 H :    0.054774
  33 H :    0.054990
Sum of atomic charges:   -0.0000000

LOEWDIN ATOMIC CHARGES
----------------------
   0 S :    0.444292
   1 C :   -0.218474
   2 C :   -0.067005
   3 C :   -0.062217
   4 C :   -0.204770
   5 H :    0.026698
   6 C :   -0.040223
   7 H :    0.040305
   8 H :    0.042573
   9 C :   -0.047937
  10 H :    0.023892
  11 H :    0.020020
  12 C :   -0.059139
  13 H :    0.020421
  14 H :    0.029379
  15 H :    0.021361
  16 S :    0.355866
  17 C :   -0.162991
  18 C :   -0.058243
  19 C :   -0.044313
  20 C :   -0.173705
  21 H :    0.030954
  22 C :   -0.049128
  23 H :    0.019545
  24 H :    0.032958
  25 C :   -0.044246
  26 H :    0.024509
  27 H :    0.019969
  28 C :   -0.057283
  29 H :    0.017182
  30 H :    0.024292
  31 H :    0.037576
  32 H :    0.034946
  33 H :    0.022936

  Mayer bond orders larger than 0.100000
B(  0-S ,  1-C ) :   1.1599 B(  0-S ,  4-C ) :   1.1631 B(  1-C ,  2-C ) :   1.5721
B(  1-C , 32-H ) :   0.9724 B(  2-C ,  3-C ) :   1.2987 B(  2-C ,  6-C ) :   1.0044
B(  3-C ,  4-C ) :   1.4935 B(  3-C ,  5-H ) :   0.9935 B(  4-C , 20-C ) :   1.0827
B(  6-C ,  7-H ) :   0.9379 B(  6-C ,  8-H ) :   0.9462 B(  6-C ,  9-C ) :   1.0890
B(  9-C , 10-H ) :   0.9525 B(  9-C , 11-H ) :   0.9416 B(  9-C , 12-C ) :   1.0909
B( 12-C , 13-H ) :   0.9711 B( 12-C , 14-H ) :   0.9664 B( 12-C , 15-H ) :   0.9696
B( 16-S , 17-C ) :   1.1227 B( 16-S , 20-C ) :   1.1066 B( 17-C , 18-C ) :   1.6668
B( 17-C , 33-H ) :   0.9605 B( 18-C , 19-C ) :   1.1801 B( 18-C , 21-H ) :   0.9972
B( 19-C , 20-C ) :   1.6306 B( 19-C , 22-C ) :   1.0445 B( 22-C , 23-H ) :   0.9133
B( 22-C , 24-H ) :   0.9324 B( 22-C , 25-C ) :   1.0671 B( 25-C , 26-H ) :   0.9585
B( 25-C , 27-H ) :   0.9561 B( 25-C , 28-C ) :   1.0592 B( 28-C , 29-H ) :   0.9786
B( 28-C , 30-H ) :   0.9769 B( 28-C , 31-H ) :   0.9771

Dispersion correction           -0.014453144
FINAL SINGLE POINT ENERGY     -1339.858672179939

DIPOLE MOMENT
-------------
                                X             Y             Z
Electronic contribution:    -15.50743     -30.51551       1.29807
Nuclear contribution   :     15.93584      31.09652      -1.31389
                        -----------------------------------------
Total Dipole Moment    :      0.42841       0.58101      -0.01583
                        -----------------------------------------
Magnitude (a.u.)       :      0.72205
Magnitude (Debye)      :      1.83530

Rotational constants in cm-1:     0.017290     0.009899     0.006597
Rotational constants in MHz :   518.336313   296.772285   197.777253

                             ****ORCA TERMINATED NORMALLY****
TOTAL RUN TIME: 0 days 0 hours 0 minutes 31 seconds 594 msec
