                         Program Version 4.2.1 -  RELEASE  -
|  1> ! wB97X-D3 SP def2-SVP
|  2> %pal
|  3> nprocs 16
|  4> end
|  5>
|  6> * xyz 0 1
|  7> S 	 53.037 	 22.1515 	 93.2513
|  8> C 	 51.3475 	 22.5243 	 93.2762
|  9> C 	 50.6326 	 21.4512 	 93.754
| 10> C 	 51.4231 	 20.327 	 94.0834
| 11> C 	 52.7339 	 20.5081 	 93.8316
| 12> H 	 50.9758 	 19.4887 	 94.575
| 13> C 	 49.1958 	 21.5272 	 93.9291
| 14> H 	 48.7918 	 20.5737 	 93.5786
| 15> H 	 48.7592 	 22.2328 	 93.1332
| 16> C 	 48.5494 	 21.8793 	 95.2641
| 17> H 	 47.6179 	 21.3753 	 95.3443
| 18> H 	 49.1369 	 21.4472 	 96.0618
| 19> C 	 48.4223 	 23.3564 	 95.519
| 20> H 	 49.412 	 23.7826 	 95.2799
| 21> H 	 47.6074 	 23.7669 	 94.7626
| 22> H 	 48.1597 	 23.5874 	 96.5234
| 23> S 	 55.2538 	 20.2181 	 94.9128
| 24> C 	 56.0256 	 18.7061 	 94.9224
| 25> C 	 55.1264 	 17.6926 	 94.672
| 26> C 	 53.9448 	 18.1796 	 94.1058
| 27> C 	 53.8507 	 19.5601 	 94.1655
| 28> H 	 55.4619 	 16.6887 	 94.7163
| 29> C 	 52.8996 	 17.2732 	 93.5724
| 30> H 	 53.3924 	 16.3833 	 93.1216
| 31> H 	 52.4377 	 17.7929 	 92.7718
| 32> C 	 51.8034 	 16.8408 	 94.612
| 33> H 	 50.826 	 16.6739 	 94.1137
| 34> H 	 51.7664 	 17.6955 	 95.2991
| 35> C 	 52.2292 	 15.541 	 95.402
| 36> H 	 52.1763 	 14.6072 	 94.8549
| 37> H 	 51.7337 	 15.5384 	 96.3106
| 38> H 	 53.252 	 15.5762 	 95.773
| 39> H 	 50.9016 	 23.3464 	 92.7878
| 40> H 	 57.0176 	 18.5671 	 95.2108
| 41> *
| 42>
| 43>                          ****END OF INPUT****

CARTESIAN COORDINATES (ANGSTROEM)
---------------------------------
  S     53.037000   22.151500   93.251300
  C     51.347500   22.524300   93.276200
  C     50.632600   21.451200   93.754000
  C     51.423100   20.327000   94.083400
  C     52.733900   20.508100   93.831600
  H     50.975800   19.488700   94.575000
  C     49.195800   21.527200   93.929100
  H     48.791800   20.573700   93.578600
  H     48.759200   22.232800   93.133200
  C     48.549400   21.879300   95.264100
  H     47.617900   21.375300   95.344300
  H     49.136900   21.447200   96.061800
  C     48.422300   23.356400   95.519000
  H     49.412000   23.782600   95.279900
  H     47.607400   23.766900   94.762600
  H     48.159700   23.587400   96.523400
  S     55.253800   20.218100   94.912800
  C     56.025600   18.706100   94.922400
  C     55.126400   17.692600   94.672000
  C     53.944800   18.179600   94.105800
  C     53.850700   19.560100   94.165500
  H     55.461900   16.688700   94.716300
  C     52.899600   17.273200   93.572400
  H     53.392400   16.383300   93.121600
  H     52.437700   17.792900   92.771800
  C     51.803400   16.840800   94.612000
  H     50.826000   16.673900   94.113700
  H     51.766400   17.695500   95.299100
  C     52.229200   15.541000   95.402000
  H     52.176300   14.607200   94.854900
  H     51.733700   15.538400   96.310600
  H     53.252000   15.576200   95.773000
  H     50.901600   23.346400   92.787800
  H     57.017600   18.567100   95.210800

 Total Charge           Charge          ....    0
 Multiplicity           Mult            ....    1
 Number of Electrons    NEL             ....  134
 Basis Dimension        Dim             ....  322

ORBITAL ENERGIES
----------------

  NO   OCC          E(Eh)            E(eV)
   0   2.0000     -88.965998     -2420.8879
   1   2.0000     -88.963732     -2420.8262
   2   2.0000     -10.333457      -281.1877
   3   2.0000     -10.324409      -280.9415
   4   2.0000     -10.308461      -280.5075
   5   2.0000     -10.307448      -280.4799
   6   2.0000     -10.296458      -280.1809
   7   2.0000     -10.295668      -280.1594
   8   2.0000     -10.292763      -280.0803
   9   2.0000     -10.289119      -279.9812
  10   2.0000     -10.289096      -279.9805
  11   2.0000     -10.286102      -279.8991
  12   2.0000     -10.285389      -279.8797
  13   2.0000     -10.282634      -279.8047
  14   2.0000     -10.279145      -279.7098
  15   2.0000     -10.274190      -279.5749
  16   2.0000      -8.080847      -219.8910
  17   2.0000      -8.080145      -219.8719
  18   2.0000      -6.039416      -164.3409
  19   2.0000      -6.038365      -164.3123
  20   2.0000      -6.035300      -164.2289
  21   2.0000      -6.034445      -164.2056
  22   2.0000      -6.031574      -164.1275
  23   2.0000      -6.031083      -164.1141
  24   2.0000      -1.015610       -27.6361
  25   2.0000      -0.995968       -27.1017
  26   2.0000      -0.917733       -24.9728
  27   2.0000      -0.908234       -24.7143
  28   2.0000      -0.870300       -23.6821
  29   2.0000      -0.855351       -23.2753
  30   2.0000      -0.849557       -23.1176
  31   2.0000      -0.822012       -22.3681
  32   2.0000      -0.784525       -21.3480
  33   2.0000      -0.771764       -21.0008
  34   2.0000      -0.710439       -19.3320
  35   2.0000      -0.700995       -19.0750
  36   2.0000      -0.695114       -18.9150
  37   2.0000      -0.667119       -18.1532
  38   2.0000      -0.642766       -17.4905
  39   2.0000      -0.629004       -17.1161
  40   2.0000      -0.599845       -16.3226
  41   2.0000      -0.575331       -15.6556
  42   2.0000      -0.560281       -15.2460
  43   2.0000      -0.548571       -14.9274
  44   2.0000      -0.543827       -14.7983
  45   2.0000      -0.539630       -14.6841
  46   2.0000      -0.523442       -14.2436
  47   2.0000      -0.511440       -13.9170
  48   2.0000      -0.503040       -13.6884
  49   2.0000      -0.499302       -13.5867
  50   2.0000      -0.492922       -13.4131
  51   2.0000      -0.481564       -13.1040
  52   2.0000      -0.476045       -12.9538
  53   2.0000      -0.468815       -12.7571
  54   2.0000      -0.457960       -12.4617
  55   2.0000      -0.448322       -12.1995
  56   2.0000      -0.444642       -12.0993
  57   2.0000      -0.437615       -11.9081
  58   2.0000      -0.432033       -11.7562
  59   2.0000      -0.426313       -11.6006
  60   2.0000      -0.421744       -11.4762
  61   2.0000      -0.415877       -11.3166
  62   2.0000      -0.411985       -11.2107
  63   2.0000      -0.355267        -9.6673
  64   2.0000      -0.332120        -9.0374
  65   2.0000      -0.330075        -8.9818
  66   2.0000      -0.290557        -7.9065
  67   0.0000       0.028189         0.7671
  68   0.0000       0.075991         2.0678
  69   0.0000       0.111290         3.0284
  70   0.0000       0.120854         3.2886
  71   0.0000       0.137957         3.7540

MULLIKEN ATOMIC CHARGES
-----------------------
   0 S :    0.105481
   1 C :   -0.099344
   2 C :   -0.087389
   3 C :    0.028890
   4 C :   -0.104657
   5 H :   -0.007671
   6 C :    0.008833
   7 H :    0.014913
   8 H :    0.020467
   9 C :   -0.011502
  10 H :    0.016571
  11 H :    0.014035
  12 C :   -0.063353
  13 H :    0.036559
  14 H :    0.039927
  15 H :    0.033960
  16 S :    0.115326
  17 C :   -0.075578
  18 C :   -0.019679
  19 C :   -0.075771
  20 C :   -0.134081
  21 H :    0.007064
  22 C :    0.077337
  23 H :    0.025002
  24 H :    0.018100
  25 C :   -0.104339
  26 H :    0.044968
  27 H :    0.052392
  28 C :   -0.017157
  29 H :    0.039824
  30 H :    0.015349
  31 H :    0.013272
  32 H :    0.037999
  33 H :    0.034253
Sum of atomic charges:    0.0000000

LOEWDIN ATOMIC CHARGES
----------------------
   0 S :    0.402134
   1 C :   -0.194388
   2 C :   -0.069337
   3 C :   -0.062806
   4 C :   -0.177049
   5 H :    0.030078
   6 C :   -0.042845
   7 H :    0.030299
   8 H :    0.036637
   9 C :   -0.041660
  10 H :    0.019796
  11 H :    0.022403
  12 C :   -0.064635
  13 H :    0.027537
  14 H :    0.034527
  15 H :    0.020115
  16 S :    0.439819
  17 C :   -0.186481
  18 C :   -0.067612
  19 C :   -0.064051
  20 C :   -0.206034
  21 H :    0.025605
  22 C :   -0.033000
  23 H :    0.032000
  24 H :    0.026319
  25 C :   -0.032813
  26 H :    0.028290
  27 H :    0.023941
  28 C :   -0.065653
  29 H :    0.026318
  30 H :    0.018243
  31 H :    0.025695
  32 H :    0.022539
  33 H :    0.016069

  Mayer bond orders larger than 0.100000
B(  0-S ,  1-C ) :   1.1307 B(  0-S ,  4-C ) :   1.1548 B(  1-C ,  2-C ) :   1.5996
B(  1-C , 32-H ) :   0.9691 B(  2-C ,  3-C ) :   1.2584 B(  2-C ,  6-C ) :   1.0530
B(  3-C ,  4-C ) :   1.5563 B(  3-C ,  5-H ) :   0.9949 B(  4-C , 20-C ) :   1.0090
B(  6-C ,  7-H ) :   0.9283 B(  6-C ,  8-H ) :   0.9368 B(  6-C ,  9-C ) :   1.0592
B(  9-C , 10-H ) :   0.9508 B(  9-C , 11-H ) :   0.9501 B(  9-C , 12-C ) :   1.0840
B( 12-C , 13-H ) :   0.9739 B( 12-C , 14-H ) :   0.9731 B( 12-C , 15-H ) :   0.9729
B( 16-S , 17-C ) :   1.1848 B( 16-S , 20-C ) :   1.1644 B( 17-C , 18-C ) :   1.5658
B( 17-C , 20-C ) :   0.1007 B( 17-C , 33-H ) :   0.9765 B( 18-C , 19-C ) :   1.2737
B( 18-C , 21-H ) :   0.9947 B( 19-C , 20-C ) :   1.5674 B( 19-C , 22-C ) :   1.0674
B( 22-C , 23-H ) :   0.9364 B( 22-C , 24-H ) :   0.9264 B( 22-C , 25-C ) :   1.0444
B( 25-C , 26-H ) :   0.9602 B( 25-C , 27-H ) :   0.9503 B( 25-C , 28-C ) :   1.0733
B( 28-C , 29-H ) :   0.9770 B( 28-C , 30-H ) :   0.9715 B( 28-C , 31-H ) :   0.9701

Dispersion correction           -0.014688805
FINAL SINGLE POINT ENERGY     -1339.874050287552

DIPOLE MOMENT
-------------
                                X             Y             Z
Electronic contribution:     23.51392      10.42623      -5.99867
Nuclear contribution   :    -23.94418     -10.90095       6.15262
                        -----------------------------------------
Total Dipole Moment    :     -0.43026      -0.47471       0.15396
                        -----------------------------------------
Magnitude (a.u.)       :      0.65892
Magnitude (Debye)      :      1.67485

Rotational constants in cm-1:     0.019816     0.008695     0.006686
Rotational constants in MHz :   594.075966   260.673665   200.450860

                             ****ORCA TERMINATED NORMALLY****
TOTAL RUN TIME: 0 days 0 hours 0 minutes 31 seconds 37 msec
