                         Program Version 4.2.1 -  RELEASE  -
|  1> ! wB97X-D3 SP def2-SVP
|  2> %pal
|  3> nprocs 16
|  4> end
|  5>
|  6> * xyz 0 1
|  7> S 	 -110.34 	 59.5126 	 120.154
|  8> C 	 -108.969 	 59.1087 	 121.208
|  9> C 	 -108.875 	 57.7336 	 121.372
| 10> C 	 -109.896 	 57.0164 	 120.627
| 11> C 	 -110.782 	 57.8457 	 119.895
| 12> H 	 -109.947 	 55.9275 	 120.496
| 13> C 	 -107.858 	 57.0328 	 122.189
| 14> H 	 -108.37 	 56.4804 	 122.987
| 15> H 	 -107.353 	 57.7263 	 122.792
| 16> C 	 -107.029 	 56.0627 	 121.41
| 17> H 	 -106.298 	 55.6051 	 122.048
| 18> H 	 -107.604 	 55.2321 	 121.01
| 19> C 	 -106.241 	 56.7382 	 120.285
| 20> H 	 -105.745 	 56.1693 	 119.562
| 21> H 	 -106.939 	 57.4185 	 119.695
| 22> H 	 -105.468 	 57.4248 	 120.67
| 23> S 	 -112.164 	 55.728 	 119.093
| 24> C 	 -113.494 	 55.9079 	 117.99
| 25> C 	 -113.607 	 57.222 	 117.548
| 26> C 	 -112.726 	 58.0875 	 118.259
| 27> C 	 -111.948 	 57.4331 	 119.137
| 28> H 	 -114.396 	 57.3967 	 116.89
| 29> C 	 -112.646 	 59.566 	 117.826
| 30> H 	 -113.125 	 59.7122 	 116.832
| 31> H 	 -111.615 	 59.9024 	 117.832
| 32> C 	 -113.468 	 60.371 	 118.841
| 33> H 	 -113.402 	 61.3904 	 118.524
| 34> H 	 -113.166 	 60.3998 	 119.912
| 35> C 	 -114.976 	 60.1612 	 118.719
| 36> H 	 -115.189 	 59.0949 	 118.935
| 37> H 	 -115.591 	 60.5955 	 117.9
| 38> H 	 -115.441 	 60.689 	 119.554
| 39> H 	 -108.336 	 59.8921 	 121.599
| 40> H 	 -113.975 	 55.0562 	 117.48
| 41> *
| 42>
| 43>                          ****END OF INPUT****

CARTESIAN COORDINATES (ANGSTROEM)
---------------------------------
  S    -110.340000   59.512600  120.154000
  C    -108.969000   59.108700  121.208000
  C    -108.875000   57.733600  121.372000
  C    -109.896000   57.016400  120.627000
  C    -110.782000   57.845700  119.895000
  H    -109.947000   55.927500  120.496000
  C    -107.858000   57.032800  122.189000
  H    -108.370000   56.480400  122.987000
  H    -107.353000   57.726300  122.792000
  C    -107.029000   56.062700  121.410000
  H    -106.298000   55.605100  122.048000
  H    -107.604000   55.232100  121.010000
  C    -106.241000   56.738200  120.285000
  H    -105.745000   56.169300  119.562000
  H    -106.939000   57.418500  119.695000
  H    -105.468000   57.424800  120.670000
  S    -112.164000   55.728000  119.093000
  C    -113.494000   55.907900  117.990000
  C    -113.607000   57.222000  117.548000
  C    -112.726000   58.087500  118.259000
  C    -111.948000   57.433100  119.137000
  H    -114.396000   57.396700  116.890000
  C    -112.646000   59.566000  117.826000
  H    -113.125000   59.712200  116.832000
  H    -111.615000   59.902400  117.832000
  C    -113.468000   60.371000  118.841000
  H    -113.402000   61.390400  118.524000
  H    -113.166000   60.399800  119.912000
  C    -114.976000   60.161200  118.719000
  H    -115.189000   59.094900  118.935000
  H    -115.591000   60.595500  117.900000
  H    -115.441000   60.689000  119.554000
  H    -108.336000   59.892100  121.599000
  H    -113.975000   55.056200  117.480000

 Total Charge           Charge          ....    0
 Multiplicity           Mult            ....    1
 Number of Electrons    NEL             ....  134
 Basis Dimension        Dim             ....  322

ORBITAL ENERGIES
----------------

  NO   OCC          E(Eh)            E(eV)
   0   2.0000     -88.965889     -2420.8849
   1   2.0000     -88.965009     -2420.8610
   2   2.0000     -10.334876      -281.2263
   3   2.0000     -10.321979      -280.8753
   4   2.0000     -10.318177      -280.7719
   5   2.0000     -10.315000      -280.6854
   6   2.0000     -10.304414      -280.3974
   7   2.0000     -10.301150      -280.3085
   8   2.0000     -10.296890      -280.1926
   9   2.0000     -10.296029      -280.1692
  10   2.0000     -10.291188      -280.0375
  11   2.0000     -10.284632      -279.8591
  12   2.0000     -10.283051      -279.8160
  13   2.0000     -10.281683      -279.7788
  14   2.0000     -10.274404      -279.5807
  15   2.0000     -10.270626      -279.4779
  16   2.0000      -8.080683      -219.8866
  17   2.0000      -8.079688      -219.8595
  18   2.0000      -6.039156      -164.3338
  19   2.0000      -6.038268      -164.3096
  20   2.0000      -6.035193      -164.2259
  21   2.0000      -6.034208      -164.1991
  22   2.0000      -6.031306      -164.1202
  23   2.0000      -6.030558      -164.0998
  24   2.0000      -1.014154       -27.5965
  25   2.0000      -0.983059       -26.7504
  26   2.0000      -0.920398       -25.0453
  27   2.0000      -0.910945       -24.7881
  28   2.0000      -0.871909       -23.7259
  29   2.0000      -0.851518       -23.1710
  30   2.0000      -0.838554       -22.8182
  31   2.0000      -0.811537       -22.0831
  32   2.0000      -0.785343       -21.3703
  33   2.0000      -0.777474       -21.1561
  34   2.0000      -0.712252       -19.3814
  35   2.0000      -0.696868       -18.9628
  36   2.0000      -0.688128       -18.7249
  37   2.0000      -0.673745       -18.3335
  38   2.0000      -0.632749       -17.2180
  39   2.0000      -0.622094       -16.9280
  40   2.0000      -0.595990       -16.2177
  41   2.0000      -0.571654       -15.5555
  42   2.0000      -0.558966       -15.2102
  43   2.0000      -0.554120       -15.0784
  44   2.0000      -0.546108       -14.8604
  45   2.0000      -0.535822       -14.5805
  46   2.0000      -0.522812       -14.2264
  47   2.0000      -0.516401       -14.0520
  48   2.0000      -0.503407       -13.6984
  49   2.0000      -0.495806       -13.4916
  50   2.0000      -0.485105       -13.2004
  51   2.0000      -0.477880       -13.0038
  52   2.0000      -0.467581       -12.7235
  53   2.0000      -0.464336       -12.6352
  54   2.0000      -0.459241       -12.4966
  55   2.0000      -0.446797       -12.1580
  56   2.0000      -0.446075       -12.1383
  57   2.0000      -0.438996       -11.9457
  58   2.0000      -0.425369       -11.5749
  59   2.0000      -0.423766       -11.5313
  60   2.0000      -0.421290       -11.4639
  61   2.0000      -0.409410       -11.1406
  62   2.0000      -0.399911       -10.8821
  63   2.0000      -0.363446        -9.8899
  64   2.0000      -0.333958        -9.0874
  65   2.0000      -0.326211        -8.8767
  66   2.0000      -0.282283        -7.6813
  67   0.0000       0.019902         0.5416
  68   0.0000       0.084341         2.2950
  69   0.0000       0.108261         2.9459
  70   0.0000       0.124721         3.3938
  71   0.0000       0.130676         3.5559

MULLIKEN ATOMIC CHARGES
-----------------------
   0 S :    0.079037
   1 C :   -0.133673
   2 C :   -0.088358
   3 C :   -0.026910
   4 C :   -0.125832
   5 H :    0.033624
   6 C :    0.122968
   7 H :    0.031011
   8 H :   -0.006368
   9 C :   -0.046856
  10 H :    0.022108
  11 H :    0.031631
  12 C :   -0.066974
  13 H :    0.021541
  14 H :    0.044238
  15 H :    0.021492
  16 S :    0.077092
  17 C :   -0.096833
  18 C :   -0.018217
  19 C :   -0.105199
  20 C :   -0.058640
  21 H :    0.004910
  22 C :    0.089196
  23 H :    0.032840
  24 H :    0.037164
  25 C :   -0.076890
  26 H :    0.014486
  27 H :    0.052002
  28 C :   -0.085249
  29 H :    0.040310
  30 H :    0.041304
  31 H :    0.020263
  32 H :    0.051200
  33 H :    0.067580
Sum of atomic charges:   -0.0000000

LOEWDIN ATOMIC CHARGES
----------------------
   0 S :    0.409406
   1 C :   -0.197688
   2 C :   -0.053333
   3 C :   -0.086783
   4 C :   -0.180855
   5 H :    0.023681
   6 C :   -0.031058
   7 H :    0.040611
   8 H :    0.023366
   9 C :   -0.037518
  10 H :    0.024111
  11 H :    0.025197
  12 C :   -0.070990
  13 H :    0.015159
  14 H :    0.033796
  15 H :    0.024814
  16 S :    0.427769
  17 C :   -0.186458
  18 C :   -0.062570
  19 C :   -0.057758
  20 C :   -0.201883
  21 H :    0.023697
  22 C :   -0.026378
  23 H :    0.038991
  24 H :    0.019605
  25 C :   -0.049124
  26 H :    0.020489
  27 H :    0.028110
  28 C :   -0.081391
  29 H :    0.025763
  30 H :    0.028853
  31 H :    0.028099
  32 H :    0.027662
  33 H :    0.034608

  Mayer bond orders larger than 0.100000
B(  0-S ,  1-C ) :   1.1230 B(  0-S ,  4-C ) :   1.1532 B(  1-C ,  2-C ) :   1.5923
B(  1-C , 32-H ) :   0.9725 B(  2-C ,  3-C ) :   1.2431 B(  2-C ,  6-C ) :   1.0394
B(  3-C ,  4-C ) :   1.5494 B(  3-C ,  5-H ) :   0.9689 B(  4-C , 20-C ) :   1.0932
B(  6-C ,  7-H ) :   0.9260 B(  6-C ,  8-H ) :   0.9342 B(  6-C ,  9-C ) :   1.0729
B(  9-C , 10-H ) :   0.9515 B(  9-C , 11-H ) :   0.9542 B(  9-C , 12-C ) :   1.0693
B( 12-C , 13-H ) :   0.9768 B( 12-C , 14-H ) :   0.9733 B( 12-C , 15-H ) :   0.9739
B( 16-S , 17-C ) :   1.1614 B( 16-S , 20-C ) :   1.1327 B( 17-C , 18-C ) :   1.6202
B( 17-C , 33-H ) :   0.9619 B( 18-C , 19-C ) :   1.2285 B( 18-C , 21-H ) :   1.0005
B( 19-C , 20-C ) :   1.5993 B( 19-C , 22-C ) :   1.0316 B( 22-C , 23-H ) :   0.9364
B( 22-C , 24-H ) :   0.9315 B( 22-C , 25-C ) :   1.0686 B( 25-C , 26-H ) :   0.9510
B( 25-C , 27-H ) :   0.9577 B( 25-C , 28-C ) :   1.0764 B( 28-C , 29-H ) :   0.9708
B( 28-C , 30-H ) :   0.9757 B( 28-C , 31-H ) :   0.9675

Dispersion correction           -0.014874156
FINAL SINGLE POINT ENERGY     -1339.874284996337

DIPOLE MOMENT
-------------
                                X             Y             Z
Electronic contribution:     -5.07852      -4.87843      -0.93156
Nuclear contribution   :      5.15924       4.88046       0.83555
                        -----------------------------------------
Total Dipole Moment    :      0.08071       0.00203      -0.09601
                        -----------------------------------------
Magnitude (a.u.)       :      0.12545
Magnitude (Debye)      :      0.31886

Rotational constants in cm-1:     0.024644     0.008515     0.006844
Rotational constants in MHz :   738.810598   255.275520   205.174025

                             ****ORCA TERMINATED NORMALLY****
TOTAL RUN TIME: 0 days 0 hours 0 minutes 34 seconds 313 msec
