                         Program Version 4.2.1 -  RELEASE  -
|  1> ! wB97X-D3 SP def2-SVP
|  2> %pal
|  3> nprocs 16
|  4> end
|  5>
|  6> * xyz 0 1
|  7> S 	 -36.898 	 55.6287 	 109.749
|  8> C 	 -36.0316 	 57.1914 	 109.53
|  9> C 	 -36.8357 	 58.2667 	 109.864
| 10> C 	 -38.1154 	 57.8976 	 110.151
| 11> C 	 -38.357 	 56.5427 	 109.967
| 12> H 	 -38.9348 	 58.5395 	 110.324
| 13> C 	 -36.4627 	 59.6764 	 110.025
| 14> H 	 -37.2292 	 60.4055 	 110.313
| 15> H 	 -36.0781 	 60.0446 	 109.075
| 16> C 	 -35.1824 	 59.9355 	 110.94
| 17> H 	 -34.2318 	 59.4306 	 110.626
| 18> H 	 -34.9109 	 60.9675 	 110.971
| 19> C 	 -35.3369 	 59.4159 	 112.383
| 20> H 	 -35.4613 	 58.3162 	 112.418
| 21> H 	 -34.4902 	 59.7026 	 112.987
| 22> H 	 -36.1181 	 59.9318 	 112.953
| 23> S 	 -39.7127 	 54.5468 	 111.289
| 24> C 	 -41.3446 	 54.2635 	 110.678
| 25> C 	 -41.8716 	 55.2752 	 109.915
| 26> C 	 -40.8768 	 56.2105 	 109.521
| 27> C 	 -39.6215 	 55.9425 	 110.109
| 28> H 	 -42.9766 	 55.319 	 109.714
| 29> C 	 -41.3254 	 57.387 	 108.706
| 30> H 	 -40.6819 	 58.2286 	 108.927
| 31> H 	 -42.314 	 57.5745 	 109.087
| 32> C 	 -41.4839 	 57.1756 	 107.113
| 33> H 	 -40.564 	 56.8129 	 106.651
| 34> H 	 -41.5374 	 58.2236 	 106.618
| 35> C 	 -42.7414 	 56.3983 	 106.665
| 36> H 	 -42.745 	 55.3729 	 106.979
| 37> H 	 -42.8092 	 56.4833 	 105.636
| 38> H 	 -43.638 	 56.8482 	 107.207
| 39> H 	 -34.9919 	 57.2621 	 109.151
| 40> H 	 -42.0095 	 53.553 	 111.088
| 41> *
| 42>
| 43>                          ****END OF INPUT****

CARTESIAN COORDINATES (ANGSTROEM)
---------------------------------
  S    -36.898000   55.628700  109.749000
  C    -36.031600   57.191400  109.530000
  C    -36.835700   58.266700  109.864000
  C    -38.115400   57.897600  110.151000
  C    -38.357000   56.542700  109.967000
  H    -38.934800   58.539500  110.324000
  C    -36.462700   59.676400  110.025000
  H    -37.229200   60.405500  110.313000
  H    -36.078100   60.044600  109.075000
  C    -35.182400   59.935500  110.940000
  H    -34.231800   59.430600  110.626000
  H    -34.910900   60.967500  110.971000
  C    -35.336900   59.415900  112.383000
  H    -35.461300   58.316200  112.418000
  H    -34.490200   59.702600  112.987000
  H    -36.118100   59.931800  112.953000
  S    -39.712700   54.546800  111.289000
  C    -41.344600   54.263500  110.678000
  C    -41.871600   55.275200  109.915000
  C    -40.876800   56.210500  109.521000
  C    -39.621500   55.942500  110.109000
  H    -42.976600   55.319000  109.714000
  C    -41.325400   57.387000  108.706000
  H    -40.681900   58.228600  108.927000
  H    -42.314000   57.574500  109.087000
  C    -41.483900   57.175600  107.113000
  H    -40.564000   56.812900  106.651000
  H    -41.537400   58.223600  106.618000
  C    -42.741400   56.398300  106.665000
  H    -42.745000   55.372900  106.979000
  H    -42.809200   56.483300  105.636000
  H    -43.638000   56.848200  107.207000
  H    -34.991900   57.262100  109.151000
  H    -42.009500   53.553000  111.088000

 Total Charge           Charge          ....    0
 Multiplicity           Mult            ....    1
 Number of Electrons    NEL             ....  134
 Basis Dimension        Dim             ....  322

ORBITAL ENERGIES
----------------

  NO   OCC          E(Eh)            E(eV)
   0   2.0000     -88.970539     -2421.0115
   1   2.0000     -88.966180     -2420.8928
   2   2.0000     -10.327729      -281.0318
   3   2.0000     -10.321662      -280.8667
   4   2.0000     -10.317606      -280.7563
   5   2.0000     -10.312323      -280.6126
   6   2.0000     -10.304521      -280.4003
   7   2.0000     -10.297908      -280.2203
   8   2.0000     -10.295238      -280.1477
   9   2.0000     -10.294740      -280.1341
  10   2.0000     -10.294663      -280.1320
  11   2.0000     -10.294448      -280.1262
  12   2.0000     -10.289834      -280.0006
  13   2.0000     -10.282145      -279.7914
  14   2.0000     -10.278131      -279.6822
  15   2.0000     -10.271151      -279.4922
  16   2.0000      -8.084580      -219.9926
  17   2.0000      -8.079676      -219.8592
  18   2.0000      -6.043000      -164.4384
  19   2.0000      -6.039356      -164.3392
  20   2.0000      -6.038138      -164.3061
  21   2.0000      -6.035298      -164.2288
  22   2.0000      -6.034729      -164.2133
  23   2.0000      -6.030196      -164.0900
  24   2.0000      -1.007514       -27.4158
  25   2.0000      -0.979477       -26.6529
  26   2.0000      -0.911256       -24.7965
  27   2.0000      -0.899196       -24.4684
  28   2.0000      -0.866395       -23.5758
  29   2.0000      -0.854524       -23.2528
  30   2.0000      -0.847428       -23.0597
  31   2.0000      -0.808999       -22.0140
  32   2.0000      -0.786336       -21.3973
  33   2.0000      -0.770074       -20.9548
  34   2.0000      -0.712227       -19.3807
  35   2.0000      -0.701569       -19.0907
  36   2.0000      -0.690230       -18.7821
  37   2.0000      -0.660923       -17.9846
  38   2.0000      -0.638697       -17.3798
  39   2.0000      -0.616950       -16.7881
  40   2.0000      -0.587258       -15.9801
  41   2.0000      -0.571730       -15.5576
  42   2.0000      -0.554752       -15.0956
  43   2.0000      -0.547255       -14.8916
  44   2.0000      -0.539058       -14.6685
  45   2.0000      -0.537183       -14.6175
  46   2.0000      -0.514203       -13.9922
  47   2.0000      -0.512266       -13.9395
  48   2.0000      -0.496167       -13.5014
  49   2.0000      -0.493075       -13.4172
  50   2.0000      -0.484259       -13.1774
  51   2.0000      -0.479656       -13.0521
  52   2.0000      -0.471655       -12.8344
  53   2.0000      -0.464695       -12.6450
  54   2.0000      -0.459544       -12.5048
  55   2.0000      -0.449031       -12.2188
  56   2.0000      -0.441163       -12.0046
  57   2.0000      -0.436017       -11.8646
  58   2.0000      -0.433182       -11.7875
  59   2.0000      -0.429007       -11.6739
  60   2.0000      -0.422089       -11.4856
  61   2.0000      -0.415204       -11.2983
  62   2.0000      -0.409984       -11.1562
  63   2.0000      -0.340608        -9.2684
  64   2.0000      -0.335193        -9.1211
  65   2.0000      -0.331207        -9.0126
  66   2.0000      -0.279928        -7.6172
  67   0.0000       0.019825         0.5395
  68   0.0000       0.059389         1.6161
  69   0.0000       0.090614         2.4657
  70   0.0000       0.113288         3.0827
  71   0.0000       0.132609         3.6085

MULLIKEN ATOMIC CHARGES
-----------------------
   0 S :    0.124612
   1 C :   -0.158362
   2 C :   -0.006576
   3 C :    0.009519
   4 C :   -0.148065
   5 H :   -0.001613
   6 C :    0.079009
   7 H :    0.033865
   8 H :    0.029686
   9 C :   -0.097310
  10 H :    0.029275
  11 H :    0.021244
  12 C :   -0.066016
  13 H :    0.054190
  14 H :    0.021849
  15 H :    0.019231
  16 S :    0.090973
  17 C :   -0.058765
  18 C :   -0.075833
  19 C :   -0.006508
  20 C :   -0.179670
  21 H :    0.043608
  22 C :    0.078241
  23 H :    0.015685
  24 H :    0.018777
  25 C :   -0.105018
  26 H :    0.037049
  27 H :    0.034388
  28 C :   -0.028559
  29 H :    0.038311
  30 H :    0.031459
  31 H :    0.027026
  32 H :    0.057769
  33 H :    0.036528
Sum of atomic charges:    0.0000000

LOEWDIN ATOMIC CHARGES
----------------------
   0 S :    0.404173
   1 C :   -0.191150
   2 C :   -0.064904
   3 C :   -0.056103
   4 C :   -0.197622
   5 H :    0.024917
   6 C :   -0.030358
   7 H :    0.034765
   8 H :    0.037600
   9 C :   -0.039476
  10 H :    0.026809
  11 H :    0.018169
  12 C :   -0.075709
  13 H :    0.030359
  14 H :    0.022886
  15 H :    0.020580
  16 S :    0.360656
  17 C :   -0.171073
  18 C :   -0.076811
  19 C :   -0.051899
  20 C :   -0.173354
  21 H :    0.043259
  22 C :   -0.026935
  23 H :    0.026337
  24 H :    0.029913
  25 C :   -0.039715
  26 H :    0.023507
  27 H :    0.031196
  28 C :   -0.062080
  29 H :    0.022179
  30 H :    0.019135
  31 H :    0.030607
  32 H :    0.032680
  33 H :    0.017464

  Mayer bond orders larger than 0.100000
B(  0-S ,  1-C ) :   1.1276 B(  0-S ,  4-C ) :   1.1592 B(  1-C ,  2-C ) :   1.5648
B(  1-C ,  4-C ) :   0.1105 B(  1-C , 32-H ) :   0.9666 B(  2-C ,  3-C ) :   1.2680
B(  2-C ,  6-C ) :   1.0286 B(  3-C ,  4-C ) :   1.5223 B(  3-C ,  5-H ) :   1.0059
B(  4-C , 20-C ) :   1.0993 B(  6-C ,  7-H ) :   0.9527 B(  6-C ,  8-H ) :   0.9218
B(  6-C ,  9-C ) :   1.0616 B(  9-C , 10-H ) :   0.9577 B(  9-C , 11-H ) :   0.9582
B(  9-C , 12-C ) :   1.0783 B( 12-C , 13-H ) :   0.9745 B( 12-C , 14-H ) :   0.9727
B( 12-C , 15-H ) :   0.9748 B( 16-S , 17-C ) :   1.1347 B( 16-S , 20-C ) :   1.1135
B( 17-C , 18-C ) :   1.6550 B( 17-C , 20-C ) :   0.1010 B( 17-C , 33-H ) :   0.9621
B( 18-C , 19-C ) :   1.2189 B( 18-C , 21-H ) :   0.9724 B( 19-C , 20-C ) :   1.6021
B( 19-C , 22-C ) :   1.0360 B( 22-C , 23-H ) :   0.9349 B( 22-C , 24-H ) :   0.9393
B( 22-C , 25-C ) :   1.0576 B( 25-C , 26-H ) :   0.9586 B( 25-C , 27-H ) :   0.9587
B( 25-C , 28-C ) :   1.0733 B( 28-C , 29-H ) :   0.9744 B( 28-C , 30-H ) :   0.9729
B( 28-C , 31-H ) :   0.9733

Dispersion correction           -0.014416805
FINAL SINGLE POINT ENERGY     -1339.850891577054

DIPOLE MOMENT
-------------
                                X             Y             Z
Electronic contribution:      2.88444     -19.62732       6.56436
Nuclear contribution   :     -3.12497      20.27378      -6.76148
                        -----------------------------------------
Total Dipole Moment    :     -0.24053       0.64646      -0.19712
                        -----------------------------------------
Magnitude (a.u.)       :      0.71737
Magnitude (Debye)      :      1.82341

Rotational constants in cm-1:     0.021334     0.007936     0.006692
Rotational constants in MHz :   639.577936   237.920154   200.607547

                             ****ORCA TERMINATED NORMALLY****
TOTAL RUN TIME: 0 days 0 hours 0 minutes 30 seconds 223 msec
