                         Program Version 4.2.1 -  RELEASE  -
|  1> ! wB97X-D3 SP def2-SVP
|  2> %pal
|  3> nprocs 16
|  4> end
|  5>
|  6> * xyz 0 1
|  7> S 	 13.9165 	 34.2871 	 60.9788
|  8> C 	 15.3978 	 33.5408 	 61.4603
|  9> C 	 16.1862 	 34.4488 	 62.2141
| 10> C 	 15.5554 	 35.7321 	 62.2427
| 11> C 	 14.3231 	 35.9035 	 61.6296
| 12> H 	 15.7921 	 36.5679 	 62.9224
| 13> C 	 17.5356 	 34.1786 	 62.7002
| 14> H 	 17.9582 	 33.4139 	 62.1191
| 15> H 	 17.1942 	 33.7878 	 63.6499
| 16> C 	 18.498 	 35.4088 	 62.9048
| 17> H 	 18.1039 	 36.0596 	 63.6774
| 18> H 	 19.4141 	 35.0058 	 63.225
| 19> C 	 18.9264 	 36.0797 	 61.5702
| 20> H 	 19.4369 	 35.4783 	 60.8157
| 21> H 	 18.0709 	 36.5788 	 61.1333
| 22> H 	 19.6759 	 36.8529 	 61.6209
| 23> S 	 12.0828 	 36.5995 	 62.9106
| 24> C 	 11.4929 	 38.2829 	 62.8394
| 25> C 	 12.2082 	 39.0609 	 61.9612
| 26> C 	 13.2683 	 38.3931 	 61.2741
| 27> C 	 13.4151 	 37.0664 	 61.7871
| 28> H 	 12.0056 	 40.114 	 61.9134
| 29> C 	 14.2688 	 39.2567 	 60.443
| 30> H 	 15.0154 	 38.4913 	 60.2214
| 31> H 	 14.6296 	 40.1358 	 61.0222
| 32> C 	 13.6464 	 39.7177 	 59.1509
| 33> H 	 14.1567 	 40.4892 	 58.5956
| 34> H 	 12.6707 	 40.1393 	 59.3539
| 35> C 	 13.4767 	 38.6618 	 58.0712
| 36> H 	 14.4316 	 38.2355 	 57.7735
| 37> H 	 13.08 	 39.0556 	 57.1163
| 38> H 	 13.0418 	 37.8348 	 58.5917
| 39> H 	 15.5338 	 32.4927 	 61.2122
| 40> H 	 10.6701 	 38.6479 	 63.4386
| 41> *
| 42>
| 43>                          ****END OF INPUT****

CARTESIAN COORDINATES (ANGSTROEM)
---------------------------------
  S     13.916500   34.287100   60.978800
  C     15.397800   33.540800   61.460300
  C     16.186200   34.448800   62.214100
  C     15.555400   35.732100   62.242700
  C     14.323100   35.903500   61.629600
  H     15.792100   36.567900   62.922400
  C     17.535600   34.178600   62.700200
  H     17.958200   33.413900   62.119100
  H     17.194200   33.787800   63.649900
  C     18.498000   35.408800   62.904800
  H     18.103900   36.059600   63.677400
  H     19.414100   35.005800   63.225000
  C     18.926400   36.079700   61.570200
  H     19.436900   35.478300   60.815700
  H     18.070900   36.578800   61.133300
  H     19.675900   36.852900   61.620900
  S     12.082800   36.599500   62.910600
  C     11.492900   38.282900   62.839400
  C     12.208200   39.060900   61.961200
  C     13.268300   38.393100   61.274100
  C     13.415100   37.066400   61.787100
  H     12.005600   40.114000   61.913400
  C     14.268800   39.256700   60.443000
  H     15.015400   38.491300   60.221400
  H     14.629600   40.135800   61.022200
  C     13.646400   39.717700   59.150900
  H     14.156700   40.489200   58.595600
  H     12.670700   40.139300   59.353900
  C     13.476700   38.661800   58.071200
  H     14.431600   38.235500   57.773500
  H     13.080000   39.055600   57.116300
  H     13.041800   37.834800   58.591700
  H     15.533800   32.492700   61.212200
  H     10.670100   38.647900   63.438600

 Total Charge           Charge          ....    0
 Multiplicity           Mult            ....    1
 Number of Electrons    NEL             ....  134
 Basis Dimension        Dim             ....  322

ORBITAL ENERGIES
----------------

  NO   OCC          E(Eh)            E(eV)
   0   2.0000     -88.967173     -2420.9199
   1   2.0000     -88.961262     -2420.7590
   2   2.0000     -10.342235      -281.4265
   3   2.0000     -10.332289      -281.1559
   4   2.0000     -10.319907      -280.8189
   5   2.0000     -10.316744      -280.7329
   6   2.0000     -10.316280      -280.7203
   7   2.0000     -10.303882      -280.3829
   8   2.0000     -10.300040      -280.2783
   9   2.0000     -10.293516      -280.1008
  10   2.0000     -10.293419      -280.0982
  11   2.0000     -10.291439      -280.0443
  12   2.0000     -10.287204      -279.9291
  13   2.0000     -10.277796      -279.6730
  14   2.0000     -10.275081      -279.5992
  15   2.0000     -10.268446      -279.4186
  16   2.0000      -8.080684      -219.8866
  17   2.0000      -8.075705      -219.7511
  18   2.0000      -6.039209      -164.3352
  19   2.0000      -6.035460      -164.2332
  20   2.0000      -6.034263      -164.2006
  21   2.0000      -6.031368      -164.1219
  22   2.0000      -6.029981      -164.0841
  23   2.0000      -6.026699      -163.9948
  24   2.0000      -0.997900       -27.1543
  25   2.0000      -0.977593       -26.6017
  26   2.0000      -0.914507       -24.8850
  27   2.0000      -0.910824       -24.7848
  28   2.0000      -0.867501       -23.6059
  29   2.0000      -0.846139       -23.0246
  30   2.0000      -0.844192       -22.9716
  31   2.0000      -0.815203       -22.1828
  32   2.0000      -0.782459       -21.2918
  33   2.0000      -0.770259       -20.9598
  34   2.0000      -0.716003       -19.4834
  35   2.0000      -0.697960       -18.9925
  36   2.0000      -0.690758       -18.7965
  37   2.0000      -0.657427       -17.8895
  38   2.0000      -0.641934       -17.4679
  39   2.0000      -0.619859       -16.8672
  40   2.0000      -0.593662       -16.1544
  41   2.0000      -0.566802       -15.4235
  42   2.0000      -0.565329       -15.3834
  43   2.0000      -0.554993       -15.1021
  44   2.0000      -0.542933       -14.7740
  45   2.0000      -0.532283       -14.4841
  46   2.0000      -0.518289       -14.1034
  47   2.0000      -0.513509       -13.9733
  48   2.0000      -0.500595       -13.6219
  49   2.0000      -0.495198       -13.4750
  50   2.0000      -0.487459       -13.2644
  51   2.0000      -0.476147       -12.9566
  52   2.0000      -0.472362       -12.8536
  53   2.0000      -0.467635       -12.7250
  54   2.0000      -0.456838       -12.4312
  55   2.0000      -0.450013       -12.2455
  56   2.0000      -0.444468       -12.0946
  57   2.0000      -0.431554       -11.7432
  58   2.0000      -0.426128       -11.5955
  59   2.0000      -0.425193       -11.5701
  60   2.0000      -0.422252       -11.4901
  61   2.0000      -0.407132       -11.0786
  62   2.0000      -0.401826       -10.9342
  63   2.0000      -0.341659        -9.2970
  64   2.0000      -0.330469        -8.9925
  65   2.0000      -0.315801        -8.5934
  66   2.0000      -0.298705        -8.1282
  67   0.0000       0.033776         0.9191
  68   0.0000       0.050602         1.3769
  69   0.0000       0.106143         2.8883
  70   0.0000       0.119458         3.2506
  71   0.0000       0.127209         3.4615

MULLIKEN ATOMIC CHARGES
-----------------------
   0 S :    0.098001
   1 C :   -0.147841
   2 C :   -0.095330
   3 C :    0.026806
   4 C :   -0.164338
   5 H :    0.026677
   6 C :    0.084389
   7 H :    0.016752
   8 H :    0.041989
   9 C :   -0.027808
  10 H :    0.037739
  11 H :    0.019286
  12 C :   -0.059095
  13 H :    0.028175
  14 H :    0.034949
  15 H :    0.019793
  16 S :    0.098184
  17 C :   -0.079647
  18 C :   -0.040019
  19 C :   -0.027849
  20 C :   -0.201708
  21 H :    0.021391
  22 C :    0.077514
  23 H :    0.029268
  24 H :    0.055819
  25 C :   -0.068005
  26 H :    0.019576
  27 H :    0.018703
  28 C :   -0.042401
  29 H :    0.012482
  30 H :    0.044300
  31 H :    0.025968
  32 H :    0.060896
  33 H :    0.055384
Sum of atomic charges:   -0.0000000

LOEWDIN ATOMIC CHARGES
----------------------
   0 S :    0.397433
   1 C :   -0.207309
   2 C :   -0.063839
   3 C :   -0.072980
   4 C :   -0.209845
   5 H :    0.035312
   6 C :   -0.029576
   7 H :    0.026270
   8 H :    0.044860
   9 C :   -0.028194
  10 H :    0.027227
  11 H :    0.022020
  12 C :   -0.072217
  13 H :    0.028878
  14 H :    0.023175
  15 H :    0.024279
  16 S :    0.379640
  17 C :   -0.168399
  18 C :   -0.072945
  19 C :   -0.050908
  20 C :   -0.175895
  21 H :    0.030567
  22 C :   -0.022511
  23 H :    0.033082
  24 H :    0.042339
  25 C :   -0.049010
  26 H :    0.021037
  27 H :    0.019384
  28 C :   -0.065169
  29 H :    0.021274
  30 H :    0.032496
  31 H :    0.022754
  32 H :    0.029192
  33 H :    0.027577

  Mayer bond orders larger than 0.100000
B(  0-S ,  1-C ) :   1.1674 B(  0-S ,  4-C ) :   1.1444 B(  1-C ,  2-C ) :   1.5444
B(  1-C ,  4-C ) :   0.1049 B(  1-C , 32-H ) :   0.9748 B(  2-C ,  3-C ) :   1.2753
B(  2-C ,  6-C ) :   0.9964 B(  3-C ,  4-C ) :   1.5685 B(  3-C ,  5-H ) :   0.9742
B(  4-C , 20-C ) :   1.0217 B(  6-C ,  7-H ) :   0.9482 B(  6-C ,  8-H ) :   0.9201
B(  6-C ,  9-C ) :   1.0968 B(  9-C , 10-H ) :   0.9492 B(  9-C , 11-H ) :   0.9531
B(  9-C , 12-C ) :   1.0673 B( 12-C , 13-H ) :   0.9736 B( 12-C , 14-H ) :   0.9769
B( 12-C , 15-H ) :   0.9733 B( 16-S , 17-C ) :   1.1326 B( 16-S , 20-C ) :   1.1498
B( 17-C , 18-C ) :   1.6499 B( 17-C , 20-C ) :   0.1026 B( 17-C , 33-H ) :   0.9664
B( 18-C , 19-C ) :   1.2065 B( 18-C , 21-H ) :   0.9841 B( 19-C , 20-C ) :   1.5960
B( 19-C , 22-C ) :   1.0252 B( 22-C , 23-H ) :   0.9398 B( 22-C , 24-H ) :   0.9471
B( 22-C , 25-C ) :   1.0560 B( 25-C , 26-H ) :   0.9562 B( 25-C , 27-H ) :   0.9567
B( 25-C , 28-C ) :   1.0806 B( 28-C , 29-H ) :   0.9694 B( 28-C , 30-H ) :   0.9728
B( 28-C , 31-H ) :   0.9745

Dispersion correction           -0.014243077
FINAL SINGLE POINT ENERGY     -1339.841333103445

DIPOLE MOMENT
-------------
                                X             Y             Z
Electronic contribution:    -19.10926     -11.21769       9.02911
Nuclear contribution   :     19.66113      11.57212      -8.81923
                        -----------------------------------------
Total Dipole Moment    :      0.55187       0.35443       0.20989
                        -----------------------------------------
Magnitude (a.u.)       :      0.68865
Magnitude (Debye)      :      1.75040

Rotational constants in cm-1:     0.017760     0.008713     0.007438
Rotational constants in MHz :   532.423262   261.207652   222.996556

                             ****ORCA TERMINATED NORMALLY****
TOTAL RUN TIME: 0 days 0 hours 0 minutes 35 seconds 1 msec
