                         Program Version 4.2.1 -  RELEASE  -
|  1> ! wB97X-D3 SP def2-SVP
|  2> %pal
|  3> nprocs 16
|  4> end
|  5>
|  6> * xyz 0 1
|  7> S 	 -107.963 	 42.7792 	 125.219
|  8> C 	 -107.085 	 43.3859 	 126.606
|  9> C 	 -105.792 	 43.8116 	 126.26
| 10> C 	 -105.655 	 43.8699 	 124.842
| 11> C 	 -106.72 	 43.3419 	 124.111
| 12> H 	 -104.863 	 44.2736 	 124.192
| 13> C 	 -104.695 	 44.4533 	 127.173
| 14> H 	 -105.098 	 45.4322 	 127.597
| 15> H 	 -103.822 	 44.7263 	 126.612
| 16> C 	 -104.232 	 43.5234 	 128.326
| 17> H 	 -105.128 	 43.1303 	 128.819
| 18> H 	 -103.757 	 42.6152 	 127.98
| 19> C 	 -103.315 	 44.1538 	 129.458
| 20> H 	 -102.251 	 44.221 	 129.139
| 21> H 	 -103.684 	 45.1491 	 129.755
| 22> H 	 -103.435 	 43.5587 	 130.319
| 23> S 	 -107.133 	 41.5363 	 122.066
| 24> C 	 -107.233 	 42.0622 	 120.403
| 25> C 	 -107.251 	 43.4664 	 120.344
| 26> C 	 -106.913 	 44.0602 	 121.619
| 27> C 	 -106.907 	 43.1446 	 122.678
| 28> H 	 -107.325 	 44.0061 	 119.419
| 29> C 	 -106.498 	 45.471 	 121.776
| 30> H 	 -105.558 	 45.4988 	 122.282
| 31> H 	 -107.213 	 45.8515 	 122.524
| 32> C 	 -106.483 	 46.4655 	 120.604
| 33> H 	 -107.441 	 46.3288 	 120.043
| 34> H 	 -105.771 	 46.2573 	 119.872
| 35> C 	 -106.458 	 47.9642 	 120.922
| 36> H 	 -105.789 	 48.2031 	 121.702
| 37> H 	 -107.489 	 48.3416 	 121.175
| 38> H 	 -106.225 	 48.597 	 120.066
| 39> H 	 -107.511 	 43.599 	 127.585
| 40> H 	 -107.399 	 41.5072 	 119.537
| 41> *
| 42>
| 43>                          ****END OF INPUT****

CARTESIAN COORDINATES (ANGSTROEM)
---------------------------------
  S    -107.963000   42.779200  125.219000
  C    -107.085000   43.385900  126.606000
  C    -105.792000   43.811600  126.260000
  C    -105.655000   43.869900  124.842000
  C    -106.720000   43.341900  124.111000
  H    -104.863000   44.273600  124.192000
  C    -104.695000   44.453300  127.173000
  H    -105.098000   45.432200  127.597000
  H    -103.822000   44.726300  126.612000
  C    -104.232000   43.523400  128.326000
  H    -105.128000   43.130300  128.819000
  H    -103.757000   42.615200  127.980000
  C    -103.315000   44.153800  129.458000
  H    -102.251000   44.221000  129.139000
  H    -103.684000   45.149100  129.755000
  H    -103.435000   43.558700  130.319000
  S    -107.133000   41.536300  122.066000
  C    -107.233000   42.062200  120.403000
  C    -107.251000   43.466400  120.344000
  C    -106.913000   44.060200  121.619000
  C    -106.907000   43.144600  122.678000
  H    -107.325000   44.006100  119.419000
  C    -106.498000   45.471000  121.776000
  H    -105.558000   45.498800  122.282000
  H    -107.213000   45.851500  122.524000
  C    -106.483000   46.465500  120.604000
  H    -107.441000   46.328800  120.043000
  H    -105.771000   46.257300  119.872000
  C    -106.458000   47.964200  120.922000
  H    -105.789000   48.203100  121.702000
  H    -107.489000   48.341600  121.175000
  H    -106.225000   48.597000  120.066000
  H    -107.511000   43.599000  127.585000
  H    -107.399000   41.507200  119.537000

 Total Charge           Charge          ....    0
 Multiplicity           Mult            ....    1
 Number of Electrons    NEL             ....  134
 Basis Dimension        Dim             ....  322

ORBITAL ENERGIES
----------------

  NO   OCC          E(Eh)            E(eV)
   0   2.0000     -88.967994     -2420.9422
   1   2.0000     -88.967356     -2420.9248
   2   2.0000     -10.330520      -281.1077
   3   2.0000     -10.324285      -280.9381
   4   2.0000     -10.319478      -280.8073
   5   2.0000     -10.315887      -280.7096
   6   2.0000     -10.310550      -280.5643
   7   2.0000     -10.304341      -280.3954
   8   2.0000     -10.302782      -280.3530
   9   2.0000     -10.298635      -280.2401
  10   2.0000     -10.295464      -280.1538
  11   2.0000     -10.288916      -279.9756
  12   2.0000     -10.288170      -279.9553
  13   2.0000     -10.286493      -279.9097
  14   2.0000     -10.282230      -279.7937
  15   2.0000     -10.280070      -279.7349
  16   2.0000      -8.082465      -219.9350
  17   2.0000      -8.081917      -219.9201
  18   2.0000      -6.040951      -164.3826
  19   2.0000      -6.040532      -164.3712
  20   2.0000      -6.036915      -164.2728
  21   2.0000      -6.036286      -164.2557
  22   2.0000      -6.033344      -164.1756
  23   2.0000      -6.032738      -164.1591
  24   2.0000      -1.005195       -27.3527
  25   2.0000      -0.981794       -26.7160
  26   2.0000      -0.910819       -24.7847
  27   2.0000      -0.900941       -24.5159
  28   2.0000      -0.866886       -23.5892
  29   2.0000      -0.853439       -23.2232
  30   2.0000      -0.844517       -22.9805
  31   2.0000      -0.813455       -22.1352
  32   2.0000      -0.783484       -21.3197
  33   2.0000      -0.772071       -21.0091
  34   2.0000      -0.711294       -19.3553
  35   2.0000      -0.703463       -19.1422
  36   2.0000      -0.696976       -18.9657
  37   2.0000      -0.654802       -17.8181
  38   2.0000      -0.644816       -17.5463
  39   2.0000      -0.611854       -16.6494
  40   2.0000      -0.596916       -16.2429
  41   2.0000      -0.570564       -15.5258
  42   2.0000      -0.567937       -15.4544
  43   2.0000      -0.553917       -15.0729
  44   2.0000      -0.529924       -14.4200
  45   2.0000      -0.522887       -14.2285
  46   2.0000      -0.516631       -14.0582
  47   2.0000      -0.513464       -13.9721
  48   2.0000      -0.504582       -13.7304
  49   2.0000      -0.500696       -13.6246
  50   2.0000      -0.493266       -13.4224
  51   2.0000      -0.482642       -13.1334
  52   2.0000      -0.474587       -12.9142
  53   2.0000      -0.467318       -12.7164
  54   2.0000      -0.458152       -12.4669
  55   2.0000      -0.454555       -12.3691
  56   2.0000      -0.440230       -11.9793
  57   2.0000      -0.438117       -11.9218
  58   2.0000      -0.425996       -11.5920
  59   2.0000      -0.424556       -11.5528
  60   2.0000      -0.421525       -11.4703
  61   2.0000      -0.416866       -11.3435
  62   2.0000      -0.415390       -11.3033
  63   2.0000      -0.343665        -9.3516
  64   2.0000      -0.333357        -9.0711
  65   2.0000      -0.324525        -8.8308
  66   2.0000      -0.289264        -7.8713
  67   0.0000       0.033092         0.9005
  68   0.0000       0.054993         1.4964
  69   0.0000       0.116864         3.1800
  70   0.0000       0.121670         3.3108
  71   0.0000       0.130434         3.5493

MULLIKEN ATOMIC CHARGES
-----------------------
   0 S :    0.122147
   1 C :   -0.125891
   2 C :   -0.068806
   3 C :    0.025102
   4 C :   -0.189392
   5 H :    0.019684
   6 C :    0.063868
   7 H :    0.047013
   8 H :    0.021011
   9 C :   -0.105182
  10 H :    0.020382
  11 H :    0.030791
  12 C :   -0.043185
  13 H :    0.047900
  14 H :    0.025184
  15 H :    0.029050
  16 S :    0.122598
  17 C :   -0.061899
  18 C :   -0.042162
  19 C :   -0.051289
  20 C :   -0.159385
  21 H :    0.017954
  22 C :    0.075051
  23 H :    0.023394
  24 H :    0.038291
  25 C :   -0.074721
  26 H :    0.026933
  27 H :    0.019511
  28 C :   -0.041735
  29 H :    0.026996
  30 H :    0.033846
  31 H :    0.030593
  32 H :    0.060489
  33 H :    0.035860
Sum of atomic charges:   -0.0000000

LOEWDIN ATOMIC CHARGES
----------------------
   0 S :    0.411487
   1 C :   -0.199498
   2 C :   -0.060765
   3 C :   -0.065890
   4 C :   -0.196198
   5 H :    0.035133
   6 C :   -0.029680
   7 H :    0.039130
   8 H :    0.024980
   9 C :   -0.043916
  10 H :    0.020515
  11 H :    0.024268
  12 C :   -0.064690
  13 H :    0.029562
  14 H :    0.024304
  15 H :    0.021998
  16 S :    0.423437
  17 C :   -0.181016
  18 C :   -0.069146
  19 C :   -0.051035
  20 C :   -0.221026
  21 H :    0.027887
  22 C :   -0.038796
  23 H :    0.027697
  24 H :    0.043854
  25 C :   -0.042696
  26 H :    0.028948
  27 H :    0.013883
  28 C :   -0.062352
  29 H :    0.016866
  30 H :    0.031440
  31 H :    0.029563
  32 H :    0.032088
  33 H :    0.019663

  Mayer bond orders larger than 0.100000
B(  0-S ,  1-C ) :   1.1569 B(  0-S ,  4-C ) :   1.1512 B(  1-C ,  2-C ) :   1.5876
B(  1-C ,  4-C ) :   0.1106 B(  1-C , 32-H ) :   0.9656 B(  2-C ,  3-C ) :   1.2453
B(  2-C ,  6-C ) :   1.0142 B(  3-C ,  4-C ) :   1.5821 B(  3-C ,  5-H ) :   0.9864
B(  4-C , 20-C ) :   1.0332 B(  6-C ,  7-H ) :   0.9438 B(  6-C ,  8-H ) :   0.9494
B(  6-C ,  9-C ) :   1.0506 B(  9-C , 10-H ) :   0.9636 B(  9-C , 11-H ) :   0.9575
B(  9-C , 12-C ) :   1.0747 B( 12-C , 13-H ) :   0.9784 B( 12-C , 14-H ) :   0.9758
B( 12-C , 15-H ) :   0.9763 B( 16-S , 17-C ) :   1.1681 B( 16-S , 20-C ) :   1.1455
B( 17-C , 18-C ) :   1.5830 B( 17-C , 20-C ) :   0.1048 B( 17-C , 33-H ) :   0.9714
B( 18-C , 19-C ) :   1.2706 B( 18-C , 21-H ) :   0.9828 B( 19-C , 20-C ) :   1.5712
B( 19-C , 22-C ) :   1.0434 B( 22-C , 23-H ) :   0.9272 B( 22-C , 24-H ) :   0.9194
B( 22-C , 25-C ) :   1.0711 B( 25-C , 26-H ) :   0.9513 B( 25-C , 27-H ) :   0.9550
B( 25-C , 28-C ) :   1.0852 B( 28-C , 29-H ) :   0.9780 B( 28-C , 30-H ) :   0.9763
B( 28-C , 31-H ) :   0.9714

Dispersion correction           -0.013241234
FINAL SINGLE POINT ENERGY     -1339.868174582397

DIPOLE MOMENT
-------------
                                X             Y             Z
Electronic contribution:    -14.59032     -21.64953      -8.05219
Nuclear contribution   :     14.93197      22.27986       8.03048
                        -----------------------------------------
Total Dipole Moment    :      0.34165       0.63033      -0.02172
                        -----------------------------------------
Magnitude (a.u.)       :      0.71729
Magnitude (Debye)      :      1.82322

Rotational constants in cm-1:     0.018778     0.007148     0.005737
Rotational constants in MHz :   562.954824   214.295179   171.997020

                             ****ORCA TERMINATED NORMALLY****
TOTAL RUN TIME: 0 days 0 hours 0 minutes 31 seconds 460 msec
