                         Program Version 4.2.1 -  RELEASE  -
|  1> ! wB97X-D3 SP def2-SVP
|  2> %pal
|  3> nprocs 16
|  4> end
|  5>
|  6> * xyz 0 1
|  7> S 	 -48.77 	 68.5927 	 127.01
|  8> C 	 -47.6399 	 68.1379 	 125.807
|  9> C 	 -47.4124 	 66.7611 	 125.781
| 10> C 	 -48.1659 	 66.0916 	 126.8
| 11> C 	 -48.9936 	 66.9353 	 127.489
| 12> H 	 -48.2113 	 64.9772 	 126.961
| 13> C 	 -46.4087 	 66.044 	 124.873
| 14> H 	 -45.4037 	 66.2585 	 125.229
| 15> H 	 -46.5656 	 66.5826 	 123.987
| 16> C 	 -46.7461 	 64.5062 	 124.624
| 17> H 	 -46.585 	 64.0927 	 125.627
| 18> H 	 -47.7962 	 64.4769 	 124.414
| 19> C 	 -45.733 	 63.9026 	 123.557
| 20> H 	 -44.7251 	 63.9528 	 123.979
| 21> H 	 -46.0741 	 62.9142 	 123.481
| 22> H 	 -45.7849 	 64.2593 	 122.535
| 23> S 	 -49.634 	 67.2245 	 130.071
| 24> C 	 -51.1268 	 66.5935 	 130.698
| 25> C 	 -51.7076 	 65.731 	 129.799
| 26> C 	 -51.1499 	 65.8594 	 128.454
| 27> C 	 -49.9868 	 66.6052 	 128.495
| 28> H 	 -52.5494 	 65.1247 	 130.095
| 29> C 	 -51.4693 	 65.0244 	 127.25
| 30> H 	 -50.6446 	 64.998 	 126.631
| 31> H 	 -52.3078 	 65.4158 	 126.58
| 32> C 	 -51.8034 	 63.5532 	 127.652
| 33> H 	 -52.7264 	 63.6323 	 128.306
| 34> H 	 -51.0153 	 62.9255 	 128.171
| 35> C 	 -52.3161 	 62.6891 	 126.468
| 36> H 	 -53.2048 	 63.1726 	 126.047
| 37> H 	 -52.4648 	 61.6481 	 126.88
| 38> H 	 -51.5486 	 62.6029 	 125.686
| 39> H 	 -47.2744 	 68.6112 	 124.901
| 40> H 	 -51.4122 	 66.6351 	 131.737
| 41> *
| 42>
| 43>                          ****END OF INPUT****

CARTESIAN COORDINATES (ANGSTROEM)
---------------------------------
  S    -48.770000   68.592700  127.010000
  C    -47.639900   68.137900  125.807000
  C    -47.412400   66.761100  125.781000
  C    -48.165900   66.091600  126.800000
  C    -48.993600   66.935300  127.489000
  H    -48.211300   64.977200  126.961000
  C    -46.408700   66.044000  124.873000
  H    -45.403700   66.258500  125.229000
  H    -46.565600   66.582600  123.987000
  C    -46.746100   64.506200  124.624000
  H    -46.585000   64.092700  125.627000
  H    -47.796200   64.476900  124.414000
  C    -45.733000   63.902600  123.557000
  H    -44.725100   63.952800  123.979000
  H    -46.074100   62.914200  123.481000
  H    -45.784900   64.259300  122.535000
  S    -49.634000   67.224500  130.071000
  C    -51.126800   66.593500  130.698000
  C    -51.707600   65.731000  129.799000
  C    -51.149900   65.859400  128.454000
  C    -49.986800   66.605200  128.495000
  H    -52.549400   65.124700  130.095000
  C    -51.469300   65.024400  127.250000
  H    -50.644600   64.998000  126.631000
  H    -52.307800   65.415800  126.580000
  C    -51.803400   63.553200  127.652000
  H    -52.726400   63.632300  128.306000
  H    -51.015300   62.925500  128.171000
  C    -52.316100   62.689100  126.468000
  H    -53.204800   63.172600  126.047000
  H    -52.464800   61.648100  126.880000
  H    -51.548600   62.602900  125.686000
  H    -47.274400   68.611200  124.901000
  H    -51.412200   66.635100  131.737000

 Total Charge           Charge          ....    0
 Multiplicity           Mult            ....    1
 Number of Electrons    NEL             ....  134
 Basis Dimension        Dim             ....  322

ORBITAL ENERGIES
----------------

  NO   OCC          E(Eh)            E(eV)
   0   2.0000     -88.968621     -2420.9593
   1   2.0000     -88.961195     -2420.7572
   2   2.0000     -10.323910      -280.9279
   3   2.0000     -10.320502      -280.8351
   4   2.0000     -10.312642      -280.6213
   5   2.0000     -10.307591      -280.4838
   6   2.0000     -10.303369      -280.3689
   7   2.0000     -10.298139      -280.2266
   8   2.0000     -10.297519      -280.2097
   9   2.0000     -10.296295      -280.1764
  10   2.0000     -10.295281      -280.1488
  11   2.0000     -10.295008      -280.1414
  12   2.0000     -10.291092      -280.0348
  13   2.0000     -10.288755      -279.9713
  14   2.0000     -10.284120      -279.8451
  15   2.0000     -10.283178      -279.8195
  16   2.0000      -8.083727      -219.9694
  17   2.0000      -8.076808      -219.7811
  18   2.0000      -6.042141      -164.4150
  19   2.0000      -6.038151      -164.3064
  20   2.0000      -6.035283      -164.2284
  21   2.0000      -6.034573      -164.2091
  22   2.0000      -6.031193      -164.1171
  23   2.0000      -6.027556      -164.0181
  24   2.0000      -1.011084       -27.5130
  25   2.0000      -0.986180       -26.8353
  26   2.0000      -0.906519       -24.6676
  27   2.0000      -0.905788       -24.6477
  28   2.0000      -0.870114       -23.6770
  29   2.0000      -0.849241       -23.1090
  30   2.0000      -0.844179       -22.9713
  31   2.0000      -0.817493       -22.2451
  32   2.0000      -0.781896       -21.2765
  33   2.0000      -0.768961       -20.9245
  34   2.0000      -0.716567       -19.4988
  35   2.0000      -0.694255       -18.8916
  36   2.0000      -0.689797       -18.7703
  37   2.0000      -0.651631       -17.7318
  38   2.0000      -0.635337       -17.2884
  39   2.0000      -0.617346       -16.7988
  40   2.0000      -0.597536       -16.2598
  41   2.0000      -0.575725       -15.6663
  42   2.0000      -0.567805       -15.4508
  43   2.0000      -0.558052       -15.1854
  44   2.0000      -0.527586       -14.3563
  45   2.0000      -0.522001       -14.2044
  46   2.0000      -0.515485       -14.0270
  47   2.0000      -0.506594       -13.7851
  48   2.0000      -0.502795       -13.6818
  49   2.0000      -0.493122       -13.4185
  50   2.0000      -0.489847       -13.3294
  51   2.0000      -0.483374       -13.1533
  52   2.0000      -0.468836       -12.7577
  53   2.0000      -0.467926       -12.7329
  54   2.0000      -0.464005       -12.6262
  55   2.0000      -0.451597       -12.2886
  56   2.0000      -0.447074       -12.1655
  57   2.0000      -0.444394       -12.0926
  58   2.0000      -0.437134       -11.8950
  59   2.0000      -0.424398       -11.5485
  60   2.0000      -0.418111       -11.3774
  61   2.0000      -0.410951       -11.1826
  62   2.0000      -0.410033       -11.1576
  63   2.0000      -0.340628        -9.2690
  64   2.0000      -0.329186        -8.9576
  65   2.0000      -0.326558        -8.8861
  66   2.0000      -0.297208        -8.0874
  67   0.0000       0.040955         1.1144
  68   0.0000       0.061668         1.6781
  69   0.0000       0.112656         3.0655
  70   0.0000       0.125744         3.4217
  71   0.0000       0.129914         3.5351

MULLIKEN ATOMIC CHARGES
-----------------------
   0 S :    0.144513
   1 C :   -0.096601
   2 C :   -0.161906
   3 C :    0.026661
   4 C :   -0.171074
   5 H :    0.037998
   6 C :    0.079888
   7 H :    0.048317
   8 H :    0.004598
   9 C :   -0.126124
  10 H :    0.046293
  11 H :    0.034777
  12 C :   -0.007797
  13 H :    0.043504
  14 H :    0.023133
  15 H :    0.039810
  16 S :    0.109296
  17 C :   -0.082956
  18 C :   -0.046533
  19 C :    0.007464
  20 C :   -0.190369
  21 H :    0.022623
  22 C :    0.100741
  23 H :   -0.006513
  24 H :    0.039619
  25 C :   -0.162634
  26 H :    0.041251
  27 H :    0.050910
  28 C :   -0.057184
  29 H :    0.036122
  30 H :    0.045797
  31 H :    0.028355
  32 H :    0.042763
  33 H :    0.055255
Sum of atomic charges:   -0.0000000

LOEWDIN ATOMIC CHARGES
----------------------
   0 S :    0.437849
   1 C :   -0.226899
   2 C :   -0.063592
   3 C :   -0.073868
   4 C :   -0.206081
   5 H :    0.040332
   6 C :   -0.031010
   7 H :    0.033138
   8 H :    0.020125
   9 C :   -0.032317
  10 H :    0.025721
  11 H :    0.021325
  12 C :   -0.058147
  13 H :    0.031988
  14 H :    0.021544
  15 H :    0.027835
  16 S :    0.416110
  17 C :   -0.190016
  18 C :   -0.065689
  19 C :   -0.055084
  20 C :   -0.205225
  21 H :    0.029238
  22 C :   -0.030104
  23 H :    0.014528
  24 H :    0.041201
  25 C :   -0.048658
  26 H :    0.026399
  27 H :    0.031021
  28 C :   -0.070661
  29 H :    0.024022
  30 H :    0.033941
  31 H :    0.019548
  32 H :    0.033356
  33 H :    0.028128

  Mayer bond orders larger than 0.100000
B(  0-S ,  1-C ) :   1.1423 B(  0-S ,  4-C ) :   1.1677 B(  1-C ,  2-C ) :   1.6274
B(  1-C , 32-H ) :   0.9588 B(  2-C ,  3-C ) :   1.2502 B(  2-C ,  6-C ) :   0.9934
B(  3-C ,  4-C ) :   1.5778 B(  3-C ,  5-H ) :   0.9765 B(  4-C , 20-C ) :   0.9987
B(  6-C ,  7-H ) :   0.9443 B(  6-C ,  8-H ) :   0.9341 B(  6-C ,  9-C ) :   1.0670
B(  9-C , 10-H ) :   0.9498 B(  9-C , 11-H ) :   0.9645 B(  9-C , 12-C ) :   1.0667
B( 12-C , 13-H ) :   0.9748 B( 12-C , 14-H ) :   0.9741 B( 12-C , 15-H ) :   0.9781
B( 16-S , 17-C ) :   1.1467 B( 16-S , 20-C ) :   1.1644 B( 17-C , 18-C ) :   1.6340
B( 17-C , 33-H ) :   0.9661 B( 18-C , 19-C ) :   1.2074 B( 18-C , 21-H ) :   0.9852
B( 19-C , 20-C ) :   1.6108 B( 19-C , 22-C ) :   1.0486 B( 22-C , 23-H ) :   0.9372
B( 22-C , 24-H ) :   0.9216 B( 22-C , 25-C ) :   1.0554 B( 25-C , 26-H ) :   0.9527
B( 25-C , 27-H ) :   0.9599 B( 25-C , 28-C ) :   1.0791 B( 28-C , 29-H ) :   0.9750
B( 28-C , 30-H ) :   0.9743 B( 28-C , 31-H ) :   0.9765

Dispersion correction           -0.013754773
FINAL SINGLE POINT ENERGY     -1339.861252421705

DIPOLE MOMENT
-------------
                                X             Y             Z
Electronic contribution:     -0.87867      25.52858      18.94191
Nuclear contribution   :      0.90546     -26.22975     -19.36476
                        -----------------------------------------
Total Dipole Moment    :      0.02679      -0.70116      -0.42285
                        -----------------------------------------
Magnitude (a.u.)       :      0.81924
Magnitude (Debye)      :      2.08233

Rotational constants in cm-1:     0.016229     0.009267     0.006546
Rotational constants in MHz :   486.529686   277.819806   196.232793

                             ****ORCA TERMINATED NORMALLY****
TOTAL RUN TIME: 0 days 0 hours 0 minutes 32 seconds 409 msec
