                         Program Version 4.2.1 -  RELEASE  -
|  1> ! wB97X-D3 SP def2-SVP
|  2> %pal
|  3> nprocs 16
|  4> end
|  5>
|  6> * xyz 0 1
|  7> S 	 -93.788 	 54.7086 	 128.542
|  8> C 	 -92.0759 	 54.4866 	 128.754
|  9> C 	 -91.4194 	 53.7965 	 127.783
| 10> C 	 -92.3802 	 53.3734 	 126.834
| 11> C 	 -93.6713 	 53.7399 	 127.073
| 12> H 	 -92.1742 	 52.9804 	 125.86
| 13> C 	 -89.9095 	 53.5778 	 127.552
| 14> H 	 -89.2757 	 53.9885 	 128.322
| 15> H 	 -89.7344 	 54.2903 	 126.761
| 16> C 	 -89.539 	 52.1305 	 127.112
| 17> H 	 -90.2194 	 51.8226 	 126.341
| 18> H 	 -88.5549 	 52.2503 	 126.589
| 19> C 	 -89.617 	 51.1019 	 128.283
| 20> H 	 -89.5719 	 50.0723 	 127.93
| 21> H 	 -88.9834 	 51.3358 	 129.117
| 22> H 	 -90.5531 	 51.2498 	 128.685
| 23> S 	 -95.4625 	 54.8848 	 125.296
| 24> C 	 -96.7227 	 53.937 	 124.666
| 25> C 	 -96.6441 	 52.5438 	 125.044
| 26> C 	 -95.4939 	 52.3008 	 125.93
| 27> C 	 -94.8378 	 53.5021 	 126.215
| 28> H 	 -97.3384 	 51.8475 	 124.593
| 29> C 	 -95.0328 	 50.9115 	 126.423
| 30> H 	 -95.9165 	 50.3856 	 126.706
| 31> H 	 -94.4718 	 50.9504 	 127.322
| 32> C 	 -94.2676 	 50.1477 	 125.367
| 33> H 	 -93.3013 	 50.6228 	 125.32
| 34> H 	 -94.8327 	 50.3628 	 124.427
| 35> C 	 -93.8941 	 48.6226 	 125.627
| 36> H 	 -93.5741 	 48.1892 	 124.685
| 37> H 	 -94.754 	 48.0763 	 125.892
| 38> H 	 -93.2565 	 48.4985 	 126.49
| 39> H 	 -91.3123 	 54.9619 	 129.45
| 40> H 	 -97.4162 	 54.3832 	 123.963
| 41> *
| 42>
| 43>                          ****END OF INPUT****

CARTESIAN COORDINATES (ANGSTROEM)
---------------------------------
  S    -93.788000   54.708600  128.542000
  C    -92.075900   54.486600  128.754000
  C    -91.419400   53.796500  127.783000
  C    -92.380200   53.373400  126.834000
  C    -93.671300   53.739900  127.073000
  H    -92.174200   52.980400  125.860000
  C    -89.909500   53.577800  127.552000
  H    -89.275700   53.988500  128.322000
  H    -89.734400   54.290300  126.761000
  C    -89.539000   52.130500  127.112000
  H    -90.219400   51.822600  126.341000
  H    -88.554900   52.250300  126.589000
  C    -89.617000   51.101900  128.283000
  H    -89.571900   50.072300  127.930000
  H    -88.983400   51.335800  129.117000
  H    -90.553100   51.249800  128.685000
  S    -95.462500   54.884800  125.296000
  C    -96.722700   53.937000  124.666000
  C    -96.644100   52.543800  125.044000
  C    -95.493900   52.300800  125.930000
  C    -94.837800   53.502100  126.215000
  H    -97.338400   51.847500  124.593000
  C    -95.032800   50.911500  126.423000
  H    -95.916500   50.385600  126.706000
  H    -94.471800   50.950400  127.322000
  C    -94.267600   50.147700  125.367000
  H    -93.301300   50.622800  125.320000
  H    -94.832700   50.362800  124.427000
  C    -93.894100   48.622600  125.627000
  H    -93.574100   48.189200  124.685000
  H    -94.754000   48.076300  125.892000
  H    -93.256500   48.498500  126.490000
  H    -91.312300   54.961900  129.450000
  H    -97.416200   54.383200  123.963000

 Total Charge           Charge          ....    0
 Multiplicity           Mult            ....    1
 Number of Electrons    NEL             ....  134
 Basis Dimension        Dim             ....  322

ORBITAL ENERGIES
----------------

  NO   OCC          E(Eh)            E(eV)
   0   2.0000     -88.968174     -2420.9471
   1   2.0000     -88.967915     -2420.9401
   2   2.0000     -10.325917      -280.9825
   3   2.0000     -10.323964      -280.9294
   4   2.0000     -10.321838      -280.8715
   5   2.0000     -10.313912      -280.6558
   6   2.0000     -10.311658      -280.5945
   7   2.0000     -10.305432      -280.4251
   8   2.0000     -10.296871      -280.1921
   9   2.0000     -10.296478      -280.1814
  10   2.0000     -10.294335      -280.1231
  11   2.0000     -10.287315      -279.9321
  12   2.0000     -10.286679      -279.9148
  13   2.0000     -10.285592      -279.8852
  14   2.0000     -10.278468      -279.6913
  15   2.0000     -10.272319      -279.5240
  16   2.0000      -8.083191      -219.9548
  17   2.0000      -8.082653      -219.9402
  18   2.0000      -6.041427      -164.3956
  19   2.0000      -6.041187      -164.3891
  20   2.0000      -6.037605      -164.2916
  21   2.0000      -6.037367      -164.2851
  22   2.0000      -6.034234      -164.1999
  23   2.0000      -6.033217      -164.1722
  24   2.0000      -1.005162       -27.3519
  25   2.0000      -0.981927       -26.7196
  26   2.0000      -0.909264       -24.7423
  27   2.0000      -0.908116       -24.7111
  28   2.0000      -0.864168       -23.5152
  29   2.0000      -0.848867       -23.0988
  30   2.0000      -0.844301       -22.9746
  31   2.0000      -0.808738       -22.0069
  32   2.0000      -0.791124       -21.5276
  33   2.0000      -0.778532       -21.1849
  34   2.0000      -0.709393       -19.3036
  35   2.0000      -0.699819       -19.0430
  36   2.0000      -0.688740       -18.7416
  37   2.0000      -0.660332       -17.9686
  38   2.0000      -0.636887       -17.3306
  39   2.0000      -0.621781       -16.9195
  40   2.0000      -0.597937       -16.2707
  41   2.0000      -0.565255       -15.3814
  42   2.0000      -0.559988       -15.2381
  43   2.0000      -0.552268       -15.0280
  44   2.0000      -0.533247       -14.5104
  45   2.0000      -0.526346       -14.3226
  46   2.0000      -0.513662       -13.9775
  47   2.0000      -0.509799       -13.8723
  48   2.0000      -0.507142       -13.8000
  49   2.0000      -0.490366       -13.3435
  50   2.0000      -0.484026       -13.1710
  51   2.0000      -0.474614       -12.9149
  52   2.0000      -0.471325       -12.8254
  53   2.0000      -0.468729       -12.7548
  54   2.0000      -0.457010       -12.4359
  55   2.0000      -0.450709       -12.2644
  56   2.0000      -0.444568       -12.0973
  57   2.0000      -0.442748       -12.0478
  58   2.0000      -0.434155       -11.8140
  59   2.0000      -0.432701       -11.7744
  60   2.0000      -0.428201       -11.6520
  61   2.0000      -0.419088       -11.4040
  62   2.0000      -0.412441       -11.2231
  63   2.0000      -0.337156        -9.1745
  64   2.0000      -0.332139        -9.0380
  65   2.0000      -0.324456        -8.8289
  66   2.0000      -0.302035        -8.2188
  67   0.0000       0.039777         1.0824
  68   0.0000       0.062644         1.7046
  69   0.0000       0.111270         3.0278
  70   0.0000       0.119265         3.2454
  71   0.0000       0.124143         3.3781

MULLIKEN ATOMIC CHARGES
-----------------------
   0 S :    0.130034
   1 C :   -0.122254
   2 C :   -0.107236
   3 C :    0.028128
   4 C :   -0.177676
   5 H :    0.011225
   6 C :    0.069065
   7 H :    0.012876
   8 H :    0.036827
   9 C :   -0.085135
  10 H :    0.025357
  11 H :    0.035198
  12 C :    0.008466
  13 H :    0.041484
  14 H :    0.025267
  15 H :    0.008880
  16 S :    0.128585
  17 C :   -0.108829
  18 C :   -0.045786
  19 C :   -0.032443
  20 C :   -0.201602
  21 H :    0.025523
  22 C :    0.128081
  23 H :    0.008627
  24 H :    0.017058
  25 C :   -0.106812
  26 H :    0.021022
  27 H :    0.034876
  28 C :   -0.007803
  29 H :    0.041563
  30 H :    0.009539
  31 H :    0.034168
  32 H :    0.049369
  33 H :    0.064358
Sum of atomic charges:   -0.0000000

LOEWDIN ATOMIC CHARGES
----------------------
   0 S :    0.404462
   1 C :   -0.216871
   2 C :   -0.072126
   3 C :   -0.061073
   4 C :   -0.194947
   5 H :    0.026099
   6 C :   -0.029089
   7 H :    0.025783
   8 H :    0.037118
   9 C :   -0.035390
  10 H :    0.020077
  11 H :    0.027898
  12 C :   -0.056743
  13 H :    0.029962
  14 H :    0.025086
  15 H :    0.018556
  16 S :    0.425898
  17 C :   -0.200376
  18 C :   -0.075335
  19 C :   -0.038064
  20 C :   -0.206337
  21 H :    0.030299
  22 C :   -0.026823
  23 H :    0.024699
  24 H :    0.025477
  25 C :   -0.040559
  26 H :    0.020087
  27 H :    0.028161
  28 C :   -0.059504
  29 H :    0.031667
  30 H :    0.015881
  31 H :    0.027172
  32 H :    0.042432
  33 H :    0.026425

  Mayer bond orders larger than 0.100000
B(  0-S ,  1-C ) :   1.1314 B(  0-S ,  4-C ) :   1.1286 B(  1-C ,  2-C ) :   1.6711
B(  1-C , 32-H ) :   0.9414 B(  2-C ,  3-C ) :   1.2138 B(  2-C ,  6-C ) :   1.0021
B(  3-C ,  4-C ) :   1.6332 B(  3-C ,  5-H ) :   0.9850 B(  4-C , 20-C ) :   1.0173
B(  6-C ,  7-H ) :   0.9423 B(  6-C ,  8-H ) :   0.9362 B(  6-C ,  9-C ) :   1.0687
B(  9-C , 10-H ) :   0.9569 B(  9-C , 11-H ) :   0.9560 B(  9-C , 12-C ) :   1.0614
B( 12-C , 13-H ) :   0.9756 B( 12-C , 14-H ) :   0.9747 B( 12-C , 15-H ) :   0.9709
B( 16-S , 17-C ) :   1.1889 B( 16-S , 20-C ) :   1.1547 B( 17-C , 18-C ) :   1.5741
B( 17-C , 20-C ) :   0.1006 B( 17-C , 33-H ) :   0.9689 B( 18-C , 19-C ) :   1.2316
B( 18-C , 21-H ) :   0.9917 B( 19-C , 20-C ) :   1.6010 B( 19-C , 22-C ) :   1.0452
B( 22-C , 23-H ) :   0.9276 B( 22-C , 24-H ) :   0.9270 B( 22-C , 25-C ) :   1.0637
B( 25-C , 26-H ) :   0.9528 B( 25-C , 27-H ) :   0.9607 B( 25-C , 28-C ) :   1.0702
B( 28-C , 29-H ) :   0.9749 B( 28-C , 30-H ) :   0.9757 B( 28-C , 31-H ) :   0.9744

Dispersion correction           -0.014832410
FINAL SINGLE POINT ENERGY     -1339.863458291655

DIPOLE MOMENT
-------------
                                X             Y             Z
Electronic contribution:    -17.20830      25.28005       1.59164
Nuclear contribution   :     17.55135     -25.66636      -1.90743
                        -----------------------------------------
Total Dipole Moment    :      0.34304      -0.38631      -0.31579
                        -----------------------------------------
Magnitude (a.u.)       :      0.60550
Magnitude (Debye)      :      1.53906

Rotational constants in cm-1:     0.016351     0.010171     0.007090
Rotational constants in MHz :   490.195826   304.914479   212.553682

                             ****ORCA TERMINATED NORMALLY****
TOTAL RUN TIME: 0 days 0 hours 0 minutes 34 seconds 224 msec
