                         Program Version 4.2.1 -  RELEASE  -
|  1> ! wB97X-D3 SP def2-SVP
|  2> %pal
|  3> nprocs 16
|  4> end
|  5>
|  6> * xyz 0 1
|  7> S 	 -80.3745 	 38.5903 	 135.715
|  8> C 	 -78.8889 	 37.6644 	 135.75
|  9> C 	 -78.9658 	 36.5664 	 134.823
| 10> C 	 -80.1883 	 36.5849 	 134.125
| 11> C 	 -80.9943 	 37.6001 	 134.404
| 12> H 	 -80.5927 	 35.8891 	 133.399
| 13> C 	 -77.9275 	 35.5215 	 134.661
| 14> H 	 -78.4224 	 34.5294 	 134.619
| 15> H 	 -77.3087 	 35.6213 	 135.542
| 16> C 	 -76.8577 	 35.7069 	 133.56
| 17> H 	 -76.2273 	 36.6209 	 133.689
| 18> H 	 -76.2323 	 34.8229 	 133.644
| 19> C 	 -77.302 	 35.6932 	 132.157
| 20> H 	 -78.0478 	 36.5673 	 132.016
| 21> H 	 -76.4175 	 35.8653 	 131.51
| 22> H 	 -77.9768 	 34.8494 	 132.011
| 23> S 	 -83.705 	 38.2517 	 134.862
| 24> C 	 -84.7525 	 38.276 	 133.455
| 25> C 	 -84.1228 	 37.9202 	 132.298
| 26> C 	 -82.7317 	 37.7678 	 132.484
| 27> C 	 -82.3322 	 37.844 	 133.839
| 28> H 	 -84.6117 	 37.8258 	 131.405
| 29> C 	 -81.8493 	 37.5316 	 131.249
| 30> H 	 -82.4557 	 37.189 	 130.39
| 31> H 	 -81.157 	 36.7127 	 131.432
| 32> C 	 -80.9078 	 38.7369 	 130.933
| 33> H 	 -80.3442 	 38.5658 	 130.011
| 34> H 	 -80.2851 	 38.8563 	 131.799
| 35> C 	 -81.6723 	 39.9329 	 130.479
| 36> H 	 -82.3489 	 40.4614 	 131.105
| 37> H 	 -82.1598 	 39.5773 	 129.513
| 38> H 	 -80.9599 	 40.6572 	 130.166
| 39> H 	 -77.997 	 37.8707 	 136.367
| 40> H 	 -85.8259 	 38.5007 	 133.445
| 41> *
| 42>
| 43>                          ****END OF INPUT****

CARTESIAN COORDINATES (ANGSTROEM)
---------------------------------
  S    -80.374500   38.590300  135.715000
  C    -78.888900   37.664400  135.750000
  C    -78.965800   36.566400  134.823000
  C    -80.188300   36.584900  134.125000
  C    -80.994300   37.600100  134.404000
  H    -80.592700   35.889100  133.399000
  C    -77.927500   35.521500  134.661000
  H    -78.422400   34.529400  134.619000
  H    -77.308700   35.621300  135.542000
  C    -76.857700   35.706900  133.560000
  H    -76.227300   36.620900  133.689000
  H    -76.232300   34.822900  133.644000
  C    -77.302000   35.693200  132.157000
  H    -78.047800   36.567300  132.016000
  H    -76.417500   35.865300  131.510000
  H    -77.976800   34.849400  132.011000
  S    -83.705000   38.251700  134.862000
  C    -84.752500   38.276000  133.455000
  C    -84.122800   37.920200  132.298000
  C    -82.731700   37.767800  132.484000
  C    -82.332200   37.844000  133.839000
  H    -84.611700   37.825800  131.405000
  C    -81.849300   37.531600  131.249000
  H    -82.455700   37.189000  130.390000
  H    -81.157000   36.712700  131.432000
  C    -80.907800   38.736900  130.933000
  H    -80.344200   38.565800  130.011000
  H    -80.285100   38.856300  131.799000
  C    -81.672300   39.932900  130.479000
  H    -82.348900   40.461400  131.105000
  H    -82.159800   39.577300  129.513000
  H    -80.959900   40.657200  130.166000
  H    -77.997000   37.870700  136.367000
  H    -85.825900   38.500700  133.445000

 Total Charge           Charge          ....    0
 Multiplicity           Mult            ....    1
 Number of Electrons    NEL             ....  134
 Basis Dimension        Dim             ....  322

ORBITAL ENERGIES
----------------

  NO   OCC          E(Eh)            E(eV)
   0   2.0000     -88.970598     -2421.0130
   1   2.0000     -88.967858     -2420.9385
   2   2.0000     -10.329759      -281.0870
   3   2.0000     -10.324580      -280.9461
   4   2.0000     -10.321932      -280.8740
   5   2.0000     -10.316467      -280.7253
   6   2.0000     -10.303722      -280.3785
   7   2.0000     -10.303525      -280.3732
   8   2.0000     -10.292278      -280.0671
   9   2.0000     -10.291992      -280.0594
  10   2.0000     -10.286276      -279.9038
  11   2.0000     -10.284822      -279.8642
  12   2.0000     -10.284381      -279.8522
  13   2.0000     -10.280829      -279.7556
  14   2.0000     -10.280180      -279.7379
  15   2.0000     -10.267611      -279.3959
  16   2.0000      -8.084749      -219.9972
  17   2.0000      -8.082382      -219.9328
  18   2.0000      -6.043317      -164.4470
  19   2.0000      -6.040842      -164.3797
  20   2.0000      -6.039348      -164.3390
  21   2.0000      -6.036925      -164.2731
  22   2.0000      -6.035489      -164.2340
  23   2.0000      -6.033208      -164.1719
  24   2.0000      -1.007724       -27.4216
  25   2.0000      -0.985092       -26.8057
  26   2.0000      -0.917710       -24.9722
  27   2.0000      -0.908725       -24.7277
  28   2.0000      -0.870194       -23.6792
  29   2.0000      -0.856778       -23.3141
  30   2.0000      -0.850451       -23.1419
  31   2.0000      -0.819977       -22.3127
  32   2.0000      -0.784551       -21.3487
  33   2.0000      -0.767385       -20.8816
  34   2.0000      -0.704013       -19.1572
  35   2.0000      -0.694776       -18.9058
  36   2.0000      -0.681976       -18.5575
  37   2.0000      -0.663964       -18.0674
  38   2.0000      -0.642321       -17.4784
  39   2.0000      -0.617081       -16.7916
  40   2.0000      -0.593510       -16.1502
  41   2.0000      -0.579362       -15.7652
  42   2.0000      -0.564907       -15.3719
  43   2.0000      -0.552285       -15.0284
  44   2.0000      -0.549679       -14.9575
  45   2.0000      -0.539343       -14.6763
  46   2.0000      -0.520071       -14.1519
  47   2.0000      -0.509745       -13.8709
  48   2.0000      -0.504534       -13.7291
  49   2.0000      -0.493533       -13.4297
  50   2.0000      -0.485196       -13.2028
  51   2.0000      -0.478426       -13.0186
  52   2.0000      -0.475804       -12.9473
  53   2.0000      -0.466442       -12.6925
  54   2.0000      -0.461884       -12.5685
  55   2.0000      -0.445760       -12.1297
  56   2.0000      -0.439530       -11.9602
  57   2.0000      -0.435082       -11.8392
  58   2.0000      -0.425144       -11.5688
  59   2.0000      -0.423029       -11.5112
  60   2.0000      -0.420517       -11.4428
  61   2.0000      -0.416600       -11.3363
  62   2.0000      -0.407134       -11.0787
  63   2.0000      -0.352316        -9.5870
  64   2.0000      -0.336693        -9.1619
  65   2.0000      -0.328224        -8.9314
  66   2.0000      -0.285718        -7.7748
  67   0.0000       0.026213         0.7133
  68   0.0000       0.070289         1.9127
  69   0.0000       0.104883         2.8540
  70   0.0000       0.123320         3.3557
  71   0.0000       0.125258         3.4084

MULLIKEN ATOMIC CHARGES
-----------------------
   0 S :    0.110266
   1 C :   -0.128863
   2 C :   -0.093701
   3 C :    0.012161
   4 C :   -0.147382
   5 H :    0.012664
   6 C :    0.070962
   7 H :    0.042085
   8 H :    0.014707
   9 C :   -0.074635
  10 H :    0.032039
  11 H :    0.026808
  12 C :   -0.066542
  13 H :    0.033598
  14 H :    0.052964
  15 H :    0.022710
  16 S :    0.118538
  17 C :   -0.093506
  18 C :    0.004015
  19 C :   -0.043726
  20 C :   -0.151282
  21 H :   -0.017914
  22 C :    0.061548
  23 H :    0.019744
  24 H :    0.012910
  25 C :   -0.061529
  26 H :    0.029150
  27 H :    0.045300
  28 C :   -0.040942
  29 H :    0.038565
  30 H :    0.019344
  31 H :    0.018917
  32 H :    0.061159
  33 H :    0.059868
Sum of atomic charges:    0.0000000

LOEWDIN ATOMIC CHARGES
----------------------
   0 S :    0.401699
   1 C :   -0.205234
   2 C :   -0.061435
   3 C :   -0.070488
   4 C :   -0.188677
   5 H :    0.035609
   6 C :   -0.036236
   7 H :    0.038535
   8 H :    0.034544
   9 C :   -0.046453
  10 H :    0.028598
  11 H :    0.023959
  12 C :   -0.076828
  13 H :    0.028949
  14 H :    0.034770
  15 H :    0.021499
  16 S :    0.404526
  17 C :   -0.183035
  18 C :   -0.061233
  19 C :   -0.051626
  20 C :   -0.201591
  21 H :    0.018555
  22 C :   -0.032730
  23 H :    0.028540
  24 H :    0.023929
  25 C :   -0.034504
  26 H :    0.030557
  27 H :    0.022409
  28 C :   -0.065345
  29 H :    0.017733
  30 H :    0.030685
  31 H :    0.021709
  32 H :    0.034510
  33 H :    0.034102

  Mayer bond orders larger than 0.100000
B(  0-S ,  1-C ) :   1.1470 B(  0-S ,  4-C ) :   1.1362 B(  1-C ,  2-C ) :   1.5843
B(  1-C ,  4-C ) :   0.1017 B(  1-C , 32-H ) :   0.9642 B(  2-C ,  3-C ) :   1.2246
B(  2-C ,  6-C ) :   1.0353 B(  3-C ,  4-C ) :   1.6113 B(  3-C ,  5-H ) :   0.9916
B(  4-C , 20-C ) :   1.0336 B(  6-C ,  7-H ) :   0.9404 B(  6-C ,  8-H ) :   0.9266
B(  6-C ,  9-C ) :   1.0796 B(  9-C , 10-H ) :   0.9517 B(  9-C , 11-H ) :   0.9503
B(  9-C , 12-C ) :   1.0939 B( 12-C , 13-H ) :   0.9687 B( 12-C , 14-H ) :   0.9685
B( 12-C , 15-H ) :   0.9694 B( 16-S , 17-C ) :   1.1517 B( 16-S , 20-C ) :   1.1402
B( 17-C , 18-C ) :   1.6039 B( 17-C , 33-H ) :   0.9614 B( 18-C , 19-C ) :   1.2622
B( 18-C , 21-H ) :   1.0037 B( 19-C , 20-C ) :   1.5715 B( 19-C , 22-C ) :   1.0340
B( 22-C , 23-H ) :   0.9397 B( 22-C , 24-H ) :   0.9321 B( 22-C , 25-C ) :   1.0773
B( 25-C , 26-H ) :   0.9568 B( 25-C , 27-H ) :   0.9546 B( 25-C , 28-C ) :   1.0688
B( 28-C , 29-H ) :   0.9765 B( 28-C , 30-H ) :   0.9748 B( 28-C , 31-H ) :   0.9729

Dispersion correction           -0.015530916
FINAL SINGLE POINT ENERGY     -1339.868272720152

DIPOLE MOMENT
-------------
                                X             Y             Z
Electronic contribution:    -16.82230       5.88410      21.68166
Nuclear contribution   :     17.11828      -6.18458     -22.17396
                        -----------------------------------------
Total Dipole Moment    :      0.29598      -0.30048      -0.49230
                        -----------------------------------------
Magnitude (a.u.)       :      0.64826
Magnitude (Debye)      :      1.64776

Rotational constants in cm-1:     0.019326     0.009666     0.007493
Rotational constants in MHz :   579.384157   289.793969   224.637781

                             ****ORCA TERMINATED NORMALLY****
TOTAL RUN TIME: 0 days 0 hours 0 minutes 34 seconds 805 msec
