                         Program Version 4.2.1 -  RELEASE  -
|  1> ! wB97X-D3 SP def2-SVP
|  2> %pal
|  3> nprocs 16
|  4> end
|  5>
|  6> * xyz 0 1
|  7> S 	 -42.1132 	 55.3151 	 108.685
|  8> C 	 -43.6047 	 56.1441 	 108.243
|  9> C 	 -43.3708 	 57.0571 	 107.241
| 10> C 	 -42.0258 	 57.0946 	 106.76
| 11> C 	 -41.2355 	 56.1939 	 107.447
| 12> H 	 -41.5292 	 57.6772 	 105.966
| 13> C 	 -44.4691 	 57.9271 	 106.65
| 14> H 	 -45.3339 	 57.7993 	 107.249
| 15> H 	 -44.7102 	 57.5548 	 105.672
| 16> C 	 -44.0479 	 59.4514 	 106.54
| 17> H 	 -44.0402 	 59.8721 	 107.509
| 18> H 	 -43.0395 	 59.6245 	 106.268
| 19> C 	 -44.9624 	 60.3554 	 105.745
| 20> H 	 -44.8541 	 60.2394 	 104.642
| 21> H 	 -45.9885 	 60.1075 	 105.799
| 22> H 	 -44.6884 	 61.4373 	 105.798
| 23> S 	 -39.3288 	 54.3341 	 107.029
| 24> C 	 -37.6254 	 54.9321 	 106.714
| 25> C 	 -37.6347 	 56.25 	 106.557
| 26> C 	 -38.7998 	 56.9167 	 106.946
| 27> C 	 -39.8211 	 55.9964 	 107.346
| 28> H 	 -36.7971 	 56.7263 	 106.206
| 29> C 	 -38.912 	 58.4091 	 106.828
| 30> H 	 -38.1307 	 58.8696 	 107.529
| 31> H 	 -39.8395 	 58.8949 	 107.129
| 32> C 	 -38.7455 	 58.9007 	 105.345
| 33> H 	 -39.5591 	 58.4518 	 104.748
| 34> H 	 -37.8364 	 58.6145 	 104.897
| 35> C 	 -38.9549 	 60.4834 	 105.106
| 36> H 	 -38.3744 	 60.8504 	 104.233
| 37> H 	 -38.449 	 60.9731 	 105.843
| 38> H 	 -39.9467 	 60.9306 	 105
| 39> H 	 -44.5119 	 55.9336 	 108.77
| 40> H 	 -36.8511 	 54.3553 	 106.262
| 41> *
| 42>
| 43>                          ****END OF INPUT****

CARTESIAN COORDINATES (ANGSTROEM)
---------------------------------
  S    -42.113200   55.315100  108.685000
  C    -43.604700   56.144100  108.243000
  C    -43.370800   57.057100  107.241000
  C    -42.025800   57.094600  106.760000
  C    -41.235500   56.193900  107.447000
  H    -41.529200   57.677200  105.966000
  C    -44.469100   57.927100  106.650000
  H    -45.333900   57.799300  107.249000
  H    -44.710200   57.554800  105.672000
  C    -44.047900   59.451400  106.540000
  H    -44.040200   59.872100  107.509000
  H    -43.039500   59.624500  106.268000
  C    -44.962400   60.355400  105.745000
  H    -44.854100   60.239400  104.642000
  H    -45.988500   60.107500  105.799000
  H    -44.688400   61.437300  105.798000
  S    -39.328800   54.334100  107.029000
  C    -37.625400   54.932100  106.714000
  C    -37.634700   56.250000  106.557000
  C    -38.799800   56.916700  106.946000
  C    -39.821100   55.996400  107.346000
  H    -36.797100   56.726300  106.206000
  C    -38.912000   58.409100  106.828000
  H    -38.130700   58.869600  107.529000
  H    -39.839500   58.894900  107.129000
  C    -38.745500   58.900700  105.345000
  H    -39.559100   58.451800  104.748000
  H    -37.836400   58.614500  104.897000
  C    -38.954900   60.483400  105.106000
  H    -38.374400   60.850400  104.233000
  H    -38.449000   60.973100  105.843000
  H    -39.946700   60.930600  105.000000
  H    -44.511900   55.933600  108.770000
  H    -36.851100   54.355300  106.262000

 Total Charge           Charge          ....    0
 Multiplicity           Mult            ....    1
 Number of Electrons    NEL             ....  134
 Basis Dimension        Dim             ....  322

ORBITAL ENERGIES
----------------

  NO   OCC          E(Eh)            E(eV)
   0   2.0000     -88.965318     -2420.8694
   1   2.0000     -88.962730     -2420.7990
   2   2.0000     -10.329369      -281.0764
   3   2.0000     -10.326317      -280.9934
   4   2.0000     -10.315005      -280.6856
   5   2.0000     -10.312895      -280.6281
   6   2.0000     -10.306718      -280.4600
   7   2.0000     -10.303588      -280.3749
   8   2.0000     -10.302799      -280.3534
   9   2.0000     -10.298301      -280.2310
  10   2.0000     -10.296625      -280.1854
  11   2.0000     -10.291944      -280.0580
  12   2.0000     -10.284320      -279.8506
  13   2.0000     -10.282191      -279.7926
  14   2.0000     -10.280563      -279.7483
  15   2.0000     -10.278579      -279.6944
  16   2.0000      -8.078881      -219.8375
  17   2.0000      -8.077558      -219.8015
  18   2.0000      -6.037489      -164.2884
  19   2.0000      -6.035995      -164.2478
  20   2.0000      -6.033805      -164.1882
  21   2.0000      -6.032061      -164.1407
  22   2.0000      -6.029312      -164.0659
  23   2.0000      -6.028378      -164.0405
  24   2.0000      -1.006772       -27.3957
  25   2.0000      -0.982446       -26.7337
  26   2.0000      -0.910042       -24.7635
  27   2.0000      -0.902424       -24.5562
  28   2.0000      -0.877712       -23.8838
  29   2.0000      -0.849823       -23.1248
  30   2.0000      -0.845367       -23.0036
  31   2.0000      -0.821049       -22.3419
  32   2.0000      -0.783430       -21.3182
  33   2.0000      -0.770595       -20.9690
  34   2.0000      -0.718390       -19.5484
  35   2.0000      -0.707708       -19.2577
  36   2.0000      -0.700157       -19.0522
  37   2.0000      -0.665053       -18.0970
  38   2.0000      -0.647435       -17.6176
  39   2.0000      -0.620000       -16.8711
  40   2.0000      -0.601662       -16.3720
  41   2.0000      -0.566350       -15.4112
  42   2.0000      -0.563406       -15.3311
  43   2.0000      -0.553965       -15.0741
  44   2.0000      -0.534891       -14.5551
  45   2.0000      -0.522294       -14.2124
  46   2.0000      -0.516829       -14.0636
  47   2.0000      -0.512522       -13.9464
  48   2.0000      -0.505232       -13.7481
  49   2.0000      -0.497881       -13.5480
  50   2.0000      -0.490250       -13.3404
  51   2.0000      -0.486497       -13.2383
  52   2.0000      -0.473607       -12.8875
  53   2.0000      -0.470086       -12.7917
  54   2.0000      -0.462997       -12.5988
  55   2.0000      -0.448415       -12.2020
  56   2.0000      -0.446906       -12.1609
  57   2.0000      -0.443677       -12.0731
  58   2.0000      -0.434809       -11.8317
  59   2.0000      -0.429306       -11.6820
  60   2.0000      -0.421392       -11.4667
  61   2.0000      -0.416590       -11.3360
  62   2.0000      -0.407494       -11.0885
  63   2.0000      -0.355240        -9.6666
  64   2.0000      -0.331420        -9.0184
  65   2.0000      -0.327702        -8.9172
  66   2.0000      -0.288454        -7.8492
  67   0.0000       0.020579         0.5600
  68   0.0000       0.071364         1.9419
  69   0.0000       0.096658         2.6302
  70   0.0000       0.116110         3.1595
  71   0.0000       0.122809         3.3418

MULLIKEN ATOMIC CHARGES
-----------------------
   0 S :    0.100651
   1 C :   -0.124718
   2 C :   -0.082759
   3 C :    0.023178
   4 C :   -0.164716
   5 H :    0.017671
   6 C :    0.127872
   7 H :    0.006726
   8 H :    0.031074
   9 C :   -0.060077
  10 H :    0.017227
  11 H :    0.011758
  12 C :   -0.052488
  13 H :    0.012036
  14 H :    0.023148
  15 H :    0.041404
  16 S :    0.079567
  17 C :   -0.056214
  18 C :   -0.019074
  19 C :   -0.018771
  20 C :   -0.113662
  21 H :   -0.011485
  22 C :    0.035482
  23 H :    0.047275
  24 H :    0.027844
  25 C :   -0.094095
  26 H :    0.041591
  27 H :    0.024605
  28 C :   -0.042938
  29 H :    0.028031
  30 H :    0.004789
  31 H :    0.043994
  32 H :    0.043718
  33 H :    0.051357
Sum of atomic charges:    0.0000000

LOEWDIN ATOMIC CHARGES
----------------------
   0 S :    0.394916
   1 C :   -0.191268
   2 C :   -0.058256
   3 C :   -0.067159
   4 C :   -0.189317
   5 H :    0.038452
   6 C :   -0.016138
   7 H :    0.024202
   8 H :    0.029159
   9 C :   -0.039243
  10 H :    0.023055
  11 H :    0.017843
  12 C :   -0.075411
  13 H :    0.024651
  14 H :    0.020080
  15 H :    0.035374
  16 S :    0.371546
  17 C :   -0.154862
  18 C :   -0.056023
  19 C :   -0.054342
  20 C :   -0.191916
  21 H :    0.020674
  22 C :   -0.039019
  23 H :    0.040110
  24 H :    0.029069
  25 C :   -0.030278
  26 H :    0.026557
  27 H :    0.014570
  28 C :   -0.070843
  29 H :    0.034161
  30 H :    0.010226
  31 H :    0.027478
  32 H :    0.024222
  33 H :    0.027729

  Mayer bond orders larger than 0.100000
B(  0-S ,  1-C ) :   1.1235 B(  0-S ,  4-C ) :   1.1558 B(  1-C ,  2-C ) :   1.6204
B(  1-C , 32-H ) :   0.9770 B(  2-C ,  3-C ) :   1.2067 B(  2-C ,  6-C ) :   1.0296
B(  3-C ,  4-C ) :   1.5934 B(  3-C ,  5-H ) :   0.9861 B(  4-C , 20-C ) :   1.0310
B(  6-C ,  7-H ) :   0.9366 B(  6-C ,  8-H ) :   0.9418 B(  6-C ,  9-C ) :   1.0427
B(  9-C , 10-H ) :   0.9526 B(  9-C , 11-H ) :   0.9596 B(  9-C , 12-C ) :   1.0881
B( 12-C , 13-H ) :   0.9689 B( 12-C , 14-H ) :   0.9729 B( 12-C , 15-H ) :   0.9722
B( 16-S , 17-C ) :   1.1148 B( 16-S , 20-C ) :   1.1506 B( 17-C , 18-C ) :   1.6461
B( 17-C , 33-H ) :   0.9637 B( 18-C , 19-C ) :   1.2429 B( 18-C , 21-H ) :   0.9975
B( 19-C , 20-C ) :   1.5643 B( 19-C , 22-C ) :   1.0520 B( 22-C , 23-H ) :   0.9299
B( 22-C , 24-H ) :   0.9443 B( 22-C , 25-C ) :   1.0450 B( 25-C , 26-H ) :   0.9590
B( 25-C , 27-H ) :   0.9602 B( 25-C , 28-C ) :   1.0663 B( 28-C , 29-H ) :   0.9746
B( 28-C , 30-H ) :   0.9736 B( 28-C , 31-H ) :   0.9804

Dispersion correction           -0.014251630
FINAL SINGLE POINT ENERGY     -1339.848181880103

DIPOLE MOMENT
-------------
                                X             Y             Z
Electronic contribution:      6.74127     -30.86547      13.89692
Nuclear contribution   :     -6.68955      31.60004     -14.42912
                        -----------------------------------------
Total Dipole Moment    :      0.05172       0.73457      -0.53220
                        -----------------------------------------
Magnitude (a.u.)       :      0.90857
Magnitude (Debye)      :      2.30941

Rotational constants in cm-1:     0.016206     0.010063     0.006535
Rotational constants in MHz :   485.850145   301.678480   195.927564

                             ****ORCA TERMINATED NORMALLY****
TOTAL RUN TIME: 0 days 0 hours 0 minutes 30 seconds 704 msec
