                         Program Version 4.2.1 -  RELEASE  -
|  1> ! wB97X-D3 SP def2-SVP
|  2> %pal
|  3> nprocs 16
|  4> end
|  5>
|  6> * xyz 0 1
|  7> S 	 6.91481 	 22.6023 	 53.7049
|  8> C 	 8.40578 	 22.3144 	 52.8442
|  9> C 	 9.17027 	 21.2192 	 53.2892
| 10> C 	 8.40325 	 20.6071 	 54.3301
| 11> C 	 7.08125 	 21.0242 	 54.5167
| 12> H 	 8.72809 	 19.6604 	 54.8452
| 13> C 	 10.4977 	 20.799 	 52.8442
| 14> H 	 10.4304 	 20.6777 	 51.7563
| 15> H 	 10.7721 	 19.8667 	 53.2304
| 16> C 	 11.6677 	 21.7904 	 53.3145
| 17> H 	 12.497 	 21.5598 	 52.6863
| 18> H 	 11.3042 	 22.7654 	 53.1187
| 19> C 	 11.8837 	 21.7972 	 54.808
| 20> H 	 12.0611 	 20.865 	 55.337
| 21> H 	 12.8489 	 22.3276 	 54.8457
| 22> H 	 11.0653 	 22.3726 	 55.3001
| 23> S 	 5.93369 	 21.91 	 56.7777
| 24> C 	 4.81 	 20.922 	 57.5734
| 25> C 	 5.11566 	 19.5934 	 57.3526
| 26> C 	 5.8269 	 19.411 	 56.1596
| 27> C 	 6.21116 	 20.6485 	 55.6421
| 28> H 	 4.68883 	 18.8581 	 58.0504
| 29> C 	 6.25902 	 18.0282 	 55.6592
| 30> H 	 6.57298 	 18.126 	 54.6026
| 31> H 	 5.37057 	 17.5017 	 55.5239
| 32> C 	 7.30035 	 17.3828 	 56.5839
| 33> H 	 6.78516 	 17.3641 	 57.5449
| 34> H 	 8.15363 	 18.0344 	 56.755
| 35> C 	 7.58374 	 15.9512 	 56.1531
| 36> H 	 8.28188 	 15.8087 	 55.2934
| 37> H 	 6.71285 	 15.3813 	 55.8517
| 38> H 	 8.07392 	 15.5142 	 57.0217
| 39> H 	 8.93447 	 23.0474 	 52.2281
| 40> H 	 4.42132 	 21.1429 	 58.5681
| 41> *
| 42>
| 43>                          ****END OF INPUT****

CARTESIAN COORDINATES (ANGSTROEM)
---------------------------------
  S      6.914810   22.602300   53.704900
  C      8.405780   22.314400   52.844200
  C      9.170270   21.219200   53.289200
  C      8.403250   20.607100   54.330100
  C      7.081250   21.024200   54.516700
  H      8.728090   19.660400   54.845200
  C     10.497700   20.799000   52.844200
  H     10.430400   20.677700   51.756300
  H     10.772100   19.866700   53.230400
  C     11.667700   21.790400   53.314500
  H     12.497000   21.559800   52.686300
  H     11.304200   22.765400   53.118700
  C     11.883700   21.797200   54.808000
  H     12.061100   20.865000   55.337000
  H     12.848900   22.327600   54.845700
  H     11.065300   22.372600   55.300100
  S      5.933690   21.910000   56.777700
  C      4.810000   20.922000   57.573400
  C      5.115660   19.593400   57.352600
  C      5.826900   19.411000   56.159600
  C      6.211160   20.648500   55.642100
  H      4.688830   18.858100   58.050400
  C      6.259020   18.028200   55.659200
  H      6.572980   18.126000   54.602600
  H      5.370570   17.501700   55.523900
  C      7.300350   17.382800   56.583900
  H      6.785160   17.364100   57.544900
  H      8.153630   18.034400   56.755000
  C      7.583740   15.951200   56.153100
  H      8.281880   15.808700   55.293400
  H      6.712850   15.381300   55.851700
  H      8.073920   15.514200   57.021700
  H      8.934470   23.047400   52.228100
  H      4.421320   21.142900   58.568100

 Total Charge           Charge          ....    0
 Multiplicity           Mult            ....    1
 Number of Electrons    NEL             ....  134
 Basis Dimension        Dim             ....  322

ORBITAL ENERGIES
----------------

  NO   OCC          E(Eh)            E(eV)
   0   2.0000     -88.968907     -2420.9670
   1   2.0000     -88.962034     -2420.7800
   2   2.0000     -10.328814      -281.0613
   3   2.0000     -10.322263      -280.8830
   4   2.0000     -10.315152      -280.6896
   5   2.0000     -10.303870      -280.3826
   6   2.0000     -10.300362      -280.2871
   7   2.0000     -10.298055      -280.2243
   8   2.0000     -10.297757      -280.2162
   9   2.0000     -10.290379      -280.0155
  10   2.0000     -10.289810      -280.0000
  11   2.0000     -10.288277      -279.9583
  12   2.0000     -10.286808      -279.9183
  13   2.0000     -10.285721      -279.8887
  14   2.0000     -10.281614      -279.7769
  15   2.0000     -10.281014      -279.7606
  16   2.0000      -8.082760      -219.9431
  17   2.0000      -8.078466      -219.8262
  18   2.0000      -6.041190      -164.3891
  19   2.0000      -6.037548      -164.2900
  20   2.0000      -6.036624      -164.2649
  21   2.0000      -6.033491      -164.1796
  22   2.0000      -6.033174      -164.1710
  23   2.0000      -6.029028      -164.0582
  24   2.0000      -1.013127       -27.5686
  25   2.0000      -0.985315       -26.8118
  26   2.0000      -0.915470       -24.9112
  27   2.0000      -0.912544       -24.8316
  28   2.0000      -0.867482       -23.6054
  29   2.0000      -0.853872       -23.2350
  30   2.0000      -0.848009       -23.0755
  31   2.0000      -0.810347       -22.0507
  32   2.0000      -0.784493       -21.3471
  33   2.0000      -0.771996       -21.0071
  34   2.0000      -0.708175       -19.2704
  35   2.0000      -0.706250       -19.2180
  36   2.0000      -0.693998       -18.8847
  37   2.0000      -0.657290       -17.8858
  38   2.0000      -0.630872       -17.1669
  39   2.0000      -0.611907       -16.6508
  40   2.0000      -0.594675       -16.1819
  41   2.0000      -0.580324       -15.7914
  42   2.0000      -0.560019       -15.2389
  43   2.0000      -0.552003       -15.0208
  44   2.0000      -0.539960       -14.6931
  45   2.0000      -0.534959       -14.5570
  46   2.0000      -0.515592       -14.0300
  47   2.0000      -0.508591       -13.8395
  48   2.0000      -0.502831       -13.6827
  49   2.0000      -0.495698       -13.4886
  50   2.0000      -0.485667       -13.2157
  51   2.0000      -0.477597       -12.9961
  52   2.0000      -0.469246       -12.7688
  53   2.0000      -0.467733       -12.7277
  54   2.0000      -0.458367       -12.4728
  55   2.0000      -0.453497       -12.3403
  56   2.0000      -0.447976       -12.1900
  57   2.0000      -0.439626       -11.9628
  58   2.0000      -0.434498       -11.8233
  59   2.0000      -0.428172       -11.6512
  60   2.0000      -0.422180       -11.4881
  61   2.0000      -0.416677       -11.3384
  62   2.0000      -0.410566       -11.1721
  63   2.0000      -0.343279        -9.3411
  64   2.0000      -0.327937        -8.9236
  65   2.0000      -0.322067        -8.7639
  66   2.0000      -0.288252        -7.8437
  67   0.0000       0.021738         0.5915
  68   0.0000       0.061453         1.6722
  69   0.0000       0.100722         2.7408
  70   0.0000       0.121970         3.3190
  71   0.0000       0.130177         3.5423

MULLIKEN ATOMIC CHARGES
-----------------------
   0 S :    0.109518
   1 C :   -0.107988
   2 C :   -0.124418
   3 C :    0.010031
   4 C :   -0.150921
   5 H :    0.023699
   6 C :    0.092562
   7 H :    0.039944
   8 H :   -0.000078
   9 C :   -0.050826
  10 H :    0.030145
  11 H :    0.013899
  12 C :   -0.067950
  13 H :    0.032115
  14 H :    0.037607
  15 H :    0.059417
  16 S :    0.113775
  17 C :   -0.071166
  18 C :   -0.100478
  19 C :   -0.053321
  20 C :   -0.153470
  21 H :    0.031928
  22 C :    0.096941
  23 H :    0.018815
  24 H :    0.006410
  25 C :   -0.065288
  26 H :    0.021526
  27 H :    0.036444
  28 C :   -0.033183
  29 H :    0.035907
  30 H :    0.031925
  31 H :    0.035301
  32 H :    0.047636
  33 H :    0.053542
Sum of atomic charges:   -0.0000000

LOEWDIN ATOMIC CHARGES
----------------------
   0 S :    0.401619
   1 C :   -0.200021
   2 C :   -0.068173
   3 C :   -0.058769
   4 C :   -0.200837
   5 H :    0.032824
   6 C :   -0.032007
   7 H :    0.038823
   8 H :    0.019908
   9 C :   -0.025510
  10 H :    0.019378
  11 H :    0.019362
  12 C :   -0.069181
  13 H :    0.020687
  14 H :    0.035276
  15 H :    0.037025
  16 S :    0.439846
  17 C :   -0.217223
  18 C :   -0.070668
  19 C :   -0.061354
  20 C :   -0.202646
  21 H :    0.034194
  22 C :   -0.030417
  23 H :    0.029649
  24 H :    0.021284
  25 C :   -0.035720
  26 H :    0.026326
  27 H :    0.026354
  28 C :   -0.067192
  29 H :    0.028902
  30 H :    0.026604
  31 H :    0.028659
  32 H :    0.026355
  33 H :    0.026640

  Mayer bond orders larger than 0.100000
B(  0-S ,  1-C ) :   1.1643 B(  0-S ,  4-C ) :   1.1352 B(  1-C ,  2-C ) :   1.5735
B(  1-C , 32-H ) :   0.9551 B(  2-C ,  3-C ) :   1.2784 B(  2-C ,  6-C ) :   1.0359
B(  3-C ,  4-C ) :   1.5535 B(  3-C ,  5-H ) :   0.9712 B(  4-C , 20-C ) :   1.0374
B(  6-C ,  7-H ) :   0.9336 B(  6-C ,  8-H ) :   0.9371 B(  6-C ,  9-C ) :   1.0560
B(  9-C , 10-H ) :   0.9631 B(  9-C , 11-H ) :   0.9599 B(  9-C , 12-C ) :   1.0641
B( 12-C , 13-H ) :   0.9784 B( 12-C , 14-H ) :   0.9713 B( 12-C , 15-H ) :   0.9740
B( 16-S , 17-C ) :   1.1660 B( 16-S , 20-C ) :   1.1894 B( 17-C , 18-C ) :   1.5938
B( 17-C , 20-C ) :   0.1024 B( 17-C , 33-H ) :   0.9593 B( 18-C , 19-C ) :   1.2679
B( 18-C , 21-H ) :   0.9854 B( 19-C , 20-C ) :   1.5639 B( 19-C , 22-C ) :   1.0398
B( 22-C , 23-H ) :   0.9298 B( 22-C , 24-H ) :   0.9271 B( 22-C , 25-C ) :   1.0561
B( 25-C , 26-H ) :   0.9535 B( 25-C , 27-H ) :   0.9543 B( 25-C , 28-C ) :   1.0750
B( 28-C , 29-H ) :   0.9753 B( 28-C , 30-H ) :   0.9729 B( 28-C , 31-H ) :   0.9742

Dispersion correction           -0.014452756
FINAL SINGLE POINT ENERGY     -1339.840935430627

DIPOLE MOMENT
-------------
                                X             Y             Z
Electronic contribution:    -19.50551      18.47271      -0.10625
Nuclear contribution   :     20.24835     -18.99793       0.30976
                        -----------------------------------------
Total Dipole Moment    :      0.74284      -0.52522       0.20350
                        -----------------------------------------
Magnitude (a.u.)       :      0.93224
Magnitude (Debye)      :      2.36957

Rotational constants in cm-1:     0.017198     0.009333     0.007080
Rotational constants in MHz :   515.588799   279.807570   212.267473

                             ****ORCA TERMINATED NORMALLY****
TOTAL RUN TIME: 0 days 0 hours 0 minutes 36 seconds 40 msec
