                         Program Version 4.2.1 -  RELEASE  -
|  1> ! wB97X-D3 SP def2-SVP
|  2> %pal
|  3> nprocs 16
|  4> end
|  5>
|  6> * xyz 0 1
|  7> S 	 -8.48284 	 43.7482 	 37.869
|  8> C 	 -7.59154 	 44.2445 	 36.4536
|  9> C 	 -6.90813 	 45.4328 	 36.6989
| 10> C 	 -7.20676 	 45.8667 	 38.0617
| 11> C 	 -8.02287 	 45.0429 	 38.8427
| 12> H 	 -6.76461 	 46.8466 	 38.409
| 13> C 	 -6.12886 	 46.2349 	 35.5934
| 14> H 	 -5.82067 	 45.5819 	 34.8346
| 15> H 	 -5.09525 	 46.4893 	 36.0074
| 16> C 	 -6.73133 	 47.5102 	 34.9696
| 17> H 	 -5.97965 	 48.0115 	 34.3081
| 18> H 	 -7.63636 	 47.2286 	 34.4445
| 19> C 	 -7.26507 	 48.5688 	 36.022
| 20> H 	 -8.08793 	 48.1195 	 36.6829
| 21> H 	 -6.46251 	 48.9763 	 36.6529
| 22> H 	 -7.73492 	 49.3451 	 35.4197
| 23> S 	 -10.0027 	 44.9041 	 40.7249
| 24> C 	 -9.68961 	 45.5513 	 42.3084
| 25> C 	 -8.31538 	 45.5541 	 42.5185
| 26> C 	 -7.5199 	 45.3109 	 41.3607
| 27> C 	 -8.33115 	 45.0929 	 40.243
| 28> H 	 -8.01977 	 45.6546 	 43.5573
| 29> C 	 -6.00656 	 45.3719 	 41.4036
| 30> H 	 -5.7256 	 46.2911 	 41.9015
| 31> H 	 -5.74357 	 45.5725 	 40.3308
| 32> C 	 -5.31049 	 44.1593 	 42.0528
| 33> H 	 -5.63942 	 43.2668 	 41.5503
| 34> H 	 -5.72912 	 44.0876 	 43.0321
| 35> C 	 -3.76265 	 44.2613 	 42.0694
| 36> H 	 -3.368 	 45.0838 	 42.5657
| 37> H 	 -3.36168 	 44.3285 	 41.0799
| 38> H 	 -3.31138 	 43.4672 	 42.5514
| 39> H 	 -7.57683 	 43.6727 	 35.5082
| 40> H 	 -10.3534 	 45.466 	 43.0949
| 41> *
| 42>
| 43>                          ****END OF INPUT****

CARTESIAN COORDINATES (ANGSTROEM)
---------------------------------
  S     -8.482840   43.748200   37.869000
  C     -7.591540   44.244500   36.453600
  C     -6.908130   45.432800   36.698900
  C     -7.206760   45.866700   38.061700
  C     -8.022870   45.042900   38.842700
  H     -6.764610   46.846600   38.409000
  C     -6.128860   46.234900   35.593400
  H     -5.820670   45.581900   34.834600
  H     -5.095250   46.489300   36.007400
  C     -6.731330   47.510200   34.969600
  H     -5.979650   48.011500   34.308100
  H     -7.636360   47.228600   34.444500
  C     -7.265070   48.568800   36.022000
  H     -8.087930   48.119500   36.682900
  H     -6.462510   48.976300   36.652900
  H     -7.734920   49.345100   35.419700
  S    -10.002700   44.904100   40.724900
  C     -9.689610   45.551300   42.308400
  C     -8.315380   45.554100   42.518500
  C     -7.519900   45.310900   41.360700
  C     -8.331150   45.092900   40.243000
  H     -8.019770   45.654600   43.557300
  C     -6.006560   45.371900   41.403600
  H     -5.725600   46.291100   41.901500
  H     -5.743570   45.572500   40.330800
  C     -5.310490   44.159300   42.052800
  H     -5.639420   43.266800   41.550300
  H     -5.729120   44.087600   43.032100
  C     -3.762650   44.261300   42.069400
  H     -3.368000   45.083800   42.565700
  H     -3.361680   44.328500   41.079900
  H     -3.311380   43.467200   42.551400
  H     -7.576830   43.672700   35.508200
  H    -10.353400   45.466000   43.094900

 Total Charge           Charge          ....    0
 Multiplicity           Mult            ....    1
 Number of Electrons    NEL             ....  134
 Basis Dimension        Dim             ....  322

ORBITAL ENERGIES
----------------

  NO   OCC          E(Eh)            E(eV)
   0   2.0000     -88.964836     -2420.8563
   1   2.0000     -88.963904     -2420.8309
   2   2.0000     -10.329554      -281.0815
   3   2.0000     -10.328017      -281.0396
   4   2.0000     -10.319018      -280.7948
   5   2.0000     -10.311751      -280.5970
   6   2.0000     -10.310729      -280.5692
   7   2.0000     -10.306360      -280.4503
   8   2.0000     -10.302270      -280.3390
   9   2.0000     -10.299866      -280.2736
  10   2.0000     -10.295087      -280.1436
  11   2.0000     -10.294735      -280.1340
  12   2.0000     -10.290355      -280.0148
  13   2.0000     -10.285014      -279.8695
  14   2.0000     -10.283705      -279.8338
  15   2.0000     -10.265683      -279.3434
  16   2.0000      -8.080992      -219.8950
  17   2.0000      -8.079115      -219.8439
  18   2.0000      -6.039430      -164.3412
  19   2.0000      -6.037627      -164.2922
  20   2.0000      -6.035101      -164.2235
  21   2.0000      -6.033609      -164.1828
  22   2.0000      -6.031914      -164.1367
  23   2.0000      -6.029792      -164.0790
  24   2.0000      -1.012804       -27.5598
  25   2.0000      -0.987425       -26.8692
  26   2.0000      -0.906767       -24.6744
  27   2.0000      -0.904151       -24.6032
  28   2.0000      -0.871293       -23.7091
  29   2.0000      -0.852245       -23.1908
  30   2.0000      -0.836205       -22.7543
  31   2.0000      -0.813714       -22.1423
  32   2.0000      -0.786424       -21.3997
  33   2.0000      -0.777523       -21.1575
  34   2.0000      -0.713003       -19.4018
  35   2.0000      -0.702095       -19.1050
  36   2.0000      -0.692778       -18.8514
  37   2.0000      -0.660544       -17.9743
  38   2.0000      -0.637633       -17.3509
  39   2.0000      -0.617967       -16.8157
  40   2.0000      -0.593192       -16.1416
  41   2.0000      -0.571561       -15.5530
  42   2.0000      -0.561460       -15.2781
  43   2.0000      -0.546095       -14.8600
  44   2.0000      -0.536623       -14.6022
  45   2.0000      -0.528496       -14.3811
  46   2.0000      -0.519356       -14.1324
  47   2.0000      -0.513675       -13.9778
  48   2.0000      -0.506443       -13.7810
  49   2.0000      -0.502070       -13.6620
  50   2.0000      -0.493225       -13.4213
  51   2.0000      -0.473862       -12.8944
  52   2.0000      -0.466980       -12.7072
  53   2.0000      -0.464278       -12.6336
  54   2.0000      -0.459475       -12.5030
  55   2.0000      -0.446366       -12.1462
  56   2.0000      -0.441863       -12.0237
  57   2.0000      -0.436807       -11.8861
  58   2.0000      -0.435442       -11.8490
  59   2.0000      -0.423723       -11.5301
  60   2.0000      -0.420268       -11.4361
  61   2.0000      -0.417857       -11.3705
  62   2.0000      -0.411873       -11.2076
  63   2.0000      -0.349840        -9.5196
  64   2.0000      -0.328542        -8.9401
  65   2.0000      -0.328208        -8.9310
  66   2.0000      -0.294057        -8.0017
  67   0.0000       0.026327         0.7164
  68   0.0000       0.068201         1.8559
  69   0.0000       0.107994         2.9387
  70   0.0000       0.118776         3.2321
  71   0.0000       0.135729         3.6934

MULLIKEN ATOMIC CHARGES
-----------------------
   0 S :    0.111759
   1 C :   -0.135618
   2 C :   -0.112967
   3 C :   -0.001758
   4 C :   -0.135465
   5 H :    0.030849
   6 C :    0.072199
   7 H :    0.006294
   8 H :    0.029230
   9 C :   -0.068558
  10 H :    0.046253
  11 H :    0.033494
  12 C :   -0.107608
  13 H :    0.063990
  14 H :    0.039576
  15 H :    0.037820
  16 S :    0.099047
  17 C :   -0.052890
  18 C :   -0.070074
  19 C :   -0.024690
  20 C :   -0.159222
  21 H :    0.023717
  22 C :    0.067519
  23 H :    0.020157
  24 H :    0.018788
  25 C :   -0.043003
  26 H :    0.028620
  27 H :    0.014378
  28 C :    0.023042
  29 H :    0.005684
  30 H :    0.023053
  31 H :    0.014617
  32 H :    0.063964
  33 H :    0.037803
Sum of atomic charges:   -0.0000000

LOEWDIN ATOMIC CHARGES
----------------------
   0 S :    0.438901
   1 C :   -0.202936
   2 C :   -0.066511
   3 C :   -0.075149
   4 C :   -0.224734
   5 H :    0.034761
   6 C :   -0.036716
   7 H :    0.021762
   8 H :    0.036124
   9 C :   -0.038670
  10 H :    0.032418
  11 H :    0.024414
  12 C :   -0.075820
  13 H :    0.037641
  14 H :    0.021077
  15 H :    0.025672
  16 S :    0.409403
  17 C :   -0.180675
  18 C :   -0.066912
  19 C :   -0.051578
  20 C :   -0.198951
  21 H :    0.031237
  22 C :   -0.034694
  23 H :    0.027591
  24 H :    0.033289
  25 C :   -0.027477
  26 H :    0.026126
  27 H :    0.019490
  28 C :   -0.052873
  29 H :    0.017654
  30 H :    0.026623
  31 H :    0.019363
  32 H :    0.035754
  33 H :    0.014394

  Mayer bond orders larger than 0.100000
B(  0-S ,  1-C ) :   1.1614 B(  0-S ,  4-C ) :   1.1728 B(  1-C ,  2-C ) :   1.5808
B(  1-C ,  4-C ) :   0.1006 B(  1-C , 32-H ) :   0.9667 B(  2-C ,  3-C ) :   1.2777
B(  2-C ,  6-C ) :   1.0166 B(  3-C ,  4-C ) :   1.5374 B(  3-C ,  5-H ) :   0.9834
B(  4-C , 20-C ) :   1.0341 B(  6-C ,  7-H ) :   0.9399 B(  6-C ,  8-H ) :   0.9395
B(  6-C ,  9-C ) :   1.0673 B(  9-C , 10-H ) :   0.9543 B(  9-C , 11-H ) :   0.9561
B(  9-C , 12-C ) :   1.0775 B( 12-C , 13-H ) :   0.9692 B( 12-C , 14-H ) :   0.9767
B( 12-C , 15-H ) :   0.9745 B( 16-S , 17-C ) :   1.1559 B( 16-S , 20-C ) :   1.1501
B( 17-C , 18-C ) :   1.6071 B( 17-C , 20-C ) :   0.1118 B( 17-C , 33-H ) :   0.9699
B( 18-C , 19-C ) :   1.2425 B( 18-C , 21-H ) :   0.9876 B( 19-C , 20-C ) :   1.5625
B( 19-C , 22-C ) :   1.0390 B( 22-C , 23-H ) :   0.9335 B( 22-C , 24-H ) :   0.9271
B( 22-C , 25-C ) :   1.0581 B( 25-C , 26-H ) :   0.9545 B( 25-C , 27-H ) :   0.9562
B( 25-C , 28-C ) :   1.0832 B( 28-C , 29-H ) :   0.9716 B( 28-C , 30-H ) :   0.9739
B( 28-C , 31-H ) :   0.9723

Dispersion correction           -0.014027236
FINAL SINGLE POINT ENERGY     -1339.867653568727

DIPOLE MOMENT
-------------
                                X             Y             Z
Electronic contribution:    -21.68116     -11.37029       3.48262
Nuclear contribution   :     22.26087      11.54526      -3.45402
                        -----------------------------------------
Total Dipole Moment    :      0.57971       0.17498       0.02860
                        -----------------------------------------
Magnitude (a.u.)       :      0.60622
Magnitude (Debye)      :      1.54088

Rotational constants in cm-1:     0.017079     0.008483     0.007154
Rotational constants in MHz :   512.000551   254.324907   214.472803

                             ****ORCA TERMINATED NORMALLY****
TOTAL RUN TIME: 0 days 0 hours 0 minutes 33 seconds 304 msec
