                         Program Version 4.2.1 -  RELEASE  -
|  1> ! wB97X-D3 SP def2-SVP
|  2> %pal
|  3> nprocs 16
|  4> end
|  5>
|  6> * xyz 0 1
|  7> S 	 -73.7641 	 58.0193 	 126.106
|  8> C 	 -73.8248 	 59.6191 	 125.499
|  9> C 	 -72.7967 	 60.4367 	 125.963
| 10> C 	 -71.8325 	 59.7019 	 126.779
| 11> C 	 -72.237 	 58.3551 	 126.943
| 12> H 	 -70.9166 	 59.9169 	 127.279
| 13> C 	 -72.5632 	 61.8309 	 125.353
| 14> H 	 -72.3039 	 62.523 	 126.165
| 15> H 	 -73.5285 	 62.1597 	 124.832
| 16> C 	 -71.4727 	 61.7445 	 124.254
| 17> H 	 -70.8018 	 60.8616 	 124.307
| 18> H 	 -72.0875 	 61.6816 	 123.324
| 19> C 	 -70.699 	 63.0261 	 124.086
| 20> H 	 -71.4054 	 63.8908 	 124.186
| 21> H 	 -69.9598 	 63.1359 	 124.889
| 22> H 	 -70.2685 	 63.0232 	 123.053
| 23> S 	 -72.1628 	 56.3636 	 128.943
| 24> C 	 -70.869 	 55.2323 	 128.956
| 25> C 	 -69.9081 	 55.5219 	 128.028
| 26> C 	 -70.3019 	 56.6051 	 127.167
| 27> C 	 -71.4742 	 57.2114 	 127.506
| 28> H 	 -69.0281 	 54.8836 	 127.83
| 29> C 	 -69.3931 	 57.0296 	 126.04
| 30> H 	 -68.3653 	 56.7725 	 126.329
| 31> H 	 -69.4666 	 58.0344 	 125.845
| 32> C 	 -69.7336 	 56.4586 	 124.572
| 33> H 	 -70.8081 	 56.4652 	 124.382
| 34> H 	 -69.4464 	 55.3717 	 124.539
| 35> C 	 -69.0945 	 57.2842 	 123.484
| 36> H 	 -69.3511 	 58.291 	 123.572
| 37> H 	 -69.2935 	 56.9294 	 122.501
| 38> H 	 -68.035 	 57.1312 	 123.623
| 39> H 	 -74.5075 	 60.0177 	 124.751
| 40> H 	 -70.8089 	 54.3745 	 129.614
| 41> *
| 42>
| 43>                          ****END OF INPUT****

CARTESIAN COORDINATES (ANGSTROEM)
---------------------------------
  S    -73.764100   58.019300  126.106000
  C    -73.824800   59.619100  125.499000
  C    -72.796700   60.436700  125.963000
  C    -71.832500   59.701900  126.779000
  C    -72.237000   58.355100  126.943000
  H    -70.916600   59.916900  127.279000
  C    -72.563200   61.830900  125.353000
  H    -72.303900   62.523000  126.165000
  H    -73.528500   62.159700  124.832000
  C    -71.472700   61.744500  124.254000
  H    -70.801800   60.861600  124.307000
  H    -72.087500   61.681600  123.324000
  C    -70.699000   63.026100  124.086000
  H    -71.405400   63.890800  124.186000
  H    -69.959800   63.135900  124.889000
  H    -70.268500   63.023200  123.053000
  S    -72.162800   56.363600  128.943000
  C    -70.869000   55.232300  128.956000
  C    -69.908100   55.521900  128.028000
  C    -70.301900   56.605100  127.167000
  C    -71.474200   57.211400  127.506000
  H    -69.028100   54.883600  127.830000
  C    -69.393100   57.029600  126.040000
  H    -68.365300   56.772500  126.329000
  H    -69.466600   58.034400  125.845000
  C    -69.733600   56.458600  124.572000
  H    -70.808100   56.465200  124.382000
  H    -69.446400   55.371700  124.539000
  C    -69.094500   57.284200  123.484000
  H    -69.351100   58.291000  123.572000
  H    -69.293500   56.929400  122.501000
  H    -68.035000   57.131200  123.623000
  H    -74.507500   60.017700  124.751000
  H    -70.808900   54.374500  129.614000

 Total Charge           Charge          ....    0
 Multiplicity           Mult            ....    1
 Number of Electrons    NEL             ....  134
 Basis Dimension        Dim             ....  322

ORBITAL ENERGIES
----------------

  NO   OCC          E(Eh)            E(eV)
   0   2.0000     -88.968199     -2420.9478
   1   2.0000     -88.961574     -2420.7675
   2   2.0000     -10.335753      -281.2501
   3   2.0000     -10.327673      -281.0303
   4   2.0000     -10.316240      -280.7192
   5   2.0000     -10.313563      -280.6463
   6   2.0000     -10.308466      -280.5076
   7   2.0000     -10.304911      -280.4109
   8   2.0000     -10.302606      -280.3482
   9   2.0000     -10.302115      -280.3348
  10   2.0000     -10.293302      -280.0950
  11   2.0000     -10.289941      -280.0035
  12   2.0000     -10.287215      -279.9294
  13   2.0000     -10.287169      -279.9281
  14   2.0000     -10.284553      -279.8569
  15   2.0000     -10.267510      -279.3931
  16   2.0000      -8.082986      -219.9492
  17   2.0000      -8.076426      -219.7707
  18   2.0000      -6.041355      -164.3936
  19   2.0000      -6.037458      -164.2876
  20   2.0000      -6.034955      -164.2195
  21   2.0000      -6.033908      -164.1910
  22   2.0000      -6.030864      -164.1081
  23   2.0000      -6.027209      -164.0087
  24   2.0000      -1.002325       -27.2747
  25   2.0000      -0.983139       -26.7526
  26   2.0000      -0.911134       -24.7932
  27   2.0000      -0.904772       -24.6201
  28   2.0000      -0.867451       -23.6045
  29   2.0000      -0.854165       -23.2430
  30   2.0000      -0.847817       -23.0703
  31   2.0000      -0.815137       -22.1810
  32   2.0000      -0.780986       -21.2517
  33   2.0000      -0.766513       -20.8579
  34   2.0000      -0.702201       -19.1079
  35   2.0000      -0.691552       -18.8181
  36   2.0000      -0.688855       -18.7447
  37   2.0000      -0.661587       -18.0027
  38   2.0000      -0.648561       -17.6483
  39   2.0000      -0.613195       -16.6859
  40   2.0000      -0.598176       -16.2772
  41   2.0000      -0.567205       -15.4344
  42   2.0000      -0.564242       -15.3538
  43   2.0000      -0.561314       -15.2741
  44   2.0000      -0.524613       -14.2755
  45   2.0000      -0.524235       -14.2652
  46   2.0000      -0.520108       -14.1529
  47   2.0000      -0.510851       -13.9010
  48   2.0000      -0.502704       -13.6793
  49   2.0000      -0.499292       -13.5864
  50   2.0000      -0.496298       -13.5050
  51   2.0000      -0.482073       -13.1179
  52   2.0000      -0.471772       -12.8376
  53   2.0000      -0.466922       -12.7056
  54   2.0000      -0.461026       -12.5452
  55   2.0000      -0.446686       -12.1549
  56   2.0000      -0.444831       -12.1045
  57   2.0000      -0.436397       -11.8750
  58   2.0000      -0.428719       -11.6660
  59   2.0000      -0.423818       -11.5327
  60   2.0000      -0.420056       -11.4303
  61   2.0000      -0.416370       -11.3300
  62   2.0000      -0.411996       -11.2110
  63   2.0000      -0.338607        -9.2140
  64   2.0000      -0.330436        -8.9916
  65   2.0000      -0.327603        -8.9145
  66   2.0000      -0.300420        -8.1748
  67   0.0000       0.036859         1.0030
  68   0.0000       0.060754         1.6532
  69   0.0000       0.112314         3.0562
  70   0.0000       0.120067         3.2672
  71   0.0000       0.123901         3.3715

MULLIKEN ATOMIC CHARGES
-----------------------
   0 S :    0.128831
   1 C :   -0.108229
   2 C :   -0.094713
   3 C :    0.061646
   4 C :   -0.183738
   5 H :    0.012464
   6 C :    0.028903
   7 H :    0.038919
   8 H :    0.039486
   9 C :   -0.097123
  10 H :    0.054875
  11 H :    0.027980
  12 C :   -0.066682
  13 H :    0.033342
  14 H :    0.039199
  15 H :    0.046685
  16 S :    0.095942
  17 C :   -0.078582
  18 C :   -0.040278
  19 C :   -0.025853
  20 C :   -0.183182
  21 H :    0.030482
  22 C :    0.101806
  23 H :    0.024491
  24 H :   -0.017507
  25 C :   -0.104815
  26 H :    0.032038
  27 H :    0.029574
  28 C :   -0.005998
  29 H :    0.026009
  30 H :    0.026828
  31 H :    0.020539
  32 H :    0.048989
  33 H :    0.057674
Sum of atomic charges:   -0.0000000

LOEWDIN ATOMIC CHARGES
----------------------
   0 S :    0.417587
   1 C :   -0.213302
   2 C :   -0.063506
   3 C :   -0.052852
   4 C :   -0.188948
   5 H :    0.032181
   6 C :   -0.034126
   7 H :    0.028163
   8 H :    0.038294
   9 C :   -0.051301
  10 H :    0.025981
  11 H :    0.029222
  12 C :   -0.070273
  13 H :    0.027964
  14 H :    0.022984
  15 H :    0.033017
  16 S :    0.389662
  17 C :   -0.183088
  18 C :   -0.081593
  19 C :   -0.051685
  20 C :   -0.195042
  21 H :    0.037211
  22 C :   -0.022360
  23 H :    0.031241
  24 H :    0.013232
  25 C :   -0.035303
  26 H :    0.021749
  27 H :    0.023387
  28 C :   -0.057988
  29 H :    0.017141
  30 H :    0.025065
  31 H :    0.025302
  32 H :    0.030932
  33 H :    0.031053

  Mayer bond orders larger than 0.100000
B(  0-S ,  1-C ) :   1.1491 B(  0-S ,  4-C ) :   1.1555 B(  1-C ,  2-C ) :   1.6232
B(  1-C , 32-H ) :   0.9617 B(  2-C ,  3-C ) :   1.1942 B(  2-C ,  6-C ) :   1.0350
B(  3-C ,  4-C ) :   1.5977 B(  3-C ,  5-H ) :   0.9990 B(  4-C , 20-C ) :   1.0080
B(  6-C ,  7-H ) :   0.9485 B(  6-C ,  8-H ) :   0.9467 B(  6-C ,  9-C ) :   1.0283
B(  9-C , 10-H ) :   0.9656 B(  9-C , 11-H ) :   0.9577 B(  9-C , 12-C ) :   1.0782
B( 12-C , 13-H ) :   0.9718 B( 12-C , 14-H ) :   0.9775 B( 12-C , 15-H ) :   0.9731
B( 16-S , 17-C ) :   1.1657 B( 16-S , 20-C ) :   1.1125 B( 17-C , 18-C ) :   1.6144
B( 17-C , 33-H ) :   0.9639 B( 18-C , 19-C ) :   1.2312 B( 18-C , 21-H ) :   0.9832
B( 19-C , 20-C ) :   1.6385 B( 19-C , 22-C ) :   1.0562 B( 22-C , 23-H ) :   0.9343
B( 22-C , 24-H ) :   0.9322 B( 22-C , 25-C ) :   1.0428 B( 25-C , 26-H ) :   0.9606
B( 25-C , 27-H ) :   0.9569 B( 25-C , 28-C ) :   1.0859 B( 28-C , 29-H ) :   0.9738
B( 28-C , 30-H ) :   0.9699 B( 28-C , 31-H ) :   0.9733

Dispersion correction           -0.014626833
FINAL SINGLE POINT ENERGY     -1339.875354264552

DIPOLE MOMENT
-------------
                                X             Y             Z
Electronic contribution:    -16.49934     -15.48587      21.43406
Nuclear contribution   :     16.98112      15.71000     -21.94523
                        -----------------------------------------
Total Dipole Moment    :      0.48179       0.22413      -0.51116
                        -----------------------------------------
Magnitude (a.u.)       :      0.73732
Magnitude (Debye)      :      1.87411

Rotational constants in cm-1:     0.018787     0.008921     0.007078
Rotational constants in MHz :   563.217743   267.442166   212.192145

                             ****ORCA TERMINATED NORMALLY****
TOTAL RUN TIME: 0 days 0 hours 0 minutes 33 seconds 754 msec
