                         Program Version 4.2.1 -  RELEASE  -
|  1> ! wB97X-D3 SP def2-SVP
|  2> %pal
|  3> nprocs 16
|  4> end
|  5>
|  6> * xyz 0 1
|  7> S 	 60.6341 	 17.1243 	 77.3885
|  8> C 	 61.4792 	 17.3296 	 75.8991
|  9> C 	 60.6539 	 17.1603 	 74.8007
| 10> C 	 59.3574 	 16.8962 	 75.2412
| 11> C 	 59.1075 	 16.8154 	 76.5958
| 12> H 	 58.5506 	 16.6071 	 74.5532
| 13> C 	 61.1903 	 17.4033 	 73.3871
| 14> H 	 62.2599 	 17.5891 	 73.4509
| 15> H 	 60.8485 	 18.3869 	 73.0188
| 16> C 	 60.7402 	 16.3495 	 72.3633
| 17> H 	 59.591 	 16.3721 	 72.4684
| 18> H 	 60.778 	 16.7684 	 71.3398
| 19> C 	 61.361 	 14.9807 	 72.3542
| 20> H 	 61.0378 	 14.36 	 73.1697
| 21> H 	 61.0948 	 14.4307 	 71.5058
| 22> H 	 62.4604 	 15.0537 	 72.348
| 23> S 	 58.0186 	 14.7642 	 78.183
| 24> C 	 56.2827 	 14.8466 	 78.4662
| 25> C 	 55.7556 	 16.1106 	 78.22
| 26> C 	 56.6067 	 17.0058 	 77.4907
| 27> C 	 57.9152 	 16.4048 	 77.3958
| 28> H 	 54.7449 	 16.2066 	 78.6223
| 29> C 	 56.1309 	 18.2837 	 76.8201
| 30> H 	 55.0922 	 18.2071 	 76.6562
| 31> H 	 56.6701 	 18.4119 	 75.9015
| 32> C 	 56.3987 	 19.5678 	 77.7076
| 33> H 	 55.6266 	 19.6035 	 78.4872
| 34> H 	 56.2462 	 20.4687 	 77.0942
| 35> C 	 57.7967 	 19.9149 	 78.2473
| 36> H 	 58.5081 	 20.0399 	 77.4097
| 37> H 	 58.1415 	 19.2186 	 78.946
| 38> H 	 57.8103 	 20.8221 	 78.7812
| 39> H 	 62.5027 	 17.5642 	 75.7413
| 40> H 	 55.9011 	 14.2722 	 79.2935
| 41> *
| 42>
| 43>                          ****END OF INPUT****

CARTESIAN COORDINATES (ANGSTROEM)
---------------------------------
  S     60.634100   17.124300   77.388500
  C     61.479200   17.329600   75.899100
  C     60.653900   17.160300   74.800700
  C     59.357400   16.896200   75.241200
  C     59.107500   16.815400   76.595800
  H     58.550600   16.607100   74.553200
  C     61.190300   17.403300   73.387100
  H     62.259900   17.589100   73.450900
  H     60.848500   18.386900   73.018800
  C     60.740200   16.349500   72.363300
  H     59.591000   16.372100   72.468400
  H     60.778000   16.768400   71.339800
  C     61.361000   14.980700   72.354200
  H     61.037800   14.360000   73.169700
  H     61.094800   14.430700   71.505800
  H     62.460400   15.053700   72.348000
  S     58.018600   14.764200   78.183000
  C     56.282700   14.846600   78.466200
  C     55.755600   16.110600   78.220000
  C     56.606700   17.005800   77.490700
  C     57.915200   16.404800   77.395800
  H     54.744900   16.206600   78.622300
  C     56.130900   18.283700   76.820100
  H     55.092200   18.207100   76.656200
  H     56.670100   18.411900   75.901500
  C     56.398700   19.567800   77.707600
  H     55.626600   19.603500   78.487200
  H     56.246200   20.468700   77.094200
  C     57.796700   19.914900   78.247300
  H     58.508100   20.039900   77.409700
  H     58.141500   19.218600   78.946000
  H     57.810300   20.822100   78.781200
  H     62.502700   17.564200   75.741300
  H     55.901100   14.272200   79.293500

 Total Charge           Charge          ....    0
 Multiplicity           Mult            ....    1
 Number of Electrons    NEL             ....  134
 Basis Dimension        Dim             ....  322

ORBITAL ENERGIES
----------------

  NO   OCC          E(Eh)            E(eV)
   0   2.0000     -88.967208     -2420.9208
   1   2.0000     -88.964304     -2420.8418
   2   2.0000     -10.341863      -281.4164
   3   2.0000     -10.329472      -281.0792
   4   2.0000     -10.317896      -280.7642
   5   2.0000     -10.314450      -280.6704
   6   2.0000     -10.307968      -280.4941
   7   2.0000     -10.299988      -280.2769
   8   2.0000     -10.297863      -280.2191
   9   2.0000     -10.296137      -280.1721
  10   2.0000     -10.295000      -280.1412
  11   2.0000     -10.293373      -280.0969
  12   2.0000     -10.292298      -280.0677
  13   2.0000     -10.288470      -279.9635
  14   2.0000     -10.271356      -279.4978
  15   2.0000     -10.265575      -279.3405
  16   2.0000      -8.080695      -219.8869
  17   2.0000      -8.079300      -219.8489
  18   2.0000      -6.039192      -164.3348
  19   2.0000      -6.037671      -164.2934
  20   2.0000      -6.035525      -164.2350
  21   2.0000      -6.033611      -164.1829
  22   2.0000      -6.031380      -164.1222
  23   2.0000      -6.030343      -164.0940
  24   2.0000      -1.003658       -27.3109
  25   2.0000      -0.977935       -26.6110
  26   2.0000      -0.909763       -24.7559
  27   2.0000      -0.902429       -24.5563
  28   2.0000      -0.864979       -23.5373
  29   2.0000      -0.848350       -23.0848
  30   2.0000      -0.844166       -22.9709
  31   2.0000      -0.815612       -22.1939
  32   2.0000      -0.792047       -21.5527
  33   2.0000      -0.776803       -21.1379
  34   2.0000      -0.710676       -19.3385
  35   2.0000      -0.693853       -18.8807
  36   2.0000      -0.685322       -18.6485
  37   2.0000      -0.651080       -17.7168
  38   2.0000      -0.642096       -17.4723
  39   2.0000      -0.620997       -16.8982
  40   2.0000      -0.591320       -16.0906
  41   2.0000      -0.567806       -15.4508
  42   2.0000      -0.557399       -15.1676
  43   2.0000      -0.551602       -15.0098
  44   2.0000      -0.539591       -14.6830
  45   2.0000      -0.536973       -14.6118
  46   2.0000      -0.515280       -14.0215
  47   2.0000      -0.507054       -13.7976
  48   2.0000      -0.503505       -13.7011
  49   2.0000      -0.496422       -13.5083
  50   2.0000      -0.482474       -13.1288
  51   2.0000      -0.476933       -12.9780
  52   2.0000      -0.470636       -12.8067
  53   2.0000      -0.466222       -12.6865
  54   2.0000      -0.462124       -12.5750
  55   2.0000      -0.448079       -12.1928
  56   2.0000      -0.441340       -12.0095
  57   2.0000      -0.436727       -11.8839
  58   2.0000      -0.432825       -11.7778
  59   2.0000      -0.423360       -11.5202
  60   2.0000      -0.420575       -11.4444
  61   2.0000      -0.410831       -11.1793
  62   2.0000      -0.406126       -11.0513
  63   2.0000      -0.339027        -9.2254
  64   2.0000      -0.329815        -8.9747
  65   2.0000      -0.327156        -8.9024
  66   2.0000      -0.299569        -8.1517
  67   0.0000       0.027912         0.7595
  68   0.0000       0.055903         1.5212
  69   0.0000       0.113065         3.0767
  70   0.0000       0.114169         3.1067
  71   0.0000       0.127412         3.4670

MULLIKEN ATOMIC CHARGES
-----------------------
   0 S :    0.115152
   1 C :   -0.108533
   2 C :   -0.090714
   3 C :    0.030618
   4 C :   -0.180060
   5 H :    0.014588
   6 C :    0.090368
   7 H :    0.007209
   8 H :    0.036361
   9 C :   -0.126576
  10 H :    0.028480
  11 H :    0.022223
  12 C :    0.013450
  13 H :    0.034809
  14 H :    0.018898
  15 H :    0.029867
  16 S :    0.099235
  17 C :   -0.091492
  18 C :   -0.074868
  19 C :   -0.023672
  20 C :   -0.167994
  21 H :    0.032523
  22 C :    0.152436
  23 H :    0.019316
  24 H :    0.022512
  25 C :   -0.119858
  26 H :    0.026586
  27 H :    0.028711
  28 C :   -0.012918
  29 H :    0.037160
  30 H :    0.021091
  31 H :    0.019408
  32 H :    0.030728
  33 H :    0.064957
Sum of atomic charges:   -0.0000000

LOEWDIN ATOMIC CHARGES
----------------------
   0 S :    0.423241
   1 C :   -0.197127
   2 C :   -0.072752
   3 C :   -0.070086
   4 C :   -0.206703
   5 H :    0.030651
   6 C :   -0.028070
   7 H :    0.025149
   8 H :    0.038238
   9 C :   -0.054358
  10 H :    0.030797
  11 H :    0.025209
  12 C :   -0.061536
  13 H :    0.027505
  14 H :    0.022252
  15 H :    0.030293
  16 S :    0.379360
  17 C :   -0.194625
  18 C :   -0.068582
  19 C :   -0.041376
  20 C :   -0.178930
  21 H :    0.036012
  22 C :   -0.018334
  23 H :    0.029725
  24 H :    0.031727
  25 C :   -0.039936
  26 H :    0.019961
  27 H :    0.026426
  28 C :   -0.059984
  29 H :    0.030788
  30 H :    0.013902
  31 H :    0.023561
  32 H :    0.022028
  33 H :    0.025574

  Mayer bond orders larger than 0.100000
B(  0-S ,  1-C ) :   1.1675 B(  0-S ,  4-C ) :   1.1586 B(  1-C ,  2-C ) :   1.5809
B(  1-C ,  4-C ) :   0.1044 B(  1-C , 32-H ) :   0.9668 B(  2-C ,  3-C ) :   1.2817
B(  2-C ,  6-C ) :   1.0165 B(  3-C ,  4-C ) :   1.5720 B(  3-C ,  5-H ) :   0.9855
B(  4-C , 20-C ) :   1.0048 B(  6-C ,  7-H ) :   0.9412 B(  6-C ,  8-H ) :   0.9364
B(  6-C ,  9-C ) :   1.0712 B(  9-C , 10-H ) :   0.9501 B(  9-C , 11-H ) :   0.9540
B(  9-C , 12-C ) :   1.0767 B( 12-C , 13-H ) :   0.9729 B( 12-C , 14-H ) :   0.9691
B( 12-C , 15-H ) :   0.9707 B( 16-S , 17-C ) :   1.1430 B( 16-S , 20-C ) :   1.1536
B( 17-C , 18-C ) :   1.6497 B( 17-C , 20-C ) :   0.1131 B( 17-C , 33-H ) :   0.9525
B( 18-C , 19-C ) :   1.2213 B( 18-C , 21-H ) :   0.9803 B( 19-C , 20-C ) :   1.5660
B( 19-C , 22-C ) :   1.0418 B( 22-C , 23-H ) :   0.9328 B( 22-C , 24-H ) :   0.9286
B( 22-C , 25-C ) :   1.0678 B( 25-C , 26-H ) :   0.9586 B( 25-C , 27-H ) :   0.9599
B( 25-C , 28-C ) :   1.0814 B( 28-C , 29-H ) :   0.9732 B( 28-C , 30-H ) :   0.9726
B( 28-C , 31-H ) :   0.9694

Dispersion correction           -0.014846674
FINAL SINGLE POINT ENERGY     -1339.862024382785

DIPOLE MOMENT
-------------
                                X             Y             Z
Electronic contribution:      0.60125     -10.68188      16.20591
Nuclear contribution   :     -0.80791      11.04415     -16.61559
                        -----------------------------------------
Total Dipole Moment    :     -0.20666       0.36227      -0.40968
                        -----------------------------------------
Magnitude (a.u.)       :      0.58462
Magnitude (Debye)      :      1.48599

Rotational constants in cm-1:     0.019411     0.008365     0.007480
Rotational constants in MHz :   581.939885   250.785504   224.247367

                             ****ORCA TERMINATED NORMALLY****
TOTAL RUN TIME: 0 days 0 hours 0 minutes 30 seconds 295 msec
