                         Program Version 4.2.1 -  RELEASE  -
|  1> ! wB97X-D3 SP def2-SVP
|  2> %pal
|  3> nprocs 16
|  4> end
|  5>
|  6> * xyz 0 1
|  7> S 	 -43.735 	 35.2307 	 99.0336
|  8> C 	 -44.0828 	 36.5174 	 97.9369
|  9> C 	 -45.1767 	 37.2857 	 98.3358
| 10> C 	 -45.7644 	 36.6881 	 99.5409
| 11> C 	 -45.0611 	 35.6635 	 100.089
| 12> H 	 -46.6222 	 37.0863 	 100.003
| 13> C 	 -45.7284 	 38.5192 	 97.5459
| 14> H 	 -46.2553 	 37.985 	 96.8009
| 15> H 	 -44.9287 	 39.0333 	 96.9879
| 16> C 	 -46.6164 	 39.5103 	 98.2888
| 17> H 	 -47.4185 	 38.999 	 98.9083
| 18> H 	 -45.9614 	 39.9775 	 98.976
| 19> C 	 -47.1857 	 40.4907 	 97.2888
| 20> H 	 -47.9304 	 41.0903 	 97.7498
| 21> H 	 -46.3379 	 41.092 	 96.8668
| 22> H 	 -47.555 	 40.0384 	 96.3903
| 23> S 	 -45.1186 	 33.1916 	 101.308
| 24> C 	 -45.2759 	 33.0202 	 102.992
| 25> C 	 -45.481 	 34.1924 	 103.676
| 26> C 	 -45.5146 	 35.2945 	 102.738
| 27> C 	 -45.2701 	 34.918 	 101.38
| 28> H 	 -45.447 	 34.3223 	 104.735
| 29> C 	 -45.579 	 36.7358 	 103.218
| 30> H 	 -45.1329 	 37.2901 	 102.352
| 31> H 	 -44.8749 	 36.9892 	 104.034
| 32> C 	 -46.9715 	 37.2182 	 103.571
| 33> H 	 -47.1995 	 36.7156 	 104.532
| 34> H 	 -47.6542 	 36.8677 	 102.748
| 35> C 	 -47.0285 	 38.7304 	 103.919
| 36> H 	 -46.5693 	 39.3491 	 103.069
| 37> H 	 -46.224 	 38.8935 	 104.742
| 38> H 	 -48.071 	 39.0369 	 104.319
| 39> H 	 -43.5899 	 36.6173 	 97
| 40> H 	 -45.3047 	 32.036 	 103.33
| 41> *
| 42>
| 43>                          ****END OF INPUT****

CARTESIAN COORDINATES (ANGSTROEM)
---------------------------------
  S    -43.735000   35.230700   99.033600
  C    -44.082800   36.517400   97.936900
  C    -45.176700   37.285700   98.335800
  C    -45.764400   36.688100   99.540900
  C    -45.061100   35.663500  100.089000
  H    -46.622200   37.086300  100.003000
  C    -45.728400   38.519200   97.545900
  H    -46.255300   37.985000   96.800900
  H    -44.928700   39.033300   96.987900
  C    -46.616400   39.510300   98.288800
  H    -47.418500   38.999000   98.908300
  H    -45.961400   39.977500   98.976000
  C    -47.185700   40.490700   97.288800
  H    -47.930400   41.090300   97.749800
  H    -46.337900   41.092000   96.866800
  H    -47.555000   40.038400   96.390300
  S    -45.118600   33.191600  101.308000
  C    -45.275900   33.020200  102.992000
  C    -45.481000   34.192400  103.676000
  C    -45.514600   35.294500  102.738000
  C    -45.270100   34.918000  101.380000
  H    -45.447000   34.322300  104.735000
  C    -45.579000   36.735800  103.218000
  H    -45.132900   37.290100  102.352000
  H    -44.874900   36.989200  104.034000
  C    -46.971500   37.218200  103.571000
  H    -47.199500   36.715600  104.532000
  H    -47.654200   36.867700  102.748000
  C    -47.028500   38.730400  103.919000
  H    -46.569300   39.349100  103.069000
  H    -46.224000   38.893500  104.742000
  H    -48.071000   39.036900  104.319000
  H    -43.589900   36.617300   97.000000
  H    -45.304700   32.036000  103.330000

 Total Charge           Charge          ....    0
 Multiplicity           Mult            ....    1
 Number of Electrons    NEL             ....  134
 Basis Dimension        Dim             ....  322

ORBITAL ENERGIES
----------------

  NO   OCC          E(Eh)            E(eV)
   0   2.0000     -88.964552     -2420.8485
   1   2.0000     -88.963122     -2420.8096
   2   2.0000     -10.333194      -281.1805
   3   2.0000     -10.331945      -281.1465
   4   2.0000     -10.311590      -280.5926
   5   2.0000     -10.309651      -280.5399
   6   2.0000     -10.309640      -280.5396
   7   2.0000     -10.308021      -280.4955
   8   2.0000     -10.300206      -280.2829
   9   2.0000     -10.295615      -280.1579
  10   2.0000     -10.294931      -280.1393
  11   2.0000     -10.292253      -280.0665
  12   2.0000     -10.291268      -280.0396
  13   2.0000     -10.290213      -280.0109
  14   2.0000     -10.290207      -280.0108
  15   2.0000     -10.278806      -279.7005
  16   2.0000      -8.080759      -219.8886
  17   2.0000      -8.078411      -219.8247
  18   2.0000      -6.039007      -164.3297
  19   2.0000      -6.036906      -164.2726
  20   2.0000      -6.034937      -164.2190
  21   2.0000      -6.032859      -164.1624
  22   2.0000      -6.031841      -164.1347
  23   2.0000      -6.029131      -164.0610
  24   2.0000      -1.006713       -27.3941
  25   2.0000      -0.986201       -26.8359
  26   2.0000      -0.915748       -24.9188
  27   2.0000      -0.908367       -24.7179
  28   2.0000      -0.868793       -23.6411
  29   2.0000      -0.848810       -23.0973
  30   2.0000      -0.844364       -22.9763
  31   2.0000      -0.818327       -22.2678
  32   2.0000      -0.779636       -21.2150
  33   2.0000      -0.766270       -20.8513
  34   2.0000      -0.710929       -19.3454
  35   2.0000      -0.690273       -18.7833
  36   2.0000      -0.687827       -18.7167
  37   2.0000      -0.662518       -18.0280
  38   2.0000      -0.644746       -17.5444
  39   2.0000      -0.623205       -16.9583
  40   2.0000      -0.601191       -16.3592
  41   2.0000      -0.572428       -15.5766
  42   2.0000      -0.566195       -15.4069
  43   2.0000      -0.561322       -15.2743
  44   2.0000      -0.533768       -14.5246
  45   2.0000      -0.525000       -14.2860
  46   2.0000      -0.515748       -14.0342
  47   2.0000      -0.506686       -13.7876
  48   2.0000      -0.504563       -13.7299
  49   2.0000      -0.492662       -13.4060
  50   2.0000      -0.490610       -13.3502
  51   2.0000      -0.486030       -13.2256
  52   2.0000      -0.471720       -12.8362
  53   2.0000      -0.462948       -12.5975
  54   2.0000      -0.457719       -12.4552
  55   2.0000      -0.454113       -12.3570
  56   2.0000      -0.442979       -12.0541
  57   2.0000      -0.439182       -11.9507
  58   2.0000      -0.431938       -11.7536
  59   2.0000      -0.426367       -11.6020
  60   2.0000      -0.422348       -11.4927
  61   2.0000      -0.414582       -11.2814
  62   2.0000      -0.406914       -11.0727
  63   2.0000      -0.349058        -9.4984
  64   2.0000      -0.331463        -9.0196
  65   2.0000      -0.326211        -8.8767
  66   2.0000      -0.292582        -7.9616
  67   0.0000       0.033071         0.8999
  68   0.0000       0.075710         2.0602
  69   0.0000       0.115032         3.1302
  70   0.0000       0.121429         3.3042
  71   0.0000       0.128733         3.5030

MULLIKEN ATOMIC CHARGES
-----------------------
   0 S :    0.107701
   1 C :   -0.118731
   2 C :   -0.100770
   3 C :    0.038965
   4 C :   -0.121981
   5 H :   -0.016204
   6 C :    0.045849
   7 H :    0.030489
   8 H :    0.029201
   9 C :   -0.079000
  10 H :    0.044901
  11 H :    0.030106
  12 C :   -0.015213
  13 H :    0.035449
  14 H :    0.027558
  15 H :    0.019664
  16 S :    0.105544
  17 C :   -0.069833
  18 C :    0.007258
  19 C :   -0.052729
  20 C :   -0.152843
  21 H :    0.018969
  22 C :   -0.004101
  23 H :    0.029684
  24 H :    0.029472
  25 C :   -0.074508
  26 H :    0.030109
  27 H :    0.046918
  28 C :   -0.094836
  29 H :    0.044441
  30 H :    0.032940
  31 H :    0.066802
  32 H :    0.038152
  33 H :    0.040580
Sum of atomic charges:    0.0000000

LOEWDIN ATOMIC CHARGES
----------------------
   0 S :    0.409590
   1 C :   -0.205217
   2 C :   -0.053639
   3 C :   -0.065398
   4 C :   -0.194084
   5 H :    0.019645
   6 C :   -0.031236
   7 H :    0.028691
   8 H :    0.033665
   9 C :   -0.041713
  10 H :    0.029946
  11 H :    0.022109
  12 C :   -0.059392
  13 H :    0.023216
  14 H :    0.032919
  15 H :    0.022223
  16 S :    0.437465
  17 C :   -0.182297
  18 C :   -0.067709
  19 C :   -0.049456
  20 C :   -0.209617
  21 H :    0.031888
  22 C :   -0.047240
  23 H :    0.031994
  24 H :    0.029681
  25 C :   -0.051572
  26 H :    0.026636
  27 H :    0.028432
  28 C :   -0.086109
  29 H :    0.030957
  30 H :    0.031771
  31 H :    0.039086
  32 H :    0.021524
  33 H :    0.013243

  Mayer bond orders larger than 0.100000
B(  0-S ,  1-C ) :   1.1444 B(  0-S ,  4-C ) :   1.1502 B(  1-C ,  2-C ) :   1.6193
B(  1-C , 32-H ) :   0.9737 B(  2-C ,  3-C ) :   1.2329 B(  2-C ,  6-C ) :   0.9873
B(  3-C ,  4-C ) :   1.5945 B(  3-C ,  5-H ) :   1.0031 B(  4-C , 20-C ) :   1.0063
B(  6-C ,  7-H ) :   0.9383 B(  6-C ,  8-H ) :   0.9487 B(  6-C ,  9-C ) :   1.0638
B(  9-C , 10-H ) :   0.9495 B(  9-C , 11-H ) :   0.9577 B(  9-C , 12-C ) :   1.0863
B( 12-C , 13-H ) :   0.9729 B( 12-C , 14-H ) :   0.9692 B( 12-C , 15-H ) :   0.9757
B( 16-S , 17-C ) :   1.1948 B( 16-S , 20-C ) :   1.1612 B( 17-C , 18-C ) :   1.5522
B( 17-C , 33-H ) :   0.9763 B( 18-C , 19-C ) :   1.2692 B( 18-C , 21-H ) :   0.9992
B( 19-C , 20-C ) :   1.5641 B( 19-C , 22-C ) :   1.0431 B( 22-C , 23-H ) :   0.9378
B( 22-C , 24-H ) :   0.9410 B( 22-C , 25-C ) :   1.0530 B( 25-C , 26-H ) :   0.9527
B( 25-C , 27-H ) :   0.9544 B( 25-C , 28-C ) :   1.0702 B( 28-C , 29-H ) :   0.9732
B( 28-C , 30-H ) :   0.9686 B( 28-C , 31-H ) :   0.9714

Dispersion correction           -0.013658423
FINAL SINGLE POINT ENERGY     -1339.873886021632

DIPOLE MOMENT
-------------
                                X             Y             Z
Electronic contribution:     13.67885     -29.42850      -2.48828
Nuclear contribution   :    -13.92390      29.93724       2.55148
                        -----------------------------------------
Total Dipole Moment    :     -0.24505       0.50874       0.06320
                        -----------------------------------------
Magnitude (a.u.)       :      0.56820
Magnitude (Debye)      :      1.44426

Rotational constants in cm-1:     0.016858     0.009035     0.006217
Rotational constants in MHz :   505.399989   270.876355   186.394388

                             ****ORCA TERMINATED NORMALLY****
TOTAL RUN TIME: 0 days 0 hours 0 minutes 31 seconds 37 msec
