                         Program Version 4.2.1 -  RELEASE  -
|  1> ! wB97X-D3 SP def2-SVP
|  2> %pal
|  3> nprocs 16
|  4> end
|  5>
|  6> * xyz 0 1
|  7> S 	 1.14858 	 -22.5977 	 58.4037
|  8> C 	 -0.471977 	 -22.6479 	 59.0164
|  9> C 	 -1.3279 	 -23.2399 	 58.1224
| 10> C 	 -0.724029 	 -23.4342 	 56.8391
| 11> C 	 0.574296 	 -23.0805 	 56.794
| 12> H 	 -1.16886 	 -23.8762 	 55.9636
| 13> C 	 -2.77699 	 -23.693 	 58.3608
| 14> H 	 -3.39033 	 -23.4201 	 57.4992
| 15> H 	 -3.29798 	 -22.9894 	 59.0959
| 16> C 	 -2.94808 	 -25.2382 	 58.5586
| 17> H 	 -2.53663 	 -25.7354 	 57.6952
| 18> H 	 -2.32978 	 -25.6418 	 59.4076
| 19> C 	 -4.4083 	 -25.6549 	 58.6741
| 20> H 	 -4.92472 	 -25.2664 	 59.5569
| 21> H 	 -5.01921 	 -25.1958 	 57.8494
| 22> H 	 -4.44482 	 -26.754 	 58.7184
| 23> S 	 2.70427 	 -24.4656 	 55.8163
| 24> C 	 2.90446 	 -24.4075 	 54.0867
| 25> C 	 2.13296 	 -23.4599 	 53.3997
| 26> C 	 1.17005 	 -22.8941 	 54.2575
| 27> C 	 1.35991 	 -23.3221 	 55.6005
| 28> H 	 2.2322 	 -23.3626 	 52.3783
| 29> C 	 0.0927742 	 -21.9122 	 53.7517
| 30> H 	 -0.482121 	 -21.6413 	 54.6623
| 31> H 	 -0.507175 	 -22.3681 	 52.9147
| 32> C 	 0.542896 	 -20.5105 	 53.3698
| 33> H 	 -0.282042 	 -19.935 	 52.8401
| 34> H 	 1.32418 	 -20.7105 	 52.6375
| 35> C 	 1.09394 	 -19.5809 	 54.4764
| 36> H 	 0.331648 	 -19.0969 	 55.0279
| 37> H 	 1.85473 	 -18.8902 	 54.0684
| 38> H 	 1.57604 	 -20.0789 	 55.2985
| 39> H 	 -0.761225 	 -22.5749 	 60.0352
| 40> H 	 3.65661 	 -24.9633 	 53.555
| 41> *
| 42>
| 43>                          ****END OF INPUT****

CARTESIAN COORDINATES (ANGSTROEM)
---------------------------------
  S      1.148580  -22.597700   58.403700
  C     -0.471977  -22.647900   59.016400
  C     -1.327900  -23.239900   58.122400
  C     -0.724029  -23.434200   56.839100
  C      0.574296  -23.080500   56.794000
  H     -1.168860  -23.876200   55.963600
  C     -2.776990  -23.693000   58.360800
  H     -3.390330  -23.420100   57.499200
  H     -3.297980  -22.989400   59.095900
  C     -2.948080  -25.238200   58.558600
  H     -2.536630  -25.735400   57.695200
  H     -2.329780  -25.641800   59.407600
  C     -4.408300  -25.654900   58.674100
  H     -4.924720  -25.266400   59.556900
  H     -5.019210  -25.195800   57.849400
  H     -4.444820  -26.754000   58.718400
  S      2.704270  -24.465600   55.816300
  C      2.904460  -24.407500   54.086700
  C      2.132960  -23.459900   53.399700
  C      1.170050  -22.894100   54.257500
  C      1.359910  -23.322100   55.600500
  H      2.232200  -23.362600   52.378300
  C      0.092774  -21.912200   53.751700
  H     -0.482121  -21.641300   54.662300
  H     -0.507175  -22.368100   52.914700
  C      0.542896  -20.510500   53.369800
  H     -0.282042  -19.935000   52.840100
  H      1.324180  -20.710500   52.637500
  C      1.093940  -19.580900   54.476400
  H      0.331648  -19.096900   55.027900
  H      1.854730  -18.890200   54.068400
  H      1.576040  -20.078900   55.298500
  H     -0.761225  -22.574900   60.035200
  H      3.656610  -24.963300   53.555000

 Total Charge           Charge          ....    0
 Multiplicity           Mult            ....    1
 Number of Electrons    NEL             ....  134
 Basis Dimension        Dim             ....  322

ORBITAL ENERGIES
----------------

  NO   OCC          E(Eh)            E(eV)
   0   2.0000     -88.972125     -2421.0546
   1   2.0000     -88.967329     -2420.9241
   2   2.0000     -10.330313      -281.1021
   3   2.0000     -10.323672      -280.9214
   4   2.0000     -10.316787      -280.7340
   5   2.0000     -10.309297      -280.5302
   6   2.0000     -10.308806      -280.5169
   7   2.0000     -10.299944      -280.2757
   8   2.0000     -10.299827      -280.2725
   9   2.0000     -10.296593      -280.1845
  10   2.0000     -10.292360      -280.0693
  11   2.0000     -10.290200      -280.0106
  12   2.0000     -10.288299      -279.9589
  13   2.0000     -10.285612      -279.8857
  14   2.0000     -10.283555      -279.8298
  15   2.0000     -10.269210      -279.4394
  16   2.0000      -8.086467      -220.0440
  17   2.0000      -8.081795      -219.9168
  18   2.0000      -6.044719      -164.4852
  19   2.0000      -6.041222      -164.3900
  20   2.0000      -6.040464      -164.3694
  21   2.0000      -6.037332      -164.2841
  22   2.0000      -6.036512      -164.2618
  23   2.0000      -6.032240      -164.1456
  24   2.0000      -1.006951       -27.4005
  25   2.0000      -0.983016       -26.7492
  26   2.0000      -0.906202       -24.6590
  27   2.0000      -0.904140       -24.6029
  28   2.0000      -0.872675       -23.7467
  29   2.0000      -0.852377       -23.1944
  30   2.0000      -0.846572       -23.0364
  31   2.0000      -0.810514       -22.0552
  32   2.0000      -0.782496       -21.2928
  33   2.0000      -0.769253       -20.9324
  34   2.0000      -0.705754       -19.2045
  35   2.0000      -0.699125       -19.0242
  36   2.0000      -0.689656       -18.7665
  37   2.0000      -0.662480       -18.0270
  38   2.0000      -0.642978       -17.4963
  39   2.0000      -0.617741       -16.8096
  40   2.0000      -0.592337       -16.1183
  41   2.0000      -0.568758       -15.4767
  42   2.0000      -0.554371       -15.0852
  43   2.0000      -0.547271       -14.8920
  44   2.0000      -0.539092       -14.6694
  45   2.0000      -0.530227       -14.4282
  46   2.0000      -0.512263       -13.9394
  47   2.0000      -0.507861       -13.8196
  48   2.0000      -0.503141       -13.6912
  49   2.0000      -0.499547       -13.5934
  50   2.0000      -0.491093       -13.3633
  51   2.0000      -0.472915       -12.8687
  52   2.0000      -0.465051       -12.6547
  53   2.0000      -0.463269       -12.6062
  54   2.0000      -0.458407       -12.4739
  55   2.0000      -0.455354       -12.3908
  56   2.0000      -0.444510       -12.0957
  57   2.0000      -0.440160       -11.9774
  58   2.0000      -0.437777       -11.9125
  59   2.0000      -0.421756       -11.4766
  60   2.0000      -0.418357       -11.3841
  61   2.0000      -0.412267       -11.2184
  62   2.0000      -0.401290       -10.9197
  63   2.0000      -0.347990        -9.4693
  64   2.0000      -0.338290        -9.2053
  65   2.0000      -0.327134        -8.9018
  66   2.0000      -0.289417        -7.8754
  67   0.0000       0.031922         0.8686
  68   0.0000       0.062173         1.6918
  69   0.0000       0.108920         2.9639
  70   0.0000       0.120049         3.2667
  71   0.0000       0.128036         3.4840

MULLIKEN ATOMIC CHARGES
-----------------------
   0 S :    0.104723
   1 C :   -0.087122
   2 C :   -0.086141
   3 C :    0.030571
   4 C :   -0.145992
   5 H :    0.017147
   6 C :    0.023945
   7 H :    0.015972
   8 H :    0.030341
   9 C :   -0.064061
  10 H :    0.027200
  11 H :    0.039377
  12 C :   -0.054183
  13 H :    0.029032
  14 H :    0.032556
  15 H :    0.044726
  16 S :    0.123768
  17 C :   -0.086883
  18 C :   -0.012585
  19 C :   -0.022592
  20 C :   -0.183453
  21 H :   -0.006679
  22 C :    0.042444
  23 H :    0.030130
  24 H :    0.050902
  25 C :   -0.081710
  26 H :    0.043816
  27 H :    0.015169
  28 C :   -0.042790
  29 H :    0.024242
  30 H :    0.043023
  31 H :    0.022650
  32 H :    0.035938
  33 H :    0.046519
Sum of atomic charges:   -0.0000000

LOEWDIN ATOMIC CHARGES
----------------------
   0 S :    0.391345
   1 C :   -0.198731
   2 C :   -0.062278
   3 C :   -0.057428
   4 C :   -0.195383
   5 H :    0.032975
   6 C :   -0.042570
   7 H :    0.027995
   8 H :    0.035033
   9 C :   -0.041699
  10 H :    0.024053
  11 H :    0.029898
  12 C :   -0.071166
  13 H :    0.023435
  14 H :    0.029559
  15 H :    0.030598
  16 S :    0.407816
  17 C :   -0.180079
  18 C :   -0.060972
  19 C :   -0.049919
  20 C :   -0.186664
  21 H :    0.020565
  22 C :   -0.041237
  23 H :    0.034368
  24 H :    0.040070
  25 C :   -0.046267
  26 H :    0.033458
  27 H :    0.015803
  28 C :   -0.070707
  29 H :    0.021665
  30 H :    0.034810
  31 H :    0.025399
  32 H :    0.024809
  33 H :    0.021447

  Mayer bond orders larger than 0.100000
B(  0-S ,  1-C ) :   1.1214 B(  0-S ,  4-C ) :   1.1232 B(  1-C ,  2-C ) :   1.6519
B(  1-C , 32-H ) :   0.9654 B(  2-C ,  3-C ) :   1.2130 B(  2-C ,  6-C ) :   1.0247
B(  3-C ,  4-C ) :   1.5975 B(  3-C ,  5-H ) :   0.9981 B(  4-C , 20-C ) :   1.0477
B(  6-C ,  7-H ) :   0.9391 B(  6-C ,  8-H ) :   0.9483 B(  6-C ,  9-C ) :   1.0472
B(  9-C , 10-H ) :   0.9534 B(  9-C , 11-H ) :   0.9566 B(  9-C , 12-C ) :   1.0822
B( 12-C , 13-H ) :   0.9756 B( 12-C , 14-H ) :   0.9714 B( 12-C , 15-H ) :   0.9738
B( 16-S , 17-C ) :   1.1634 B( 16-S , 20-C ) :   1.1475 B( 17-C , 18-C ) :   1.6089
B( 17-C , 20-C ) :   0.1076 B( 17-C , 33-H ) :   0.9651 B( 18-C , 19-C ) :   1.2367
B( 18-C , 21-H ) :   1.0000 B( 19-C , 20-C ) :   1.5834 B( 19-C , 22-C ) :   1.0367
B( 22-C , 23-H ) :   0.9333 B( 22-C , 24-H ) :   0.9374 B( 22-C , 25-C ) :   1.0692
B( 25-C , 26-H ) :   0.9556 B( 25-C , 27-H ) :   0.9593 B( 25-C , 28-C ) :   1.0702
B( 28-C , 29-H ) :   0.9721 B( 28-C , 30-H ) :   0.9747 B( 28-C , 31-H ) :   0.9753

Dispersion correction           -0.014376452
FINAL SINGLE POINT ENERGY     -1339.866356233490

DIPOLE MOMENT
-------------
                                X             Y             Z
Electronic contribution:     21.50313      -4.66497       4.56279
Nuclear contribution   :    -21.97932       4.49509      -4.85492
                        -----------------------------------------
Total Dipole Moment    :     -0.47619      -0.16989      -0.29214
                        -----------------------------------------
Magnitude (a.u.)       :      0.58392
Magnitude (Debye)      :      1.48421

Rotational constants in cm-1:     0.018708     0.007853     0.007344
Rotational constants in MHz :   560.838429   235.424592   220.179017

                             ****ORCA TERMINATED NORMALLY****
TOTAL RUN TIME: 0 days 0 hours 0 minutes 32 seconds 329 msec
