                         Program Version 4.2.1 -  RELEASE  -
|  1> ! wB97X-D3 SP def2-SVP
|  2> %pal
|  3> nprocs 16
|  4> end
|  5>
|  6> * xyz 0 1
|  7> S 	 51.6571 	 22.0513 	 94.1206
|  8> C 	 49.9099 	 22.0851 	 94.5776
|  9> C 	 49.3642 	 20.8047 	 94.4647
| 10> C 	 50.317 	 19.8357 	 93.9727
| 11> C 	 51.6426 	 20.3514 	 93.7789
| 12> H 	 50.0252 	 18.7911 	 93.7446
| 13> C 	 47.9049 	 20.5466 	 94.596
| 14> H 	 47.5396 	 20.2834 	 93.6319
| 15> H 	 47.4546 	 21.4629 	 94.9255
| 16> C 	 47.5267 	 19.5157 	 95.6112
| 17> H 	 46.4603 	 19.3117 	 95.3675
| 18> H 	 47.9949 	 18.558 	 95.3901
| 19> C 	 47.7089 	 19.8138 	 97.0685
| 20> H 	 48.6456 	 20.3223 	 97.2882
| 21> H 	 46.94 	 20.6055 	 97.3786
| 22> H 	 47.3826 	 18.9725 	 97.6049
| 23> S 	 54.3052 	 20.3576 	 93.3897
| 24> C 	 55.0594 	 19.2008 	 92.4207
| 25> C 	 54.1393 	 18.4133 	 91.7274
| 26> C 	 52.8007 	 18.7566 	 92.0022
| 27> C 	 52.7159 	 19.7442 	 92.9781
| 28> H 	 54.5321 	 17.5796 	 91.0751
| 29> C 	 51.6641 	 18.1011 	 91.3529
| 30> H 	 50.8382 	 18.7776 	 91.4021
| 31> H 	 51.3946 	 17.2507 	 91.9516
| 32> C 	 51.855 	 17.7829 	 89.8442
| 33> H 	 52.7507 	 17.1848 	 89.7238
| 34> H 	 52.035 	 18.731 	 89.353
| 35> C 	 50.7643 	 16.9063 	 89.1785
| 36> H 	 51.0414 	 16.6184 	 88.1968
| 37> H 	 49.8053 	 17.3573 	 89.105
| 38> H 	 50.6787 	 16.0058 	 89.7842
| 39> H 	 49.3315 	 22.9461 	 94.824
| 40> H 	 56.117 	 19.0636 	 92.4065
| 41> *
| 42>
| 43>                          ****END OF INPUT****

CARTESIAN COORDINATES (ANGSTROEM)
---------------------------------
  S     51.657100   22.051300   94.120600
  C     49.909900   22.085100   94.577600
  C     49.364200   20.804700   94.464700
  C     50.317000   19.835700   93.972700
  C     51.642600   20.351400   93.778900
  H     50.025200   18.791100   93.744600
  C     47.904900   20.546600   94.596000
  H     47.539600   20.283400   93.631900
  H     47.454600   21.462900   94.925500
  C     47.526700   19.515700   95.611200
  H     46.460300   19.311700   95.367500
  H     47.994900   18.558000   95.390100
  C     47.708900   19.813800   97.068500
  H     48.645600   20.322300   97.288200
  H     46.940000   20.605500   97.378600
  H     47.382600   18.972500   97.604900
  S     54.305200   20.357600   93.389700
  C     55.059400   19.200800   92.420700
  C     54.139300   18.413300   91.727400
  C     52.800700   18.756600   92.002200
  C     52.715900   19.744200   92.978100
  H     54.532100   17.579600   91.075100
  C     51.664100   18.101100   91.352900
  H     50.838200   18.777600   91.402100
  H     51.394600   17.250700   91.951600
  C     51.855000   17.782900   89.844200
  H     52.750700   17.184800   89.723800
  H     52.035000   18.731000   89.353000
  C     50.764300   16.906300   89.178500
  H     51.041400   16.618400   88.196800
  H     49.805300   17.357300   89.105000
  H     50.678700   16.005800   89.784200
  H     49.331500   22.946100   94.824000
  H     56.117000   19.063600   92.406500

 Total Charge           Charge          ....    0
 Multiplicity           Mult            ....    1
 Number of Electrons    NEL             ....  134
 Basis Dimension        Dim             ....  322

ORBITAL ENERGIES
----------------

  NO   OCC          E(Eh)            E(eV)
   0   2.0000     -88.967048     -2420.9164
   1   2.0000     -88.963729     -2420.8261
   2   2.0000     -10.337027      -281.2848
   3   2.0000     -10.327162      -281.0164
   4   2.0000     -10.317131      -280.7434
   5   2.0000     -10.312402      -280.6147
   6   2.0000     -10.301988      -280.3313
   7   2.0000     -10.301916      -280.3294
   8   2.0000     -10.301527      -280.3188
   9   2.0000     -10.295894      -280.1655
  10   2.0000     -10.287374      -279.9337
  11   2.0000     -10.284930      -279.8672
  12   2.0000     -10.284693      -279.8607
  13   2.0000     -10.281927      -279.7854
  14   2.0000     -10.276200      -279.6296
  15   2.0000     -10.275145      -279.6009
  16   2.0000      -8.081021      -219.8957
  17   2.0000      -8.079944      -219.8665
  18   2.0000      -6.039711      -164.3489
  19   2.0000      -6.038164      -164.3068
  20   2.0000      -6.035607      -164.2372
  21   2.0000      -6.034208      -164.1991
  22   2.0000      -6.031656      -164.1297
  23   2.0000      -6.030973      -164.1111
  24   2.0000      -1.009811       -27.4784
  25   2.0000      -0.980691       -26.6860
  26   2.0000      -0.922281       -25.0965
  27   2.0000      -0.914898       -24.8956
  28   2.0000      -0.868620       -23.6364
  29   2.0000      -0.857839       -23.3430
  30   2.0000      -0.840174       -22.8623
  31   2.0000      -0.810678       -22.0597
  32   2.0000      -0.789478       -21.4828
  33   2.0000      -0.778708       -21.1897
  34   2.0000      -0.712622       -19.3914
  35   2.0000      -0.703098       -19.1323
  36   2.0000      -0.691637       -18.8204
  37   2.0000      -0.654425       -17.8078
  38   2.0000      -0.634239       -17.2585
  39   2.0000      -0.620965       -16.8973
  40   2.0000      -0.601682       -16.3726
  41   2.0000      -0.572755       -15.5855
  42   2.0000      -0.571909       -15.5624
  43   2.0000      -0.562831       -15.3154
  44   2.0000      -0.537975       -14.6390
  45   2.0000      -0.529095       -14.3974
  46   2.0000      -0.519793       -14.1443
  47   2.0000      -0.518929       -14.1208
  48   2.0000      -0.503883       -13.7114
  49   2.0000      -0.495552       -13.4846
  50   2.0000      -0.489577       -13.3221
  51   2.0000      -0.484349       -13.1798
  52   2.0000      -0.473155       -12.8752
  53   2.0000      -0.468930       -12.7602
  54   2.0000      -0.458404       -12.4738
  55   2.0000      -0.454888       -12.3781
  56   2.0000      -0.445949       -12.1349
  57   2.0000      -0.442968       -12.0538
  58   2.0000      -0.435808       -11.8589
  59   2.0000      -0.427046       -11.6205
  60   2.0000      -0.418015       -11.3748
  61   2.0000      -0.414392       -11.2762
  62   2.0000      -0.403345       -10.9756
  63   2.0000      -0.353003        -9.6057
  64   2.0000      -0.333042        -9.0625
  65   2.0000      -0.328291        -8.9332
  66   2.0000      -0.281036        -7.6474
  67   0.0000       0.021522         0.5856
  68   0.0000       0.075898         2.0653
  69   0.0000       0.099981         2.7206
  70   0.0000       0.115556         3.1445
  71   0.0000       0.142281         3.8717

MULLIKEN ATOMIC CHARGES
-----------------------
   0 S :    0.090918
   1 C :   -0.116927
   2 C :   -0.110225
   3 C :   -0.027229
   4 C :   -0.076834
   5 H :    0.027570
   6 C :    0.121793
   7 H :    0.029866
   8 H :   -0.001454
   9 C :   -0.102952
  10 H :    0.022344
  11 H :    0.017314
  12 C :   -0.019373
  13 H :    0.049011
  14 H :    0.016999
  15 H :    0.031970
  16 S :    0.105171
  17 C :   -0.078525
  18 C :   -0.075166
  19 C :   -0.045106
  20 C :   -0.156233
  21 H :    0.042437
  22 C :    0.083889
  23 H :    0.022107
  24 H :    0.032794
  25 C :   -0.103566
  26 H :    0.023690
  27 H :    0.036238
  28 C :   -0.004745
  29 H :    0.025398
  30 H :    0.024662
  31 H :    0.022996
  32 H :    0.042023
  33 H :    0.049146
Sum of atomic charges:   -0.0000000

LOEWDIN ATOMIC CHARGES
----------------------
   0 S :    0.390970
   1 C :   -0.185526
   2 C :   -0.060799
   3 C :   -0.075349
   4 C :   -0.196729
   5 H :    0.031909
   6 C :   -0.026192
   7 H :    0.033043
   8 H :    0.026651
   9 C :   -0.048336
  10 H :    0.027900
  11 H :    0.018028
  12 C :   -0.063402
  13 H :    0.030685
  14 H :    0.029819
  15 H :    0.024689
  16 S :    0.431866
  17 C :   -0.197892
  18 C :   -0.080852
  19 C :   -0.057176
  20 C :   -0.196166
  21 H :    0.042206
  22 C :   -0.032664
  23 H :    0.029486
  24 H :    0.030522
  25 C :   -0.033178
  26 H :    0.019430
  27 H :    0.025760
  28 C :   -0.055432
  29 H :    0.023184
  30 H :    0.018705
  31 H :    0.026642
  32 H :    0.024388
  33 H :    0.023808

  Mayer bond orders larger than 0.100000
B(  0-S ,  1-C ) :   1.1196 B(  0-S ,  4-C ) :   1.1626 B(  1-C ,  2-C ) :   1.5954
B(  1-C , 32-H ) :   0.9709 B(  2-C ,  3-C ) :   1.2497 B(  2-C ,  6-C ) :   1.0381
B(  3-C ,  4-C ) :   1.5359 B(  3-C ,  5-H ) :   0.9870 B(  4-C , 20-C ) :   1.0438
B(  6-C ,  7-H ) :   0.9320 B(  6-C ,  8-H ) :   0.9329 B(  6-C ,  9-C ) :   1.0796
B(  9-C , 10-H ) :   0.9500 B(  9-C , 11-H ) :   0.9543 B(  9-C , 12-C ) :   1.0823
B( 12-C , 13-H ) :   0.9748 B( 12-C , 14-H ) :   0.9680 B( 12-C , 15-H ) :   0.9689
B( 16-S , 17-C ) :   1.1921 B( 16-S , 20-C ) :   1.1454 B( 17-C , 18-C ) :   1.5739
B( 17-C , 33-H ) :   0.9706 B( 18-C , 19-C ) :   1.2605 B( 18-C , 21-H ) :   0.9840
B( 19-C , 20-C ) :   1.5644 B( 19-C , 22-C ) :   1.0511 B( 22-C , 23-H ) :   0.9299
B( 22-C , 24-H ) :   0.9195 B( 22-C , 25-C ) :   1.0608 B( 25-C , 26-H ) :   0.9536
B( 25-C , 27-H ) :   0.9597 B( 25-C , 28-C ) :   1.0841 B( 28-C , 29-H ) :   0.9738
B( 28-C , 30-H ) :   0.9766 B( 28-C , 31-H ) :   0.9731

Dispersion correction           -0.013614927
FINAL SINGLE POINT ENERGY     -1339.875666205759

DIPOLE MOMENT
-------------
                                X             Y             Z
Electronic contribution:     22.45942      15.75314       4.96271
Nuclear contribution   :    -22.97146     -16.25124      -5.30490
                        -----------------------------------------
Total Dipole Moment    :     -0.51204      -0.49810      -0.34219
                        -----------------------------------------
Magnitude (a.u.)       :      0.79208
Magnitude (Debye)      :      2.01330

Rotational constants in cm-1:     0.017621     0.008461     0.006353
Rotational constants in MHz :   528.267467   253.643515   190.450338

                             ****ORCA TERMINATED NORMALLY****
TOTAL RUN TIME: 0 days 0 hours 0 minutes 29 seconds 611 msec
