                         Program Version 4.2.1 -  RELEASE  -
|  1> ! wB97X-D3 SP def2-SVP
|  2> %pal
|  3> nprocs 16
|  4> end
|  5>
|  6> * xyz 0 1
|  7> S 	 -75.0634 	 50.6835 	 137.251
|  8> C 	 -73.7645 	 51.8279 	 137.547
|  9> C 	 -74.2111 	 53.1093 	 137.515
| 10> C 	 -75.6345 	 53.2174 	 137.308
| 11> C 	 -76.2529 	 51.9609 	 137.225
| 12> H 	 -76.2972 	 54.0954 	 137.087
| 13> C 	 -73.2776 	 54.3136 	 137.651
| 14> H 	 -73.9091 	 55.1611 	 137.365
| 15> H 	 -72.4775 	 54.3408 	 136.946
| 16> C 	 -72.6128 	 54.5012 	 139.039
| 17> H 	 -73.4202 	 54.701 	 139.752
| 18> H 	 -72.1021 	 53.5739 	 139.39
| 19> C 	 -71.5547 	 55.5833 	 138.957
| 20> H 	 -70.677 	 55.2054 	 138.389
| 21> H 	 -71.9395 	 56.5153 	 138.64
| 22> H 	 -71.1936 	 55.8938 	 139.988
| 23> S 	 -78.0953 	 50.6063 	 135.742
| 24> C 	 -79.7966 	 50.7913 	 136.081
| 25> C 	 -79.9997 	 51.6859 	 137.179
| 26> C 	 -78.794 	 52.1913 	 137.707
| 27> C 	 -77.651 	 51.7698 	 137.014
| 28> H 	 -80.9852 	 51.7895 	 137.587
| 29> C 	 -78.6143 	 52.9107 	 139.021
| 30> H 	 -79.6476 	 53.1225 	 139.346
| 31> H 	 -78.1067 	 53.8651 	 138.924
| 32> C 	 -77.9769 	 52.1447 	 140.239
| 33> H 	 -77.749 	 52.9147 	 141.006
| 34> H 	 -77.0255 	 51.5797 	 140.041
| 35> C 	 -78.9823 	 51.2636 	 140.997
| 36> H 	 -79.3582 	 50.4028 	 140.419
| 37> H 	 -79.8006 	 51.8991 	 141.454
| 38> H 	 -78.5256 	 50.7262 	 141.851
| 39> H 	 -72.7311 	 51.5946 	 137.701
| 40> H 	 -80.5905 	 50.3148 	 135.524
| 41> *
| 42>
| 43>                          ****END OF INPUT****

CARTESIAN COORDINATES (ANGSTROEM)
---------------------------------
  S    -75.063400   50.683500  137.251000
  C    -73.764500   51.827900  137.547000
  C    -74.211100   53.109300  137.515000
  C    -75.634500   53.217400  137.308000
  C    -76.252900   51.960900  137.225000
  H    -76.297200   54.095400  137.087000
  C    -73.277600   54.313600  137.651000
  H    -73.909100   55.161100  137.365000
  H    -72.477500   54.340800  136.946000
  C    -72.612800   54.501200  139.039000
  H    -73.420200   54.701000  139.752000
  H    -72.102100   53.573900  139.390000
  C    -71.554700   55.583300  138.957000
  H    -70.677000   55.205400  138.389000
  H    -71.939500   56.515300  138.640000
  H    -71.193600   55.893800  139.988000
  S    -78.095300   50.606300  135.742000
  C    -79.796600   50.791300  136.081000
  C    -79.999700   51.685900  137.179000
  C    -78.794000   52.191300  137.707000
  C    -77.651000   51.769800  137.014000
  H    -80.985200   51.789500  137.587000
  C    -78.614300   52.910700  139.021000
  H    -79.647600   53.122500  139.346000
  H    -78.106700   53.865100  138.924000
  C    -77.976900   52.144700  140.239000
  H    -77.749000   52.914700  141.006000
  H    -77.025500   51.579700  140.041000
  C    -78.982300   51.263600  140.997000
  H    -79.358200   50.402800  140.419000
  H    -79.800600   51.899100  141.454000
  H    -78.525600   50.726200  141.851000
  H    -72.731100   51.594600  137.701000
  H    -80.590500   50.314800  135.524000

 Total Charge           Charge          ....    0
 Multiplicity           Mult            ....    1
 Number of Electrons    NEL             ....  134
 Basis Dimension        Dim             ....  322

ORBITAL ENERGIES
----------------

  NO   OCC          E(Eh)            E(eV)
   0   2.0000     -88.969032     -2420.9705
   1   2.0000     -88.967565     -2420.9305
   2   2.0000     -10.328903      -281.0637
   3   2.0000     -10.325663      -280.9756
   4   2.0000     -10.323011      -280.9034
   5   2.0000     -10.310458      -280.5618
   6   2.0000     -10.304802      -280.4079
   7   2.0000     -10.301121      -280.3078
   8   2.0000     -10.299868      -280.2737
   9   2.0000     -10.298708      -280.2421
  10   2.0000     -10.292759      -280.0802
  11   2.0000     -10.290633      -280.0224
  12   2.0000     -10.290076      -280.0072
  13   2.0000     -10.289889      -280.0021
  14   2.0000     -10.282060      -279.7891
  15   2.0000     -10.279481      -279.7189
  16   2.0000      -8.083447      -219.9618
  17   2.0000      -8.081825      -219.9176
  18   2.0000      -6.042063      -164.4129
  19   2.0000      -6.040217      -164.3627
  20   2.0000      -6.037937      -164.3006
  21   2.0000      -6.036233      -164.2542
  22   2.0000      -6.034175      -164.1983
  23   2.0000      -6.032907      -164.1637
  24   2.0000      -1.005972       -27.3739
  25   2.0000      -0.980804       -26.6890
  26   2.0000      -0.911555       -24.8047
  27   2.0000      -0.901028       -24.5182
  28   2.0000      -0.871632       -23.7183
  29   2.0000      -0.850536       -23.1442
  30   2.0000      -0.844835       -22.9891
  31   2.0000      -0.809718       -22.0335
  32   2.0000      -0.779810       -21.2197
  33   2.0000      -0.768945       -20.9241
  34   2.0000      -0.708301       -19.2738
  35   2.0000      -0.700088       -19.0504
  36   2.0000      -0.685256       -18.6468
  37   2.0000      -0.666524       -18.1371
  38   2.0000      -0.641673       -17.4608
  39   2.0000      -0.611755       -16.6467
  40   2.0000      -0.589179       -16.0324
  41   2.0000      -0.569479       -15.4963
  42   2.0000      -0.566718       -15.4212
  43   2.0000      -0.548057       -14.9134
  44   2.0000      -0.541591       -14.7374
  45   2.0000      -0.519026       -14.1234
  46   2.0000      -0.514306       -13.9950
  47   2.0000      -0.511785       -13.9264
  48   2.0000      -0.505423       -13.7533
  49   2.0000      -0.499619       -13.5953
  50   2.0000      -0.479938       -13.0598
  51   2.0000      -0.477041       -12.9810
  52   2.0000      -0.472310       -12.8522
  53   2.0000      -0.466769       -12.7014
  54   2.0000      -0.459521       -12.5042
  55   2.0000      -0.447391       -12.1741
  56   2.0000      -0.440331       -11.9820
  57   2.0000      -0.433561       -11.7978
  58   2.0000      -0.429384       -11.6841
  59   2.0000      -0.426174       -11.5968
  60   2.0000      -0.416470       -11.3327
  61   2.0000      -0.415472       -11.3056
  62   2.0000      -0.411905       -11.2085
  63   2.0000      -0.346670        -9.4334
  64   2.0000      -0.334024        -9.0893
  65   2.0000      -0.331819        -9.0292
  66   2.0000      -0.285472        -7.7681
  67   0.0000       0.021790         0.5929
  68   0.0000       0.066254         1.8029
  69   0.0000       0.109653         2.9838
  70   0.0000       0.123186         3.3521
  71   0.0000       0.131586         3.5806

MULLIKEN ATOMIC CHARGES
-----------------------
   0 S :    0.118598
   1 C :   -0.114514
   2 C :   -0.066759
   3 C :    0.002242
   4 C :   -0.155566
   5 H :    0.042191
   6 C :    0.077857
   7 H :    0.015863
   8 H :    0.017043
   9 C :   -0.087482
  10 H :    0.032766
  11 H :    0.034298
  12 C :   -0.048731
  13 H :    0.046333
  14 H :    0.021824
  15 H :    0.031392
  16 S :    0.108242
  17 C :   -0.103615
  18 C :   -0.039800
  19 C :   -0.007618
  20 C :   -0.178999
  21 H :    0.017031
  22 C :    0.070595
  23 H :    0.007081
  24 H :    0.032367
  25 C :   -0.074903
  26 H :    0.029854
  27 H :    0.055712
  28 C :   -0.094562
  29 H :    0.041202
  30 H :    0.038351
  31 H :    0.030451
  32 H :    0.038483
  33 H :    0.062771
Sum of atomic charges:   -0.0000000

LOEWDIN ATOMIC CHARGES
----------------------
   0 S :    0.405058
   1 C :   -0.191174
   2 C :   -0.064212
   3 C :   -0.069008
   4 C :   -0.200733
   5 H :    0.043295
   6 C :   -0.030591
   7 H :    0.030304
   8 H :    0.023696
   9 C :   -0.041708
  10 H :    0.024868
  11 H :    0.026409
  12 C :   -0.069620
  13 H :    0.031638
  14 H :    0.017629
  15 H :    0.032733
  16 S :    0.405680
  17 C :   -0.187835
  18 C :   -0.069655
  19 C :   -0.059513
  20 C :   -0.189801
  21 H :    0.030187
  22 C :   -0.032820
  23 H :    0.030293
  24 H :    0.030221
  25 C :   -0.042260
  26 H :    0.029666
  27 H :    0.031406
  28 C :   -0.080945
  29 H :    0.025041
  30 H :    0.028402
  31 H :    0.027538
  32 H :    0.026741
  33 H :    0.029071

  Mayer bond orders larger than 0.100000
B(  0-S ,  1-C ) :   1.1216 B(  0-S ,  4-C ) :   1.1449 B(  1-C ,  2-C ) :   1.6278
B(  1-C , 32-H ) :   0.9724 B(  2-C ,  3-C ) :   1.2312 B(  2-C ,  6-C ) :   1.0125
B(  3-C ,  4-C ) :   1.5625 B(  3-C ,  5-H ) :   0.9829 B(  4-C , 20-C ) :   1.0883
B(  6-C ,  7-H ) :   0.9396 B(  6-C ,  8-H ) :   0.9441 B(  6-C ,  9-C ) :   1.0547
B(  9-C , 10-H ) :   0.9550 B(  9-C , 11-H ) :   0.9594 B(  9-C , 12-C ) :   1.0852
B( 12-C , 13-H ) :   0.9728 B( 12-C , 14-H ) :   0.9734 B( 12-C , 15-H ) :   0.9713
B( 16-S , 17-C ) :   1.1793 B( 16-S , 20-C ) :   1.1433 B( 17-C , 18-C ) :   1.5567
B( 17-C , 20-C ) :   0.1164 B( 17-C , 33-H ) :   0.9688 B( 18-C , 19-C ) :   1.2819
B( 18-C , 21-H ) :   0.9921 B( 19-C , 20-C ) :   1.5366 B( 19-C , 22-C ) :   1.0485
B( 22-C , 23-H ) :   0.9312 B( 22-C , 24-H ) :   0.9332 B( 22-C , 25-C ) :   1.0559
B( 25-C , 26-H ) :   0.9539 B( 25-C , 27-H ) :   0.9584 B( 25-C , 28-C ) :   1.0791
B( 28-C , 29-H ) :   0.9770 B( 28-C , 30-H ) :   0.9726 B( 28-C , 31-H ) :   0.9727

Dispersion correction           -0.014437868
FINAL SINGLE POINT ENERGY     -1339.882548238927

DIPOLE MOMENT
-------------
                                X             Y             Z
Electronic contribution:     -7.88219     -16.88796     -20.17083
Nuclear contribution   :      7.93939      17.31905      20.52549
                        -----------------------------------------
Total Dipole Moment    :      0.05719       0.43109       0.35466
                        -----------------------------------------
Magnitude (a.u.)       :      0.56116
Magnitude (Debye)      :      1.42635

Rotational constants in cm-1:     0.021698     0.007844     0.006666
Rotational constants in MHz :   650.479304   235.169191   199.838239

                             ****ORCA TERMINATED NORMALLY****
TOTAL RUN TIME: 0 days 0 hours 0 minutes 32 seconds 814 msec
