                         Program Version 4.2.1 -  RELEASE  -
|  1> ! wB97X-D3 SP def2-SVP
|  2> %pal
|  3> nprocs 16
|  4> end
|  5>
|  6> * xyz 0 1
|  7> S 	 49.678 	 23.2964 	 88.7057
|  8> C 	 48.8022 	 22.7896 	 90.1241
|  9> C 	 48.9311 	 21.4432 	 90.3339
| 10> C 	 49.9462 	 20.9117 	 89.4736
| 11> C 	 50.5345 	 21.8389 	 88.6406
| 12> H 	 50.2419 	 19.8746 	 89.5095
| 13> C 	 48.036 	 20.6288 	 91.2904
| 14> H 	 47.7256 	 19.705 	 90.7676
| 15> H 	 47.0916 	 21.1677 	 91.3847
| 16> C 	 48.5261 	 20.3679 	 92.6874
| 17> H 	 47.8594 	 19.7406 	 93.2308
| 18> H 	 49.4152 	 19.8213 	 92.6199
| 19> C 	 48.8489 	 21.5961 	 93.5193
| 20> H 	 49.1753 	 21.3664 	 94.4924
| 21> H 	 49.5562 	 22.3634 	 93.0744
| 22> H 	 47.8395 	 22.0957 	 93.725
| 23> S 	 51.6757 	 21.5119 	 86.0457
| 24> C 	 53.3289 	 21.0342 	 85.9394
| 25> C 	 53.8684 	 20.7701 	 87.1791
| 26> C 	 52.9965 	 21.0898 	 88.2594
| 27> C 	 51.7298 	 21.5368 	 87.821
| 28> H 	 54.8408 	 20.4083 	 87.2348
| 29> C 	 53.4126 	 20.9372 	 89.7243
| 30> H 	 54.2239 	 20.2666 	 89.7884
| 31> H 	 52.6309 	 20.3412 	 90.2995
| 32> C 	 53.6127 	 22.3289 	 90.463
| 33> H 	 53.7649 	 22.1218 	 91.5266
| 34> H 	 52.7107 	 22.9176 	 90.3101
| 35> C 	 54.938 	 23.0283 	 89.9636
| 36> H 	 54.803 	 24.0671 	 90.2461
| 37> H 	 55.2282 	 23.0914 	 88.8915
| 38> H 	 55.8687 	 22.6511 	 90.448
| 39> H 	 48.0308 	 23.375 	 90.6731
| 40> H 	 53.7936 	 20.6687 	 85.0542
| 41> *
| 42>
| 43>                          ****END OF INPUT****

CARTESIAN COORDINATES (ANGSTROEM)
---------------------------------
  S     49.678000   23.296400   88.705700
  C     48.802200   22.789600   90.124100
  C     48.931100   21.443200   90.333900
  C     49.946200   20.911700   89.473600
  C     50.534500   21.838900   88.640600
  H     50.241900   19.874600   89.509500
  C     48.036000   20.628800   91.290400
  H     47.725600   19.705000   90.767600
  H     47.091600   21.167700   91.384700
  C     48.526100   20.367900   92.687400
  H     47.859400   19.740600   93.230800
  H     49.415200   19.821300   92.619900
  C     48.848900   21.596100   93.519300
  H     49.175300   21.366400   94.492400
  H     49.556200   22.363400   93.074400
  H     47.839500   22.095700   93.725000
  S     51.675700   21.511900   86.045700
  C     53.328900   21.034200   85.939400
  C     53.868400   20.770100   87.179100
  C     52.996500   21.089800   88.259400
  C     51.729800   21.536800   87.821000
  H     54.840800   20.408300   87.234800
  C     53.412600   20.937200   89.724300
  H     54.223900   20.266600   89.788400
  H     52.630900   20.341200   90.299500
  C     53.612700   22.328900   90.463000
  H     53.764900   22.121800   91.526600
  H     52.710700   22.917600   90.310100
  C     54.938000   23.028300   89.963600
  H     54.803000   24.067100   90.246100
  H     55.228200   23.091400   88.891500
  H     55.868700   22.651100   90.448000
  H     48.030800   23.375000   90.673100
  H     53.793600   20.668700   85.054200

 Total Charge           Charge          ....    0
 Multiplicity           Mult            ....    1
 Number of Electrons    NEL             ....  134
 Basis Dimension        Dim             ....  322

ORBITAL ENERGIES
----------------

  NO   OCC          E(Eh)            E(eV)
   0   2.0000     -88.967894     -2420.9395
   1   2.0000     -88.966031     -2420.8888
   2   2.0000     -10.330357      -281.1033
   3   2.0000     -10.326706      -281.0039
   4   2.0000     -10.314213      -280.6640
   5   2.0000     -10.311875      -280.6004
   6   2.0000     -10.305259      -280.4203
   7   2.0000     -10.300723      -280.2969
   8   2.0000     -10.295694      -280.1601
   9   2.0000     -10.292558      -280.0748
  10   2.0000     -10.291897      -280.0568
  11   2.0000     -10.291793      -280.0539
  12   2.0000     -10.287486      -279.9367
  13   2.0000     -10.281413      -279.7715
  14   2.0000     -10.278993      -279.7056
  15   2.0000     -10.277778      -279.6726
  16   2.0000      -8.083682      -219.9682
  17   2.0000      -8.080654      -219.8858
  18   2.0000      -6.042114      -164.4143
  19   2.0000      -6.039062      -164.3312
  20   2.0000      -6.038088      -164.3047
  21   2.0000      -6.035140      -164.2245
  22   2.0000      -6.034392      -164.2042
  23   2.0000      -6.031586      -164.1278
  24   2.0000      -1.010607       -27.5000
  25   2.0000      -0.986610       -26.8470
  26   2.0000      -0.916794       -24.9472
  27   2.0000      -0.895739       -24.3743
  28   2.0000      -0.868096       -23.6221
  29   2.0000      -0.848688       -23.0940
  30   2.0000      -0.841079       -22.8869
  31   2.0000      -0.811607       -22.0850
  32   2.0000      -0.786075       -21.3902
  33   2.0000      -0.771670       -20.9982
  34   2.0000      -0.710253       -19.3270
  35   2.0000      -0.699337       -19.0299
  36   2.0000      -0.688101       -18.7242
  37   2.0000      -0.659419       -17.9437
  38   2.0000      -0.637978       -17.3603
  39   2.0000      -0.622094       -16.9280
  40   2.0000      -0.591751       -16.1024
  41   2.0000      -0.575101       -15.6493
  42   2.0000      -0.553678       -15.0663
  43   2.0000      -0.550641       -14.9837
  44   2.0000      -0.543030       -14.7766
  45   2.0000      -0.528725       -14.3873
  46   2.0000      -0.514681       -14.0052
  47   2.0000      -0.511285       -13.9128
  48   2.0000      -0.500445       -13.6178
  49   2.0000      -0.486733       -13.2447
  50   2.0000      -0.484374       -13.1805
  51   2.0000      -0.478513       -13.0210
  52   2.0000      -0.472715       -12.8632
  53   2.0000      -0.467721       -12.7273
  54   2.0000      -0.460198       -12.5226
  55   2.0000      -0.450038       -12.2462
  56   2.0000      -0.444807       -12.1038
  57   2.0000      -0.438958       -11.9447
  58   2.0000      -0.428509       -11.6603
  59   2.0000      -0.423445       -11.5225
  60   2.0000      -0.419603       -11.4180
  61   2.0000      -0.412814       -11.2332
  62   2.0000      -0.411522       -11.1981
  63   2.0000      -0.339360        -9.2345
  64   2.0000      -0.332195        -9.0395
  65   2.0000      -0.329961        -8.9787
  66   2.0000      -0.297660        -8.0997
  67   0.0000       0.034351         0.9347
  68   0.0000       0.062533         1.7016
  69   0.0000       0.109332         2.9751
  70   0.0000       0.121392         3.3032
  71   0.0000       0.135015         3.6740

MULLIKEN ATOMIC CHARGES
-----------------------
   0 S :    0.131793
   1 C :   -0.136555
   2 C :   -0.106228
   3 C :    0.041064
   4 C :   -0.168665
   5 H :    0.010895
   6 C :    0.064980
   7 H :    0.034171
   8 H :    0.011806
   9 C :   -0.002493
  10 H :    0.022054
  11 H :    0.006130
  12 C :   -0.084240
  13 H :    0.023331
  14 H :    0.058363
  15 H :    0.020408
  16 S :    0.109058
  17 C :   -0.078125
  18 C :   -0.027627
  19 C :   -0.024795
  20 C :   -0.162777
  21 H :   -0.005282
  22 C :    0.066249
  23 H :    0.001517
  24 H :    0.027933
  25 C :   -0.045642
  26 H :    0.037331
  27 H :    0.048864
  28 C :   -0.092092
  29 H :    0.031565
  30 H :    0.044131
  31 H :    0.033697
  32 H :    0.057908
  33 H :    0.051271
Sum of atomic charges:   -0.0000000

LOEWDIN ATOMIC CHARGES
----------------------
   0 S :    0.434967
   1 C :   -0.204315
   2 C :   -0.066036
   3 C :   -0.057266
   4 C :   -0.220849
   5 H :    0.028864
   6 C :   -0.029139
   7 H :    0.037312
   8 H :    0.027476
   9 C :   -0.039415
  10 H :    0.024797
  11 H :    0.015087
  12 C :   -0.070124
  13 H :    0.018061
  14 H :    0.034778
  15 H :    0.027459
  16 S :    0.408748
  17 C :   -0.190347
  18 C :   -0.066517
  19 C :   -0.048187
  20 C :   -0.195992
  21 H :    0.021288
  22 C :   -0.035176
  23 H :    0.018436
  24 H :    0.034097
  25 C :   -0.024906
  26 H :    0.028192
  27 H :    0.026820
  28 C :   -0.081426
  29 H :    0.025731
  30 H :    0.028902
  31 H :    0.026850
  32 H :    0.035869
  33 H :    0.025962

  Mayer bond orders larger than 0.100000
B(  0-S ,  1-C ) :   1.1477 B(  0-S ,  4-C ) :   1.1603 B(  1-C ,  2-C ) :   1.6097
B(  1-C , 32-H ) :   0.9602 B(  2-C ,  3-C ) :   1.2561 B(  2-C ,  6-C ) :   1.0105
B(  3-C ,  4-C ) :   1.5537 B(  3-C ,  5-H ) :   0.9990 B(  4-C , 20-C ) :   1.0211
B(  6-C ,  7-H ) :   0.9410 B(  6-C ,  8-H ) :   0.9401 B(  6-C ,  9-C ) :   1.0784
B(  9-C , 10-H ) :   0.9497 B(  9-C , 11-H ) :   0.9496 B(  9-C , 12-C ) :   1.0832
B( 12-C , 13-H ) :   0.9721 B( 12-C , 14-H ) :   0.9716 B( 12-C , 15-H ) :   0.9732
B( 16-S , 17-C ) :   1.1698 B( 16-S , 20-C ) :   1.1504 B( 17-C , 18-C ) :   1.5936
B( 17-C , 20-C ) :   0.1009 B( 17-C , 33-H ) :   0.9649 B( 18-C , 19-C ) :   1.2615
B( 18-C , 21-H ) :   0.9995 B( 19-C , 20-C ) :   1.5711 B( 19-C , 22-C ) :   1.0417
B( 22-C , 23-H ) :   0.9373 B( 22-C , 24-H ) :   0.9335 B( 22-C , 25-C ) :   1.0592
B( 25-C , 26-H ) :   0.9561 B( 25-C , 27-H ) :   0.9639 B( 25-C , 28-C ) :   1.0540
B( 28-C , 29-H ) :   0.9762 B( 28-C , 30-H ) :   0.9804 B( 28-C , 31-H ) :   0.9784

Dispersion correction           -0.015364714
FINAL SINGLE POINT ENERGY     -1339.876507884194

DIPOLE MOMENT
-------------
                                X             Y             Z
Electronic contribution:     -4.44571       3.72140     -26.15595
Nuclear contribution   :      4.49555      -4.21723      26.71458
                        -----------------------------------------
Total Dipole Moment    :      0.04984      -0.49582       0.55863
                        -----------------------------------------
Magnitude (a.u.)       :      0.74859
Magnitude (Debye)      :      1.90278

Rotational constants in cm-1:     0.020480     0.008691     0.007317
Rotational constants in MHz :   613.960992   260.551547   219.343287

                             ****ORCA TERMINATED NORMALLY****
TOTAL RUN TIME: 0 days 0 hours 0 minutes 31 seconds 363 msec
