                         Program Version 4.2.1 -  RELEASE  -
|  1> ! wB97X-D3 SP def2-SVP
|  2> %pal
|  3> nprocs 16
|  4> end
|  5>
|  6> * xyz 0 1
|  7> S 	 24.7394 	 8.14025 	 66.6148
|  8> C 	 25.2076 	 9.8746 	 66.4988
|  9> C 	 24.3032 	 10.7265 	 67.2279
| 10> C 	 23.2644 	 9.97656 	 67.8829
| 11> C 	 23.2935 	 8.58835 	 67.6603
| 12> H 	 22.3844 	 10.3966 	 68.4274
| 13> C 	 24.4714 	 12.2337 	 67.3271
| 14> H 	 23.538 	 12.7672 	 67.0532
| 15> H 	 25.1988 	 12.4978 	 66.5796
| 16> C 	 24.9752 	 12.7947 	 68.6523
| 17> H 	 24.1003 	 12.9018 	 69.3811
| 18> H 	 25.5934 	 12.0632 	 69.0935
| 19> C 	 25.9774 	 13.9427 	 68.507
| 20> H 	 25.5466 	 14.8161 	 68.0236
| 21> H 	 26.293 	 14.3181 	 69.501
| 22> H 	 26.9544 	 13.5506 	 68.0946
| 23> S 	 21.5111 	 6.45325 	 67.3376
| 24> C 	 20.9163 	 5.66179 	 68.8055
| 25> C 	 21.5845 	 6.10331 	 69.9236
| 26> C 	 22.5198 	 7.12254 	 69.6342
| 27> C 	 22.4983 	 7.51996 	 68.2871
| 28> H 	 21.2705 	 5.548 	 70.8109
| 29> C 	 23.4388 	 7.70011 	 70.7562
| 30> H 	 24.4573 	 7.7621 	 70.3922
| 31> H 	 23.5977 	 6.92134 	 71.5031
| 32> C 	 22.9084 	 8.94612 	 71.4439
| 33> H 	 21.9583 	 8.7355 	 71.9489
| 34> H 	 22.7396 	 9.70078 	 70.6698
| 35> C 	 23.9451 	 9.46347 	 72.489
| 36> H 	 24.0694 	 8.7831 	 73.3254
| 37> H 	 23.7322 	 10.4609 	 72.8943
| 38> H 	 24.8831 	 9.56392 	 72.0245
| 39> H 	 26.0361 	 10.2371 	 65.9102
| 40> H 	 20.1686 	 4.87232 	 68.7984
| 41> *
| 42>
| 43>                          ****END OF INPUT****

CARTESIAN COORDINATES (ANGSTROEM)
---------------------------------
  S     24.739400    8.140250   66.614800
  C     25.207600    9.874600   66.498800
  C     24.303200   10.726500   67.227900
  C     23.264400    9.976560   67.882900
  C     23.293500    8.588350   67.660300
  H     22.384400   10.396600   68.427400
  C     24.471400   12.233700   67.327100
  H     23.538000   12.767200   67.053200
  H     25.198800   12.497800   66.579600
  C     24.975200   12.794700   68.652300
  H     24.100300   12.901800   69.381100
  H     25.593400   12.063200   69.093500
  C     25.977400   13.942700   68.507000
  H     25.546600   14.816100   68.023600
  H     26.293000   14.318100   69.501000
  H     26.954400   13.550600   68.094600
  S     21.511100    6.453250   67.337600
  C     20.916300    5.661790   68.805500
  C     21.584500    6.103310   69.923600
  C     22.519800    7.122540   69.634200
  C     22.498300    7.519960   68.287100
  H     21.270500    5.548000   70.810900
  C     23.438800    7.700110   70.756200
  H     24.457300    7.762100   70.392200
  H     23.597700    6.921340   71.503100
  C     22.908400    8.946120   71.443900
  H     21.958300    8.735500   71.948900
  H     22.739600    9.700780   70.669800
  C     23.945100    9.463470   72.489000
  H     24.069400    8.783100   73.325400
  H     23.732200   10.460900   72.894300
  H     24.883100    9.563920   72.024500
  H     26.036100   10.237100   65.910200
  H     20.168600    4.872320   68.798400

 Total Charge           Charge          ....    0
 Multiplicity           Mult            ....    1
 Number of Electrons    NEL             ....  134
 Basis Dimension        Dim             ....  322

ORBITAL ENERGIES
----------------

  NO   OCC          E(Eh)            E(eV)
   0   2.0000     -88.968498     -2420.9559
   1   2.0000     -88.966330     -2420.8969
   2   2.0000     -10.340167      -281.3703
   3   2.0000     -10.328666      -281.0573
   4   2.0000     -10.326319      -280.9934
   5   2.0000     -10.318544      -280.7818
   6   2.0000     -10.312144      -280.6077
   7   2.0000     -10.308516      -280.5090
   8   2.0000     -10.306184      -280.4455
   9   2.0000     -10.294484      -280.1271
  10   2.0000     -10.292557      -280.0747
  11   2.0000     -10.289460      -279.9904
  12   2.0000     -10.287534      -279.9380
  13   2.0000     -10.286728      -279.9161
  14   2.0000     -10.286564      -279.9116
  15   2.0000     -10.273417      -279.5539
  16   2.0000      -8.081065      -219.8970
  17   2.0000      -8.080912      -219.8928
  18   2.0000      -6.039485      -164.3427
  19   2.0000      -6.039464      -164.3422
  20   2.0000      -6.035786      -164.2421
  21   2.0000      -6.035546      -164.2356
  22   2.0000      -6.031962      -164.1380
  23   2.0000      -6.031704      -164.1310
  24   2.0000      -0.999261       -27.1913
  25   2.0000      -0.969399       -26.3787
  26   2.0000      -0.910515       -24.7764
  27   2.0000      -0.904211       -24.6048
  28   2.0000      -0.865504       -23.5516
  29   2.0000      -0.846206       -23.0264
  30   2.0000      -0.842928       -22.9372
  31   2.0000      -0.813833       -22.1455
  32   2.0000      -0.780485       -21.2381
  33   2.0000      -0.766944       -20.8696
  34   2.0000      -0.707377       -19.2487
  35   2.0000      -0.698242       -19.0001
  36   2.0000      -0.691585       -18.8190
  37   2.0000      -0.655542       -17.8382
  38   2.0000      -0.642842       -17.4926
  39   2.0000      -0.615389       -16.7456
  40   2.0000      -0.592686       -16.1278
  41   2.0000      -0.574201       -15.6248
  42   2.0000      -0.563983       -15.3468
  43   2.0000      -0.554318       -15.0838
  44   2.0000      -0.522417       -14.2157
  45   2.0000      -0.518730       -14.1154
  46   2.0000      -0.513971       -13.9859
  47   2.0000      -0.510453       -13.8901
  48   2.0000      -0.505348       -13.7512
  49   2.0000      -0.497473       -13.5369
  50   2.0000      -0.491922       -13.3859
  51   2.0000      -0.475502       -12.9391
  52   2.0000      -0.469081       -12.7643
  53   2.0000      -0.462995       -12.5987
  54   2.0000      -0.456520       -12.4225
  55   2.0000      -0.441843       -12.0232
  56   2.0000      -0.439459       -11.9583
  57   2.0000      -0.438414       -11.9299
  58   2.0000      -0.432403       -11.7663
  59   2.0000      -0.427112       -11.6223
  60   2.0000      -0.420520       -11.4429
  61   2.0000      -0.415495       -11.3062
  62   2.0000      -0.413339       -11.2475
  63   2.0000      -0.340942        -9.2775
  64   2.0000      -0.332649        -9.0518
  65   2.0000      -0.325517        -8.8578
  66   2.0000      -0.297338        -8.0910
  67   0.0000       0.029507         0.8029
  68   0.0000       0.052584         1.4309
  69   0.0000       0.109153         2.9702
  70   0.0000       0.115568         3.1448
  71   0.0000       0.121525         3.3069

MULLIKEN ATOMIC CHARGES
-----------------------
   0 S :    0.093054
   1 C :   -0.118554
   2 C :   -0.110436
   3 C :    0.031187
   4 C :   -0.158024
   5 H :    0.048384
   6 C :    0.080081
   7 H :    0.040796
   8 H :    0.003781
   9 C :   -0.068418
  10 H :    0.041417
  11 H :    0.016032
  12 C :   -0.077212
  13 H :    0.040004
  14 H :    0.030203
  15 H :    0.046771
  16 S :    0.111144
  17 C :   -0.112366
  18 C :   -0.035040
  19 C :   -0.005350
  20 C :   -0.182998
  21 H :    0.027786
  22 C :    0.068630
  23 H :    0.025638
  24 H :    0.007770
  25 C :   -0.052275
  26 H :    0.031138
  27 H :    0.019239
  28 C :   -0.026149
  29 H :    0.027806
  30 H :    0.030572
  31 H :    0.015414
  32 H :    0.053003
  33 H :    0.056975
Sum of atomic charges:   -0.0000000

LOEWDIN ATOMIC CHARGES
----------------------
   0 S :    0.353746
   1 C :   -0.182513
   2 C :   -0.058853
   3 C :   -0.062413
   4 C :   -0.166225
   5 H :    0.042422
   6 C :   -0.035388
   7 H :    0.035753
   8 H :    0.026824
   9 C :   -0.050564
  10 H :    0.030251
  11 H :    0.020063
  12 C :   -0.068502
  13 H :    0.022191
  14 H :    0.029273
  15 H :    0.035744
  16 S :    0.405951
  17 C :   -0.175965
  18 C :   -0.076875
  19 C :   -0.045633
  20 C :   -0.218647
  21 H :    0.040269
  22 C :   -0.031257
  23 H :    0.030547
  24 H :    0.027995
  25 C :   -0.035132
  26 H :    0.025381
  27 H :    0.020940
  28 C :   -0.062005
  29 H :    0.023420
  30 H :    0.026730
  31 H :    0.017987
  32 H :    0.025829
  33 H :    0.028658

  Mayer bond orders larger than 0.100000
B(  0-S ,  1-C ) :   1.1384 B(  0-S ,  4-C ) :   1.1258 B(  1-C ,  2-C ) :   1.5987
B(  1-C ,  4-C ) :   0.1107 B(  1-C , 32-H ) :   0.9662 B(  2-C ,  3-C ) :   1.2271
B(  2-C ,  6-C ) :   1.0471 B(  3-C ,  4-C ) :   1.6086 B(  3-C ,  5-H ) :   0.9729
B(  4-C , 20-C ) :   1.0365 B(  6-C ,  7-H ) :   0.9361 B(  6-C ,  8-H ) :   0.9368
B(  6-C ,  9-C ) :   1.0510 B(  9-C , 10-H ) :   0.9532 B(  9-C , 11-H ) :   0.9559
B(  9-C , 12-C ) :   1.0861 B( 12-C , 13-H ) :   0.9775 B( 12-C , 14-H ) :   0.9726
B( 12-C , 15-H ) :   0.9712 B( 16-S , 17-C ) :   1.1596 B( 16-S , 20-C ) :   1.1480
B( 17-C , 18-C ) :   1.6148 B( 17-C , 20-C ) :   0.1004 B( 17-C , 33-H ) :   0.9663
B( 18-C , 19-C ) :   1.2363 B( 18-C , 21-H ) :   0.9928 B( 19-C , 20-C ) :   1.5724
B( 19-C , 22-C ) :   1.0292 B( 22-C , 23-H ) :   0.9319 B( 22-C , 24-H ) :   0.9373
B( 22-C , 25-C ) :   1.0646 B( 25-C , 26-H ) :   0.9548 B( 25-C , 27-H ) :   0.9514
B( 25-C , 28-C ) :   1.0801 B( 28-C , 29-H ) :   0.9760 B( 28-C , 30-H ) :   0.9744
B( 28-C , 31-H ) :   0.9739

Dispersion correction           -0.014500780
FINAL SINGLE POINT ENERGY     -1339.874924619597

DIPOLE MOMENT
-------------
                                X             Y             Z
Electronic contribution:     -9.58180     -24.13952     -19.83010
Nuclear contribution   :      9.67926      24.48148      20.38891
                        -----------------------------------------
Total Dipole Moment    :      0.09746       0.34196       0.55881
                        -----------------------------------------
Magnitude (a.u.)       :      0.66235
Magnitude (Debye)      :      1.68356

Rotational constants in cm-1:     0.018956     0.008729     0.006604
Rotational constants in MHz :   568.276752   261.702492   197.977288

                             ****ORCA TERMINATED NORMALLY****
TOTAL RUN TIME: 0 days 0 hours 0 minutes 29 seconds 981 msec
