                         Program Version 4.2.1 -  RELEASE  -
|  1> ! wB97X-D3 SP def2-SVP
|  2> %pal
|  3> nprocs 16
|  4> end
|  5>
|  6> * xyz 0 1
|  7> S 	 -21.2171 	 1.84329 	 76.4114
|  8> C 	 -20.49 	 0.378542 	 77.0617
|  9> C 	 -21.4457 	 -0.5533 	 77.4138
| 10> C 	 -22.7326 	 0.0118787 	 77.3979
| 11> C 	 -22.7596 	 1.35827 	 76.9468
| 12> H 	 -23.6257 	 -0.412002 	 77.8616
| 13> C 	 -21.1394 	 -1.98984 	 77.8875
| 14> H 	 -21.8265 	 -2.27217 	 78.7335
| 15> H 	 -20.0653 	 -2.03522 	 78.291
| 16> C 	 -21.3352 	 -3.05341 	 76.782
| 17> H 	 -20.7158 	 -2.87024 	 76.0232
| 18> H 	 -21.0526 	 -4.00213 	 77.185
| 19> C 	 -22.7193 	 -3.19914 	 76.3109
| 20> H 	 -22.9168 	 -2.36282 	 75.6945
| 21> H 	 -22.8032 	 -4.17072 	 75.8192
| 22> H 	 -23.3976 	 -3.08495 	 77.1254
| 23> S 	 -23.4788 	 3.8679 	 77.9124
| 24> C 	 -25.1134 	 4.37438 	 77.9639
| 25> C 	 -25.9116 	 3.3633 	 77.6315
| 26> C 	 -25.1859 	 2.22083 	 77.1497
| 27> C 	 -23.8143 	 2.32376 	 77.2054
| 28> H 	 -26.9824 	 3.54941 	 77.6581
| 29> C 	 -25.9372 	 1.20744 	 76.4295
| 30> H 	 -25.3089 	 0.738877 	 75.7097
| 31> H 	 -26.7104 	 1.72762 	 75.8374
| 32> C 	 -26.6436 	 0.129331 	 77.3514
| 33> H 	 -27.5034 	 0.573033 	 77.8482
| 34> H 	 -25.8828 	 -0.186896 	 78.1028
| 35> C 	 -26.9698 	 -1.10253 	 76.5201
| 36> H 	 -27.9683 	 -1.68549 	 76.7414
| 37> H 	 -26.2395 	 -1.86381 	 76.7648
| 38> H 	 -26.8378 	 -1.00283 	 75.4241
| 39> H 	 -19.397 	 0.15143 	 76.9034
| 40> H 	 -25.546 	 5.36712 	 78.2012
| 41> *
| 42>
| 43>                          ****END OF INPUT****

CARTESIAN COORDINATES (ANGSTROEM)
---------------------------------
  S    -21.217100    1.843290   76.411400
  C    -20.490000    0.378542   77.061700
  C    -21.445700   -0.553300   77.413800
  C    -22.732600    0.011879   77.397900
  C    -22.759600    1.358270   76.946800
  H    -23.625700   -0.412002   77.861600
  C    -21.139400   -1.989840   77.887500
  H    -21.826500   -2.272170   78.733500
  H    -20.065300   -2.035220   78.291000
  C    -21.335200   -3.053410   76.782000
  H    -20.715800   -2.870240   76.023200
  H    -21.052600   -4.002130   77.185000
  C    -22.719300   -3.199140   76.310900
  H    -22.916800   -2.362820   75.694500
  H    -22.803200   -4.170720   75.819200
  H    -23.397600   -3.084950   77.125400
  S    -23.478800    3.867900   77.912400
  C    -25.113400    4.374380   77.963900
  C    -25.911600    3.363300   77.631500
  C    -25.185900    2.220830   77.149700
  C    -23.814300    2.323760   77.205400
  H    -26.982400    3.549410   77.658100
  C    -25.937200    1.207440   76.429500
  H    -25.308900    0.738877   75.709700
  H    -26.710400    1.727620   75.837400
  C    -26.643600    0.129331   77.351400
  H    -27.503400    0.573033   77.848200
  H    -25.882800   -0.186896   78.102800
  C    -26.969800   -1.102530   76.520100
  H    -27.968300   -1.685490   76.741400
  H    -26.239500   -1.863810   76.764800
  H    -26.837800   -1.002830   75.424100
  H    -19.397000    0.151430   76.903400
  H    -25.546000    5.367120   78.201200

 Total Charge           Charge          ....    0
 Multiplicity           Mult            ....    1
 Number of Electrons    NEL             ....  134
 Basis Dimension        Dim             ....  322

ORBITAL ENERGIES
----------------

  NO   OCC          E(Eh)            E(eV)
   0   2.0000     -88.970608     -2421.0133
   1   2.0000     -88.958757     -2420.6908
   2   2.0000     -10.332739      -281.1681
   3   2.0000     -10.323364      -280.9130
   4   2.0000     -10.320783      -280.8428
   5   2.0000     -10.310061      -280.5510
   6   2.0000     -10.305676      -280.4317
   7   2.0000     -10.305087      -280.4157
   8   2.0000     -10.299675      -280.2684
   9   2.0000     -10.292910      -280.0843
  10   2.0000     -10.291580      -280.0481
  11   2.0000     -10.284885      -279.8659
  12   2.0000     -10.284158      -279.8462
  13   2.0000     -10.282764      -279.8082
  14   2.0000     -10.269428      -279.4453
  15   2.0000     -10.266633      -279.3693
  16   2.0000      -8.085964      -220.0303
  17   2.0000      -8.074756      -219.7253
  18   2.0000      -6.044315      -164.4742
  19   2.0000      -6.040300      -164.3649
  20   2.0000      -6.036931      -164.2733
  21   2.0000      -6.033351      -164.1758
  22   2.0000      -6.028993      -164.0572
  23   2.0000      -6.025400      -163.9595
  24   2.0000      -1.016471       -27.6596
  25   2.0000      -0.994196       -27.0535
  26   2.0000      -0.921173       -25.0664
  27   2.0000      -0.909370       -24.7452
  28   2.0000      -0.878278       -23.8992
  29   2.0000      -0.854448       -23.2507
  30   2.0000      -0.847461       -23.0606
  31   2.0000      -0.817581       -22.2475
  32   2.0000      -0.783906       -21.3312
  33   2.0000      -0.765690       -20.8355
  34   2.0000      -0.705654       -19.2018
  35   2.0000      -0.704232       -19.1631
  36   2.0000      -0.696088       -18.9415
  37   2.0000      -0.661202       -17.9922
  38   2.0000      -0.637030       -17.3345
  39   2.0000      -0.619495       -16.8573
  40   2.0000      -0.596179       -16.2229
  41   2.0000      -0.583446       -15.8764
  42   2.0000      -0.561055       -15.2671
  43   2.0000      -0.558068       -15.1858
  44   2.0000      -0.548836       -14.9346
  45   2.0000      -0.524007       -14.2590
  46   2.0000      -0.516282       -14.0488
  47   2.0000      -0.511579       -13.9208
  48   2.0000      -0.508038       -13.8244
  49   2.0000      -0.495682       -13.4882
  50   2.0000      -0.489754       -13.3269
  51   2.0000      -0.484165       -13.1748
  52   2.0000      -0.477762       -13.0006
  53   2.0000      -0.466213       -12.6863
  54   2.0000      -0.461366       -12.5544
  55   2.0000      -0.449571       -12.2335
  56   2.0000      -0.439587       -11.9618
  57   2.0000      -0.436673       -11.8825
  58   2.0000      -0.434664       -11.8278
  59   2.0000      -0.428248       -11.6532
  60   2.0000      -0.419067       -11.4034
  61   2.0000      -0.414350       -11.2750
  62   2.0000      -0.409436       -11.1413
  63   2.0000      -0.355446        -9.6722
  64   2.0000      -0.337278        -9.1778
  65   2.0000      -0.322933        -8.7875
  66   2.0000      -0.289946        -7.8898
  67   0.0000       0.021279         0.5790
  68   0.0000       0.085117         2.3161
  69   0.0000       0.112868         3.0713
  70   0.0000       0.118235         3.2173
  71   0.0000       0.127155         3.4601

MULLIKEN ATOMIC CHARGES
-----------------------
   0 S :    0.122692
   1 C :   -0.152792
   2 C :   -0.072468
   3 C :    0.030909
   4 C :   -0.166821
   5 H :    0.003393
   6 C :    0.002818
   7 H :    0.038152
   8 H :    0.040859
   9 C :   -0.001728
  10 H :   -0.006397
  11 H :    0.013463
  12 C :   -0.021713
  13 H :    0.030645
  14 H :    0.041598
  15 H :    0.009336
  16 S :    0.098813
  17 C :   -0.092983
  18 C :   -0.031566
  19 C :   -0.055777
  20 C :   -0.099168
  21 H :    0.018307
  22 C :    0.028767
  23 H :    0.014744
  24 H :    0.032956
  25 C :   -0.060914
  26 H :    0.037145
  27 H :    0.038173
  28 C :   -0.087830
  29 H :    0.047698
  30 H :    0.023257
  31 H :    0.042578
  32 H :    0.070115
  33 H :    0.063738
Sum of atomic charges:    0.0000000

LOEWDIN ATOMIC CHARGES
----------------------
   0 S :    0.430419
   1 C :   -0.201052
   2 C :   -0.068803
   3 C :   -0.060652
   4 C :   -0.207127
   5 H :    0.029633
   6 C :   -0.028920
   7 H :    0.032719
   8 H :    0.038618
   9 C :   -0.030349
  10 H :    0.006055
  11 H :    0.021096
  12 C :   -0.055342
  13 H :    0.022189
  14 H :    0.032818
  15 H :    0.016779
  16 S :    0.417388
  17 C :   -0.197744
  18 C :   -0.077243
  19 C :   -0.067150
  20 C :   -0.207504
  21 H :    0.033675
  22 C :   -0.032091
  23 H :    0.022459
  24 H :    0.034986
  25 C :   -0.036803
  26 H :    0.023725
  27 H :    0.024579
  28 C :   -0.086164
  29 H :    0.037331
  30 H :    0.024321
  31 H :    0.027830
  32 H :    0.037490
  33 H :    0.042834

  Mayer bond orders larger than 0.100000
B(  0-S ,  1-C ) :   1.1489 B(  0-S ,  4-C ) :   1.1803 B(  1-C ,  2-C ) :   1.5906
B(  1-C , 32-H ) :   0.9583 B(  2-C ,  3-C ) :   1.2832 B(  2-C ,  6-C ) :   1.0086
B(  3-C ,  4-C ) :   1.5157 B(  3-C ,  5-H ) :   0.9853 B(  4-C , 20-C ) :   1.0500
B(  6-C ,  7-H ) :   0.9468 B(  6-C ,  8-H ) :   0.9467 B(  6-C ,  9-C ) :   1.0750
B(  9-C , 10-H ) :   0.9478 B(  9-C , 11-H ) :   0.9521 B(  9-C , 12-C ) :   1.0913
B( 12-C , 13-H ) :   0.9694 B( 12-C , 14-H ) :   0.9698 B( 12-C , 15-H ) :   0.9710
B( 16-S , 17-C ) :   1.1535 B( 16-S , 20-C ) :   1.1204 B( 17-C , 18-C ) :   1.6345
B( 17-C , 33-H ) :   0.9595 B( 18-C , 19-C ) :   1.2253 B( 18-C , 21-H ) :   0.9927
B( 19-C , 20-C ) :   1.5898 B( 19-C , 22-C ) :   1.0677 B( 22-C , 23-H ) :   0.9432
B( 22-C , 24-H ) :   0.9362 B( 22-C , 25-C ) :   1.0409 B( 25-C , 26-H ) :   0.9581
B( 25-C , 27-H ) :   0.9676 B( 25-C , 28-C ) :   1.0553 B( 28-C , 29-H ) :   0.9739
B( 28-C , 30-H ) :   0.9782 B( 28-C , 31-H ) :   0.9758

Dispersion correction           -0.015066116
FINAL SINGLE POINT ENERGY     -1339.860205916709

DIPOLE MOMENT
-------------
                                X             Y             Z
Electronic contribution:     12.44996      28.39912       2.41992
Nuclear contribution   :    -12.70370     -28.93391      -2.42919
                        -----------------------------------------
Total Dipole Moment    :     -0.25374      -0.53478      -0.00927
                        -----------------------------------------
Magnitude (a.u.)       :      0.59200
Magnitude (Debye)      :      1.50474

Rotational constants in cm-1:     0.017902     0.010340     0.006978
Rotational constants in MHz :   536.675335   309.973358   209.193091

                             ****ORCA TERMINATED NORMALLY****
TOTAL RUN TIME: 0 days 0 hours 0 minutes 35 seconds 538 msec
