                         Program Version 4.2.1 -  RELEASE  -
|  1> ! wB97X-D3 SP def2-SVP
|  2> %pal
|  3> nprocs 16
|  4> end
|  5>
|  6> * xyz 0 1
|  7> S 	 -117.967 	 46.0095 	 131.013
|  8> C 	 -118.015 	 46.0789 	 132.703
|  9> C 	 -116.771 	 46.5336 	 133.141
| 10> C 	 -115.803 	 46.4758 	 132.125
| 11> C 	 -116.251 	 46.2625 	 130.861
| 12> H 	 -114.735 	 46.7087 	 132.275
| 13> C 	 -116.475 	 46.8116 	 134.572
| 14> H 	 -117.339 	 47.3601 	 134.872
| 15> H 	 -115.63 	 47.5171 	 134.649
| 16> C 	 -116.276 	 45.5349 	 135.422
| 17> H 	 -116.345 	 45.6918 	 136.535
| 18> H 	 -117.159 	 44.8469 	 135.3
| 19> C 	 -114.953 	 44.8322 	 135.016
| 20> H 	 -114.211 	 45.522 	 135.312
| 21> H 	 -114.803 	 43.9544 	 135.685
| 22> H 	 -114.856 	 44.5993 	 134.003
| 23> S 	 -115.127 	 44.3876 	 129.15
| 24> C 	 -114.008 	 44.851 	 127.87
| 25> C 	 -113.94 	 46.2464 	 127.844
| 26> C 	 -114.715 	 46.8782 	 128.85
| 27> C 	 -115.401 	 46.03 	 129.686
| 28> H 	 -113.381 	 46.8463 	 127.148
| 29> C 	 -114.71 	 48.3934 	 129.038
| 30> H 	 -113.669 	 48.6824 	 128.873
| 31> H 	 -114.859 	 48.5728 	 130.061
| 32> C 	 -115.557 	 49.2623 	 128.059
| 33> H 	 -115.477 	 48.9677 	 127.036
| 34> H 	 -115.363 	 50.3096 	 128.125
| 35> C 	 -117.034 	 49.1453 	 128.492
| 36> H 	 -117.17 	 49.2675 	 129.549
| 37> H 	 -117.424 	 48.2257 	 128.2
| 38> H 	 -117.639 	 49.862 	 127.894
| 39> H 	 -118.891 	 46.0203 	 133.332
| 40> H 	 -113.347 	 44.1878 	 127.253
| 41> *
| 42>
| 43>                          ****END OF INPUT****

CARTESIAN COORDINATES (ANGSTROEM)
---------------------------------
  S    -117.967000   46.009500  131.013000
  C    -118.015000   46.078900  132.703000
  C    -116.771000   46.533600  133.141000
  C    -115.803000   46.475800  132.125000
  C    -116.251000   46.262500  130.861000
  H    -114.735000   46.708700  132.275000
  C    -116.475000   46.811600  134.572000
  H    -117.339000   47.360100  134.872000
  H    -115.630000   47.517100  134.649000
  C    -116.276000   45.534900  135.422000
  H    -116.345000   45.691800  136.535000
  H    -117.159000   44.846900  135.300000
  C    -114.953000   44.832200  135.016000
  H    -114.211000   45.522000  135.312000
  H    -114.803000   43.954400  135.685000
  H    -114.856000   44.599300  134.003000
  S    -115.127000   44.387600  129.150000
  C    -114.008000   44.851000  127.870000
  C    -113.940000   46.246400  127.844000
  C    -114.715000   46.878200  128.850000
  C    -115.401000   46.030000  129.686000
  H    -113.381000   46.846300  127.148000
  C    -114.710000   48.393400  129.038000
  H    -113.669000   48.682400  128.873000
  H    -114.859000   48.572800  130.061000
  C    -115.557000   49.262300  128.059000
  H    -115.477000   48.967700  127.036000
  H    -115.363000   50.309600  128.125000
  C    -117.034000   49.145300  128.492000
  H    -117.170000   49.267500  129.549000
  H    -117.424000   48.225700  128.200000
  H    -117.639000   49.862000  127.894000
  H    -118.891000   46.020300  133.332000
  H    -113.347000   44.187800  127.253000

 Total Charge           Charge          ....    0
 Multiplicity           Mult            ....    1
 Number of Electrons    NEL             ....  134
 Basis Dimension        Dim             ....  322

ORBITAL ENERGIES
----------------

  NO   OCC          E(Eh)            E(eV)
   0   2.0000     -88.965906     -2420.8854
   1   2.0000     -88.964896     -2420.8579
   2   2.0000     -10.327291      -281.0199
   3   2.0000     -10.327263      -281.0191
   4   2.0000     -10.326863      -281.0082
   5   2.0000     -10.313538      -280.6456
   6   2.0000     -10.300203      -280.2828
   7   2.0000     -10.295868      -280.1648
   8   2.0000     -10.294813      -280.1361
   9   2.0000     -10.294374      -280.1242
  10   2.0000     -10.290675      -280.0235
  11   2.0000     -10.288711      -279.9701
  12   2.0000     -10.285608      -279.8856
  13   2.0000     -10.281382      -279.7706
  14   2.0000     -10.270628      -279.4780
  15   2.0000     -10.262737      -279.2633
  16   2.0000      -8.081465      -219.9079
  17   2.0000      -8.079376      -219.8510
  18   2.0000      -6.039817      -164.3518
  19   2.0000      -6.037911      -164.2999
  20   2.0000      -6.035647      -164.2383
  21   2.0000      -6.033754      -164.1868
  22   2.0000      -6.032512      -164.1530
  23   2.0000      -6.030247      -164.0914
  24   2.0000      -1.014856       -27.6156
  25   2.0000      -0.990997       -26.9664
  26   2.0000      -0.912823       -24.8392
  27   2.0000      -0.904485       -24.6123
  28   2.0000      -0.872034       -23.7292
  29   2.0000      -0.848013       -23.0756
  30   2.0000      -0.845249       -23.0004
  31   2.0000      -0.819436       -22.2980
  32   2.0000      -0.780892       -21.2492
  33   2.0000      -0.769571       -20.9411
  34   2.0000      -0.705067       -19.1859
  35   2.0000      -0.702559       -19.1176
  36   2.0000      -0.697754       -18.9868
  37   2.0000      -0.663175       -18.0459
  38   2.0000      -0.645675       -17.5697
  39   2.0000      -0.616160       -16.7666
  40   2.0000      -0.594159       -16.1679
  41   2.0000      -0.574827       -15.6418
  42   2.0000      -0.553214       -15.0537
  43   2.0000      -0.549419       -14.9505
  44   2.0000      -0.542673       -14.7669
  45   2.0000      -0.541760       -14.7420
  46   2.0000      -0.520579       -14.1657
  47   2.0000      -0.514730       -14.0065
  48   2.0000      -0.505910       -13.7665
  49   2.0000      -0.496107       -13.4998
  50   2.0000      -0.494374       -13.4526
  51   2.0000      -0.476061       -12.9543
  52   2.0000      -0.470993       -12.8164
  53   2.0000      -0.465973       -12.6798
  54   2.0000      -0.461194       -12.5497
  55   2.0000      -0.444198       -12.0872
  56   2.0000      -0.440664       -11.9911
  57   2.0000      -0.436450       -11.8764
  58   2.0000      -0.428146       -11.6505
  59   2.0000      -0.427116       -11.6224
  60   2.0000      -0.417176       -11.3519
  61   2.0000      -0.411402       -11.1948
  62   2.0000      -0.410053       -11.1581
  63   2.0000      -0.342473        -9.3192
  64   2.0000      -0.328548        -8.9402
  65   2.0000      -0.323657        -8.8072
  66   2.0000      -0.308041        -8.3822
  67   0.0000       0.039710         1.0806
  68   0.0000       0.054213         1.4752
  69   0.0000       0.116567         3.1720
  70   0.0000       0.125474         3.4143
  71   0.0000       0.130953         3.5634

MULLIKEN ATOMIC CHARGES
-----------------------
   0 S :    0.128979
   1 C :   -0.115423
   2 C :   -0.120939
   3 C :    0.030254
   4 C :   -0.172088
   5 H :    0.022173
   6 C :    0.079996
   7 H :    0.015651
   8 H :    0.026333
   9 C :   -0.092585
  10 H :    0.035444
  11 H :    0.025825
  12 C :   -0.023766
  13 H :    0.013548
  14 H :    0.035866
  15 H :    0.044602
  16 S :    0.110915
  17 C :   -0.107083
  18 C :   -0.019580
  19 C :   -0.053496
  20 C :   -0.166881
  21 H :    0.011039
  22 C :    0.084937
  23 H :    0.014105
  24 H :    0.007281
  25 C :   -0.028481
  26 H :    0.022008
  27 H :    0.025878
  28 C :   -0.042070
  29 H :    0.031691
  30 H :    0.013802
  31 H :    0.024290
  32 H :    0.055457
  33 H :    0.082318
Sum of atomic charges:    0.0000000

LOEWDIN ATOMIC CHARGES
----------------------
   0 S :    0.443990
   1 C :   -0.207514
   2 C :   -0.072570
   3 C :   -0.065742
   4 C :   -0.213858
   5 H :    0.034965
   6 C :   -0.035849
   7 H :    0.027802
   8 H :    0.031016
   9 C :   -0.042501
  10 H :    0.027154
  11 H :    0.023159
  12 C :   -0.057270
  13 H :    0.019451
  14 H :    0.032402
  15 H :    0.019520
  16 S :    0.409506
  17 C :   -0.189048
  18 C :   -0.072842
  19 C :   -0.056672
  20 C :   -0.202597
  21 H :    0.028253
  22 C :   -0.024822
  23 H :    0.029278
  24 H :    0.021716
  25 C :   -0.028538
  26 H :    0.021427
  27 H :    0.021456
  28 C :   -0.059199
  29 H :    0.021211
  30 H :    0.012570
  31 H :    0.026159
  32 H :    0.032441
  33 H :    0.045547

  Mayer bond orders larger than 0.100000
B(  0-S ,  1-C ) :   1.1847 B(  0-S ,  4-C ) :   1.1602 B(  1-C ,  2-C ) :   1.5387
B(  1-C ,  4-C ) :   0.1028 B(  1-C , 32-H ) :   0.9703 B(  2-C ,  3-C ) :   1.2898
B(  2-C ,  6-C ) :   1.0302 B(  3-C ,  4-C ) :   1.5562 B(  3-C ,  5-H ) :   0.9843
B(  4-C , 20-C ) :   1.0131 B(  6-C ,  7-H ) :   0.9276 B(  6-C ,  8-H ) :   0.9472
B(  6-C ,  9-C ) :   1.0676 B(  9-C , 10-H ) :   0.9577 B(  9-C , 11-H ) :   0.9556
B(  9-C , 12-C ) :   1.0654 B( 12-C , 13-H ) :   0.9750 B( 12-C , 14-H ) :   0.9718
B( 12-C , 15-H ) :   0.9772 B( 16-S , 17-C ) :   1.1664 B( 16-S , 20-C ) :   1.1427
B( 17-C , 18-C ) :   1.5686 B( 17-C , 20-C ) :   0.1020 B( 17-C , 33-H ) :   0.9627
B( 18-C , 19-C ) :   1.2831 B( 18-C , 21-H ) :   0.9869 B( 19-C , 20-C ) :   1.5953
B( 19-C , 22-C ) :   1.0297 B( 22-C , 23-H ) :   0.9326 B( 22-C , 24-H ) :   0.9375
B( 22-C , 25-C ) :   1.0698 B( 25-C , 26-H ) :   0.9571 B( 25-C , 27-H ) :   0.9595
B( 25-C , 28-C ) :   1.0744 B( 28-C , 29-H ) :   0.9774 B( 28-C , 30-H ) :   0.9784
B( 28-C , 31-H ) :   0.9733

Dispersion correction           -0.015442120
FINAL SINGLE POINT ENERGY     -1339.875161562104

DIPOLE MOMENT
-------------
                                X             Y             Z
Electronic contribution:     -3.74693     -12.25087     -11.04251
Nuclear contribution   :      4.04976      12.62612      11.32252
                        -----------------------------------------
Total Dipole Moment    :      0.30283       0.37525       0.28001
                        -----------------------------------------
Magnitude (a.u.)       :      0.55760
Magnitude (Debye)      :      1.41732

Rotational constants in cm-1:     0.020418     0.008762     0.007588
Rotational constants in MHz :   612.105033   262.673450   227.486525

                             ****ORCA TERMINATED NORMALLY****
TOTAL RUN TIME: 0 days 0 hours 0 minutes 33 seconds 2 msec
