                         Program Version 4.2.1 -  RELEASE  -
|  1> ! wB97X-D3 SP def2-SVP
|  2> %pal
|  3> nprocs 16
|  4> end
|  5>
|  6> * xyz 0 1
|  7> S 	 -15.8864 	 -0.565732 	 80.5929
|  8> C 	 -15.3494 	 -0.963939 	 82.2102
|  9> C 	 -16.1809 	 -0.604691 	 83.166
| 10> C 	 -17.4929 	 -0.32085 	 82.6074
| 11> C 	 -17.4986 	 -0.423196 	 81.2284
| 12> H 	 -18.3829 	 -0.00865741 	 83.1604
| 13> C 	 -15.9345 	 -0.479572 	 84.6574
| 14> H 	 -16.8712 	 -0.781804 	 85.1931
| 15> H 	 -15.763 	 0.574282 	 84.9689
| 16> C 	 -14.8488 	 -1.33045 	 85.1762
| 17> H 	 -15.1731 	 -2.35008 	 85.0158
| 18> H 	 -14.0416 	 -1.0131 	 84.5777
| 19> C 	 -14.4437 	 -1.08152 	 86.6406
| 20> H 	 -15.3178 	 -1.37208 	 87.3279
| 21> H 	 -13.5819 	 -1.57337 	 86.9682
| 22> H 	 -14.2253 	 0.00191524 	 86.7335
| 23> S 	 -18.4486 	 1.43939 	 79.4296
| 24> C 	 -19.9279 	 0.980977 	 78.4879
| 25> C 	 -20.6145 	 0.0664635 	 79.2512
| 26> C 	 -19.8465 	 -0.640987 	 80.2544
| 27> C 	 -18.5811 	 -0.0117304 	 80.3879
| 28> H 	 -21.5689 	 -0.261017 	 78.9203
| 29> C 	 -20.3532 	 -1.85127 	 81.0167
| 30> H 	 -19.6425 	 -2.0341 	 81.8062
| 31> H 	 -20.2237 	 -2.67093 	 80.3237
| 32> C 	 -21.7235 	 -1.7776 	 81.6125
| 33> H 	 -22.3859 	 -1.30278 	 80.8855
| 34> H 	 -21.6947 	 -1.06095 	 82.4013
| 35> C 	 -22.3756 	 -3.16611 	 82.1065
| 36> H 	 -23.4277 	 -3.01729 	 82.2932
| 37> H 	 -22.0032 	 -3.67171 	 82.9717
| 38> H 	 -22.3452 	 -3.88872 	 81.2844
| 39> H 	 -14.256 	 -1.22306 	 82.3744
| 40> H 	 -20.5549 	 1.58769 	 77.8574
| 41> *
| 42>
| 43>                          ****END OF INPUT****

CARTESIAN COORDINATES (ANGSTROEM)
---------------------------------
  S    -15.886400   -0.565732   80.592900
  C    -15.349400   -0.963939   82.210200
  C    -16.180900   -0.604691   83.166000
  C    -17.492900   -0.320850   82.607400
  C    -17.498600   -0.423196   81.228400
  H    -18.382900   -0.008657   83.160400
  C    -15.934500   -0.479572   84.657400
  H    -16.871200   -0.781804   85.193100
  H    -15.763000    0.574282   84.968900
  C    -14.848800   -1.330450   85.176200
  H    -15.173100   -2.350080   85.015800
  H    -14.041600   -1.013100   84.577700
  C    -14.443700   -1.081520   86.640600
  H    -15.317800   -1.372080   87.327900
  H    -13.581900   -1.573370   86.968200
  H    -14.225300    0.001915   86.733500
  S    -18.448600    1.439390   79.429600
  C    -19.927900    0.980977   78.487900
  C    -20.614500    0.066463   79.251200
  C    -19.846500   -0.640987   80.254400
  C    -18.581100   -0.011730   80.387900
  H    -21.568900   -0.261017   78.920300
  C    -20.353200   -1.851270   81.016700
  H    -19.642500   -2.034100   81.806200
  H    -20.223700   -2.670930   80.323700
  C    -21.723500   -1.777600   81.612500
  H    -22.385900   -1.302780   80.885500
  H    -21.694700   -1.060950   82.401300
  C    -22.375600   -3.166110   82.106500
  H    -23.427700   -3.017290   82.293200
  H    -22.003200   -3.671710   82.971700
  H    -22.345200   -3.888720   81.284400
  H    -14.256000   -1.223060   82.374400
  H    -20.554900    1.587690   77.857400

 Total Charge           Charge          ....    0
 Multiplicity           Mult            ....    1
 Number of Electrons    NEL             ....  134
 Basis Dimension        Dim             ....  322

ORBITAL ENERGIES
----------------

  NO   OCC          E(Eh)            E(eV)
   0   2.0000     -88.965379     -2420.8710
   1   2.0000     -88.964051     -2420.8349
   2   2.0000     -10.325787      -280.9789
   3   2.0000     -10.324594      -280.9465
   4   2.0000     -10.315312      -280.6939
   5   2.0000     -10.312834      -280.6265
   6   2.0000     -10.304588      -280.4021
   7   2.0000     -10.299094      -280.2526
   8   2.0000     -10.297880      -280.2196
   9   2.0000     -10.294587      -280.1300
  10   2.0000     -10.291962      -280.0585
  11   2.0000     -10.290394      -280.0159
  12   2.0000     -10.285397      -279.8799
  13   2.0000     -10.284623      -279.8588
  14   2.0000     -10.282552      -279.8025
  15   2.0000     -10.279545      -279.7206
  16   2.0000      -8.079541      -219.8555
  17   2.0000      -8.079137      -219.8445
  18   2.0000      -6.038052      -164.3038
  19   2.0000      -6.037832      -164.2978
  20   2.0000      -6.034372      -164.2036
  21   2.0000      -6.034014      -164.1939
  22   2.0000      -6.029793      -164.0790
  23   2.0000      -6.029507      -164.0712
  24   2.0000      -1.010809       -27.5055
  25   2.0000      -0.981800       -26.7161
  26   2.0000      -0.924009       -25.1436
  27   2.0000      -0.907136       -24.6844
  28   2.0000      -0.874640       -23.8002
  29   2.0000      -0.849914       -23.1273
  30   2.0000      -0.840415       -22.8689
  31   2.0000      -0.814362       -22.1599
  32   2.0000      -0.786504       -21.4019
  33   2.0000      -0.774921       -21.0867
  34   2.0000      -0.712689       -19.3932
  35   2.0000      -0.707433       -19.2502
  36   2.0000      -0.694582       -18.9005
  37   2.0000      -0.655358       -17.8332
  38   2.0000      -0.637030       -17.3345
  39   2.0000      -0.612212       -16.6591
  40   2.0000      -0.590732       -16.0746
  41   2.0000      -0.587003       -15.9732
  42   2.0000      -0.567932       -15.4542
  43   2.0000      -0.562142       -15.2967
  44   2.0000      -0.524965       -14.2850
  45   2.0000      -0.523455       -14.2439
  46   2.0000      -0.514608       -14.0032
  47   2.0000      -0.511726       -13.9248
  48   2.0000      -0.500719       -13.6252
  49   2.0000      -0.498289       -13.5591
  50   2.0000      -0.488268       -13.2865
  51   2.0000      -0.482934       -13.1413
  52   2.0000      -0.475490       -12.9387
  53   2.0000      -0.463634       -12.6161
  54   2.0000      -0.460794       -12.5389
  55   2.0000      -0.450480       -12.2582
  56   2.0000      -0.446389       -12.1469
  57   2.0000      -0.437771       -11.9124
  58   2.0000      -0.434407       -11.8208
  59   2.0000      -0.428934       -11.6719
  60   2.0000      -0.421313       -11.4645
  61   2.0000      -0.417903       -11.3717
  62   2.0000      -0.415816       -11.3149
  63   2.0000      -0.345087        -9.3903
  64   2.0000      -0.331857        -9.0303
  65   2.0000      -0.324967        -8.8428
  66   2.0000      -0.294357        -8.0099
  67   0.0000       0.028766         0.7828
  68   0.0000       0.061240         1.6664
  69   0.0000       0.097786         2.6609
  70   0.0000       0.110769         3.0142
  71   0.0000       0.135304         3.6818

MULLIKEN ATOMIC CHARGES
-----------------------
   0 S :    0.114040
   1 C :   -0.167514
   2 C :   -0.049583
   3 C :    0.023339
   4 C :   -0.168327
   5 H :    0.025307
   6 C :    0.059986
   7 H :    0.020997
   8 H :    0.039613
   9 C :   -0.092122
  10 H :    0.037235
  11 H :    0.019187
  12 C :   -0.031761
  13 H :    0.039697
  14 H :    0.028212
  15 H :    0.026403
  16 S :    0.101820
  17 C :   -0.073203
  18 C :   -0.049746
  19 C :   -0.070385
  20 C :   -0.165069
  21 H :    0.012825
  22 C :    0.133964
  23 H :    0.013019
  24 H :    0.028490
  25 C :   -0.076762
  26 H :    0.022909
  27 H :    0.020176
  28 C :   -0.041601
  29 H :    0.028682
  30 H :    0.036051
  31 H :    0.027078
  32 H :    0.069140
  33 H :    0.057901
Sum of atomic charges:   -0.0000000

LOEWDIN ATOMIC CHARGES
----------------------
   0 S :    0.405124
   1 C :   -0.197681
   2 C :   -0.068413
   3 C :   -0.049146
   4 C :   -0.198999
   5 H :    0.034835
   6 C :   -0.032304
   7 H :    0.029501
   8 H :    0.035231
   9 C :   -0.044874
  10 H :    0.026952
  11 H :    0.017301
  12 C :   -0.060548
  13 H :    0.033080
  14 H :    0.017546
  15 H :    0.027737
  16 S :    0.379880
  17 C :   -0.181352
  18 C :   -0.060002
  19 C :   -0.053742
  20 C :   -0.198898
  21 H :    0.021347
  22 C :   -0.034362
  23 H :    0.027991
  24 H :    0.032968
  25 C :   -0.033672
  26 H :    0.022914
  27 H :    0.020883
  28 C :   -0.062704
  29 H :    0.026817
  30 H :    0.022472
  31 H :    0.026141
  32 H :    0.036937
  33 H :    0.031039

  Mayer bond orders larger than 0.100000
B(  0-S ,  1-C ) :   1.1156 B(  0-S ,  4-C ) :   1.1405 B(  1-C ,  2-C ) :   1.6796
B(  1-C , 32-H ) :   0.9532 B(  2-C ,  3-C ) :   1.2004 B(  2-C ,  6-C ) :   1.0057
B(  3-C ,  4-C ) :   1.5914 B(  3-C ,  5-H ) :   0.9954 B(  4-C , 20-C ) :   1.0569
B(  6-C ,  7-H ) :   0.9423 B(  6-C ,  8-H ) :   0.9283 B(  6-C ,  9-C ) :   1.0771
B(  9-C , 10-H ) :   0.9605 B(  9-C , 11-H ) :   0.9428 B(  9-C , 12-C ) :   1.0923
B( 12-C , 13-H ) :   0.9740 B( 12-C , 14-H ) :   0.9745 B( 12-C , 15-H ) :   0.9714
B( 16-S , 17-C ) :   1.1051 B( 16-S , 20-C ) :   1.1585 B( 17-C , 18-C ) :   1.6591
B( 17-C , 33-H ) :   0.9578 B( 18-C , 19-C ) :   1.2308 B( 18-C , 21-H ) :   0.9762
B( 19-C , 20-C ) :   1.5816 B( 19-C , 22-C ) :   1.0417 B( 22-C , 23-H ) :   0.9236
B( 22-C , 24-H ) :   0.9235 B( 22-C , 25-C ) :   1.0627 B( 25-C , 26-H ) :   0.9582
B( 25-C , 27-H ) :   0.9551 B( 25-C , 28-C ) :   1.0677 B( 28-C , 29-H ) :   0.9764
B( 28-C , 30-H ) :   0.9807 B( 28-C , 31-H ) :   0.9772

Dispersion correction           -0.013311278
FINAL SINGLE POINT ENERGY     -1339.851326727440

DIPOLE MOMENT
-------------
                                X             Y             Z
Electronic contribution:      7.28632      13.32483     -23.96479
Nuclear contribution   :     -7.56889     -13.48823      24.63019
                        -----------------------------------------
Total Dipole Moment    :     -0.28257      -0.16340       0.66540
                        -----------------------------------------
Magnitude (a.u.)       :      0.74115
Magnitude (Debye)      :      1.88384

Rotational constants in cm-1:     0.018358     0.007690     0.005885
Rotational constants in MHz :   550.365167   230.548037   176.428485

                             ****ORCA TERMINATED NORMALLY****
TOTAL RUN TIME: 0 days 0 hours 0 minutes 33 seconds 832 msec
