                         Program Version 4.2.1 -  RELEASE  -
|  1> ! wB97X-D3 SP def2-SVP
|  2> %pal
|  3> nprocs 16
|  4> end
|  5>
|  6> * xyz 0 1
|  7> S 	 -43.1662 	 24.7936 	 76.52
|  8> C 	 -43.5531 	 23.9229 	 78.003
|  9> C 	 -42.7046 	 22.8593 	 78.2221
| 10> C 	 -41.7077 	 22.7002 	 77.2245
| 11> C 	 -41.8409 	 23.6133 	 76.1933
| 12> H 	 -40.9152 	 21.9681 	 77.2378
| 13> C 	 -42.8955 	 21.7989 	 79.3193
| 14> H 	 -43.4121 	 21.065 	 78.7313
| 15> H 	 -43.6466 	 22.1534 	 80.0756
| 16> C 	 -41.7089 	 21.1577 	 80.029
| 17> H 	 -42.0254 	 20.38 	 80.671
| 18> H 	 -40.9806 	 20.7501 	 79.3162
| 19> C 	 -40.8325 	 22.1113 	 80.8478
| 20> H 	 -41.3293 	 22.5095 	 81.7245
| 21> H 	 -40.005 	 21.5325 	 81.2063
| 22> H 	 -40.4724 	 22.9007 	 80.1772
| 23> S 	 -40.305 	 22.2744 	 74.3539
| 24> C 	 -39.428 	 23.1394 	 73.1471
| 25> C 	 -39.5606 	 24.4647 	 73.3089
| 26> C 	 -40.3127 	 24.8536 	 74.444
| 27> C 	 -40.8832 	 23.7254 	 75.0776
| 28> H 	 -39.0042 	 25.1032 	 72.607
| 29> C 	 -40.5147 	 26.2345 	 74.9311
| 30> H 	 -40.3162 	 26.458 	 76.0125
| 31> H 	 -41.544 	 26.461 	 74.6804
| 32> C 	 -39.7827 	 27.4033 	 74.1912
| 33> H 	 -39.8849 	 27.3111 	 73.1231
| 34> H 	 -38.6822 	 27.4933 	 74.5529
| 35> C 	 -40.3684 	 28.8142 	 74.2973
| 36> H 	 -41.4255 	 28.8 	 74.2332
| 37> H 	 -40.0268 	 29.565 	 73.6467
| 38> H 	 -40.1802 	 29.2249 	 75.2741
| 39> H 	 -44.3392 	 24.0985 	 78.73
| 40> H 	 -38.8742 	 22.6472 	 72.3871
| 41> *
| 42>
| 43>                          ****END OF INPUT****

CARTESIAN COORDINATES (ANGSTROEM)
---------------------------------
  S    -43.166200   24.793600   76.520000
  C    -43.553100   23.922900   78.003000
  C    -42.704600   22.859300   78.222100
  C    -41.707700   22.700200   77.224500
  C    -41.840900   23.613300   76.193300
  H    -40.915200   21.968100   77.237800
  C    -42.895500   21.798900   79.319300
  H    -43.412100   21.065000   78.731300
  H    -43.646600   22.153400   80.075600
  C    -41.708900   21.157700   80.029000
  H    -42.025400   20.380000   80.671000
  H    -40.980600   20.750100   79.316200
  C    -40.832500   22.111300   80.847800
  H    -41.329300   22.509500   81.724500
  H    -40.005000   21.532500   81.206300
  H    -40.472400   22.900700   80.177200
  S    -40.305000   22.274400   74.353900
  C    -39.428000   23.139400   73.147100
  C    -39.560600   24.464700   73.308900
  C    -40.312700   24.853600   74.444000
  C    -40.883200   23.725400   75.077600
  H    -39.004200   25.103200   72.607000
  C    -40.514700   26.234500   74.931100
  H    -40.316200   26.458000   76.012500
  H    -41.544000   26.461000   74.680400
  C    -39.782700   27.403300   74.191200
  H    -39.884900   27.311100   73.123100
  H    -38.682200   27.493300   74.552900
  C    -40.368400   28.814200   74.297300
  H    -41.425500   28.800000   74.233200
  H    -40.026800   29.565000   73.646700
  H    -40.180200   29.224900   75.274100
  H    -44.339200   24.098500   78.730000
  H    -38.874200   22.647200   72.387100

 Total Charge           Charge          ....    0
 Multiplicity           Mult            ....    1
 Number of Electrons    NEL             ....  134
 Basis Dimension        Dim             ....  322

ORBITAL ENERGIES
----------------

  NO   OCC          E(Eh)            E(eV)
   0   2.0000     -88.971470     -2421.0368
   1   2.0000     -88.964039     -2420.8346
   2   2.0000     -10.336011      -281.2572
   3   2.0000     -10.325911      -280.9823
   4   2.0000     -10.312648      -280.6214
   5   2.0000     -10.308275      -280.5024
   6   2.0000     -10.303636      -280.3762
   7   2.0000     -10.300357      -280.2870
   8   2.0000     -10.294092      -280.1165
   9   2.0000     -10.293964      -280.1130
  10   2.0000     -10.293420      -280.0982
  11   2.0000     -10.291545      -280.0472
  12   2.0000     -10.290107      -280.0081
  13   2.0000     -10.284656      -279.8597
  14   2.0000     -10.271884      -279.5122
  15   2.0000     -10.267482      -279.3924
  16   2.0000      -8.084330      -219.9858
  17   2.0000      -8.079786      -219.8621
  18   2.0000      -6.043063      -164.4401
  19   2.0000      -6.039202      -164.3350
  20   2.0000      -6.038162      -164.3067
  21   2.0000      -6.034873      -164.2172
  22   2.0000      -6.034057      -164.1950
  23   2.0000      -6.030748      -164.1050
  24   2.0000      -1.009188       -27.4614
  25   2.0000      -0.984323       -26.7848
  26   2.0000      -0.910456       -24.7748
  27   2.0000      -0.908667       -24.7261
  28   2.0000      -0.872280       -23.7359
  29   2.0000      -0.856308       -23.3013
  30   2.0000      -0.847159       -23.0524
  31   2.0000      -0.818014       -22.2593
  32   2.0000      -0.785197       -21.3663
  33   2.0000      -0.773307       -21.0428
  34   2.0000      -0.707897       -19.2629
  35   2.0000      -0.700740       -19.0681
  36   2.0000      -0.690921       -18.8009
  37   2.0000      -0.653919       -17.7940
  38   2.0000      -0.630420       -17.1546
  39   2.0000      -0.620261       -16.8781
  40   2.0000      -0.604777       -16.4568
  41   2.0000      -0.573186       -15.5972
  42   2.0000      -0.568399       -15.4669
  43   2.0000      -0.554808       -15.0971
  44   2.0000      -0.545778       -14.8514
  45   2.0000      -0.526899       -14.3377
  46   2.0000      -0.515874       -14.0377
  47   2.0000      -0.509821       -13.8729
  48   2.0000      -0.508750       -13.8438
  49   2.0000      -0.495367       -13.4796
  50   2.0000      -0.483823       -13.1655
  51   2.0000      -0.478349       -13.0165
  52   2.0000      -0.477262       -12.9869
  53   2.0000      -0.469575       -12.7778
  54   2.0000      -0.459310       -12.4985
  55   2.0000      -0.455383       -12.3916
  56   2.0000      -0.450965       -12.2714
  57   2.0000      -0.436027       -11.8649
  58   2.0000      -0.428435       -11.6583
  59   2.0000      -0.421773       -11.4770
  60   2.0000      -0.419492       -11.4150
  61   2.0000      -0.418021       -11.3749
  62   2.0000      -0.401974       -10.9383
  63   2.0000      -0.355938        -9.6856
  64   2.0000      -0.332445        -9.0463
  65   2.0000      -0.327731        -8.9180
  66   2.0000      -0.284473        -7.7409
  67   0.0000       0.024519         0.6672
  68   0.0000       0.081387         2.2147
  69   0.0000       0.109846         2.9891
  70   0.0000       0.120376         3.2756
  71   0.0000       0.136736         3.7208

MULLIKEN ATOMIC CHARGES
-----------------------
   0 S :    0.108233
   1 C :   -0.115366
   2 C :   -0.081418
   3 C :   -0.006563
   4 C :   -0.111300
   5 H :    0.016000
   6 C :    0.057351
   7 H :    0.043942
   8 H :    0.022066
   9 C :   -0.068403
  10 H :    0.024700
  11 H :    0.025852
  12 C :   -0.046955
  13 H :    0.027191
  14 H :    0.026567
  15 H :    0.042047
  16 S :    0.104201
  17 C :   -0.076989
  18 C :   -0.040264
  19 C :   -0.028241
  20 C :   -0.160723
  21 H :    0.027007
  22 C :    0.053691
  23 H :    0.061785
  24 H :    0.030721
  25 C :   -0.131925
  26 H :    0.030381
  27 H :    0.049404
  28 C :   -0.017544
  29 H :    0.014037
  30 H :    0.027261
  31 H :    0.010763
  32 H :    0.039639
  33 H :    0.042850
Sum of atomic charges:    0.0000000

LOEWDIN ATOMIC CHARGES
----------------------
   0 S :    0.387061
   1 C :   -0.202221
   2 C :   -0.061655
   3 C :   -0.066538
   4 C :   -0.167357
   5 H :    0.027283
   6 C :   -0.034241
   7 H :    0.036895
   8 H :    0.031983
   9 C :   -0.041461
  10 H :    0.022386
  11 H :    0.025063
  12 C :   -0.060375
  13 H :    0.020454
  14 H :    0.023447
  15 H :    0.028491
  16 S :    0.430777
  17 C :   -0.188535
  18 C :   -0.075040
  19 C :   -0.062241
  20 C :   -0.203646
  21 H :    0.037860
  22 C :   -0.043854
  23 H :    0.043367
  24 H :    0.031297
  25 C :   -0.046828
  26 H :    0.020686
  27 H :    0.032677
  28 C :   -0.062337
  29 H :    0.018979
  30 H :    0.022931
  31 H :    0.019564
  32 H :    0.030827
  33 H :    0.024301

  Mayer bond orders larger than 0.100000
B(  0-S ,  1-C ) :   1.1123 B(  0-S ,  4-C ) :   1.1325 B(  1-C ,  2-C ) :   1.6446
B(  1-C , 32-H ) :   0.9605 B(  2-C ,  3-C ) :   1.2320 B(  2-C ,  6-C ) :   1.0037
B(  3-C ,  4-C ) :   1.5753 B(  3-C ,  5-H ) :   0.9899 B(  4-C , 20-C ) :   1.0523
B(  6-C ,  7-H ) :   0.9380 B(  6-C ,  8-H ) :   0.9412 B(  6-C ,  9-C ) :   1.0804
B(  9-C , 10-H ) :   0.9517 B(  9-C , 11-H ) :   0.9525 B(  9-C , 12-C ) :   1.0829
B( 12-C , 13-H ) :   0.9761 B( 12-C , 14-H ) :   0.9748 B( 12-C , 15-H ) :   0.9755
B( 16-S , 17-C ) :   1.1602 B( 16-S , 20-C ) :   1.1676 B( 17-C , 18-C ) :   1.5963
B( 17-C , 33-H ) :   0.9691 B( 18-C , 19-C ) :   1.2651 B( 18-C , 21-H ) :   0.9861
B( 19-C , 20-C ) :   1.5402 B( 19-C , 22-C ) :   1.0363 B( 22-C , 23-H ) :   0.9377
B( 22-C , 24-H ) :   0.9204 B( 22-C , 25-C ) :   1.0815 B( 25-C , 26-H ) :   0.9518
B( 25-C , 27-H ) :   0.9553 B( 25-C , 28-C ) :   1.0797 B( 28-C , 29-H ) :   0.9702
B( 28-C , 30-H ) :   0.9759 B( 28-C , 31-H ) :   0.9715

Dispersion correction           -0.013712319
FINAL SINGLE POINT ENERGY     -1339.872768526148

DIPOLE MOMENT
-------------
                                X             Y             Z
Electronic contribution:     -5.54598      -8.71089     -12.30136
Nuclear contribution   :      5.71701       8.72071      12.49595
                        -----------------------------------------
Total Dipole Moment    :      0.17103       0.00981       0.19459
                        -----------------------------------------
Magnitude (a.u.)       :      0.25925
Magnitude (Debye)      :      0.65897

Rotational constants in cm-1:     0.019651     0.007832     0.006515
Rotational constants in MHz :   589.118855   234.792096   195.300916

                             ****ORCA TERMINATED NORMALLY****
TOTAL RUN TIME: 0 days 0 hours 0 minutes 28 seconds 715 msec
