                         Program Version 4.2.1 -  RELEASE  -
|  1> ! wB97X-D3 SP def2-SVP
|  2> %pal
|  3> nprocs 16
|  4> end
|  5>
|  6> * xyz 0 1
|  7> S 	 67.6977 	 21.0762 	 73.2255
|  8> C 	 66.3832 	 22.1764 	 73.1044
|  9> C 	 65.5484 	 22.0658 	 74.2105
| 10> C 	 66.0839 	 21.1432 	 75.1714
| 11> C 	 67.1909 	 20.5 	 74.7453
| 12> H 	 65.7302 	 21.0351 	 76.1175
| 13> C 	 64.3645 	 22.9222 	 74.5472
| 14> H 	 63.7513 	 23.0289 	 73.6367
| 15> H 	 64.7279 	 23.8986 	 74.9964
| 16> C 	 63.3356 	 22.4545 	 75.675
| 17> H 	 63.8782 	 22.2798 	 76.621
| 18> H 	 62.6579 	 23.254 	 75.954
| 19> C 	 62.5593 	 21.129 	 75.3492
| 20> H 	 61.9582 	 21.3521 	 74.4287
| 21> H 	 63.1344 	 20.2925 	 74.9221
| 22> H 	 61.8992 	 20.852 	 76.1158
| 23> S 	 69.4491 	 18.9706 	 74.6188
| 24> C 	 69.7487 	 17.7053 	 75.7098
| 25> C 	 68.622 	 17.4616 	 76.4782
| 26> C 	 67.6858 	 18.5806 	 76.4593
| 27> C 	 67.9223 	 19.4503 	 75.4093
| 28> H 	 68.5866 	 16.4837 	 77.0091
| 29> C 	 66.3214 	 18.3243 	 77.1045
| 30> H 	 65.6069 	 18.9986 	 76.7273
| 31> H 	 66.4946 	 18.8378 	 78.007
| 32> C 	 65.7484 	 16.8872 	 77.3257
| 33> H 	 64.9634 	 16.9211 	 78.1445
| 34> H 	 66.5271 	 16.2194 	 77.7379
| 35> C 	 65.1046 	 16.3326 	 76.0077
| 36> H 	 64.5707 	 17.0627 	 75.3683
| 37> H 	 64.356 	 15.5561 	 76.2909
| 38> H 	 65.86 	 15.8597 	 75.345
| 39> H 	 66.4231 	 22.936 	 72.3598
| 40> H 	 70.6586 	 17.0939 	 75.7204
| 41> *
| 42>
| 43>                          ****END OF INPUT****

CARTESIAN COORDINATES (ANGSTROEM)
---------------------------------
  S     67.697700   21.076200   73.225500
  C     66.383200   22.176400   73.104400
  C     65.548400   22.065800   74.210500
  C     66.083900   21.143200   75.171400
  C     67.190900   20.500000   74.745300
  H     65.730200   21.035100   76.117500
  C     64.364500   22.922200   74.547200
  H     63.751300   23.028900   73.636700
  H     64.727900   23.898600   74.996400
  C     63.335600   22.454500   75.675000
  H     63.878200   22.279800   76.621000
  H     62.657900   23.254000   75.954000
  C     62.559300   21.129000   75.349200
  H     61.958200   21.352100   74.428700
  H     63.134400   20.292500   74.922100
  H     61.899200   20.852000   76.115800
  S     69.449100   18.970600   74.618800
  C     69.748700   17.705300   75.709800
  C     68.622000   17.461600   76.478200
  C     67.685800   18.580600   76.459300
  C     67.922300   19.450300   75.409300
  H     68.586600   16.483700   77.009100
  C     66.321400   18.324300   77.104500
  H     65.606900   18.998600   76.727300
  H     66.494600   18.837800   78.007000
  C     65.748400   16.887200   77.325700
  H     64.963400   16.921100   78.144500
  H     66.527100   16.219400   77.737900
  C     65.104600   16.332600   76.007700
  H     64.570700   17.062700   75.368300
  H     64.356000   15.556100   76.290900
  H     65.860000   15.859700   75.345000
  H     66.423100   22.936000   72.359800
  H     70.658600   17.093900   75.720400

 Total Charge           Charge          ....    0
 Multiplicity           Mult            ....    1
 Number of Electrons    NEL             ....  134
 Basis Dimension        Dim             ....  322

ORBITAL ENERGIES
----------------

  NO   OCC          E(Eh)            E(eV)
   0   2.0000     -88.962680     -2420.7976
   1   2.0000     -88.960186     -2420.7297
   2   2.0000     -10.329216      -281.0723
   3   2.0000     -10.323314      -280.9117
   4   2.0000     -10.315357      -280.6951
   5   2.0000     -10.310620      -280.5662
   6   2.0000     -10.308605      -280.5114
   7   2.0000     -10.303309      -280.3673
   8   2.0000     -10.302926      -280.3569
   9   2.0000     -10.302212      -280.3374
  10   2.0000     -10.297413      -280.2068
  11   2.0000     -10.297065      -280.1974
  12   2.0000     -10.284777      -279.8630
  13   2.0000     -10.284497      -279.8554
  14   2.0000     -10.281561      -279.7755
  15   2.0000     -10.279717      -279.7253
  16   2.0000      -8.079240      -219.8473
  17   2.0000      -8.075816      -219.7541
  18   2.0000      -6.037695      -164.2940
  19   2.0000      -6.034345      -164.2029
  20   2.0000      -6.033433      -164.1781
  21   2.0000      -6.030242      -164.0912
  22   2.0000      -6.030013      -164.0850
  23   2.0000      -6.026473      -163.9887
  24   2.0000      -1.016651       -27.6645
  25   2.0000      -0.988731       -26.9047
  26   2.0000      -0.906452       -24.6658
  27   2.0000      -0.903524       -24.5861
  28   2.0000      -0.872942       -23.7539
  29   2.0000      -0.851257       -23.1639
  30   2.0000      -0.839600       -22.8467
  31   2.0000      -0.816772       -22.2255
  32   2.0000      -0.783628       -21.3236
  33   2.0000      -0.774262       -21.0687
  34   2.0000      -0.714360       -19.4387
  35   2.0000      -0.702079       -19.1045
  36   2.0000      -0.696328       -18.9480
  37   2.0000      -0.658114       -17.9082
  38   2.0000      -0.642083       -17.4720
  39   2.0000      -0.629528       -17.1303
  40   2.0000      -0.596978       -16.2446
  41   2.0000      -0.561922       -15.2907
  42   2.0000      -0.552461       -15.0332
  43   2.0000      -0.548147       -14.9158
  44   2.0000      -0.535611       -14.5747
  45   2.0000      -0.528144       -14.3715
  46   2.0000      -0.523680       -14.2501
  47   2.0000      -0.510392       -13.8885
  48   2.0000      -0.507463       -13.8088
  49   2.0000      -0.504380       -13.7249
  50   2.0000      -0.497741       -13.5442
  51   2.0000      -0.483897       -13.1675
  52   2.0000      -0.469929       -12.7874
  53   2.0000      -0.461942       -12.5701
  54   2.0000      -0.461090       -12.5469
  55   2.0000      -0.449939       -12.2435
  56   2.0000      -0.445332       -12.1181
  57   2.0000      -0.435305       -11.8453
  58   2.0000      -0.432465       -11.7680
  59   2.0000      -0.426281       -11.5997
  60   2.0000      -0.419243       -11.4082
  61   2.0000      -0.409473       -11.1423
  62   2.0000      -0.404453       -11.0057
  63   2.0000      -0.363451        -9.8900
  64   2.0000      -0.332095        -9.0368
  65   2.0000      -0.321427        -8.7465
  66   2.0000      -0.280226        -7.6253
  67   0.0000       0.021355         0.5811
  68   0.0000       0.082327         2.2402
  69   0.0000       0.100430         2.7328
  70   0.0000       0.116390         3.1671
  71   0.0000       0.131541         3.5794

MULLIKEN ATOMIC CHARGES
-----------------------
   0 S :    0.100208
   1 C :   -0.118691
   2 C :   -0.053338
   3 C :   -0.013123
   4 C :   -0.051602
   5 H :   -0.029684
   6 C :    0.027570
   7 H :    0.040155
   8 H :    0.060570
   9 C :   -0.099917
  10 H :    0.026196
  11 H :    0.035003
  12 C :   -0.062248
  13 H :    0.021472
  14 H :    0.046142
  15 H :    0.037094
  16 S :    0.078000
  17 C :   -0.089022
  18 C :   -0.085589
  19 C :   -0.052876
  20 C :   -0.108040
  21 H :    0.041849
  22 C :    0.069482
  23 H :   -0.007908
  24 H :    0.013851
  25 C :   -0.063568
  26 H :    0.039433
  27 H :    0.035181
  28 C :   -0.074431
  29 H :    0.043427
  30 H :    0.038454
  31 H :    0.045872
  32 H :    0.042902
  33 H :    0.067177
Sum of atomic charges:   -0.0000000

LOEWDIN ATOMIC CHARGES
----------------------
   0 S :    0.431589
   1 C :   -0.201173
   2 C :   -0.060245
   3 C :   -0.062575
   4 C :   -0.196111
   5 H :    0.010948
   6 C :   -0.037137
   7 H :    0.033740
   8 H :    0.046379
   9 C :   -0.043388
  10 H :    0.018747
  11 H :    0.027107
  12 C :   -0.075126
  13 H :    0.029272
  14 H :    0.030552
  15 H :    0.019084
  16 S :    0.398478
  17 C :   -0.200289
  18 C :   -0.081594
  19 C :   -0.056079
  20 C :   -0.178513
  21 H :    0.037881
  22 C :   -0.036883
  23 H :    0.019924
  24 H :    0.031385
  25 C :   -0.037510
  26 H :    0.033475
  27 H :    0.025468
  28 C :   -0.074135
  29 H :    0.029360
  30 H :    0.029092
  31 H :    0.030434
  32 H :    0.022196
  33 H :    0.035647

  Mayer bond orders larger than 0.100000
B(  0-S ,  1-C ) :   1.1453 B(  0-S ,  4-C ) :   1.1560 B(  1-C ,  2-C ) :   1.5872
B(  1-C , 32-H ) :   0.9828 B(  2-C ,  3-C ) :   1.2464 B(  2-C ,  6-C ) :   1.0196
B(  3-C ,  4-C ) :   1.5569 B(  3-C ,  5-H ) :   1.0104 B(  4-C , 20-C ) :   1.0865
B(  6-C ,  7-H ) :   0.9461 B(  6-C ,  8-H ) :   0.9357 B(  6-C ,  9-C ) :   1.0776
B(  9-C , 10-H ) :   0.9515 B(  9-C , 11-H ) :   0.9566 B(  9-C , 12-C ) :   1.0657
B( 12-C , 13-H ) :   0.9721 B( 12-C , 14-H ) :   0.9758 B( 12-C , 15-H ) :   0.9775
B( 16-S , 17-C ) :   1.1711 B( 16-S , 20-C ) :   1.1206 B( 17-C , 18-C ) :   1.6143
B( 17-C , 33-H ) :   0.9663 B( 18-C , 19-C ) :   1.2258 B( 18-C , 21-H ) :   0.9797
B( 19-C , 20-C ) :   1.5796 B( 19-C , 22-C ) :   1.0254 B( 22-C , 23-H ) :   0.9376
B( 22-C , 24-H ) :   0.9096 B( 22-C , 25-C ) :   1.0773 B( 25-C , 26-H ) :   0.9563
B( 25-C , 27-H ) :   0.9508 B( 25-C , 28-C ) :   1.0579 B( 28-C , 29-H ) :   0.9794
B( 28-C , 30-H ) :   0.9770 B( 28-C , 31-H ) :   0.9771

Dispersion correction           -0.014718522
FINAL SINGLE POINT ENERGY     -1339.850973936833

DIPOLE MOMENT
-------------
                                X             Y             Z
Electronic contribution:     26.92326       4.69453     -11.90737
Nuclear contribution   :    -27.46695      -4.78451      12.31035
                        -----------------------------------------
Total Dipole Moment    :     -0.54369      -0.08998       0.40298
                        -----------------------------------------
Magnitude (a.u.)       :      0.68270
Magnitude (Debye)      :      1.73530

Rotational constants in cm-1:     0.017526     0.010415     0.007097
Rotational constants in MHz :   525.423818   312.231963   212.762877

                             ****ORCA TERMINATED NORMALLY****
TOTAL RUN TIME: 0 days 0 hours 0 minutes 29 seconds 970 msec
