                         Program Version 4.2.1 -  RELEASE  -
|  1> ! wB97X-D3 SP def2-SVP
|  2> %pal
|  3> nprocs 16
|  4> end
|  5>
|  6> * xyz 0 1
|  7> S 	 29.5941 	 30.7636 	 56.2801
|  8> C 	 31.1116 	 29.9164 	 56.2413
|  9> C 	 32.1855 	 30.623 	 56.8094
| 10> C 	 31.7389 	 31.9134 	 57.1823
| 11> C 	 30.3816 	 32.1893 	 56.9734
| 12> H 	 32.3713 	 32.6986 	 57.5909
| 13> C 	 33.5875 	 30.2443 	 57.0816
| 14> H 	 33.5628 	 29.2514 	 57.4724
| 15> H 	 34.0561 	 30.8813 	 57.8257
| 16> C 	 34.4607 	 30.3078 	 55.8141
| 17> H 	 33.97 	 29.862 	 54.9507
| 18> H 	 34.5955 	 31.2637 	 55.404
| 19> C 	 35.8257 	 29.6682 	 55.9947
| 20> H 	 35.7655 	 28.6013 	 56.2192
| 21> H 	 36.4542 	 29.894 	 55.1597
| 22> H 	 36.3312 	 30.1247 	 56.8606
| 23> S 	 28.0857 	 33.7142 	 56.4439
| 24> C 	 27.7626 	 35.2396 	 57.3267
| 25> C 	 28.9071 	 35.4888 	 58.1368
| 26> C 	 29.9715 	 34.5121 	 58.1091
| 27> C 	 29.6763 	 33.4953 	 57.1993
| 28> H 	 28.7885 	 36.3788 	 58.7566
| 29> C 	 31.2002 	 34.6355 	 59.0984
| 30> H 	 31.7068 	 33.6753 	 59.2036
| 31> H 	 30.7749 	 34.7685 	 60.096
| 32> C 	 32.1123 	 35.8265 	 58.652
| 33> H 	 32.8706 	 36.1278 	 59.4083
| 34> H 	 31.6032 	 36.7933 	 58.4184
| 35> C 	 32.9126 	 35.5693 	 57.3735
| 36> H 	 32.182 	 35.1762 	 56.6613
| 37> H 	 33.7135 	 34.866 	 57.4257
| 38> H 	 33.3129 	 36.5069 	 56.9565
| 39> H 	 31.2277 	 28.8221 	 55.8196
| 40> H 	 26.9085 	 35.881 	 57.183
| 41> *
| 42>
| 43>                          ****END OF INPUT****

CARTESIAN COORDINATES (ANGSTROEM)
---------------------------------
  S     29.594100   30.763600   56.280100
  C     31.111600   29.916400   56.241300
  C     32.185500   30.623000   56.809400
  C     31.738900   31.913400   57.182300
  C     30.381600   32.189300   56.973400
  H     32.371300   32.698600   57.590900
  C     33.587500   30.244300   57.081600
  H     33.562800   29.251400   57.472400
  H     34.056100   30.881300   57.825700
  C     34.460700   30.307800   55.814100
  H     33.970000   29.862000   54.950700
  H     34.595500   31.263700   55.404000
  C     35.825700   29.668200   55.994700
  H     35.765500   28.601300   56.219200
  H     36.454200   29.894000   55.159700
  H     36.331200   30.124700   56.860600
  S     28.085700   33.714200   56.443900
  C     27.762600   35.239600   57.326700
  C     28.907100   35.488800   58.136800
  C     29.971500   34.512100   58.109100
  C     29.676300   33.495300   57.199300
  H     28.788500   36.378800   58.756600
  C     31.200200   34.635500   59.098400
  H     31.706800   33.675300   59.203600
  H     30.774900   34.768500   60.096000
  C     32.112300   35.826500   58.652000
  H     32.870600   36.127800   59.408300
  H     31.603200   36.793300   58.418400
  C     32.912600   35.569300   57.373500
  H     32.182000   35.176200   56.661300
  H     33.713500   34.866000   57.425700
  H     33.312900   36.506900   56.956500
  H     31.227700   28.822100   55.819600
  H     26.908500   35.881000   57.183000

 Total Charge           Charge          ....    0
 Multiplicity           Mult            ....    1
 Number of Electrons    NEL             ....  134
 Basis Dimension        Dim             ....  322

ORBITAL ENERGIES
----------------

  NO   OCC          E(Eh)            E(eV)
   0   2.0000     -88.972065     -2421.0530
   1   2.0000     -88.966621     -2420.9048
   2   2.0000     -10.338789      -281.3328
   3   2.0000     -10.335464      -281.2423
   4   2.0000     -10.326020      -280.9853
   5   2.0000     -10.324739      -280.9504
   6   2.0000     -10.314062      -280.6599
   7   2.0000     -10.306548      -280.4554
   8   2.0000     -10.303394      -280.3696
   9   2.0000     -10.301452      -280.3168
  10   2.0000     -10.295530      -280.1556
  11   2.0000     -10.292169      -280.0642
  12   2.0000     -10.291245      -280.0390
  13   2.0000     -10.279808      -279.7278
  14   2.0000     -10.276035      -279.6251
  15   2.0000     -10.273235      -279.5489
  16   2.0000      -8.086136      -220.0349
  17   2.0000      -8.080221      -219.8740
  18   2.0000      -6.044690      -164.4844
  19   2.0000      -6.040762      -164.3775
  20   2.0000      -6.038906      -164.3270
  21   2.0000      -6.036862      -164.2714
  22   2.0000      -6.034821      -164.2158
  23   2.0000      -6.030936      -164.1101
  24   2.0000      -0.999760       -27.2049
  25   2.0000      -0.977122       -26.5888
  26   2.0000      -0.917108       -24.9558
  27   2.0000      -0.902696       -24.5636
  28   2.0000      -0.863079       -23.4856
  29   2.0000      -0.853888       -23.2355
  30   2.0000      -0.842453       -22.9243
  31   2.0000      -0.809690       -22.0328
  32   2.0000      -0.783172       -21.3112
  33   2.0000      -0.773281       -21.0420
  34   2.0000      -0.708718       -19.2852
  35   2.0000      -0.699658       -19.0387
  36   2.0000      -0.692565       -18.8457
  37   2.0000      -0.659452       -17.9446
  38   2.0000      -0.633930       -17.2501
  39   2.0000      -0.623123       -16.9560
  40   2.0000      -0.593373       -16.1465
  41   2.0000      -0.572993       -15.5919
  42   2.0000      -0.556591       -15.1456
  43   2.0000      -0.552134       -15.0243
  44   2.0000      -0.534970       -14.5573
  45   2.0000      -0.532159       -14.4808
  46   2.0000      -0.521937       -14.2026
  47   2.0000      -0.510362       -13.8876
  48   2.0000      -0.503166       -13.6918
  49   2.0000      -0.493461       -13.4278
  50   2.0000      -0.487008       -13.2522
  51   2.0000      -0.475099       -12.9281
  52   2.0000      -0.467817       -12.7299
  53   2.0000      -0.467443       -12.7198
  54   2.0000      -0.462681       -12.5902
  55   2.0000      -0.449578       -12.2336
  56   2.0000      -0.442906       -12.0521
  57   2.0000      -0.441296       -12.0083
  58   2.0000      -0.432365       -11.7652
  59   2.0000      -0.427197       -11.6246
  60   2.0000      -0.422955       -11.5092
  61   2.0000      -0.414670       -11.2837
  62   2.0000      -0.408403       -11.1132
  63   2.0000      -0.356770        -9.7082
  64   2.0000      -0.334132        -9.0922
  65   2.0000      -0.329715        -8.9720
  66   2.0000      -0.281481        -7.6595
  67   0.0000       0.018290         0.4977
  68   0.0000       0.080329         2.1859
  69   0.0000       0.094725         2.5776
  70   0.0000       0.117210         3.1895
  71   0.0000       0.130453         3.5498

MULLIKEN ATOMIC CHARGES
-----------------------
   0 S :    0.122254
   1 C :   -0.174161
   2 C :   -0.066592
   3 C :   -0.014641
   4 C :   -0.119228
   5 H :   -0.006862
   6 C :    0.102692
   7 H :    0.020454
   8 H :    0.022466
   9 C :   -0.066200
  10 H :    0.017823
  11 H :    0.008073
  12 C :   -0.029660
  13 H :    0.033685
  14 H :    0.032304
  15 H :    0.018687
  16 S :    0.080678
  17 C :   -0.109952
  18 C :   -0.042939
  19 C :   -0.077224
  20 C :   -0.113013
  21 H :    0.028352
  22 C :    0.089453
  23 H :    0.029999
  24 H :    0.037198
  25 C :   -0.091043
  26 H :    0.034148
  27 H :    0.041628
  28 C :   -0.065636
  29 H :    0.039286
  30 H :    0.031907
  31 H :    0.035572
  32 H :    0.084230
  33 H :    0.066264
Sum of atomic charges:   -0.0000000

LOEWDIN ATOMIC CHARGES
----------------------
   0 S :    0.409552
   1 C :   -0.222032
   2 C :   -0.063654
   3 C :   -0.067576
   4 C :   -0.186295
   5 H :    0.026333
   6 C :   -0.024117
   7 H :    0.030936
   8 H :    0.032383
   9 C :   -0.038958
  10 H :    0.023874
  11 H :    0.018757
  12 C :   -0.063382
  13 H :    0.024543
  14 H :    0.024883
  15 H :    0.024110
  16 S :    0.374116
  17 C :   -0.180047
  18 C :   -0.067638
  19 C :   -0.063016
  20 C :   -0.182502
  21 H :    0.031872
  22 C :   -0.023071
  23 H :    0.030393
  24 H :    0.036090
  25 C :   -0.046561
  26 H :    0.024700
  27 H :    0.032558
  28 C :   -0.070076
  29 H :    0.028190
  30 H :    0.014075
  31 H :    0.029772
  32 H :    0.049770
  33 H :    0.032018

  Mayer bond orders larger than 0.100000
B(  0-S ,  1-C ) :   1.1530 B(  0-S ,  4-C ) :   1.1464 B(  1-C ,  2-C ) :   1.5773
B(  1-C , 32-H ) :   0.9491 B(  2-C ,  3-C ) :   1.2822 B(  2-C ,  6-C ) :   1.0288
B(  3-C ,  4-C ) :   1.5530 B(  3-C ,  5-H ) :   0.9790 B(  4-C , 20-C ) :   1.0610
B(  6-C ,  7-H ) :   0.9331 B(  6-C ,  8-H ) :   0.9387 B(  6-C ,  9-C ) :   1.0573
B(  9-C , 10-H ) :   0.9551 B(  9-C , 11-H ) :   0.9503 B(  9-C , 12-C ) :   1.0897
B( 12-C , 13-H ) :   0.9759 B( 12-C , 14-H ) :   0.9721 B( 12-C , 15-H ) :   0.9706
B( 16-S , 17-C ) :   1.1325 B( 16-S , 20-C ) :   1.1411 B( 17-C , 18-C ) :   1.6140
B( 17-C , 20-C ) :   0.1010 B( 17-C , 33-H ) :   0.9722 B( 18-C , 19-C ) :   1.2373
B( 18-C , 21-H ) :   0.9848 B( 19-C , 20-C ) :   1.5809 B( 19-C , 22-C ) :   1.0164
B( 22-C , 23-H ) :   0.9424 B( 22-C , 24-H ) :   0.9401 B( 22-C , 25-C ) :   1.0470
B( 25-C , 26-H ) :   0.9581 B( 25-C , 27-H ) :   0.9635 B( 25-C , 28-C ) :   1.0784
B( 28-C , 29-H ) :   0.9727 B( 28-C , 30-H ) :   0.9700 B( 28-C , 31-H ) :   0.9719

Dispersion correction           -0.014508845
FINAL SINGLE POINT ENERGY     -1339.875345002574

DIPOLE MOMENT
-------------
                                X             Y             Z
Electronic contribution:    -30.53831      -2.91041      -3.95401
Nuclear contribution   :     31.13344       3.12460       4.27434
                        -----------------------------------------
Total Dipole Moment    :      0.59513       0.21420       0.32033
                        -----------------------------------------
Magnitude (a.u.)       :      0.70899
Magnitude (Debye)      :      1.80212

Rotational constants in cm-1:     0.019781     0.008655     0.006399
Rotational constants in MHz :   593.008679   259.464680   191.844959

                             ****ORCA TERMINATED NORMALLY****
TOTAL RUN TIME: 0 days 0 hours 0 minutes 33 seconds 343 msec
