                         Program Version 4.2.1 -  RELEASE  -
|  1> ! wB97X-D3 SP def2-SVP
|  2> %pal
|  3> nprocs 16
|  4> end
|  5>
|  6> * xyz 0 1
|  7> S 	 37.5761 	 -2.36218 	 78.0831
|  8> C 	 37.6566 	 -4.08601 	 78.0533
|  9> C 	 36.4692 	 -4.66822 	 78.2902
| 10> C 	 35.4404 	 -3.68054 	 78.6021
| 11> C 	 35.9292 	 -2.3671 	 78.5641
| 12> H 	 34.3779 	 -3.86906 	 78.7613
| 13> C 	 36.1591 	 -6.15352 	 78.0927
| 14> H 	 35.2779 	 -6.30516 	 78.7346
| 15> H 	 36.9555 	 -6.78408 	 78.4194
| 16> C 	 35.7833 	 -6.70288 	 76.7202
| 17> H 	 36.6293 	 -6.45103 	 76.1147
| 18> H 	 35.7363 	 -7.79242 	 76.7069
| 19> C 	 34.5009 	 -6.15389 	 76.0911
| 20> H 	 33.6141 	 -6.77999 	 76.2858
| 21> H 	 34.2297 	 -5.18958 	 76.425
| 22> H 	 34.6205 	 -6.22929 	 74.9958
| 23> S 	 33.567 	 -0.965853 	 77.7742
| 24> C 	 33.1318 	 0.481438 	 78.6098
| 25> C 	 34.067 	 0.82072 	 79.5974
| 26> C 	 35.2738 	 -0.00801965 	 79.5643
| 27> C 	 35.067 	 -1.15454 	 78.7436
| 28> H 	 33.8421 	 1.68753 	 80.1853
| 29> C 	 36.4044 	 0.175933 	 80.5779
| 30> H 	 37.1558 	 -0.551053 	 80.4158
| 31> H 	 36.1134 	 -0.130798 	 81.6265
| 32> C 	 37.0021 	 1.62745 	 80.4934
| 33> H 	 36.1888 	 2.23663 	 80.7395
| 34> H 	 37.1836 	 1.74349 	 79.4565
| 35> C 	 38.1334 	 1.88369 	 81.5341
| 36> H 	 39.0848 	 1.4243 	 81.2653
| 37> H 	 37.9137 	 1.65492 	 82.5607
| 38> H 	 38.3887 	 2.9041 	 81.5538
| 39> H 	 38.5347 	 -4.63853 	 77.7503
| 40> H 	 32.2244 	 1.11408 	 78.4359
| 41> *
| 42>
| 43>                          ****END OF INPUT****

CARTESIAN COORDINATES (ANGSTROEM)
---------------------------------
  S     37.576100   -2.362180   78.083100
  C     37.656600   -4.086010   78.053300
  C     36.469200   -4.668220   78.290200
  C     35.440400   -3.680540   78.602100
  C     35.929200   -2.367100   78.564100
  H     34.377900   -3.869060   78.761300
  C     36.159100   -6.153520   78.092700
  H     35.277900   -6.305160   78.734600
  H     36.955500   -6.784080   78.419400
  C     35.783300   -6.702880   76.720200
  H     36.629300   -6.451030   76.114700
  H     35.736300   -7.792420   76.706900
  C     34.500900   -6.153890   76.091100
  H     33.614100   -6.779990   76.285800
  H     34.229700   -5.189580   76.425000
  H     34.620500   -6.229290   74.995800
  S     33.567000   -0.965853   77.774200
  C     33.131800    0.481438   78.609800
  C     34.067000    0.820720   79.597400
  C     35.273800   -0.008020   79.564300
  C     35.067000   -1.154540   78.743600
  H     33.842100    1.687530   80.185300
  C     36.404400    0.175933   80.577900
  H     37.155800   -0.551053   80.415800
  H     36.113400   -0.130798   81.626500
  C     37.002100    1.627450   80.493400
  H     36.188800    2.236630   80.739500
  H     37.183600    1.743490   79.456500
  C     38.133400    1.883690   81.534100
  H     39.084800    1.424300   81.265300
  H     37.913700    1.654920   82.560700
  H     38.388700    2.904100   81.553800
  H     38.534700   -4.638530   77.750300
  H     32.224400    1.114080   78.435900

 Total Charge           Charge          ....    0
 Multiplicity           Mult            ....    1
 Number of Electrons    NEL             ....  134
 Basis Dimension        Dim             ....  322

ORBITAL ENERGIES
----------------

  NO   OCC          E(Eh)            E(eV)
   0   2.0000     -88.970228     -2421.0030
   1   2.0000     -88.968645     -2420.9599
   2   2.0000     -10.337864      -281.3076
   3   2.0000     -10.332767      -281.1689
   4   2.0000     -10.322216      -280.8818
   5   2.0000     -10.313254      -280.6379
   6   2.0000     -10.309162      -280.5266
   7   2.0000     -10.300932      -280.3026
   8   2.0000     -10.297977      -280.2222
   9   2.0000     -10.297572      -280.2112
  10   2.0000     -10.289783      -279.9992
  11   2.0000     -10.289227      -279.9841
  12   2.0000     -10.282532      -279.8019
  13   2.0000     -10.282515      -279.8015
  14   2.0000     -10.274175      -279.5745
  15   2.0000     -10.272479      -279.5284
  16   2.0000      -8.084134      -219.9805
  17   2.0000      -8.084000      -219.9768
  18   2.0000      -6.042674      -164.4295
  19   2.0000      -6.042502      -164.4249
  20   2.0000      -6.038696      -164.3213
  21   2.0000      -6.038389      -164.3129
  22   2.0000      -6.034976      -164.2200
  23   2.0000      -6.034761      -164.2142
  24   2.0000      -1.005564       -27.3628
  25   2.0000      -0.980893       -26.6915
  26   2.0000      -0.911334       -24.7987
  27   2.0000      -0.902755       -24.5652
  28   2.0000      -0.866141       -23.5689
  29   2.0000      -0.847067       -23.0499
  30   2.0000      -0.843653       -22.9570
  31   2.0000      -0.811192       -22.0737
  32   2.0000      -0.786379       -21.3985
  33   2.0000      -0.774737       -21.0817
  34   2.0000      -0.710108       -19.3230
  35   2.0000      -0.701417       -19.0865
  36   2.0000      -0.694220       -18.8907
  37   2.0000      -0.653583       -17.7849
  38   2.0000      -0.639331       -17.3971
  39   2.0000      -0.610933       -16.6243
  40   2.0000      -0.592597       -16.1254
  41   2.0000      -0.571373       -15.5479
  42   2.0000      -0.561637       -15.2829
  43   2.0000      -0.550307       -14.9746
  44   2.0000      -0.544694       -14.8219
  45   2.0000      -0.519228       -14.1289
  46   2.0000      -0.515015       -14.0143
  47   2.0000      -0.510167       -13.8824
  48   2.0000      -0.504221       -13.7205
  49   2.0000      -0.498875       -13.5751
  50   2.0000      -0.482972       -13.1423
  51   2.0000      -0.476997       -12.9797
  52   2.0000      -0.476638       -12.9700
  53   2.0000      -0.465767       -12.6742
  54   2.0000      -0.458410       -12.4740
  55   2.0000      -0.453245       -12.3334
  56   2.0000      -0.445078       -12.1112
  57   2.0000      -0.436876       -11.8880
  58   2.0000      -0.434408       -11.8208
  59   2.0000      -0.429468       -11.6864
  60   2.0000      -0.420490       -11.4421
  61   2.0000      -0.414455       -11.2779
  62   2.0000      -0.406292       -11.0558
  63   2.0000      -0.345234        -9.3943
  64   2.0000      -0.330575        -8.9954
  65   2.0000      -0.329199        -8.9580
  66   2.0000      -0.295750        -8.0478
  67   0.0000       0.031721         0.8632
  68   0.0000       0.068605         1.8668
  69   0.0000       0.109365         2.9760
  70   0.0000       0.111357         3.0302
  71   0.0000       0.130833         3.5601

MULLIKEN ATOMIC CHARGES
-----------------------
   0 S :    0.128384
   1 C :   -0.128338
   2 C :   -0.070091
   3 C :   -0.000700
   4 C :   -0.151073
   5 H :    0.021079
   6 C :    0.062810
   7 H :    0.019695
   8 H :    0.020518
   9 C :   -0.045201
  10 H :    0.012312
  11 H :    0.030846
  12 C :   -0.049709
  13 H :    0.026220
  14 H :    0.026224
  15 H :    0.035600
  16 S :    0.118418
  17 C :   -0.117859
  18 C :   -0.037533
  19 C :   -0.034425
  20 C :   -0.154093
  21 H :    0.021667
  22 C :    0.055003
  23 H :   -0.002055
  24 H :    0.040388
  25 C :   -0.062848
  26 H :    0.016093
  27 H :    0.029937
  28 C :   -0.006503
  29 H :    0.029839
  30 H :    0.027592
  31 H :    0.015687
  32 H :    0.044981
  33 H :    0.077135
Sum of atomic charges:   -0.0000000

LOEWDIN ATOMIC CHARGES
----------------------
   0 S :    0.435217
   1 C :   -0.200865
   2 C :   -0.065395
   3 C :   -0.067045
   4 C :   -0.207176
   5 H :    0.029962
   6 C :   -0.030718
   7 H :    0.029360
   8 H :    0.028620
   9 C :   -0.038961
  10 H :    0.017869
  11 H :    0.027713
  12 C :   -0.066819
  13 H :    0.026636
  14 H :    0.017557
  15 H :    0.032788
  16 S :    0.403367
  17 C :   -0.203463
  18 C :   -0.072412
  19 C :   -0.050332
  20 C :   -0.187331
  21 H :    0.027804
  22 C :   -0.034819
  23 H :    0.012226
  24 H :    0.037293
  25 C :   -0.026313
  26 H :    0.014900
  27 H :    0.024724
  28 C :   -0.061420
  29 H :    0.027543
  30 H :    0.025963
  31 H :    0.021334
  32 H :    0.029369
  33 H :    0.042824

  Mayer bond orders larger than 0.100000
B(  0-S ,  1-C ) :   1.1388 B(  0-S ,  4-C ) :   1.1648 B(  1-C ,  2-C ) :   1.6295
B(  1-C , 32-H ) :   0.9671 B(  2-C ,  3-C ) :   1.2292 B(  2-C ,  6-C ) :   1.0249
B(  3-C ,  4-C ) :   1.5606 B(  3-C ,  5-H ) :   0.9926 B(  4-C , 20-C ) :   1.0376
B(  6-C ,  7-H ) :   0.9397 B(  6-C ,  8-H ) :   0.9384 B(  6-C ,  9-C ) :   1.0800
B(  9-C , 10-H ) :   0.9561 B(  9-C , 11-H ) :   0.9538 B(  9-C , 12-C ) :   1.0709
B( 12-C , 13-H ) :   0.9747 B( 12-C , 14-H ) :   0.9800 B( 12-C , 15-H ) :   0.9743
B( 16-S , 17-C ) :   1.1555 B( 16-S , 20-C ) :   1.1384 B( 17-C , 18-C ) :   1.6255
B( 17-C , 33-H ) :   0.9586 B( 18-C , 19-C ) :   1.2174 B( 18-C , 21-H ) :   0.9875
B( 19-C , 20-C ) :   1.5683 B( 19-C , 22-C ) :   1.0572 B( 22-C , 23-H ) :   0.9305
B( 22-C , 24-H ) :   0.9414 B( 22-C , 25-C ) :   1.0345 B( 25-C , 26-H ) :   0.9624
B( 25-C , 27-H ) :   0.9624 B( 25-C , 28-C ) :   1.0765 B( 28-C , 29-H ) :   0.9753
B( 28-C , 30-H ) :   0.9734 B( 28-C , 31-H ) :   0.9724

Dispersion correction           -0.014048888
FINAL SINGLE POINT ENERGY     -1339.873981931323

DIPOLE MOMENT
-------------
                                X             Y             Z
Electronic contribution:     -4.33109       4.97693      -5.15943
Nuclear contribution   :      4.33994      -5.04884       5.30516
                        -----------------------------------------
Total Dipole Moment    :      0.00885      -0.07191       0.14573
                        -----------------------------------------
Magnitude (a.u.)       :      0.16275
Magnitude (Debye)      :      0.41367

Rotational constants in cm-1:     0.022127     0.007760     0.006079
Rotational constants in MHz :   663.365352   232.631358   182.240721

                             ****ORCA TERMINATED NORMALLY****
TOTAL RUN TIME: 0 days 0 hours 0 minutes 29 seconds 207 msec
