                         Program Version 4.2.1 -  RELEASE  -
|  1> ! wB97X-D3 SP def2-SVP
|  2> %pal
|  3> nprocs 16
|  4> end
|  5>
|  6> * xyz 0 1
|  7> S 	 51.1551 	 7.82103 	 83.8104
|  8> C 	 51.5415 	 7.98249 	 85.5159
|  9> C 	 51.7892 	 6.82772 	 86.1416
| 10> C 	 51.679 	 5.72637 	 85.2501
| 11> C 	 51.4426 	 6.06941 	 83.9436
| 12> H 	 51.7456 	 4.66067 	 85.532
| 13> C 	 51.9993 	 6.62531 	 87.6435
| 14> H 	 51.1538 	 6.05928 	 87.9922
| 15> H 	 51.9737 	 7.56896 	 88.2491
| 16> C 	 53.1426 	 5.72075 	 88.1193
| 17> H 	 53.0252 	 5.27088 	 89.1812
| 18> H 	 53.1824 	 4.84869 	 87.4592
| 19> C 	 54.5223 	 6.27038 	 88.0384
| 20> H 	 54.7365 	 7.17665 	 88.5565
| 21> H 	 55.2678 	 5.60265 	 88.498
| 22> H 	 54.892 	 6.31403 	 86.9866
| 23> S 	 49.7065 	 5.62125 	 81.9302
| 24> C 	 50.0054 	 4.34845 	 80.7834
| 25> C 	 51.113 	 3.59283 	 81.1253
| 26> C 	 51.7309 	 4.05564 	 82.3228
| 27> C 	 51.1291 	 5.2329 	 82.7972
| 28> H 	 51.3905 	 2.75165 	 80.502
| 29> C 	 52.8649 	 3.31253 	 83.0029
| 30> H 	 53.5817 	 4.02889 	 83.4585
| 31> H 	 53.4553 	 2.91743 	 82.245
| 32> C 	 52.5818 	 2.19025 	 84.0392
| 33> H 	 52.0063 	 1.37452 	 83.7145
| 34> H 	 51.8721 	 2.65106 	 84.6966
| 35> C 	 53.7638 	 1.66692 	 84.7961
| 36> H 	 54.1026 	 2.52802 	 85.2525
| 37> H 	 54.5596 	 1.44158 	 84.1379
| 38> H 	 53.6215 	 0.776822 	 85.3918
| 39> H 	 51.6661 	 8.94645 	 86.0539
| 40> H 	 49.3505 	 4.15507 	 79.9396
| 41> *
| 42>
| 43>                          ****END OF INPUT****

CARTESIAN COORDINATES (ANGSTROEM)
---------------------------------
  S     51.155100    7.821030   83.810400
  C     51.541500    7.982490   85.515900
  C     51.789200    6.827720   86.141600
  C     51.679000    5.726370   85.250100
  C     51.442600    6.069410   83.943600
  H     51.745600    4.660670   85.532000
  C     51.999300    6.625310   87.643500
  H     51.153800    6.059280   87.992200
  H     51.973700    7.568960   88.249100
  C     53.142600    5.720750   88.119300
  H     53.025200    5.270880   89.181200
  H     53.182400    4.848690   87.459200
  C     54.522300    6.270380   88.038400
  H     54.736500    7.176650   88.556500
  H     55.267800    5.602650   88.498000
  H     54.892000    6.314030   86.986600
  S     49.706500    5.621250   81.930200
  C     50.005400    4.348450   80.783400
  C     51.113000    3.592830   81.125300
  C     51.730900    4.055640   82.322800
  C     51.129100    5.232900   82.797200
  H     51.390500    2.751650   80.502000
  C     52.864900    3.312530   83.002900
  H     53.581700    4.028890   83.458500
  H     53.455300    2.917430   82.245000
  C     52.581800    2.190250   84.039200
  H     52.006300    1.374520   83.714500
  H     51.872100    2.651060   84.696600
  C     53.763800    1.666920   84.796100
  H     54.102600    2.528020   85.252500
  H     54.559600    1.441580   84.137900
  H     53.621500    0.776822   85.391800
  H     51.666100    8.946450   86.053900
  H     49.350500    4.155070   79.939600

 Total Charge           Charge          ....    0
 Multiplicity           Mult            ....    1
 Number of Electrons    NEL             ....  134
 Basis Dimension        Dim             ....  322

ORBITAL ENERGIES
----------------

  NO   OCC          E(Eh)            E(eV)
   0   2.0000     -88.967460     -2420.9277
   1   2.0000     -88.966082     -2420.8902
   2   2.0000     -10.330992      -281.1206
   3   2.0000     -10.324852      -280.9535
   4   2.0000     -10.315879      -280.7094
   5   2.0000     -10.312460      -280.6163
   6   2.0000     -10.305431      -280.4250
   7   2.0000     -10.299384      -280.2605
   8   2.0000     -10.297519      -280.2097
   9   2.0000     -10.296101      -280.1711
  10   2.0000     -10.295570      -280.1567
  11   2.0000     -10.292886      -280.0837
  12   2.0000     -10.289763      -279.9987
  13   2.0000     -10.278701      -279.6977
  14   2.0000     -10.271847      -279.5112
  15   2.0000     -10.267935      -279.4047
  16   2.0000      -8.083057      -219.9512
  17   2.0000      -8.080522      -219.8822
  18   2.0000      -6.041396      -164.3947
  19   2.0000      -6.039118      -164.3328
  20   2.0000      -6.037407      -164.2862
  21   2.0000      -6.035287      -164.2285
  22   2.0000      -6.033970      -164.1927
  23   2.0000      -6.030978      -164.1113
  24   2.0000      -1.012079       -27.5401
  25   2.0000      -0.988353       -26.8944
  26   2.0000      -0.914719       -24.8908
  27   2.0000      -0.912337       -24.8259
  28   2.0000      -0.874144       -23.7867
  29   2.0000      -0.860250       -23.4086
  30   2.0000      -0.847027       -23.0488
  31   2.0000      -0.817754       -22.2522
  32   2.0000      -0.788704       -21.4617
  33   2.0000      -0.777131       -21.1468
  34   2.0000      -0.713752       -19.4222
  35   2.0000      -0.702267       -19.1097
  36   2.0000      -0.688799       -18.7432
  37   2.0000      -0.664727       -18.0881
  38   2.0000      -0.637733       -17.3536
  39   2.0000      -0.624353       -16.9895
  40   2.0000      -0.601106       -16.3569
  41   2.0000      -0.570476       -15.5234
  42   2.0000      -0.567808       -15.4508
  43   2.0000      -0.548349       -14.9213
  44   2.0000      -0.540886       -14.7183
  45   2.0000      -0.530585       -14.4379
  46   2.0000      -0.521841       -14.2000
  47   2.0000      -0.516541       -14.0558
  48   2.0000      -0.508842       -13.8463
  49   2.0000      -0.494990       -13.4694
  50   2.0000      -0.491141       -13.3646
  51   2.0000      -0.480829       -13.0840
  52   2.0000      -0.475377       -12.9357
  53   2.0000      -0.465062       -12.6550
  54   2.0000      -0.462842       -12.5946
  55   2.0000      -0.454781       -12.3752
  56   2.0000      -0.444889       -12.1060
  57   2.0000      -0.436733       -11.8841
  58   2.0000      -0.434516       -11.8238
  59   2.0000      -0.429135       -11.6773
  60   2.0000      -0.421878       -11.4799
  61   2.0000      -0.413375       -11.2485
  62   2.0000      -0.407821       -11.0974
  63   2.0000      -0.354720        -9.6524
  64   2.0000      -0.333053        -9.0628
  65   2.0000      -0.332133        -9.0378
  66   2.0000      -0.289995        -7.8912
  67   0.0000       0.028033         0.7628
  68   0.0000       0.074399         2.0245
  69   0.0000       0.108478         2.9518
  70   0.0000       0.120924         3.2905
  71   0.0000       0.124571         3.3898

MULLIKEN ATOMIC CHARGES
-----------------------
   0 S :    0.096611
   1 C :   -0.141666
   2 C :   -0.037964
   3 C :    0.000802
   4 C :   -0.132124
   5 H :    0.014783
   6 C :    0.090571
   7 H :    0.033406
   8 H :    0.027422
   9 C :   -0.115038
  10 H :    0.042996
  11 H :    0.023815
  12 C :   -0.051478
  13 H :    0.020827
  14 H :    0.021032
  15 H :    0.037337
  16 S :    0.119392
  17 C :   -0.106052
  18 C :   -0.024364
  19 C :   -0.039003
  20 C :   -0.149221
  21 H :    0.021403
  22 C :    0.064756
  23 H :    0.023909
  24 H :   -0.003037
  25 C :   -0.031827
  26 H :    0.003412
  27 H :    0.002324
  28 C :    0.019307
  29 H :    0.002924
  30 H :    0.007928
  31 H :    0.043886
  32 H :    0.053970
  33 H :    0.058961
Sum of atomic charges:   -0.0000000

LOEWDIN ATOMIC CHARGES
----------------------
   0 S :    0.381853
   1 C :   -0.191701
   2 C :   -0.069509
   3 C :   -0.062685
   4 C :   -0.176405
   5 H :    0.033182
   6 C :   -0.030973
   7 H :    0.037460
   8 H :    0.033585
   9 C :   -0.053969
  10 H :    0.035810
  11 H :    0.024320
  12 C :   -0.076362
  13 H :    0.016857
  14 H :    0.028070
  15 H :    0.030375
  16 S :    0.432253
  17 C :   -0.192518
  18 C :   -0.066055
  19 C :   -0.057264
  20 C :   -0.211314
  21 H :    0.034789
  22 C :   -0.030859
  23 H :    0.035246
  24 H :    0.019040
  25 C :   -0.035745
  26 H :    0.015431
  27 H :    0.014962
  28 C :   -0.054496
  29 H :    0.017306
  30 H :    0.021767
  31 H :    0.032143
  32 H :    0.036494
  33 H :    0.028915

  Mayer bond orders larger than 0.100000
B(  0-S ,  1-C ) :   1.1186 B(  0-S ,  4-C ) :   1.1282 B(  1-C ,  2-C ) :   1.6689
B(  1-C , 32-H ) :   0.9535 B(  2-C ,  3-C ) :   1.2046 B(  2-C ,  6-C ) :   1.0175
B(  3-C ,  4-C ) :   1.6062 B(  3-C ,  5-H ) :   0.9834 B(  4-C , 20-C ) :   1.0420
B(  6-C ,  7-H ) :   0.9314 B(  6-C ,  8-H ) :   0.9474 B(  6-C ,  9-C ) :   1.0634
B(  9-C , 10-H ) :   0.9561 B(  9-C , 11-H ) :   0.9506 B(  9-C , 12-C ) :   1.0896
B( 12-C , 13-H ) :   0.9738 B( 12-C , 14-H ) :   0.9683 B( 12-C , 15-H ) :   0.9737
B( 16-S , 17-C ) :   1.1588 B( 16-S , 20-C ) :   1.1690 B( 17-C , 18-C ) :   1.5888
B( 17-C , 33-H ) :   0.9688 B( 18-C , 19-C ) :   1.2591 B( 18-C , 21-H ) :   0.9945
B( 19-C , 20-C ) :   1.5599 B( 19-C , 22-C ) :   1.0583 B( 22-C , 23-H ) :   0.9305
B( 22-C , 24-H ) :   0.9215 B( 22-C , 25-C ) :   1.0499 B( 25-C , 26-H ) :   0.9463
B( 25-C , 27-H ) :   0.9527 B( 25-C , 28-C ) :   1.0776 B( 28-C , 29-H ) :   0.9702
B( 28-C , 30-H ) :   0.9691 B( 28-C , 31-H ) :   0.9720

Dispersion correction           -0.014507530
FINAL SINGLE POINT ENERGY     -1339.871644987185

DIPOLE MOMENT
-------------
                                X             Y             Z
Electronic contribution:    -19.13824      16.17462     -20.99753
Nuclear contribution   :     19.36323     -16.72214      21.36212
                        -----------------------------------------
Total Dipole Moment    :      0.22499      -0.54752       0.36459
                        -----------------------------------------
Magnitude (a.u.)       :      0.69522
Magnitude (Debye)      :      1.76710

Rotational constants in cm-1:     0.017286     0.010179     0.006803
Rotational constants in MHz :   518.211476   305.169256   203.934715

                             ****ORCA TERMINATED NORMALLY****
TOTAL RUN TIME: 0 days 0 hours 0 minutes 31 seconds 240 msec
