                         Program Version 4.2.1 -  RELEASE  -
|  1> ! wB97X-D3 SP def2-SVP
|  2> %pal
|  3> nprocs 16
|  4> end
|  5>
|  6> * xyz 0 1
|  7> S 	 16.4849 	 4.09588 	 84.8681
|  8> C 	 17.389 	 5.51834 	 85.0704
|  9> C 	 17.7294 	 5.79633 	 86.3376
| 10> C 	 17.1073 	 4.89617 	 87.2674
| 11> C 	 16.408 	 3.91106 	 86.5627
| 12> H 	 17.0775 	 4.93653 	 88.3303
| 13> C 	 18.6052 	 6.90851 	 86.8455
| 14> H 	 19.3418 	 7.13192 	 86.1129
| 15> H 	 19.2533 	 6.57114 	 87.6725
| 16> C 	 17.7694 	 8.18905 	 87.2784
| 17> H 	 16.9556 	 7.92123 	 87.9261
| 18> H 	 18.5367 	 8.7632 	 87.8705
| 19> C 	 17.3309 	 9.03412 	 86.0649
| 20> H 	 16.9824 	 10.0387 	 86.2365
| 21> H 	 18.0978 	 9.16224 	 85.3181
| 22> H 	 16.5203 	 8.48151 	 85.5279
| 23> S 	 16.3367 	 1.57202 	 88.1571
| 24> C 	 14.7815 	 1.08716 	 88.7044
| 25> C 	 13.7963 	 1.70289 	 88.0522
| 26> C 	 14.218 	 2.6206 	 87.1138
| 27> C 	 15.5618 	 2.81033 	 87.1795
| 28> H 	 12.7911 	 1.52601 	 88.4863
| 29> C 	 13.2694 	 3.46458 	 86.3902
| 30> H 	 13.7496 	 4.43332 	 86.2427
| 31> H 	 12.3781 	 3.63058 	 86.9905
| 32> C 	 12.7128 	 3.033 	 85.0213
| 33> H 	 12.3937 	 1.98933 	 84.9492
| 34> H 	 13.5528 	 3.08186 	 84.3056
| 35> C 	 11.6908 	 4.0098 	 84.4775
| 36> H 	 10.8249 	 3.88989 	 85.0136
| 37> H 	 11.4751 	 3.83884 	 83.3787
| 38> H 	 12.1154 	 5.02817 	 84.596
| 39> H 	 17.7912 	 6.02558 	 84.248
| 40> H 	 14.5711 	 0.606957 	 89.644
| 41> *
| 42>
| 43>                          ****END OF INPUT****

CARTESIAN COORDINATES (ANGSTROEM)
---------------------------------
  S     16.484900    4.095880   84.868100
  C     17.389000    5.518340   85.070400
  C     17.729400    5.796330   86.337600
  C     17.107300    4.896170   87.267400
  C     16.408000    3.911060   86.562700
  H     17.077500    4.936530   88.330300
  C     18.605200    6.908510   86.845500
  H     19.341800    7.131920   86.112900
  H     19.253300    6.571140   87.672500
  C     17.769400    8.189050   87.278400
  H     16.955600    7.921230   87.926100
  H     18.536700    8.763200   87.870500
  C     17.330900    9.034120   86.064900
  H     16.982400   10.038700   86.236500
  H     18.097800    9.162240   85.318100
  H     16.520300    8.481510   85.527900
  S     16.336700    1.572020   88.157100
  C     14.781500    1.087160   88.704400
  C     13.796300    1.702890   88.052200
  C     14.218000    2.620600   87.113800
  C     15.561800    2.810330   87.179500
  H     12.791100    1.526010   88.486300
  C     13.269400    3.464580   86.390200
  H     13.749600    4.433320   86.242700
  H     12.378100    3.630580   86.990500
  C     12.712800    3.033000   85.021300
  H     12.393700    1.989330   84.949200
  H     13.552800    3.081860   84.305600
  C     11.690800    4.009800   84.477500
  H     10.824900    3.889890   85.013600
  H     11.475100    3.838840   83.378700
  H     12.115400    5.028170   84.596000
  H     17.791200    6.025580   84.248000
  H     14.571100    0.606957   89.644000

 Total Charge           Charge          ....    0
 Multiplicity           Mult            ....    1
 Number of Electrons    NEL             ....  134
 Basis Dimension        Dim             ....  322

ORBITAL ENERGIES
----------------

  NO   OCC          E(Eh)            E(eV)
   0   2.0000     -88.967967     -2420.9415
   1   2.0000     -88.961070     -2420.7538
   2   2.0000     -10.328609      -281.0557
   3   2.0000     -10.323314      -280.9117
   4   2.0000     -10.301768      -280.3253
   5   2.0000     -10.301346      -280.3139
   6   2.0000     -10.295798      -280.1629
   7   2.0000     -10.295736      -280.1612
   8   2.0000     -10.293866      -280.1103
   9   2.0000     -10.292661      -280.0775
  10   2.0000     -10.290242      -280.0117
  11   2.0000     -10.282185      -279.7925
  12   2.0000     -10.281455      -279.7726
  13   2.0000     -10.279807      -279.7278
  14   2.0000     -10.278368      -279.6886
  15   2.0000     -10.273467      -279.5552
  16   2.0000      -8.084154      -219.9810
  17   2.0000      -8.076552      -219.7742
  18   2.0000      -6.042355      -164.4208
  19   2.0000      -6.038525      -164.3166
  20   2.0000      -6.035091      -164.2232
  21   2.0000      -6.034940      -164.2191
  22   2.0000      -6.031080      -164.1140
  23   2.0000      -6.027289      -164.0109
  24   2.0000      -1.016371       -27.6569
  25   2.0000      -0.999315       -27.1927
  26   2.0000      -0.912604       -24.8332
  27   2.0000      -0.908059       -24.7095
  28   2.0000      -0.865335       -23.5470
  29   2.0000      -0.857555       -23.3352
  30   2.0000      -0.851025       -23.1576
  31   2.0000      -0.816226       -22.2106
  32   2.0000      -0.784666       -21.3518
  33   2.0000      -0.773296       -21.0425
  34   2.0000      -0.707797       -19.2601
  35   2.0000      -0.697088       -18.9687
  36   2.0000      -0.690587       -18.7918
  37   2.0000      -0.660983       -17.9863
  38   2.0000      -0.649060       -17.6618
  39   2.0000      -0.618658       -16.8345
  40   2.0000      -0.601041       -16.3552
  41   2.0000      -0.574528       -15.6337
  42   2.0000      -0.565114       -15.3775
  43   2.0000      -0.542740       -14.7687
  44   2.0000      -0.536913       -14.6102
  45   2.0000      -0.522163       -14.2088
  46   2.0000      -0.517105       -14.0712
  47   2.0000      -0.513209       -13.9651
  48   2.0000      -0.509344       -13.8600
  49   2.0000      -0.499026       -13.5792
  50   2.0000      -0.486899       -13.2492
  51   2.0000      -0.477352       -12.9894
  52   2.0000      -0.475129       -12.9289
  53   2.0000      -0.464475       -12.6390
  54   2.0000      -0.460320       -12.5260
  55   2.0000      -0.450007       -12.2453
  56   2.0000      -0.444681       -12.1004
  57   2.0000      -0.440471       -11.9858
  58   2.0000      -0.432473       -11.7682
  59   2.0000      -0.429638       -11.6910
  60   2.0000      -0.425056       -11.5664
  61   2.0000      -0.415288       -11.3005
  62   2.0000      -0.407810       -11.0971
  63   2.0000      -0.337780        -9.1915
  64   2.0000      -0.334859        -9.1120
  65   2.0000      -0.327026        -8.8988
  66   2.0000      -0.303100        -8.2478
  67   0.0000       0.038365         1.0440
  68   0.0000       0.075543         2.0556
  69   0.0000       0.114593         3.1182
  70   0.0000       0.123324         3.3558
  71   0.0000       0.131489         3.5780

MULLIKEN ATOMIC CHARGES
-----------------------
   0 S :    0.139337
   1 C :   -0.102818
   2 C :   -0.072470
   3 C :    0.043807
   4 C :   -0.190637
   5 H :    0.006436
   6 C :    0.058256
   7 H :    0.009570
   8 H :    0.031486
   9 C :   -0.061509
  10 H :    0.037481
  11 H :    0.036391
  12 C :   -0.052070
  13 H :    0.035602
  14 H :    0.016972
  15 H :    0.036471
  16 S :    0.109747
  17 C :   -0.085823
  18 C :   -0.067095
  19 C :    0.057292
  20 C :   -0.185477
  21 H :    0.027443
  22 C :    0.033183
  23 H :    0.025618
  24 H :    0.011435
  25 C :   -0.067042
  26 H :    0.026427
  27 H :    0.012554
  28 C :   -0.033398
  29 H :    0.016897
  30 H :    0.044471
  31 H :    0.032813
  32 H :    0.018573
  33 H :    0.050079
Sum of atomic charges:   -0.0000000

LOEWDIN ATOMIC CHARGES
----------------------
   0 S :    0.453371
   1 C :   -0.206658
   2 C :   -0.064589
   3 C :   -0.051752
   4 C :   -0.205436
   5 H :    0.028816
   6 C :   -0.029526
   7 H :    0.023627
   8 H :    0.034912
   9 C :   -0.031028
  10 H :    0.022668
  11 H :    0.028166
  12 C :   -0.072001
  13 H :    0.024368
  14 H :    0.020857
  15 H :    0.030758
  16 S :    0.404135
  17 C :   -0.196152
  18 C :   -0.074999
  19 C :   -0.066631
  20 C :   -0.190201
  21 H :    0.040440
  22 C :   -0.035166
  23 H :    0.030466
  24 H :    0.027757
  25 C :   -0.043050
  26 H :    0.021186
  27 H :    0.015889
  28 C :   -0.059536
  29 H :    0.009283
  30 H :    0.035575
  31 H :    0.030221
  32 H :    0.014992
  33 H :    0.029239

  Mayer bond orders larger than 0.100000
B(  0-S ,  1-C ) :   1.1445 B(  0-S ,  4-C ) :   1.1868 B(  1-C ,  2-C ) :   1.6312
B(  1-C , 32-H ) :   0.9681 B(  2-C ,  3-C ) :   1.2236 B(  2-C ,  6-C ) :   1.0298
B(  3-C ,  4-C ) :   1.5805 B(  3-C ,  5-H ) :   1.0015 B(  4-C , 20-C ) :   0.9739
B(  6-C ,  7-H ) :   0.9385 B(  6-C ,  8-H ) :   0.9439 B(  6-C ,  9-C ) :   1.0552
B(  9-C , 10-H ) :   0.9628 B(  9-C , 11-H ) :   0.9580 B(  9-C , 12-C ) :   1.0680
B( 12-C , 13-H ) :   0.9765 B( 12-C , 14-H ) :   0.9753 B( 12-C , 15-H ) :   0.9743
B( 16-S , 17-C ) :   1.1402 B( 16-S , 20-C ) :   1.1511 B( 17-C , 18-C ) :   1.6637
B( 17-C , 33-H ) :   0.9565 B( 18-C , 19-C ) :   1.2140 B( 18-C , 21-H ) :   0.9858
B( 19-C , 20-C ) :   1.6059 B( 19-C , 22-C ) :   1.0607 B( 22-C , 23-H ) :   0.9197
B( 22-C , 24-H ) :   0.9380 B( 22-C , 25-C ) :   1.0617 B( 25-C , 26-H ) :   0.9561
B( 25-C , 27-H ) :   0.9466 B( 25-C , 28-C ) :   1.0812 B( 28-C , 29-H ) :   0.9777
B( 28-C , 30-H ) :   0.9729 B( 28-C , 31-H ) :   0.9710

Dispersion correction           -0.014615269
FINAL SINGLE POINT ENERGY     -1339.874330314462

DIPOLE MOMENT
-------------
                                X             Y             Z
Electronic contribution:      8.96012     -20.73390       4.93967
Nuclear contribution   :     -9.07991      21.26689      -4.77032
                        -----------------------------------------
Total Dipole Moment    :     -0.11978       0.53300       0.16935
                        -----------------------------------------
Magnitude (a.u.)       :      0.57194
Magnitude (Debye)      :      1.45376

Rotational constants in cm-1:     0.018621     0.008709     0.006946
Rotational constants in MHz :   558.235399   261.076627   208.235320

                             ****ORCA TERMINATED NORMALLY****
TOTAL RUN TIME: 0 days 0 hours 0 minutes 34 seconds 786 msec
