                         Program Version 4.2.1 -  RELEASE  -
|  1> ! wB97X-D3 SP def2-SVP
|  2> %pal
|  3> nprocs 16
|  4> end
|  5>
|  6> * xyz 0 1
|  7> S 	 -41.5155 	 37.2745 	 79.7828
|  8> C 	 -40.121 	 38.189 	 80.2994
|  9> C 	 -40.4095 	 38.9733 	 81.4146
| 10> C 	 -41.793 	 38.9638 	 81.7465
| 11> C 	 -42.5153 	 38.0056 	 80.9904
| 12> H 	 -42.2375 	 39.5158 	 82.5987
| 13> C 	 -39.3483 	 39.638 	 82.2846
| 14> H 	 -38.4739 	 39.0316 	 82.2511
| 15> H 	 -39.67 	 39.7655 	 83.25
| 16> C 	 -38.8545 	 40.9924 	 81.6888
| 17> H 	 -38.2019 	 41.3496 	 82.4651
| 18> H 	 -38.2881 	 40.7741 	 80.7342
| 19> C 	 -39.9498 	 41.9935 	 81.3141
| 20> H 	 -40.2847 	 41.6891 	 80.2877
| 21> H 	 -40.809 	 42.1353 	 82.0359
| 22> H 	 -39.4724 	 42.9269 	 81.2449
| 23> S 	 -44.8157 	 37.5926 	 79.6379
| 24> C 	 -46.3275 	 37.3265 	 80.5434
| 25> C 	 -46.1014 	 37.1613 	 81.8613
| 26> C 	 -44.7222 	 37.4469 	 82.2184
| 27> C 	 -43.9527 	 37.7222 	 81.1057
| 28> H 	 -46.9122 	 36.8411 	 82.5208
| 29> C 	 -44.1765 	 37.2198 	 83.5575
| 30> H 	 -43.0473 	 37.2963 	 83.5148
| 31> H 	 -44.4432 	 36.2699 	 83.8004
| 32> C 	 -44.6621 	 38.263 	 84.6685
| 33> H 	 -44.6271 	 39.2619 	 84.2919
| 34> H 	 -44.0189 	 38.2537 	 85.5398
| 35> C 	 -46.095 	 38.1132 	 85.177
| 36> H 	 -46.8777 	 38.3729 	 84.4617
| 37> H 	 -46.2641 	 38.7622 	 86.0054
| 38> H 	 -46.2029 	 37.0836 	 85.5795
| 39> H 	 -39.1246 	 37.9595 	 79.9233
| 40> H 	 -47.258 	 37.1092 	 80.1342
| 41> *
| 42>
| 43>                          ****END OF INPUT****

CARTESIAN COORDINATES (ANGSTROEM)
---------------------------------
  S    -41.515500   37.274500   79.782800
  C    -40.121000   38.189000   80.299400
  C    -40.409500   38.973300   81.414600
  C    -41.793000   38.963800   81.746500
  C    -42.515300   38.005600   80.990400
  H    -42.237500   39.515800   82.598700
  C    -39.348300   39.638000   82.284600
  H    -38.473900   39.031600   82.251100
  H    -39.670000   39.765500   83.250000
  C    -38.854500   40.992400   81.688800
  H    -38.201900   41.349600   82.465100
  H    -38.288100   40.774100   80.734200
  C    -39.949800   41.993500   81.314100
  H    -40.284700   41.689100   80.287700
  H    -40.809000   42.135300   82.035900
  H    -39.472400   42.926900   81.244900
  S    -44.815700   37.592600   79.637900
  C    -46.327500   37.326500   80.543400
  C    -46.101400   37.161300   81.861300
  C    -44.722200   37.446900   82.218400
  C    -43.952700   37.722200   81.105700
  H    -46.912200   36.841100   82.520800
  C    -44.176500   37.219800   83.557500
  H    -43.047300   37.296300   83.514800
  H    -44.443200   36.269900   83.800400
  C    -44.662100   38.263000   84.668500
  H    -44.627100   39.261900   84.291900
  H    -44.018900   38.253700   85.539800
  C    -46.095000   38.113200   85.177000
  H    -46.877700   38.372900   84.461700
  H    -46.264100   38.762200   86.005400
  H    -46.202900   37.083600   85.579500
  H    -39.124600   37.959500   79.923300
  H    -47.258000   37.109200   80.134200

 Total Charge           Charge          ....    0
 Multiplicity           Mult            ....    1
 Number of Electrons    NEL             ....  134
 Basis Dimension        Dim             ....  322

ORBITAL ENERGIES
----------------

  NO   OCC          E(Eh)            E(eV)
   0   2.0000     -88.969717     -2420.9891
   1   2.0000     -88.962452     -2420.7914
   2   2.0000     -10.331537      -281.1354
   3   2.0000     -10.321612      -280.8653
   4   2.0000     -10.313016      -280.6314
   5   2.0000     -10.309769      -280.5431
   6   2.0000     -10.301303      -280.3127
   7   2.0000     -10.298009      -280.2231
   8   2.0000     -10.297925      -280.2208
   9   2.0000     -10.293188      -280.0919
  10   2.0000     -10.288145      -279.9547
  11   2.0000     -10.285555      -279.8842
  12   2.0000     -10.285232      -279.8754
  13   2.0000     -10.283198      -279.8200
  14   2.0000     -10.276578      -279.6399
  15   2.0000     -10.276079      -279.6263
  16   2.0000      -8.084492      -219.9902
  17   2.0000      -8.077763      -219.8071
  18   2.0000      -6.042933      -164.4366
  19   2.0000      -6.038874      -164.3261
  20   2.0000      -6.036373      -164.2581
  21   2.0000      -6.035463      -164.2333
  22   2.0000      -6.032337      -164.1482
  23   2.0000      -6.028228      -164.0364
  24   2.0000      -1.008966       -27.4554
  25   2.0000      -0.984667       -26.7941
  26   2.0000      -0.911394       -24.8003
  27   2.0000      -0.906217       -24.6594
  28   2.0000      -0.869558       -23.6619
  29   2.0000      -0.852510       -23.1980
  30   2.0000      -0.844314       -22.9749
  31   2.0000      -0.816531       -22.2189
  32   2.0000      -0.786030       -21.3890
  33   2.0000      -0.771139       -20.9838
  34   2.0000      -0.706094       -19.2138
  35   2.0000      -0.695355       -18.9216
  36   2.0000      -0.691874       -18.8269
  37   2.0000      -0.664744       -18.0886
  38   2.0000      -0.637044       -17.3348
  39   2.0000      -0.613438       -16.6925
  40   2.0000      -0.594490       -16.1769
  41   2.0000      -0.578615       -15.7449
  42   2.0000      -0.553223       -15.0540
  43   2.0000      -0.546323       -14.8662
  44   2.0000      -0.540164       -14.6986
  45   2.0000      -0.537796       -14.6342
  46   2.0000      -0.520109       -14.1529
  47   2.0000      -0.517252       -14.0751
  48   2.0000      -0.503935       -13.7128
  49   2.0000      -0.497562       -13.5394
  50   2.0000      -0.488233       -13.2855
  51   2.0000      -0.481774       -13.1097
  52   2.0000      -0.473344       -12.8804
  53   2.0000      -0.468486       -12.7481
  54   2.0000      -0.459957       -12.5161
  55   2.0000      -0.445970       -12.1355
  56   2.0000      -0.437368       -11.9014
  57   2.0000      -0.429802       -11.6955
  58   2.0000      -0.427978       -11.6459
  59   2.0000      -0.427212       -11.6250
  60   2.0000      -0.425848       -11.5879
  61   2.0000      -0.420472       -11.4416
  62   2.0000      -0.416483       -11.3331
  63   2.0000      -0.350891        -9.5482
  64   2.0000      -0.330687        -8.9984
  65   2.0000      -0.325384        -8.8541
  66   2.0000      -0.288225        -7.8430
  67   0.0000       0.030946         0.8421
  68   0.0000       0.074326         2.0225
  69   0.0000       0.102972         2.8020
  70   0.0000       0.123405         3.3580
  71   0.0000       0.128583         3.4989

MULLIKEN ATOMIC CHARGES
-----------------------
   0 S :    0.121377
   1 C :   -0.135170
   2 C :   -0.105647
   3 C :    0.018656
   4 C :   -0.164329
   5 H :    0.027253
   6 C :    0.131672
   7 H :    0.017920
   8 H :    0.002752
   9 C :   -0.113241
  10 H :    0.028241
  11 H :    0.038617
  12 C :   -0.050788
  13 H :    0.051064
  14 H :    0.039477
  15 H :    0.024658
  16 S :    0.097307
  17 C :   -0.053660
  18 C :   -0.039100
  19 C :   -0.038337
  20 C :   -0.141093
  21 H :    0.030015
  22 C :    0.079099
  23 H :    0.039430
  24 H :    0.006661
  25 C :   -0.069805
  26 H :    0.020773
  27 H :    0.027039
  28 C :   -0.060548
  29 H :    0.040588
  30 H :    0.023662
  31 H :    0.027653
  32 H :    0.052188
  33 H :    0.025616
Sum of atomic charges:   -0.0000000

LOEWDIN ATOMIC CHARGES
----------------------
   0 S :    0.423068
   1 C :   -0.210691
   2 C :   -0.057271
   3 C :   -0.069040
   4 C :   -0.199195
   5 H :    0.036117
   6 C :   -0.018221
   7 H :    0.030040
   8 H :    0.015667
   9 C :   -0.037719
  10 H :    0.017479
  11 H :    0.030385
  12 C :   -0.072398
  13 H :    0.036360
  14 H :    0.029074
  15 H :    0.019498
  16 S :    0.400943
  17 C :   -0.164325
  18 C :   -0.064981
  19 C :   -0.059038
  20 C :   -0.208180
  21 H :    0.036984
  22 C :   -0.024595
  23 H :    0.040425
  24 H :    0.017397
  25 C :   -0.035603
  26 H :    0.019253
  27 H :    0.022795
  28 C :   -0.069441
  29 H :    0.023863
  30 H :    0.023048
  31 H :    0.025258
  32 H :    0.026947
  33 H :    0.016100

  Mayer bond orders larger than 0.100000
B(  0-S ,  1-C ) :   1.1436 B(  0-S ,  4-C ) :   1.1836 B(  1-C ,  2-C ) :   1.5795
B(  1-C ,  4-C ) :   0.1045 B(  1-C , 32-H ) :   0.9671 B(  2-C ,  3-C ) :   1.2704
B(  2-C ,  6-C ) :   1.0226 B(  3-C ,  4-C ) :   1.5237 B(  3-C ,  5-H ) :   0.9872
B(  4-C , 20-C ) :   1.0308 B(  6-C ,  7-H ) :   0.9401 B(  6-C ,  8-H ) :   0.9416
B(  6-C ,  9-C ) :   1.0716 B(  9-C , 10-H ) :   0.9621 B(  9-C , 11-H ) :   0.9587
B(  9-C , 12-C ) :   1.0733 B( 12-C , 13-H ) :   0.9714 B( 12-C , 14-H ) :   0.9773
B( 12-C , 15-H ) :   0.9730 B( 16-S , 17-C ) :   1.1267 B( 16-S , 20-C ) :   1.1380
B( 17-C , 18-C ) :   1.6586 B( 17-C , 33-H ) :   0.9709 B( 18-C , 19-C ) :   1.1986
B( 18-C , 21-H ) :   0.9841 B( 19-C , 20-C ) :   1.6140 B( 19-C , 22-C ) :   1.0524
B( 22-C , 23-H ) :   0.9297 B( 22-C , 24-H ) :   0.9370 B( 22-C , 25-C ) :   1.0524
B( 25-C , 26-H ) :   0.9559 B( 25-C , 27-H ) :   0.9598 B( 25-C , 28-C ) :   1.0887
B( 28-C , 29-H ) :   0.9719 B( 28-C , 30-H ) :   0.9696 B( 28-C , 31-H ) :   0.9752

Dispersion correction           -0.014667925
FINAL SINGLE POINT ENERGY     -1339.874783874534

DIPOLE MOMENT
-------------
                                X             Y             Z
Electronic contribution:     -4.95417     -13.67986     -21.36494
Nuclear contribution   :      5.10248      13.76458      22.03926
                        -----------------------------------------
Total Dipole Moment    :      0.14831       0.08473       0.67432
                        -----------------------------------------
Magnitude (a.u.)       :      0.69562
Magnitude (Debye)      :      1.76813

Rotational constants in cm-1:     0.019286     0.008644     0.006782
Rotational constants in MHz :   578.181180   259.142483   203.330784

                             ****ORCA TERMINATED NORMALLY****
TOTAL RUN TIME: 0 days 0 hours 0 minutes 30 seconds 232 msec
