                         Program Version 4.2.1 -  RELEASE  -
|  1> ! wB97X-D3 SP def2-SVP
|  2> %pal
|  3> nprocs 16
|  4> end
|  5>
|  6> * xyz 0 1
|  7> S 	 46.5521 	 13.0379 	 50.1586
|  8> C 	 45.812 	 11.4879 	 49.8664
|  9> C 	 44.5557 	 11.4205 	 50.3424
| 10> C 	 44.14 	 12.5646 	 51.0751
| 11> C 	 45.1555 	 13.539 	 51.1783
| 12> H 	 43.1712 	 12.6329 	 51.5929
| 13> C 	 43.6733 	 10.1021 	 50.3217
| 14> H 	 44.1608 	 9.25058 	 50.7566
| 15> H 	 43.7679 	 9.73992 	 49.2454
| 16> C 	 42.1917 	 10.1233 	 50.7031
| 17> H 	 41.7714 	 11.0032 	 50.255
| 18> H 	 41.5893 	 9.29041 	 50.3598
| 19> C 	 41.7699 	 9.99581 	 52.1482
| 20> H 	 42.1576 	 10.9101 	 52.5968
| 21> H 	 40.6992 	 10.0607 	 52.056
| 22> H 	 42.0441 	 9.02868 	 52.676
| 23> S 	 46.0723 	 16.0076 	 51.2885
| 24> C 	 45.456 	 17.1274 	 52.4195
| 25> C 	 44.4541 	 16.6362 	 53.2288
| 26> C 	 44.2648 	 15.2471 	 52.9839
| 27> C 	 45.0698 	 14.7709 	 51.9438
| 28> H 	 44.0023 	 17.4138 	 53.8532
| 29> C 	 43.1609 	 14.4723 	 53.712
| 30> H 	 43.3581 	 13.4837 	 53.4072
| 31> H 	 42.2333 	 14.7771 	 53.2492
| 32> C 	 43.0072 	 14.5419 	 55.1781
| 33> H 	 41.8995 	 14.4737 	 55.2907
| 34> H 	 43.268 	 15.5401 	 55.4851
| 35> C 	 43.7605 	 13.555 	 56.0693
| 36> H 	 44.1914 	 12.7007 	 55.4899
| 37> H 	 43.1151 	 13.221 	 56.8988
| 38> H 	 44.5834 	 14.1076 	 56.4743
| 39> H 	 46.3427 	 10.7086 	 49.4158
| 40> H 	 45.7227 	 18.1947 	 52.5475
| 41> *
| 42>
| 43>                          ****END OF INPUT****

CARTESIAN COORDINATES (ANGSTROEM)
---------------------------------
  S     46.552100   13.037900   50.158600
  C     45.812000   11.487900   49.866400
  C     44.555700   11.420500   50.342400
  C     44.140000   12.564600   51.075100
  C     45.155500   13.539000   51.178300
  H     43.171200   12.632900   51.592900
  C     43.673300   10.102100   50.321700
  H     44.160800    9.250580   50.756600
  H     43.767900    9.739920   49.245400
  C     42.191700   10.123300   50.703100
  H     41.771400   11.003200   50.255000
  H     41.589300    9.290410   50.359800
  C     41.769900    9.995810   52.148200
  H     42.157600   10.910100   52.596800
  H     40.699200   10.060700   52.056000
  H     42.044100    9.028680   52.676000
  S     46.072300   16.007600   51.288500
  C     45.456000   17.127400   52.419500
  C     44.454100   16.636200   53.228800
  C     44.264800   15.247100   52.983900
  C     45.069800   14.770900   51.943800
  H     44.002300   17.413800   53.853200
  C     43.160900   14.472300   53.712000
  H     43.358100   13.483700   53.407200
  H     42.233300   14.777100   53.249200
  C     43.007200   14.541900   55.178100
  H     41.899500   14.473700   55.290700
  H     43.268000   15.540100   55.485100
  C     43.760500   13.555000   56.069300
  H     44.191400   12.700700   55.489900
  H     43.115100   13.221000   56.898800
  H     44.583400   14.107600   56.474300
  H     46.342700   10.708600   49.415800
  H     45.722700   18.194700   52.547500

 Total Charge           Charge          ....    0
 Multiplicity           Mult            ....    1
 Number of Electrons    NEL             ....  134
 Basis Dimension        Dim             ....  322

ORBITAL ENERGIES
----------------

  NO   OCC          E(Eh)            E(eV)
   0   2.0000     -88.968698     -2420.9613
   1   2.0000     -88.966580     -2420.9037
   2   2.0000     -10.338030      -281.3121
   3   2.0000     -10.325954      -280.9835
   4   2.0000     -10.312734      -280.6238
   5   2.0000     -10.306868      -280.4641
   6   2.0000     -10.306433      -280.4523
   7   2.0000     -10.302334      -280.3408
   8   2.0000     -10.297350      -280.2051
   9   2.0000     -10.296992      -280.1954
  10   2.0000     -10.292589      -280.0756
  11   2.0000     -10.283731      -279.8345
  12   2.0000     -10.282409      -279.7986
  13   2.0000     -10.281137      -279.7640
  14   2.0000     -10.281117      -279.7634
  15   2.0000     -10.277311      -279.6598
  16   2.0000      -8.082739      -219.9425
  17   2.0000      -8.082687      -219.9411
  18   2.0000      -6.041384      -164.3944
  19   2.0000      -6.041125      -164.3874
  20   2.0000      -6.037405      -164.2861
  21   2.0000      -6.037083      -164.2774
  22   2.0000      -6.033513      -164.1802
  23   2.0000      -6.033212      -164.1720
  24   2.0000      -1.011628       -27.5278
  25   2.0000      -0.986131       -26.8340
  26   2.0000      -0.917667       -24.9710
  27   2.0000      -0.909400       -24.7460
  28   2.0000      -0.876304       -23.8455
  29   2.0000      -0.854880       -23.2625
  30   2.0000      -0.845784       -23.0150
  31   2.0000      -0.816789       -22.2259
  32   2.0000      -0.788569       -21.4581
  33   2.0000      -0.777073       -21.1452
  34   2.0000      -0.712373       -19.3846
  35   2.0000      -0.695977       -18.9385
  36   2.0000      -0.687506       -18.7080
  37   2.0000      -0.656153       -17.8548
  38   2.0000      -0.636261       -17.3135
  39   2.0000      -0.630005       -17.1433
  40   2.0000      -0.596927       -16.2432
  41   2.0000      -0.570743       -15.5307
  42   2.0000      -0.560374       -15.2486
  43   2.0000      -0.554586       -15.0910
  44   2.0000      -0.540667       -14.7123
  45   2.0000      -0.532575       -14.4921
  46   2.0000      -0.520373       -14.1601
  47   2.0000      -0.511320       -13.9137
  48   2.0000      -0.508577       -13.8391
  49   2.0000      -0.499392       -13.5892
  50   2.0000      -0.498573       -13.5669
  51   2.0000      -0.491170       -13.3654
  52   2.0000      -0.470616       -12.8061
  53   2.0000      -0.459494       -12.5035
  54   2.0000      -0.457166       -12.4401
  55   2.0000      -0.450791       -12.2667
  56   2.0000      -0.444978       -12.1085
  57   2.0000      -0.441060       -12.0019
  58   2.0000      -0.431844       -11.7511
  59   2.0000      -0.426675       -11.6104
  60   2.0000      -0.419766       -11.4224
  61   2.0000      -0.405524       -11.0349
  62   2.0000      -0.398989       -10.8571
  63   2.0000      -0.360768        -9.8170
  64   2.0000      -0.336485        -9.1562
  65   2.0000      -0.329222        -8.9586
  66   2.0000      -0.279589        -7.6080
  67   0.0000       0.020424         0.5558
  68   0.0000       0.082151         2.2354
  69   0.0000       0.096488         2.6256
  70   0.0000       0.118041         3.2120
  71   0.0000       0.135782         3.6948

MULLIKEN ATOMIC CHARGES
-----------------------
   0 S :    0.106139
   1 C :   -0.122129
   2 C :   -0.022428
   3 C :   -0.028298
   4 C :   -0.110960
   5 H :    0.020151
   6 C :    0.054665
   7 H :    0.022941
   8 H :    0.030134
   9 C :   -0.097165
  10 H :    0.027606
  11 H :    0.023324
  12 C :   -0.042953
  13 H :    0.017616
  14 H :    0.030499
  15 H :    0.052736
  16 S :    0.108921
  17 C :   -0.097690
  18 C :   -0.066841
  19 C :   -0.068201
  20 C :   -0.134498
  21 H :    0.031348
  22 C :    0.093108
  23 H :   -0.001296
  24 H :    0.035748
  25 C :   -0.068980
  26 H :    0.025542
  27 H :    0.014327
  28 C :   -0.035026
  29 H :    0.043791
  30 H :    0.042950
  31 H :    0.031313
  32 H :    0.026096
  33 H :    0.057510
Sum of atomic charges:    0.0000000

LOEWDIN ATOMIC CHARGES
----------------------
   0 S :    0.382995
   1 C :   -0.188142
   2 C :   -0.060230
   3 C :   -0.074599
   4 C :   -0.173256
   5 H :    0.031903
   6 C :   -0.039925
   7 H :    0.026699
   8 H :    0.041738
   9 C :   -0.053893
  10 H :    0.023096
  11 H :    0.029931
  12 C :   -0.063750
  13 H :    0.016016
  14 H :    0.026859
  15 H :    0.034332
  16 S :    0.435519
  17 C :   -0.202625
  18 C :   -0.081201
  19 C :   -0.053429
  20 C :   -0.204650
  21 H :    0.039911
  22 C :   -0.031567
  23 H :    0.018852
  24 H :    0.036317
  25 C :   -0.047143
  26 H :    0.030564
  27 H :    0.020122
  28 C :   -0.064303
  29 H :    0.031809
  30 H :    0.032461
  31 H :    0.026432
  32 H :    0.018601
  33 H :    0.034554

  Mayer bond orders larger than 0.100000
B(  0-S ,  1-C ) :   1.1190 B(  0-S ,  4-C ) :   1.1414 B(  1-C ,  2-C ) :   1.6352
B(  1-C , 32-H ) :   0.9798 B(  2-C ,  3-C ) :   1.2581 B(  2-C ,  6-C ) :   0.9860
B(  3-C ,  4-C ) :   1.5522 B(  3-C ,  5-H ) :   0.9753 B(  4-C , 20-C ) :   1.0898
B(  6-C ,  7-H ) :   0.9467 B(  6-C ,  8-H ) :   0.9371 B(  6-C ,  9-C ) :   1.0743
B(  9-C , 10-H ) :   0.9535 B(  9-C , 11-H ) :   0.9583 B(  9-C , 12-C ) :   1.0731
B( 12-C , 13-H ) :   0.9772 B( 12-C , 14-H ) :   0.9737 B( 12-C , 15-H ) :   0.9708
B( 16-S , 17-C ) :   1.1713 B( 16-S , 20-C ) :   1.1415 B( 17-C , 18-C ) :   1.6325
B( 17-C , 33-H ) :   0.9586 B( 18-C , 19-C ) :   1.2264 B( 18-C , 21-H ) :   0.9890
B( 19-C , 20-C ) :   1.5753 B( 19-C , 22-C ) :   1.0310 B( 22-C , 23-H ) :   0.9248
B( 22-C , 24-H ) :   0.9292 B( 22-C , 25-C ) :   1.0775 B( 25-C , 26-H ) :   0.9548
B( 25-C , 27-H ) :   0.9584 B( 25-C , 28-C ) :   1.0617 B( 28-C , 29-H ) :   0.9790
B( 28-C , 30-H ) :   0.9762 B( 28-C , 31-H ) :   0.9784

Dispersion correction           -0.013996100
FINAL SINGLE POINT ENERGY     -1339.847284548676

DIPOLE MOMENT
-------------
                                X             Y             Z
Electronic contribution:     22.00210      15.82946     -16.32420
Nuclear contribution   :    -22.59623     -16.03857      16.63751
                        -----------------------------------------
Total Dipole Moment    :     -0.59412      -0.20911       0.31331
                        -----------------------------------------
Magnitude (a.u.)       :      0.70347
Magnitude (Debye)      :      1.78808

Rotational constants in cm-1:     0.015886     0.010418     0.006864
Rotational constants in MHz :   476.240403   312.325121   205.762739

                             ****ORCA TERMINATED NORMALLY****
TOTAL RUN TIME: 0 days 0 hours 0 minutes 35 seconds 532 msec
