                         Program Version 4.2.1 -  RELEASE  -
|  1> ! wB97X-D3 SP def2-SVP
|  2> %pal
|  3> nprocs 16
|  4> end
|  5>
|  6> * xyz 0 1
|  7> S 	 10.0968 	 23.0903 	 39.7537
|  8> C 	 8.45799 	 23.7894 	 40.0074
|  9> C 	 8.52979 	 24.8716 	 40.835
| 10> C 	 9.82576 	 24.9517 	 41.5002
| 11> C 	 10.7522 	 24.0173 	 41.0592
| 12> H 	 10.1083 	 25.5906 	 42.3419
| 13> C 	 7.37089 	 25.808 	 41.0474
| 14> H 	 6.48972 	 25.3803 	 40.6507
| 15> H 	 7.49866 	 26.7437 	 40.5238
| 16> C 	 7.24045 	 26.2111 	 42.4822
| 17> H 	 7.67535 	 25.4311 	 43.1486
| 18> H 	 7.9011 	 27.073 	 42.6584
| 19> C 	 5.76112 	 26.5115 	 42.8552
| 20> H 	 5.25899 	 25.5642 	 42.9075
| 21> H 	 5.83217 	 27.0481 	 43.7743
| 22> H 	 5.21147 	 27.1737 	 42.1252
| 23> S 	 11.8064 	 23.5922 	 43.4295
| 24> C 	 13.4663 	 23.1153 	 43.591
| 25> C 	 14.1595 	 23.0748 	 42.3902
| 26> C 	 13.2587 	 23.2938 	 41.3056
| 27> C 	 11.9917 	 23.7087 	 41.6997
| 28> H 	 15.2131 	 22.7457 	 42.3336
| 29> C 	 13.7183 	 23.1419 	 39.8694
| 30> H 	 12.9119 	 23.6765 	 39.1959
| 31> H 	 13.678 	 22.0929 	 39.6627
| 32> C 	 15.1264 	 23.6099 	 39.4626
| 33> H 	 15.9319 	 23.3686 	 40.1147
| 34> H 	 15.0836 	 24.6782 	 39.3736
| 35> C 	 15.5434 	 23.1016 	 38.0165
| 36> H 	 16.3634 	 23.7735 	 37.7195
| 37> H 	 14.7124 	 23.3868 	 37.3617
| 38> H 	 15.6939 	 22.0386 	 37.8329
| 39> H 	 7.64497 	 23.5169 	 39.4871
| 40> H 	 13.9451 	 22.8318 	 44.4952
| 41> *
| 42>
| 43>                          ****END OF INPUT****

CARTESIAN COORDINATES (ANGSTROEM)
---------------------------------
  S     10.096800   23.090300   39.753700
  C      8.457990   23.789400   40.007400
  C      8.529790   24.871600   40.835000
  C      9.825760   24.951700   41.500200
  C     10.752200   24.017300   41.059200
  H     10.108300   25.590600   42.341900
  C      7.370890   25.808000   41.047400
  H      6.489720   25.380300   40.650700
  H      7.498660   26.743700   40.523800
  C      7.240450   26.211100   42.482200
  H      7.675350   25.431100   43.148600
  H      7.901100   27.073000   42.658400
  C      5.761120   26.511500   42.855200
  H      5.258990   25.564200   42.907500
  H      5.832170   27.048100   43.774300
  H      5.211470   27.173700   42.125200
  S     11.806400   23.592200   43.429500
  C     13.466300   23.115300   43.591000
  C     14.159500   23.074800   42.390200
  C     13.258700   23.293800   41.305600
  C     11.991700   23.708700   41.699700
  H     15.213100   22.745700   42.333600
  C     13.718300   23.141900   39.869400
  H     12.911900   23.676500   39.195900
  H     13.678000   22.092900   39.662700
  C     15.126400   23.609900   39.462600
  H     15.931900   23.368600   40.114700
  H     15.083600   24.678200   39.373600
  C     15.543400   23.101600   38.016500
  H     16.363400   23.773500   37.719500
  H     14.712400   23.386800   37.361700
  H     15.693900   22.038600   37.832900
  H      7.644970   23.516900   39.487100
  H     13.945100   22.831800   44.495200

 Total Charge           Charge          ....    0
 Multiplicity           Mult            ....    1
 Number of Electrons    NEL             ....  134
 Basis Dimension        Dim             ....  322

ORBITAL ENERGIES
----------------

  NO   OCC          E(Eh)            E(eV)
   0   2.0000     -88.966977     -2420.9145
   1   2.0000     -88.961794     -2420.7735
   2   2.0000     -10.327777      -281.0331
   3   2.0000     -10.322570      -280.8914
   4   2.0000     -10.313873      -280.6547
   5   2.0000     -10.305716      -280.4328
   6   2.0000     -10.303900      -280.3834
   7   2.0000     -10.302145      -280.3356
   8   2.0000     -10.296354      -280.1780
   9   2.0000     -10.295956      -280.1672
  10   2.0000     -10.294659      -280.1319
  11   2.0000     -10.286919      -279.9213
  12   2.0000     -10.284636      -279.8592
  13   2.0000     -10.283127      -279.8181
  14   2.0000     -10.281377      -279.7705
  15   2.0000     -10.279997      -279.7329
  16   2.0000      -8.081893      -219.9195
  17   2.0000      -8.076155      -219.7633
  18   2.0000      -6.040346      -164.3662
  19   2.0000      -6.036402      -164.2589
  20   2.0000      -6.034820      -164.2158
  21   2.0000      -6.032659      -164.1570
  22   2.0000      -6.030820      -164.1069
  23   2.0000      -6.026669      -163.9940
  24   2.0000      -1.009563       -27.4716
  25   2.0000      -0.982317       -26.7302
  26   2.0000      -0.918611       -24.9967
  27   2.0000      -0.905048       -24.6276
  28   2.0000      -0.874487       -23.7960
  29   2.0000      -0.851288       -23.1647
  30   2.0000      -0.838879       -22.8271
  31   2.0000      -0.813244       -22.1295
  32   2.0000      -0.783636       -21.3238
  33   2.0000      -0.771176       -20.9848
  34   2.0000      -0.714191       -19.4341
  35   2.0000      -0.701922       -19.1003
  36   2.0000      -0.689517       -18.7627
  37   2.0000      -0.668409       -18.1883
  38   2.0000      -0.637729       -17.3535
  39   2.0000      -0.613963       -16.7068
  40   2.0000      -0.596336       -16.2271
  41   2.0000      -0.576647       -15.6914
  42   2.0000      -0.565842       -15.3973
  43   2.0000      -0.564766       -15.3681
  44   2.0000      -0.529316       -14.4034
  45   2.0000      -0.524372       -14.2689
  46   2.0000      -0.520551       -14.1649
  47   2.0000      -0.510700       -13.8969
  48   2.0000      -0.509661       -13.8686
  49   2.0000      -0.498394       -13.5620
  50   2.0000      -0.490024       -13.3342
  51   2.0000      -0.480994       -13.0885
  52   2.0000      -0.471666       -12.8347
  53   2.0000      -0.463376       -12.6091
  54   2.0000      -0.454827       -12.3765
  55   2.0000      -0.451527       -12.2867
  56   2.0000      -0.444886       -12.1060
  57   2.0000      -0.439463       -11.9584
  58   2.0000      -0.432483       -11.7685
  59   2.0000      -0.426631       -11.6092
  60   2.0000      -0.417983       -11.3739
  61   2.0000      -0.414082       -11.2677
  62   2.0000      -0.411095       -11.1865
  63   2.0000      -0.351214        -9.5570
  64   2.0000      -0.331209        -9.0127
  65   2.0000      -0.325083        -8.8460
  66   2.0000      -0.286022        -7.7831
  67   0.0000       0.030112         0.8194
  68   0.0000       0.072559         1.9744
  69   0.0000       0.098812         2.6888
  70   0.0000       0.119156         3.2424
  71   0.0000       0.133685         3.6378

MULLIKEN ATOMIC CHARGES
-----------------------
   0 S :    0.093533
   1 C :   -0.089695
   2 C :   -0.082823
   3 C :   -0.021895
   4 C :   -0.119718
   5 H :    0.022962
   6 C :    0.144110
   7 H :   -0.000487
   8 H :    0.037246
   9 C :   -0.151963
  10 H :    0.042792
  11 H :    0.031394
  12 C :   -0.036170
  13 H :    0.042650
  14 H :    0.032680
  15 H :    0.037320
  16 S :    0.113031
  17 C :   -0.073566
  18 C :   -0.049323
  19 C :   -0.031108
  20 C :   -0.142921
  21 H :    0.035000
  22 C :    0.024825
  23 H :    0.046059
  24 H :    0.035261
  25 C :   -0.074507
  26 H :    0.030038
  27 H :    0.031383
  28 C :   -0.073107
  29 H :    0.038500
  30 H :    0.024571
  31 H :    0.047128
  32 H :   -0.003180
  33 H :    0.039981
Sum of atomic charges:   -0.0000000

LOEWDIN ATOMIC CHARGES
----------------------
   0 S :    0.386587
   1 C :   -0.162584
   2 C :   -0.048649
   3 C :   -0.081680
   4 C :   -0.197126
   5 H :    0.027893
   6 C :   -0.029019
   7 H :    0.021906
   8 H :    0.037988
   9 C :   -0.047034
  10 H :    0.026797
  11 H :    0.022210
  12 C :   -0.059880
  13 H :    0.025679
  14 H :    0.024080
  15 H :    0.029627
  16 S :    0.431058
  17 C :   -0.182375
  18 C :   -0.074028
  19 C :   -0.057035
  20 C :   -0.202098
  21 H :    0.039080
  22 C :   -0.042046
  23 H :    0.038278
  24 H :    0.029783
  25 C :   -0.035173
  26 H :    0.016500
  27 H :    0.025875
  28 C :   -0.068043
  29 H :    0.030983
  30 H :    0.025157
  31 H :    0.024694
  32 H :    0.001470
  33 H :    0.021127

  Mayer bond orders larger than 0.100000
B(  0-S ,  1-C ) :   1.1098 B(  0-S ,  4-C ) :   1.1335 B(  1-C ,  2-C ) :   1.6454
B(  1-C , 32-H ) :   0.9858 B(  2-C ,  3-C ) :   1.1812 B(  2-C ,  6-C ) :   1.0362
B(  3-C ,  4-C ) :   1.5690 B(  3-C ,  5-H ) :   0.9926 B(  4-C , 20-C ) :   1.0626
B(  6-C ,  7-H ) :   0.9430 B(  6-C ,  8-H ) :   0.9222 B(  6-C ,  9-C ) :   1.0494
B(  9-C , 10-H ) :   0.9668 B(  9-C , 11-H ) :   0.9507 B(  9-C , 12-C ) :   1.0741
B( 12-C , 13-H ) :   0.9774 B( 12-C , 14-H ) :   0.9742 B( 12-C , 15-H ) :   0.9752
B( 16-S , 17-C ) :   1.1691 B( 16-S , 20-C ) :   1.1316 B( 17-C , 18-C ) :   1.6034
B( 17-C , 33-H ) :   0.9674 B( 18-C , 19-C ) :   1.2439 B( 18-C , 21-H ) :   0.9835
B( 19-C , 20-C ) :   1.5823 B( 19-C , 22-C ) :   1.0345 B( 22-C , 23-H ) :   0.9360
B( 22-C , 24-H ) :   0.9316 B( 22-C , 25-C ) :   1.0648 B( 25-C , 26-H ) :   0.9562
B( 25-C , 27-H ) :   0.9569 B( 25-C , 28-C ) :   1.0766 B( 28-C , 29-H ) :   0.9756
B( 28-C , 30-H ) :   0.9750 B( 28-C , 31-H ) :   0.9784

Dispersion correction           -0.013365416
FINAL SINGLE POINT ENERGY     -1339.866126173739

DIPOLE MOMENT
-------------
                                X             Y             Z
Electronic contribution:      1.52807      -8.91030       6.29488
Nuclear contribution   :     -1.49565       9.09219      -6.29175
                        -----------------------------------------
Total Dipole Moment    :      0.03243       0.18190       0.00313
                        -----------------------------------------
Magnitude (a.u.)       :      0.18479
Magnitude (Debye)      :      0.46970

Rotational constants in cm-1:     0.023877     0.007116     0.005908
Rotational constants in MHz :   715.809905   213.319626   177.112771

                             ****ORCA TERMINATED NORMALLY****
TOTAL RUN TIME: 0 days 0 hours 0 minutes 33 seconds 672 msec
