                         Program Version 4.2.1 -  RELEASE  -
|  1> ! wB97X-D3 SP def2-SVP
|  2> %pal
|  3> nprocs 16
|  4> end
|  5>
|  6> * xyz 0 1
|  7> S 	 44.3173 	 20.3752 	 45.7378
|  8> C 	 42.9234 	 19.3607 	 45.3068
|  9> C 	 42.0886 	 20.0186 	 44.4946
| 10> C 	 42.5556 	 21.3695 	 44.1843
| 11> C 	 43.7027 	 21.763 	 44.8221
| 12> H 	 42.1073 	 22.0152 	 43.4914
| 13> C 	 40.7452 	 19.4608 	 43.974
| 14> H 	 40.7094 	 18.4672 	 44.4176
| 15> H 	 40.96 	 19.2664 	 42.8935
| 16> C 	 39.5342 	 20.2851 	 44.1289
| 17> H 	 39.8396 	 21.2119 	 43.8141
| 18> H 	 38.7381 	 20.1371 	 43.3851
| 19> C 	 38.7869 	 20.3183 	 45.4922
| 20> H 	 37.9928 	 21.0296 	 45.4819
| 21> H 	 38.3837 	 19.3019 	 45.7529
| 22> H 	 39.5467 	 20.552 	 46.2383
| 23> S 	 45.9956 	 23.1595 	 44.6932
| 24> C 	 46.0286 	 24.9093 	 44.6924
| 25> C 	 44.789 	 25.4419 	 44.8424
| 26> C 	 43.767 	 24.4332 	 44.8986
| 27> C 	 44.266 	 23.114 	 44.8283
| 28> H 	 44.6914 	 26.5159 	 44.8417
| 29> C 	 42.2793 	 24.7985 	 44.8211
| 30> H 	 42.1061 	 25.3174 	 45.7489
| 31> H 	 41.6875 	 23.9063 	 44.716
| 32> C 	 42.0503 	 25.7556 	 43.6504
| 33> H 	 42.6257 	 26.6883 	 43.7295
| 34> H 	 41.041 	 26.1015 	 43.6297
| 35> C 	 42.2722 	 25.1107 	 42.28
| 36> H 	 41.5999 	 24.2896 	 42.0803
| 37> H 	 43.3201 	 24.8492 	 42.1498
| 38> H 	 41.9859 	 25.7067 	 41.521
| 39> H 	 42.7038 	 18.3944 	 45.6327
| 40> H 	 46.9278 	 25.4764 	 44.9341
| 41> *
| 42>
| 43>                          ****END OF INPUT****

CARTESIAN COORDINATES (ANGSTROEM)
---------------------------------
  S     44.317300   20.375200   45.737800
  C     42.923400   19.360700   45.306800
  C     42.088600   20.018600   44.494600
  C     42.555600   21.369500   44.184300
  C     43.702700   21.763000   44.822100
  H     42.107300   22.015200   43.491400
  C     40.745200   19.460800   43.974000
  H     40.709400   18.467200   44.417600
  H     40.960000   19.266400   42.893500
  C     39.534200   20.285100   44.128900
  H     39.839600   21.211900   43.814100
  H     38.738100   20.137100   43.385100
  C     38.786900   20.318300   45.492200
  H     37.992800   21.029600   45.481900
  H     38.383700   19.301900   45.752900
  H     39.546700   20.552000   46.238300
  S     45.995600   23.159500   44.693200
  C     46.028600   24.909300   44.692400
  C     44.789000   25.441900   44.842400
  C     43.767000   24.433200   44.898600
  C     44.266000   23.114000   44.828300
  H     44.691400   26.515900   44.841700
  C     42.279300   24.798500   44.821100
  H     42.106100   25.317400   45.748900
  H     41.687500   23.906300   44.716000
  C     42.050300   25.755600   43.650400
  H     42.625700   26.688300   43.729500
  H     41.041000   26.101500   43.629700
  C     42.272200   25.110700   42.280000
  H     41.599900   24.289600   42.080300
  H     43.320100   24.849200   42.149800
  H     41.985900   25.706700   41.521000
  H     42.703800   18.394400   45.632700
  H     46.927800   25.476400   44.934100

 Total Charge           Charge          ....    0
 Multiplicity           Mult            ....    1
 Number of Electrons    NEL             ....  134
 Basis Dimension        Dim             ....  322

ORBITAL ENERGIES
----------------

  NO   OCC          E(Eh)            E(eV)
   0   2.0000     -88.964485     -2420.8467
   1   2.0000     -88.961741     -2420.7720
   2   2.0000     -10.333947      -281.2010
   3   2.0000     -10.330801      -281.1154
   4   2.0000     -10.315390      -280.6960
   5   2.0000     -10.309864      -280.5457
   6   2.0000     -10.309599      -280.5384
   7   2.0000     -10.300545      -280.2921
   8   2.0000     -10.295663      -280.1592
   9   2.0000     -10.295237      -280.1477
  10   2.0000     -10.291010      -280.0326
  11   2.0000     -10.289924      -280.0031
  12   2.0000     -10.284765      -279.8627
  13   2.0000     -10.281075      -279.7623
  14   2.0000     -10.280475      -279.7459
  15   2.0000     -10.265104      -279.3277
  16   2.0000      -8.078554      -219.8286
  17   2.0000      -8.077146      -219.7903
  18   2.0000      -6.037397      -164.2859
  19   2.0000      -6.035632      -164.2379
  20   2.0000      -6.033210      -164.1720
  21   2.0000      -6.031489      -164.1252
  22   2.0000      -6.028905      -164.0548
  23   2.0000      -6.027970      -164.0294
  24   2.0000      -1.006646       -27.3922
  25   2.0000      -0.985122       -26.8065
  26   2.0000      -0.917055       -24.9543
  27   2.0000      -0.912552       -24.8318
  28   2.0000      -0.876814       -23.8593
  29   2.0000      -0.847879       -23.0720
  30   2.0000      -0.840324       -22.8664
  31   2.0000      -0.822844       -22.3907
  32   2.0000      -0.786499       -21.4017
  33   2.0000      -0.779803       -21.2195
  34   2.0000      -0.718058       -19.5394
  35   2.0000      -0.702031       -19.1032
  36   2.0000      -0.697345       -18.9757
  37   2.0000      -0.658192       -17.9103
  38   2.0000      -0.642712       -17.4891
  39   2.0000      -0.624763       -17.0007
  40   2.0000      -0.595405       -16.2018
  41   2.0000      -0.569780       -15.5045
  42   2.0000      -0.563227       -15.3262
  43   2.0000      -0.561726       -15.2853
  44   2.0000      -0.544695       -14.8219
  45   2.0000      -0.537906       -14.6372
  46   2.0000      -0.522707       -14.2236
  47   2.0000      -0.513259       -13.9665
  48   2.0000      -0.508220       -13.8294
  49   2.0000      -0.496254       -13.5037
  50   2.0000      -0.490856       -13.3569
  51   2.0000      -0.481290       -13.0966
  52   2.0000      -0.471255       -12.8235
  53   2.0000      -0.468952       -12.7608
  54   2.0000      -0.461481       -12.5575
  55   2.0000      -0.453957       -12.3528
  56   2.0000      -0.447365       -12.1734
  57   2.0000      -0.441725       -12.0199
  58   2.0000      -0.434048       -11.8110
  59   2.0000      -0.427343       -11.6286
  60   2.0000      -0.426299       -11.6002
  61   2.0000      -0.408742       -11.1224
  62   2.0000      -0.401376       -10.9220
  63   2.0000      -0.354674        -9.6512
  64   2.0000      -0.329631        -8.9697
  65   2.0000      -0.327459        -8.9106
  66   2.0000      -0.296091        -8.0571
  67   0.0000       0.026829         0.7300
  68   0.0000       0.077838         2.1181
  69   0.0000       0.110677         3.0117
  70   0.0000       0.120411         3.2765
  71   0.0000       0.131032         3.5656

MULLIKEN ATOMIC CHARGES
-----------------------
   0 S :    0.099687
   1 C :   -0.098147
   2 C :   -0.104533
   3 C :    0.017715
   4 C :   -0.095870
   5 H :   -0.011464
   6 C :    0.089309
   7 H :    0.002224
   8 H :    0.045334
   9 C :   -0.028560
  10 H :   -0.013621
  11 H :    0.017889
  12 C :   -0.039312
  13 H :    0.034382
  14 H :    0.035184
  15 H :    0.036738
  16 S :    0.086586
  17 C :   -0.083134
  18 C :   -0.052148
  19 C :   -0.072042
  20 C :   -0.163614
  21 H :    0.025115
  22 C :    0.134359
  23 H :    0.028945
  24 H :    0.015114
  25 C :   -0.093655
  26 H :    0.028186
  27 H :    0.016453
  28 C :   -0.006770
  29 H :    0.016828
  30 H :    0.048421
  31 H :   -0.002067
  32 H :    0.019094
  33 H :    0.067373
Sum of atomic charges:   -0.0000000

LOEWDIN ATOMIC CHARGES
----------------------
   0 S :    0.376056
   1 C :   -0.176944
   2 C :   -0.062062
   3 C :   -0.062116
   4 C :   -0.182897
   5 H :    0.017050
   6 C :   -0.029308
   7 H :    0.024311
   8 H :    0.045108
   9 C :   -0.048306
  10 H :    0.011753
  11 H :    0.029055
  12 C :   -0.056933
  13 H :    0.022556
  14 H :    0.029644
  15 H :    0.026498
  16 S :    0.407795
  17 C :   -0.185799
  18 C :   -0.072786
  19 C :   -0.050886
  20 C :   -0.200758
  21 H :    0.033899
  22 C :   -0.021559
  23 H :    0.033419
  24 H :    0.025845
  25 C :   -0.037556
  26 H :    0.023449
  27 H :    0.019638
  28 C :   -0.058368
  29 H :    0.023855
  30 H :    0.030361
  31 H :    0.012079
  32 H :    0.020314
  33 H :    0.033592

  Mayer bond orders larger than 0.100000
B(  0-S ,  1-C ) :   1.1046 B(  0-S ,  4-C ) :   1.1236 B(  1-C ,  2-C ) :   1.6775
B(  1-C , 32-H ) :   0.9682 B(  2-C ,  3-C ) :   1.1857 B(  2-C ,  6-C ) :   1.0135
B(  3-C ,  4-C ) :   1.6133 B(  3-C ,  5-H ) :   1.0020 B(  4-C , 20-C ) :   1.0454
B(  6-C ,  7-H ) :   0.9418 B(  6-C ,  8-H ) :   0.9294 B(  6-C ,  9-C ) :   1.0729
B(  9-C , 10-H ) :   0.9446 B(  9-C , 11-H ) :   0.9457 B(  9-C , 12-C ) :   1.0756
B( 12-C , 13-H ) :   0.9745 B( 12-C , 14-H ) :   0.9750 B( 12-C , 15-H ) :   0.9791
B( 16-S , 17-C ) :   1.1568 B( 16-S , 20-C ) :   1.1479 B( 17-C , 18-C ) :   1.6279
B( 17-C , 33-H ) :   0.9582 B( 18-C , 19-C ) :   1.2329 B( 18-C , 21-H ) :   0.9907
B( 19-C , 20-C ) :   1.5781 B( 19-C , 22-C ) :   1.0306 B( 22-C , 23-H ) :   0.9215
B( 22-C , 24-H ) :   0.9433 B( 22-C , 25-C ) :   1.0821 B( 25-C , 26-H ) :   0.9512
B( 25-C , 27-H ) :   0.9527 B( 25-C , 28-C ) :   1.0833 B( 28-C , 29-H ) :   0.9663
B( 28-C , 30-H ) :   0.9742 B( 28-C , 31-H ) :   0.9643

Dispersion correction           -0.015004021
FINAL SINGLE POINT ENERGY     -1339.866704114691

DIPOLE MOMENT
-------------
                                X             Y             Z
Electronic contribution:     27.21771      -5.56945       8.10378
Nuclear contribution   :    -27.93448       5.95930      -8.34726
                        -----------------------------------------
Total Dipole Moment    :     -0.71677       0.38985      -0.24347
                        -----------------------------------------
Magnitude (a.u.)       :      0.85148
Magnitude (Debye)      :      2.16430

Rotational constants in cm-1:     0.018881     0.009650     0.006980
Rotational constants in MHz :   566.037297   289.306845   209.260459

                             ****ORCA TERMINATED NORMALLY****
TOTAL RUN TIME: 0 days 0 hours 0 minutes 36 seconds 373 msec
