                         Program Version 4.2.1 -  RELEASE  -
|  1> ! wB97X-D3 SP def2-SVP
|  2> %pal
|  3> nprocs 16
|  4> end
|  5>
|  6> * xyz 0 1
|  7> S 	 -44.5081 	 36.4621 	 80.3762
|  8> C 	 -43.9744 	 37.4876 	 79.1368
|  9> C 	 -43.0602 	 36.8691 	 78.2586
| 10> C 	 -42.9177 	 35.4662 	 78.5687
| 11> C 	 -43.5301 	 35.1218 	 79.7327
| 12> H 	 -42.4802 	 34.6722 	 77.9322
| 13> C 	 -42.3703 	 37.545 	 77.1094
| 14> H 	 -42.8169 	 38.5298 	 76.9517
| 15> H 	 -42.5305 	 36.9484 	 76.2447
| 16> C 	 -40.8842 	 37.6899 	 77.4143
| 17> H 	 -40.7448 	 38.4691 	 78.1872
| 18> H 	 -40.4747 	 36.7169 	 77.7728
| 19> C 	 -40.1758 	 38.206 	 76.2296
| 20> H 	 -40.547 	 39.1748 	 76.0206
| 21> H 	 -39.049 	 38.2884 	 76.3946
| 22> H 	 -40.2117 	 37.5903 	 75.2707
| 23> S 	 -45.2265 	 33.1979 	 80.8908
| 24> C 	 -44.5615 	 31.7879 	 81.5919
| 25> C 	 -43.2517 	 31.5844 	 81.3353
| 26> C 	 -42.6506 	 32.7342 	 80.6856
| 27> C 	 -43.5767 	 33.7924 	 80.4146
| 28> H 	 -42.677 	 30.7534 	 81.7319
| 29> C 	 -41.1854 	 32.8621 	 80.4809
| 30> H 	 -40.772 	 32.3146 	 81.2669
| 31> H 	 -40.8237 	 33.8995 	 80.664
| 32> C 	 -40.7023 	 32.4285 	 79.0532
| 33> H 	 -40.8629 	 33.2316 	 78.3483
| 34> H 	 -41.2685 	 31.5593 	 78.747
| 35> C 	 -39.17 	 32.2736 	 79.05
| 36> H 	 -38.8226 	 33.1173 	 79.5977
| 37> H 	 -38.7905 	 32.1907 	 77.966
| 38> H 	 -38.9161 	 31.3876 	 79.6209
| 39> H 	 -44.3265 	 38.5475 	 78.872
| 40> H 	 -45.1487 	 30.9775 	 82.0093
| 41> *
| 42>
| 43>                          ****END OF INPUT****

CARTESIAN COORDINATES (ANGSTROEM)
---------------------------------
  S    -44.508100   36.462100   80.376200
  C    -43.974400   37.487600   79.136800
  C    -43.060200   36.869100   78.258600
  C    -42.917700   35.466200   78.568700
  C    -43.530100   35.121800   79.732700
  H    -42.480200   34.672200   77.932200
  C    -42.370300   37.545000   77.109400
  H    -42.816900   38.529800   76.951700
  H    -42.530500   36.948400   76.244700
  C    -40.884200   37.689900   77.414300
  H    -40.744800   38.469100   78.187200
  H    -40.474700   36.716900   77.772800
  C    -40.175800   38.206000   76.229600
  H    -40.547000   39.174800   76.020600
  H    -39.049000   38.288400   76.394600
  H    -40.211700   37.590300   75.270700
  S    -45.226500   33.197900   80.890800
  C    -44.561500   31.787900   81.591900
  C    -43.251700   31.584400   81.335300
  C    -42.650600   32.734200   80.685600
  C    -43.576700   33.792400   80.414600
  H    -42.677000   30.753400   81.731900
  C    -41.185400   32.862100   80.480900
  H    -40.772000   32.314600   81.266900
  H    -40.823700   33.899500   80.664000
  C    -40.702300   32.428500   79.053200
  H    -40.862900   33.231600   78.348300
  H    -41.268500   31.559300   78.747000
  C    -39.170000   32.273600   79.050000
  H    -38.822600   33.117300   79.597700
  H    -38.790500   32.190700   77.966000
  H    -38.916100   31.387600   79.620900
  H    -44.326500   38.547500   78.872000
  H    -45.148700   30.977500   82.009300

 Total Charge           Charge          ....    0
 Multiplicity           Mult            ....    1
 Number of Electrons    NEL             ....  134
 Basis Dimension        Dim             ....  322

ORBITAL ENERGIES
----------------

  NO   OCC          E(Eh)            E(eV)
   0   2.0000     -88.967542     -2420.9299
   1   2.0000     -88.962176     -2420.7839
   2   2.0000     -10.335105      -281.2325
   3   2.0000     -10.332648      -281.1656
   4   2.0000     -10.317644      -280.7574
   5   2.0000     -10.312891      -280.6280
   6   2.0000     -10.308422      -280.5064
   7   2.0000     -10.301747      -280.3248
   8   2.0000     -10.297483      -280.2088
   9   2.0000     -10.292816      -280.0818
  10   2.0000     -10.288661      -279.9687
  11   2.0000     -10.287083      -279.9258
  12   2.0000     -10.286910      -279.9211
  13   2.0000     -10.286341      -279.9056
  14   2.0000     -10.281761      -279.7809
  15   2.0000     -10.280424      -279.7446
  16   2.0000      -8.082580      -219.9382
  17   2.0000      -8.076913      -219.7840
  18   2.0000      -6.041088      -164.3864
  19   2.0000      -6.037089      -164.2775
  20   2.0000      -6.035371      -164.2308
  21   2.0000      -6.033265      -164.1735
  22   2.0000      -6.031442      -164.1239
  23   2.0000      -6.027697      -164.0220
  24   2.0000      -1.002724       -27.2855
  25   2.0000      -0.983415       -26.7601
  26   2.0000      -0.921356       -25.0714
  27   2.0000      -0.910696       -24.7813
  28   2.0000      -0.866315       -23.5736
  29   2.0000      -0.854706       -23.2577
  30   2.0000      -0.849722       -23.1221
  31   2.0000      -0.817709       -22.2510
  32   2.0000      -0.779089       -21.2001
  33   2.0000      -0.762389       -20.7456
  34   2.0000      -0.704881       -19.1808
  35   2.0000      -0.696546       -18.9540
  36   2.0000      -0.687519       -18.7083
  37   2.0000      -0.658729       -17.9249
  38   2.0000      -0.639443       -17.4001
  39   2.0000      -0.620448       -16.8833
  40   2.0000      -0.597010       -16.2455
  41   2.0000      -0.573636       -15.6094
  42   2.0000      -0.567221       -15.4349
  43   2.0000      -0.561199       -15.2710
  44   2.0000      -0.529801       -14.4166
  45   2.0000      -0.523548       -14.2465
  46   2.0000      -0.520048       -14.1512
  47   2.0000      -0.510155       -13.8820
  48   2.0000      -0.502312       -13.6686
  49   2.0000      -0.500397       -13.6165
  50   2.0000      -0.495032       -13.4705
  51   2.0000      -0.476616       -12.9694
  52   2.0000      -0.467187       -12.7128
  53   2.0000      -0.460791       -12.5388
  54   2.0000      -0.459108       -12.4930
  55   2.0000      -0.453602       -12.3431
  56   2.0000      -0.443311       -12.0631
  57   2.0000      -0.440010       -11.9733
  58   2.0000      -0.433832       -11.8052
  59   2.0000      -0.428039       -11.6475
  60   2.0000      -0.424563       -11.5530
  61   2.0000      -0.418248       -11.3811
  62   2.0000      -0.409732       -11.1494
  63   2.0000      -0.351500        -9.5648
  64   2.0000      -0.328211        -8.9311
  65   2.0000      -0.326839        -8.8938
  66   2.0000      -0.288611        -7.8535
  67   0.0000       0.027434         0.7465
  68   0.0000       0.074972         2.0401
  69   0.0000       0.110080         2.9954
  70   0.0000       0.121151         3.2967
  71   0.0000       0.125800         3.4232

MULLIKEN ATOMIC CHARGES
-----------------------
   0 S :    0.122338
   1 C :   -0.124715
   2 C :   -0.134155
   3 C :    0.013024
   4 C :   -0.142558
   5 H :    0.038040
   6 C :    0.096320
   7 H :    0.011379
   8 H :    0.020462
   9 C :   -0.079508
  10 H :    0.034904
  11 H :    0.036124
  12 C :   -0.054535
  13 H :    0.018395
  14 H :    0.038688
  15 H :    0.034284
  16 S :    0.088317
  17 C :   -0.066045
  18 C :   -0.034994
  19 C :   -0.059969
  20 C :   -0.144707
  21 H :    0.022888
  22 C :    0.050044
  23 H :    0.003521
  24 H :    0.035683
  25 C :   -0.076499
  26 H :    0.023761
  27 H :    0.033116
  28 C :   -0.041585
  29 H :    0.026268
  30 H :    0.052018
  31 H :    0.029685
  32 H :    0.072172
  33 H :    0.057840
Sum of atomic charges:    0.0000000

LOEWDIN ATOMIC CHARGES
----------------------
   0 S :    0.415978
   1 C :   -0.232470
   2 C :   -0.063247
   3 C :   -0.065417
   4 C :   -0.187877
   5 H :    0.039662
   6 C :   -0.027324
   7 H :    0.028813
   8 H :    0.026604
   9 C :   -0.043046
  10 H :    0.032460
  11 H :    0.025641
  12 C :   -0.073903
  13 H :    0.017744
  14 H :    0.032086
  15 H :    0.027780
  16 S :    0.388701
  17 C :   -0.189594
  18 C :   -0.079816
  19 C :   -0.048068
  20 C :   -0.181909
  21 H :    0.034282
  22 C :   -0.034920
  23 H :    0.020158
  24 H :    0.037588
  25 C :   -0.033818
  26 H :    0.018621
  27 H :    0.020510
  28 C :   -0.062988
  29 H :    0.021129
  30 H :    0.036443
  31 H :    0.021440
  32 H :    0.046793
  33 H :    0.031965

  Mayer bond orders larger than 0.100000
B(  0-S ,  1-C ) :   1.1437 B(  0-S ,  4-C ) :   1.1435 B(  1-C ,  2-C ) :   1.6218
B(  1-C , 32-H ) :   0.9510 B(  2-C ,  3-C ) :   1.2226 B(  2-C ,  6-C ) :   1.0400
B(  3-C ,  4-C ) :   1.6020 B(  3-C ,  5-H ) :   0.9796 B(  4-C , 20-C ) :   1.0275
B(  6-C ,  7-H ) :   0.9331 B(  6-C ,  8-H ) :   0.9374 B(  6-C ,  9-C ) :   1.0642
B(  9-C , 10-H ) :   0.9487 B(  9-C , 11-H ) :   0.9577 B(  9-C , 12-C ) :   1.0910
B( 12-C , 13-H ) :   0.9681 B( 12-C , 14-H ) :   0.9711 B( 12-C , 15-H ) :   0.9730
B( 16-S , 17-C ) :   1.1625 B( 16-S , 20-C ) :   1.1236 B( 17-C , 18-C ) :   1.6236
B( 17-C , 33-H ) :   0.9581 B( 18-C , 19-C ) :   1.2381 B( 18-C , 21-H ) :   0.9869
B( 19-C , 20-C ) :   1.5921 B( 19-C , 22-C ) :   1.0538 B( 22-C , 23-H ) :   0.9405
B( 22-C , 24-H ) :   0.9308 B( 22-C , 25-C ) :   1.0493 B( 25-C , 26-H ) :   0.9497
B( 25-C , 27-H ) :   0.9632 B( 25-C , 28-C ) :   1.0718 B( 28-C , 29-H ) :   0.9695
B( 28-C , 30-H ) :   0.9751 B( 28-C , 31-H ) :   0.9792

Dispersion correction           -0.013956079
FINAL SINGLE POINT ENERGY     -1339.875684900635

DIPOLE MOMENT
-------------
                                X             Y             Z
Electronic contribution:    -28.04966      -2.77637      16.55936
Nuclear contribution   :     28.58660       2.67355     -16.91787
                        -----------------------------------------
Total Dipole Moment    :      0.53694      -0.10282      -0.35851
                        -----------------------------------------
Magnitude (a.u.)       :      0.65376
Magnitude (Debye)      :      1.66172

Rotational constants in cm-1:     0.017354     0.009365     0.006361
Rotational constants in MHz :   520.269886   280.743344   190.691125

                             ****ORCA TERMINATED NORMALLY****
TOTAL RUN TIME: 0 days 0 hours 0 minutes 29 seconds 932 msec
