                         Program Version 4.2.1 -  RELEASE  -
|  1> ! wB97X-D3 SP def2-SVP
|  2> %pal
|  3> nprocs 16
|  4> end
|  5>
|  6> * xyz 0 1
|  7> S 	 -1.29405 	 -10.345 	 70.4843
|  8> C 	 -1.66088 	 -11.5797 	 69.3045
|  9> C 	 -2.6925 	 -11.2207 	 68.4992
| 10> C 	 -3.20691 	 -9.87932 	 68.7282
| 11> C 	 -2.50542 	 -9.29191 	 69.7224
| 12> H 	 -3.95933 	 -9.29878 	 68.2419
| 13> C 	 -3.15634 	 -12.1759 	 67.4259
| 14> H 	 -2.27639 	 -12.7952 	 67.2578
| 15> H 	 -3.25023 	 -11.6453 	 66.4947
| 16> C 	 -4.44843 	 -12.9613 	 67.8575
| 17> H 	 -4.09992 	 -13.5184 	 68.7187
| 18> H 	 -5.28504 	 -12.3365 	 68.0883
| 19> C 	 -4.90032 	 -13.9551 	 66.6882
| 20> H 	 -5.33935 	 -13.4115 	 65.83
| 21> H 	 -4.11065 	 -14.5515 	 66.2742
| 22> H 	 -5.76804 	 -14.4773 	 67.1338
| 23> S 	 -2.76276 	 -7.51911 	 71.8016
| 24> C 	 -3.12893 	 -5.89776 	 71.3958
| 25> C 	 -3.01202 	 -5.57714 	 70.0506
| 26> C 	 -2.82517 	 -6.77085 	 69.2788
| 27> C 	 -2.68282 	 -7.92023 	 70.0899
| 28> H 	 -3.0902 	 -4.55147 	 69.6178
| 29> C 	 -2.59295 	 -6.78375 	 67.8155
| 30> H 	 -2.67634 	 -5.76308 	 67.49
| 31> H 	 -3.37126 	 -7.3442 	 67.2373
| 32> C 	 -1.17212 	 -7.24848 	 67.367
| 33> H 	 -0.963669 	 -8.31361 	 67.6112
| 34> H 	 -0.381628 	 -6.71477 	 67.9652
| 35> C 	 -0.827908 	 -7.15931 	 65.8532
| 36> H 	 -1.36213 	 -6.34993 	 65.4058
| 37> H 	 -1.082 	 -8.07586 	 65.3311
| 38> H 	 0.297587 	 -7.02699 	 65.8022
| 39> H 	 -1.34372 	 -12.5687 	 69.3988
| 40> H 	 -3.3431 	 -5.06735 	 72.0807
| 41> *
| 42>
| 43>                          ****END OF INPUT****

CARTESIAN COORDINATES (ANGSTROEM)
---------------------------------
  S     -1.294050  -10.345000   70.484300
  C     -1.660880  -11.579700   69.304500
  C     -2.692500  -11.220700   68.499200
  C     -3.206910   -9.879320   68.728200
  C     -2.505420   -9.291910   69.722400
  H     -3.959330   -9.298780   68.241900
  C     -3.156340  -12.175900   67.425900
  H     -2.276390  -12.795200   67.257800
  H     -3.250230  -11.645300   66.494700
  C     -4.448430  -12.961300   67.857500
  H     -4.099920  -13.518400   68.718700
  H     -5.285040  -12.336500   68.088300
  C     -4.900320  -13.955100   66.688200
  H     -5.339350  -13.411500   65.830000
  H     -4.110650  -14.551500   66.274200
  H     -5.768040  -14.477300   67.133800
  S     -2.762760   -7.519110   71.801600
  C     -3.128930   -5.897760   71.395800
  C     -3.012020   -5.577140   70.050600
  C     -2.825170   -6.770850   69.278800
  C     -2.682820   -7.920230   70.089900
  H     -3.090200   -4.551470   69.617800
  C     -2.592950   -6.783750   67.815500
  H     -2.676340   -5.763080   67.490000
  H     -3.371260   -7.344200   67.237300
  C     -1.172120   -7.248480   67.367000
  H     -0.963669   -8.313610   67.611200
  H     -0.381628   -6.714770   67.965200
  C     -0.827908   -7.159310   65.853200
  H     -1.362130   -6.349930   65.405800
  H     -1.082000   -8.075860   65.331100
  H      0.297587   -7.026990   65.802200
  H     -1.343720  -12.568700   69.398800
  H     -3.343100   -5.067350   72.080700

 Total Charge           Charge          ....    0
 Multiplicity           Mult            ....    1
 Number of Electrons    NEL             ....  134
 Basis Dimension        Dim             ....  322

ORBITAL ENERGIES
----------------

  NO   OCC          E(Eh)            E(eV)
   0   2.0000     -88.970264     -2421.0040
   1   2.0000     -88.962531     -2420.7935
   2   2.0000     -10.324132      -280.9339
   3   2.0000     -10.322739      -280.8960
   4   2.0000     -10.316977      -280.7392
   5   2.0000     -10.303987      -280.3858
   6   2.0000     -10.303611      -280.3755
   7   2.0000     -10.298858      -280.2462
   8   2.0000     -10.298191      -280.2280
   9   2.0000     -10.293110      -280.0898
  10   2.0000     -10.291764      -280.0531
  11   2.0000     -10.289831      -280.0005
  12   2.0000     -10.287821      -279.9458
  13   2.0000     -10.286573      -279.9119
  14   2.0000     -10.282826      -279.8099
  15   2.0000     -10.277843      -279.6743
  16   2.0000      -8.085335      -220.0131
  17   2.0000      -8.077273      -219.7938
  18   2.0000      -6.043688      -164.4571
  19   2.0000      -6.039858      -164.3529
  20   2.0000      -6.036197      -164.2533
  21   2.0000      -6.035898      -164.2451
  22   2.0000      -6.031956      -164.1379
  23   2.0000      -6.027753      -164.0235
  24   2.0000      -1.008737       -27.4491
  25   2.0000      -0.984594       -26.7922
  26   2.0000      -0.906209       -24.6592
  27   2.0000      -0.904484       -24.6123
  28   2.0000      -0.870594       -23.6901
  29   2.0000      -0.851956       -23.1829
  30   2.0000      -0.843034       -22.9401
  31   2.0000      -0.816314       -22.2130
  32   2.0000      -0.781022       -21.2527
  33   2.0000      -0.764190       -20.7947
  34   2.0000      -0.708217       -19.2716
  35   2.0000      -0.702087       -19.1048
  36   2.0000      -0.686203       -18.6725
  37   2.0000      -0.663852       -18.0643
  38   2.0000      -0.644274       -17.5316
  39   2.0000      -0.615244       -16.7416
  40   2.0000      -0.593579       -16.1521
  41   2.0000      -0.565709       -15.3937
  42   2.0000      -0.559693       -15.2300
  43   2.0000      -0.552648       -15.0383
  44   2.0000      -0.528988       -14.3945
  45   2.0000      -0.523034       -14.2325
  46   2.0000      -0.513194       -13.9647
  47   2.0000      -0.509345       -13.8600
  48   2.0000      -0.502323       -13.6689
  49   2.0000      -0.499694       -13.5974
  50   2.0000      -0.491203       -13.3663
  51   2.0000      -0.484469       -13.1831
  52   2.0000      -0.467950       -12.7336
  53   2.0000      -0.462610       -12.5883
  54   2.0000      -0.461522       -12.5586
  55   2.0000      -0.453147       -12.3307
  56   2.0000      -0.444321       -12.0906
  57   2.0000      -0.437191       -11.8966
  58   2.0000      -0.434372       -11.8199
  59   2.0000      -0.427092       -11.6218
  60   2.0000      -0.424594       -11.5538
  61   2.0000      -0.409919       -11.1545
  62   2.0000      -0.403919       -10.9912
  63   2.0000      -0.350557        -9.5391
  64   2.0000      -0.334385        -9.0991
  65   2.0000      -0.327320        -8.9068
  66   2.0000      -0.286479        -7.7955
  67   0.0000       0.027462         0.7473
  68   0.0000       0.072517         1.9733
  69   0.0000       0.109062         2.9677
  70   0.0000       0.122868         3.3434
  71   0.0000       0.131597         3.5809

MULLIKEN ATOMIC CHARGES
-----------------------
   0 S :    0.094373
   1 C :   -0.090473
   2 C :   -0.099935
   3 C :    0.028980
   4 C :   -0.131690
   5 H :    0.003040
   6 C :    0.065195
   7 H :    0.015578
   8 H :    0.015305
   9 C :   -0.065156
  10 H :    0.031961
  11 H :    0.037854
  12 C :   -0.056359
  13 H :    0.029637
  14 H :    0.037078
  15 H :    0.042025
  16 S :    0.131992
  17 C :   -0.083509
  18 C :   -0.055457
  19 C :   -0.037653
  20 C :   -0.171988
  21 H :    0.036523
  22 C :    0.073998
  23 H :    0.002718
  24 H :    0.036364
  25 C :   -0.121876
  26 H :    0.045929
  27 H :    0.036303
  28 C :   -0.042355
  29 H :    0.022515
  30 H :    0.034985
  31 H :    0.045406
  32 H :    0.030004
  33 H :    0.058685
Sum of atomic charges:   -0.0000000

LOEWDIN ATOMIC CHARGES
----------------------
   0 S :    0.376345
   1 C :   -0.195528
   2 C :   -0.054763
   3 C :   -0.058452
   4 C :   -0.176877
   5 H :    0.031531
   6 C :   -0.033839
   7 H :    0.029639
   8 H :    0.023463
   9 C :   -0.026440
  10 H :    0.024513
  11 H :    0.023608
  12 C :   -0.069763
  13 H :    0.025948
  14 H :    0.021371
  15 H :    0.030566
  16 S :    0.426452
  17 C :   -0.200961
  18 C :   -0.075667
  19 C :   -0.053981
  20 C :   -0.198504
  21 H :    0.041278
  22 C :   -0.039843
  23 H :    0.025668
  24 H :    0.033137
  25 C :   -0.047733
  26 H :    0.028891
  27 H :    0.027826
  28 C :   -0.066552
  29 H :    0.016284
  30 H :    0.023529
  31 H :    0.038442
  32 H :    0.016886
  33 H :    0.033526

  Mayer bond orders larger than 0.100000
B(  0-S ,  1-C ) :   1.1017 B(  0-S ,  4-C ) :   1.1261 B(  1-C ,  2-C ) :   1.6730
B(  1-C , 32-H ) :   0.9665 B(  2-C ,  3-C ) :   1.1675 B(  2-C ,  6-C ) :   1.0243
B(  3-C ,  4-C ) :   1.6112 B(  3-C ,  5-H ) :   1.0082 B(  4-C , 20-C ) :   1.0700
B(  6-C ,  7-H ) :   0.9445 B(  6-C ,  8-H ) :   0.9396 B(  6-C ,  9-C ) :   1.0450
B(  9-C , 10-H ) :   0.9586 B(  9-C , 11-H ) :   0.9627 B(  9-C , 12-C ) :   1.0726
B( 12-C , 13-H ) :   0.9767 B( 12-C , 14-H ) :   0.9777 B( 12-C , 15-H ) :   0.9772
B( 16-S , 17-C ) :   1.1724 B( 16-S , 20-C ) :   1.1399 B( 17-C , 18-C ) :   1.5954
B( 17-C , 20-C ) :   0.1006 B( 17-C , 33-H ) :   0.9592 B( 18-C , 19-C ) :   1.2701
B( 18-C , 21-H ) :   0.9791 B( 19-C , 20-C ) :   1.5486 B( 19-C , 22-C ) :   1.0628
B( 22-C , 23-H ) :   0.9220 B( 22-C , 24-H ) :   0.9264 B( 22-C , 25-C ) :   1.0574
B( 25-C , 26-H ) :   0.9543 B( 25-C , 27-H ) :   0.9622 B( 25-C , 28-C ) :   1.0718
B( 28-C , 29-H ) :   0.9777 B( 28-C , 30-H ) :   0.9779 B( 28-C , 31-H ) :   0.9763

Dispersion correction           -0.014657540
FINAL SINGLE POINT ENERGY     -1339.877592904420

DIPOLE MOMENT
-------------
                                X             Y             Z
Electronic contribution:      4.32545       8.69002      26.67900
Nuclear contribution   :     -4.55736      -8.62234     -27.22627
                        -----------------------------------------
Total Dipole Moment    :     -0.23192       0.06768      -0.54727
                        -----------------------------------------
Magnitude (a.u.)       :      0.59822
Magnitude (Debye)      :      1.52056

Rotational constants in cm-1:     0.018989     0.008376     0.007032
Rotational constants in MHz :   569.264887   251.099070   210.810887

                             ****ORCA TERMINATED NORMALLY****
TOTAL RUN TIME: 0 days 0 hours 0 minutes 33 seconds 184 msec
