                         Program Version 4.2.1 -  RELEASE  -
|  1> ! wB97X-D3 SP def2-SVP
|  2> %pal
|  3> nprocs 16
|  4> end
|  5>
|  6> * xyz 0 1
|  7> S 	 -3.05335 	 -15.7557 	 82.8386
|  8> C 	 -1.61163 	 -15.3645 	 81.8919
|  9> C 	 -0.574084 	 -15.0085 	 82.6815
| 10> C 	 -0.966115 	 -15.1043 	 84.0751
| 11> C 	 -2.30163 	 -15.3149 	 84.3205
| 12> H 	 -0.243026 	 -15.0789 	 84.8543
| 13> C 	 0.775243 	 -14.6833 	 82.2108
| 14> H 	 0.670966 	 -13.9865 	 81.3759
| 15> H 	 1.16007 	 -15.6395 	 81.9454
| 16> C 	 1.76572 	 -14.163 	 83.2154
| 17> H 	 1.34633 	 -13.2853 	 83.6898
| 18> H 	 1.92273 	 -14.8792 	 84.1028
| 19> C 	 3.20872 	 -13.7582 	 82.6657
| 20> H 	 3.7625 	 -13.2408 	 83.3728
| 21> H 	 3.81914 	 -14.6299 	 82.4772
| 22> H 	 3.20092 	 -13.1537 	 81.7665
| 23> S 	 -4.1508 	 -17 	 85.5896
| 24> C 	 -4.3804 	 -16.8619 	 87.2815
| 25> C 	 -3.33474 	 -16.159 	 87.8727
| 26> C 	 -2.57114 	 -15.3488 	 86.9509
| 27> C 	 -2.8401 	 -15.7243 	 85.6248
| 28> H 	 -3.27513 	 -16.1101 	 88.9217
| 29> C 	 -1.78769 	 -14.0991 	 87.416
| 30> H 	 -0.716377 	 -14.2734 	 87.1864
| 31> H 	 -1.90396 	 -14.114 	 88.4799
| 32> C 	 -2.27359 	 -12.7889 	 86.95
| 33> H 	 -2.35939 	 -12.6361 	 85.8566
| 34> H 	 -1.54015 	 -11.9841 	 87.2258
| 35> C 	 -3.58743 	 -12.4298 	 87.6197
| 36> H 	 -4.2279 	 -13.2959 	 87.6939
| 37> H 	 -4.19213 	 -11.6671 	 87.0625
| 38> H 	 -3.49146 	 -12.1017 	 88.6591
| 39> H 	 -1.62256 	 -15.5047 	 80.8
| 40> H 	 -5.21495 	 -17.2011 	 87.8941
| 41> *
| 42>
| 43>                          ****END OF INPUT****

CARTESIAN COORDINATES (ANGSTROEM)
---------------------------------
  S     -3.053350  -15.755700   82.838600
  C     -1.611630  -15.364500   81.891900
  C     -0.574084  -15.008500   82.681500
  C     -0.966115  -15.104300   84.075100
  C     -2.301630  -15.314900   84.320500
  H     -0.243026  -15.078900   84.854300
  C      0.775243  -14.683300   82.210800
  H      0.670966  -13.986500   81.375900
  H      1.160070  -15.639500   81.945400
  C      1.765720  -14.163000   83.215400
  H      1.346330  -13.285300   83.689800
  H      1.922730  -14.879200   84.102800
  C      3.208720  -13.758200   82.665700
  H      3.762500  -13.240800   83.372800
  H      3.819140  -14.629900   82.477200
  H      3.200920  -13.153700   81.766500
  S     -4.150800  -17.000000   85.589600
  C     -4.380400  -16.861900   87.281500
  C     -3.334740  -16.159000   87.872700
  C     -2.571140  -15.348800   86.950900
  C     -2.840100  -15.724300   85.624800
  H     -3.275130  -16.110100   88.921700
  C     -1.787690  -14.099100   87.416000
  H     -0.716377  -14.273400   87.186400
  H     -1.903960  -14.114000   88.479900
  C     -2.273590  -12.788900   86.950000
  H     -2.359390  -12.636100   85.856600
  H     -1.540150  -11.984100   87.225800
  C     -3.587430  -12.429800   87.619700
  H     -4.227900  -13.295900   87.693900
  H     -4.192130  -11.667100   87.062500
  H     -3.491460  -12.101700   88.659100
  H     -1.622560  -15.504700   80.800000
  H     -5.214950  -17.201100   87.894100

 Total Charge           Charge          ....    0
 Multiplicity           Mult            ....    1
 Number of Electrons    NEL             ....  134
 Basis Dimension        Dim             ....  322

ORBITAL ENERGIES
----------------

  NO   OCC          E(Eh)            E(eV)
   0   2.0000     -88.963343     -2420.8156
   1   2.0000     -88.962551     -2420.7941
   2   2.0000     -10.333455      -281.1876
   3   2.0000     -10.326908      -281.0095
   4   2.0000     -10.315826      -280.7079
   5   2.0000     -10.314183      -280.6632
   6   2.0000     -10.307698      -280.4867
   7   2.0000     -10.299241      -280.2566
   8   2.0000     -10.297486      -280.2088
   9   2.0000     -10.293459      -280.0993
  10   2.0000     -10.291688      -280.0511
  11   2.0000     -10.291540      -280.0471
  12   2.0000     -10.289255      -279.9849
  13   2.0000     -10.284424      -279.8534
  14   2.0000     -10.278745      -279.6989
  15   2.0000     -10.271896      -279.5125
  16   2.0000      -8.077803      -219.8082
  17   2.0000      -8.077637      -219.8037
  18   2.0000      -6.036420      -164.2593
  19   2.0000      -6.036216      -164.2538
  20   2.0000      -6.032297      -164.1471
  21   2.0000      -6.032250      -164.1459
  22   2.0000      -6.028355      -164.0399
  23   2.0000      -6.028298      -164.0383
  24   2.0000      -1.007239       -27.4084
  25   2.0000      -0.981758       -26.7150
  26   2.0000      -0.920442       -25.0465
  27   2.0000      -0.915741       -24.9186
  28   2.0000      -0.868921       -23.6445
  29   2.0000      -0.848668       -23.0934
  30   2.0000      -0.839615       -22.8471
  31   2.0000      -0.812891       -22.1199
  32   2.0000      -0.787878       -21.4393
  33   2.0000      -0.777491       -21.1566
  34   2.0000      -0.717017       -19.5110
  35   2.0000      -0.700867       -19.0716
  36   2.0000      -0.683299       -18.5935
  37   2.0000      -0.659187       -17.9374
  38   2.0000      -0.638080       -17.3631
  39   2.0000      -0.624229       -16.9861
  40   2.0000      -0.588487       -16.0135
  41   2.0000      -0.580029       -15.7834
  42   2.0000      -0.566241       -15.4082
  43   2.0000      -0.559422       -15.2226
  44   2.0000      -0.544038       -14.8040
  45   2.0000      -0.525629       -14.3031
  46   2.0000      -0.515214       -14.0197
  47   2.0000      -0.510730       -13.8977
  48   2.0000      -0.503842       -13.7102
  49   2.0000      -0.502194       -13.6654
  50   2.0000      -0.487532       -13.2664
  51   2.0000      -0.478260       -13.0141
  52   2.0000      -0.475153       -12.9296
  53   2.0000      -0.465787       -12.6747
  54   2.0000      -0.459067       -12.4918
  55   2.0000      -0.453558       -12.3420
  56   2.0000      -0.441436       -12.0121
  57   2.0000      -0.438624       -11.9356
  58   2.0000      -0.430706       -11.7201
  59   2.0000      -0.427720       -11.6389
  60   2.0000      -0.423648       -11.5280
  61   2.0000      -0.415638       -11.3101
  62   2.0000      -0.403539       -10.9809
  63   2.0000      -0.353004        -9.6057
  64   2.0000      -0.328116        -8.9285
  65   2.0000      -0.325383        -8.8541
  66   2.0000      -0.283101        -7.7036
  67   0.0000       0.018075         0.4918
  68   0.0000       0.083855         2.2818
  69   0.0000       0.097134         2.6431
  70   0.0000       0.120821         3.2877
  71   0.0000       0.130037         3.5385

MULLIKEN ATOMIC CHARGES
-----------------------
   0 S :    0.080535
   1 C :   -0.153191
   2 C :   -0.086416
   3 C :   -0.002550
   4 C :   -0.064997
   5 H :   -0.005906
   6 C :    0.133569
   7 H :    0.039880
   8 H :    0.032397
   9 C :   -0.158435
  10 H :    0.027127
  11 H :    0.044340
  12 C :   -0.001098
  13 H :    0.016014
  14 H :    0.025771
  15 H :    0.030005
  16 S :    0.093199
  17 C :   -0.097963
  18 C :   -0.020437
  19 C :   -0.089943
  20 C :   -0.142721
  21 H :    0.002194
  22 C :    0.088741
  23 H :    0.040298
  24 H :    0.006493
  25 C :   -0.052876
  26 H :    0.043767
  27 H :    0.030623
  28 C :   -0.075206
  29 H :    0.029476
  30 H :    0.038262
  31 H :    0.026655
  32 H :    0.056168
  33 H :    0.066224
Sum of atomic charges:   -0.0000000

LOEWDIN ATOMIC CHARGES
----------------------
   0 S :    0.402208
   1 C :   -0.186363
   2 C :   -0.063659
   3 C :   -0.055109
   4 C :   -0.207177
   5 H :    0.020271
   6 C :   -0.035447
   7 H :    0.039285
   8 H :    0.038073
   9 C :   -0.044846
  10 H :    0.018954
  11 H :    0.031375
  12 C :   -0.057529
  13 H :    0.018837
  14 H :    0.024760
  15 H :    0.025165
  16 S :    0.379638
  17 C :   -0.196913
  18 C :   -0.070000
  19 C :   -0.057444
  20 C :   -0.165073
  21 H :    0.019670
  22 C :   -0.028518
  23 H :    0.033499
  24 H :    0.028195
  25 C :   -0.049263
  26 H :    0.030138
  27 H :    0.031708
  28 C :   -0.070983
  29 H :    0.023192
  30 H :    0.031507
  31 H :    0.023108
  32 H :    0.032240
  33 H :    0.036499

  Mayer bond orders larger than 0.100000
B(  0-S ,  1-C ) :   1.1330 B(  0-S ,  4-C ) :   1.1468 B(  1-C ,  2-C ) :   1.6152
B(  1-C , 32-H ) :   0.9730 B(  2-C ,  3-C ) :   1.2553 B(  2-C ,  6-C ) :   1.0115
B(  3-C ,  4-C ) :   1.5373 B(  3-C ,  5-H ) :   0.9911 B(  4-C , 20-C ) :   1.0772
B(  6-C ,  7-H ) :   0.9364 B(  6-C ,  8-H ) :   0.9192 B(  6-C ,  9-C ) :   1.0942
B(  9-C , 10-H ) :   0.9573 B(  9-C , 11-H ) :   0.9439 B(  9-C , 12-C ) :   1.0771
B( 12-C , 13-H ) :   0.9729 B( 12-C , 14-H ) :   0.9756 B( 12-C , 15-H ) :   0.9766
B( 16-S , 17-C ) :   1.1563 B( 16-S , 20-C ) :   1.1120 B( 17-C , 18-C ) :   1.6203
B( 17-C , 33-H ) :   0.9650 B( 18-C , 19-C ) :   1.2387 B( 18-C , 21-H ) :   0.9871
B( 19-C , 20-C ) :   1.6044 B( 19-C , 22-C ) :   1.0335 B( 22-C , 23-H ) :   0.9260
B( 22-C , 24-H ) :   0.9327 B( 22-C , 25-C ) :   1.0811 B( 25-C , 26-H ) :   0.9554
B( 25-C , 27-H ) :   0.9495 B( 25-C , 28-C ) :   1.0658 B( 28-C , 29-H ) :   0.9802
B( 28-C , 30-H ) :   0.9738 B( 28-C , 31-H ) :   0.9721

Dispersion correction           -0.014337176
FINAL SINGLE POINT ENERGY     -1339.862893671313

DIPOLE MOMENT
-------------
                                X             Y             Z
Electronic contribution:    -20.37097     -18.12281      -5.56414
Nuclear contribution   :     21.02855      18.42813       5.73404
                        -----------------------------------------
Total Dipole Moment    :      0.65758       0.30532       0.16989
                        -----------------------------------------
Magnitude (a.u.)       :      0.74465
Magnitude (Debye)      :      1.89274

Rotational constants in cm-1:     0.019129     0.008641     0.006828
Rotational constants in MHz :   573.487696   259.057639   204.685124

                             ****ORCA TERMINATED NORMALLY****
TOTAL RUN TIME: 0 days 0 hours 0 minutes 34 seconds 191 msec
