                         Program Version 4.2.1 -  RELEASE  -
|  1> ! wB97X-D3 SP def2-SVP
|  2> %pal
|  3> nprocs 16
|  4> end
|  5>
|  6> * xyz 0 1
|  7> S 	 5.09196 	 -17.5961 	 79.8611
|  8> C 	 4.11094 	 -18.3741 	 81.0513
|  9> C 	 2.76184 	 -18.3071 	 80.8167
| 10> C 	 2.53927 	 -17.6127 	 79.5553
| 11> C 	 3.73023 	 -17.221 	 78.9456
| 12> H 	 1.58865 	 -17.4981 	 79.0202
| 13> C 	 1.63612 	 -19.0033 	 81.5801
| 14> H 	 1.81754 	 -20.0844 	 81.4942
| 15> H 	 0.712143 	 -18.8465 	 81.0331
| 16> C 	 1.62543 	 -18.6222 	 83.1032
| 17> H 	 2.58858 	 -18.7657 	 83.5428
| 18> H 	 1.39736 	 -17.5662 	 83.2239
| 19> C 	 0.597154 	 -19.357 	 84.0356
| 20> H 	 -0.444498 	 -19.2703 	 83.7354
| 21> H 	 0.745387 	 -20.4261 	 83.9779
| 22> H 	 0.529575 	 -18.9526 	 84.976
| 23> S 	 4.07685 	 -17.5866 	 76.1652
| 24> C 	 3.50832 	 -16.363 	 75.1612
| 25> C 	 3.19215 	 -15.1923 	 75.8062
| 26> C 	 3.24139 	 -15.3299 	 77.2036
| 27> C 	 3.73744 	 -16.5718 	 77.605
| 28> H 	 3.0414 	 -14.2994 	 75.2983
| 29> C 	 2.73117 	 -14.2706 	 78.1366
| 30> H 	 2.27441 	 -14.7279 	 79.0136
| 31> H 	 1.93251 	 -13.7071 	 77.6516
| 32> C 	 3.77091 	 -13.222 	 78.5418
| 33> H 	 4.22144 	 -12.6605 	 77.6494
| 34> H 	 4.54951 	 -13.7541 	 79.0578
| 35> C 	 3.22691 	 -12.0913 	 79.336
| 36> H 	 2.70583 	 -12.402 	 80.2533
| 37> H 	 2.5034 	 -11.4806 	 78.7528
| 38> H 	 3.97021 	 -11.3235 	 79.5544
| 39> H 	 4.55444 	 -18.8837 	 81.9083
| 40> H 	 3.79261 	 -16.4184 	 74.0881
| 41> *
| 42>
| 43>                          ****END OF INPUT****

CARTESIAN COORDINATES (ANGSTROEM)
---------------------------------
  S      5.091960  -17.596100   79.861100
  C      4.110940  -18.374100   81.051300
  C      2.761840  -18.307100   80.816700
  C      2.539270  -17.612700   79.555300
  C      3.730230  -17.221000   78.945600
  H      1.588650  -17.498100   79.020200
  C      1.636120  -19.003300   81.580100
  H      1.817540  -20.084400   81.494200
  H      0.712143  -18.846500   81.033100
  C      1.625430  -18.622200   83.103200
  H      2.588580  -18.765700   83.542800
  H      1.397360  -17.566200   83.223900
  C      0.597154  -19.357000   84.035600
  H     -0.444498  -19.270300   83.735400
  H      0.745387  -20.426100   83.977900
  H      0.529575  -18.952600   84.976000
  S      4.076850  -17.586600   76.165200
  C      3.508320  -16.363000   75.161200
  C      3.192150  -15.192300   75.806200
  C      3.241390  -15.329900   77.203600
  C      3.737440  -16.571800   77.605000
  H      3.041400  -14.299400   75.298300
  C      2.731170  -14.270600   78.136600
  H      2.274410  -14.727900   79.013600
  H      1.932510  -13.707100   77.651600
  C      3.770910  -13.222000   78.541800
  H      4.221440  -12.660500   77.649400
  H      4.549510  -13.754100   79.057800
  C      3.226910  -12.091300   79.336000
  H      2.705830  -12.402000   80.253300
  H      2.503400  -11.480600   78.752800
  H      3.970210  -11.323500   79.554400
  H      4.554440  -18.883700   81.908300
  H      3.792610  -16.418400   74.088100

 Total Charge           Charge          ....    0
 Multiplicity           Mult            ....    1
 Number of Electrons    NEL             ....  134
 Basis Dimension        Dim             ....  322

ORBITAL ENERGIES
----------------

  NO   OCC          E(Eh)            E(eV)
   0   2.0000     -88.968956     -2420.9684
   1   2.0000     -88.962625     -2420.7961
   2   2.0000     -10.325802      -280.9793
   3   2.0000     -10.323191      -280.9083
   4   2.0000     -10.311858      -280.5999
   5   2.0000     -10.310398      -280.5602
   6   2.0000     -10.303135      -280.3625
   7   2.0000     -10.299834      -280.2727
   8   2.0000     -10.299507      -280.2638
   9   2.0000     -10.294816      -280.1362
  10   2.0000     -10.290823      -280.0275
  11   2.0000     -10.286265      -279.9035
  12   2.0000     -10.284550      -279.8568
  13   2.0000     -10.283501      -279.8283
  14   2.0000     -10.275212      -279.6027
  15   2.0000     -10.272528      -279.5297
  16   2.0000      -8.085063      -220.0058
  17   2.0000      -8.078289      -219.8214
  18   2.0000      -6.043341      -164.4477
  19   2.0000      -6.039343      -164.3389
  20   2.0000      -6.036605      -164.2644
  21   2.0000      -6.036040      -164.2490
  22   2.0000      -6.032670      -164.1573
  23   2.0000      -6.029197      -164.0628
  24   2.0000      -1.009606       -27.4728
  25   2.0000      -0.990413       -26.9505
  26   2.0000      -0.912751       -24.8372
  27   2.0000      -0.906040       -24.6546
  28   2.0000      -0.863814       -23.5056
  29   2.0000      -0.856966       -23.3192
  30   2.0000      -0.850211       -23.1354
  31   2.0000      -0.808720       -22.0064
  32   2.0000      -0.787207       -21.4210
  33   2.0000      -0.772660       -21.0251
  34   2.0000      -0.711430       -19.3590
  35   2.0000      -0.695773       -18.9329
  36   2.0000      -0.684267       -18.6199
  37   2.0000      -0.660525       -17.9738
  38   2.0000      -0.644541       -17.5388
  39   2.0000      -0.612398       -16.6642
  40   2.0000      -0.599753       -16.3201
  41   2.0000      -0.571904       -15.5623
  42   2.0000      -0.563783       -15.3413
  43   2.0000      -0.557355       -15.1664
  44   2.0000      -0.528077       -14.3697
  45   2.0000      -0.526691       -14.3320
  46   2.0000      -0.517930       -14.0936
  47   2.0000      -0.509723       -13.8703
  48   2.0000      -0.503842       -13.7102
  49   2.0000      -0.497476       -13.5370
  50   2.0000      -0.491754       -13.3813
  51   2.0000      -0.480197       -13.0668
  52   2.0000      -0.466127       -12.6840
  53   2.0000      -0.463985       -12.6257
  54   2.0000      -0.457612       -12.4523
  55   2.0000      -0.452025       -12.3002
  56   2.0000      -0.449824       -12.2403
  57   2.0000      -0.439706       -11.9650
  58   2.0000      -0.431645       -11.7456
  59   2.0000      -0.427410       -11.6304
  60   2.0000      -0.424366       -11.5476
  61   2.0000      -0.418976       -11.4009
  62   2.0000      -0.410035       -11.1576
  63   2.0000      -0.334858        -9.1119
  64   2.0000      -0.329299        -8.9607
  65   2.0000      -0.326166        -8.8754
  66   2.0000      -0.305256        -8.3064
  67   0.0000       0.043732         1.1900
  68   0.0000       0.062638         1.7045
  69   0.0000       0.118107         3.2139
  70   0.0000       0.126155         3.4329
  71   0.0000       0.129734         3.5302

MULLIKEN ATOMIC CHARGES
-----------------------
   0 S :    0.139583
   1 C :   -0.146814
   2 C :   -0.076765
   3 C :    0.027851
   4 C :   -0.187394
   5 H :    0.024062
   6 C :    0.089372
   7 H :    0.040452
   8 H :    0.020714
   9 C :   -0.089689
  10 H :    0.028486
  11 H :    0.031693
  12 C :   -0.017146
  13 H :    0.012751
  14 H :    0.026219
  15 H :    0.020176
  16 S :    0.110054
  17 C :   -0.099658
  18 C :   -0.014006
  19 C :   -0.015548
  20 C :   -0.178534
  21 H :   -0.005785
  22 C :    0.084205
  23 H :    0.023591
  24 H :    0.008850
  25 C :   -0.078833
  26 H :    0.030949
  27 H :    0.027801
  28 C :   -0.042584
  29 H :    0.030920
  30 H :    0.019527
  31 H :    0.032935
  32 H :    0.049446
  33 H :    0.073119
Sum of atomic charges:    0.0000000

LOEWDIN ATOMIC CHARGES
----------------------
   0 S :    0.448910
   1 C :   -0.208864
   2 C :   -0.061114
   3 C :   -0.062538
   4 C :   -0.229641
   5 H :    0.034530
   6 C :   -0.027295
   7 H :    0.036766
   8 H :    0.029473
   9 C :   -0.033142
  10 H :    0.020262
  11 H :    0.025675
  12 C :   -0.064233
  13 H :    0.024920
  14 H :    0.023384
  15 H :    0.017001
  16 S :    0.417749
  17 C :   -0.207049
  18 C :   -0.068008
  19 C :   -0.047738
  20 C :   -0.194667
  21 H :    0.021683
  22 C :   -0.030417
  23 H :    0.031397
  24 H :    0.027741
  25 C :   -0.043119
  26 H :    0.032654
  27 H :    0.020919
  28 C :   -0.071970
  29 H :    0.023009
  30 H :    0.025007
  31 H :    0.028261
  32 H :    0.026155
  33 H :    0.034302

  Mayer bond orders larger than 0.100000
B(  0-S ,  1-C ) :   1.1518 B(  0-S ,  4-C ) :   1.1814 B(  1-C ,  2-C ) :   1.6092
B(  1-C , 32-H ) :   0.9661 B(  2-C ,  3-C ) :   1.2468 B(  2-C ,  6-C ) :   1.0143
B(  3-C ,  4-C ) :   1.5720 B(  3-C ,  5-H ) :   0.9892 B(  4-C , 20-C ) :   0.9899
B(  6-C ,  7-H ) :   0.9403 B(  6-C ,  8-H ) :   0.9448 B(  6-C ,  9-C ) :   1.0473
B(  9-C , 10-H ) :   0.9616 B(  9-C , 11-H ) :   0.9608 B(  9-C , 12-C ) :   1.0825
B( 12-C , 13-H ) :   0.9723 B( 12-C , 14-H ) :   0.9756 B( 12-C , 15-H ) :   0.9744
B( 16-S , 17-C ) :   1.1935 B( 16-S , 20-C ) :   1.1436 B( 17-C , 18-C ) :   1.5811
B( 17-C , 33-H ) :   0.9526 B( 18-C , 19-C ) :   1.2664 B( 18-C , 21-H ) :   1.0010
B( 19-C , 20-C ) :   1.5918 B( 19-C , 22-C ) :   1.0479 B( 22-C , 23-H ) :   0.9246
B( 22-C , 24-H ) :   0.9332 B( 22-C , 25-C ) :   1.0695 B( 25-C , 26-H ) :   0.9541
B( 25-C , 27-H ) :   0.9527 B( 25-C , 28-C ) :   1.0933 B( 28-C , 29-H ) :   0.9706
B( 28-C , 30-H ) :   0.9696 B( 28-C , 31-H ) :   0.9708

Dispersion correction           -0.013797317
FINAL SINGLE POINT ENERGY     -1339.882561721603

DIPOLE MOMENT
-------------
                                X             Y             Z
Electronic contribution:     15.28455     -10.18769     -19.48229
Nuclear contribution   :    -15.66214      10.36471      19.72268
                        -----------------------------------------
Total Dipole Moment    :     -0.37760       0.17702       0.24039
                        -----------------------------------------
Magnitude (a.u.)       :      0.48135
Magnitude (Debye)      :      1.22351

Rotational constants in cm-1:     0.018624     0.007564     0.006345
Rotational constants in MHz :   558.343360   226.765210   190.226203

                             ****ORCA TERMINATED NORMALLY****
TOTAL RUN TIME: 0 days 0 hours 0 minutes 33 seconds 750 msec
