                         Program Version 4.2.1 -  RELEASE  -
|  1> ! wB97X-D3 SP def2-SVP
|  2> %pal
|  3> nprocs 16
|  4> end
|  5>
|  6> * xyz 0 1
|  7> S 	 12.9563 	 -13.1334 	 78.194
|  8> C 	 12.6375 	 -14.6127 	 79.0656
|  9> C 	 11.6873 	 -15.4362 	 78.4876
| 10> C 	 11.2661 	 -14.8282 	 77.1999
| 11> C 	 11.9837 	 -13.6997 	 76.8395
| 12> H 	 10.4515 	 -15.0989 	 76.5726
| 13> C 	 11.0803 	 -16.6637 	 79.2154
| 14> H 	 11.7184 	 -17.0794 	 80.0193
| 15> H 	 11.0087 	 -17.6217 	 78.6292
| 16> C 	 9.6145 	 -16.3824 	 79.795
| 17> H 	 9.79553 	 -15.616 	 80.5658
| 18> H 	 9.06975 	 -15.9799 	 78.9447
| 19> C 	 8.8567 	 -17.6145 	 80.3624
| 20> H 	 9.49786 	 -18.2837 	 80.9066
| 21> H 	 7.91464 	 -17.3336 	 80.9311
| 22> H 	 8.49956 	 -18.2135 	 79.5197
| 23> S 	 10.9207 	 -11.4612 	 75.5613
| 24> C 	 11.287 	 -11.2445 	 73.8348
| 25> C 	 12.1125 	 -12.22 	 73.314
| 26> C 	 12.3863 	 -13.2643 	 74.284
| 27> C 	 11.8857 	 -12.9599 	 75.5808
| 28> H 	 12.4198 	 -12.2427 	 72.327
| 29> C 	 13.1271 	 -14.5298 	 73.8726
| 30> H 	 12.3446 	 -15.1772 	 73.3968
| 31> H 	 13.4483 	 -15.0317 	 74.8169
| 32> C 	 14.3417 	 -14.3108 	 72.9586
| 33> H 	 14.8075 	 -13.4164 	 73.3633
| 34> H 	 14.0688 	 -14.0549 	 71.9158
| 35> C 	 15.1916 	 -15.6049 	 72.9413
| 36> H 	 14.524 	 -16.4119 	 72.9201
| 37> H 	 15.7888 	 -15.667 	 73.8248
| 38> H 	 15.8071 	 -15.6489 	 72.0651
| 39> H 	 13.1135 	 -14.7458 	 80.0401
| 40> H 	 10.8699 	 -10.4007 	 73.2469
| 41> *
| 42>
| 43>                          ****END OF INPUT****

CARTESIAN COORDINATES (ANGSTROEM)
---------------------------------
  S     12.956300  -13.133400   78.194000
  C     12.637500  -14.612700   79.065600
  C     11.687300  -15.436200   78.487600
  C     11.266100  -14.828200   77.199900
  C     11.983700  -13.699700   76.839500
  H     10.451500  -15.098900   76.572600
  C     11.080300  -16.663700   79.215400
  H     11.718400  -17.079400   80.019300
  H     11.008700  -17.621700   78.629200
  C      9.614500  -16.382400   79.795000
  H      9.795530  -15.616000   80.565800
  H      9.069750  -15.979900   78.944700
  C      8.856700  -17.614500   80.362400
  H      9.497860  -18.283700   80.906600
  H      7.914640  -17.333600   80.931100
  H      8.499560  -18.213500   79.519700
  S     10.920700  -11.461200   75.561300
  C     11.287000  -11.244500   73.834800
  C     12.112500  -12.220000   73.314000
  C     12.386300  -13.264300   74.284000
  C     11.885700  -12.959900   75.580800
  H     12.419800  -12.242700   72.327000
  C     13.127100  -14.529800   73.872600
  H     12.344600  -15.177200   73.396800
  H     13.448300  -15.031700   74.816900
  C     14.341700  -14.310800   72.958600
  H     14.807500  -13.416400   73.363300
  H     14.068800  -14.054900   71.915800
  C     15.191600  -15.604900   72.941300
  H     14.524000  -16.411900   72.920100
  H     15.788800  -15.667000   73.824800
  H     15.807100  -15.648900   72.065100
  H     13.113500  -14.745800   80.040100
  H     10.869900  -10.400700   73.246900

 Total Charge           Charge          ....    0
 Multiplicity           Mult            ....    1
 Number of Electrons    NEL             ....  134
 Basis Dimension        Dim             ....  322

ORBITAL ENERGIES
----------------

  NO   OCC          E(Eh)            E(eV)
   0   2.0000     -88.965402     -2420.8717
   1   2.0000     -88.963946     -2420.8321
   2   2.0000     -10.329116      -281.0695
   3   2.0000     -10.328940      -281.0648
   4   2.0000     -10.323518      -280.9172
   5   2.0000     -10.317601      -280.7562
   6   2.0000     -10.314153      -280.6624
   7   2.0000     -10.308974      -280.5214
   8   2.0000     -10.304957      -280.4121
   9   2.0000     -10.300179      -280.2821
  10   2.0000     -10.294780      -280.1352
  11   2.0000     -10.292804      -280.0814
  12   2.0000     -10.291910      -280.0571
  13   2.0000     -10.287761      -279.9442
  14   2.0000     -10.285467      -279.8818
  15   2.0000     -10.270705      -279.4801
  16   2.0000      -8.079241      -219.8473
  17   2.0000      -8.078931      -219.8389
  18   2.0000      -6.037781      -164.2964
  19   2.0000      -6.037399      -164.2860
  20   2.0000      -6.033945      -164.1920
  21   2.0000      -6.033553      -164.1813
  22   2.0000      -6.029951      -164.0833
  23   2.0000      -6.029574      -164.0730
  24   2.0000      -0.997179       -27.1346
  25   2.0000      -0.974654       -26.5217
  26   2.0000      -0.907101       -24.6835
  27   2.0000      -0.898239       -24.4423
  28   2.0000      -0.865661       -23.5558
  29   2.0000      -0.846930       -23.0461
  30   2.0000      -0.841859       -22.9081
  31   2.0000      -0.812945       -22.1213
  32   2.0000      -0.779417       -21.2090
  33   2.0000      -0.765633       -20.8339
  34   2.0000      -0.705694       -19.2029
  35   2.0000      -0.697427       -18.9780
  36   2.0000      -0.688435       -18.7333
  37   2.0000      -0.654872       -17.8200
  38   2.0000      -0.649479       -17.6732
  39   2.0000      -0.613920       -16.7056
  40   2.0000      -0.593201       -16.1418
  41   2.0000      -0.568273       -15.4635
  42   2.0000      -0.564423       -15.3587
  43   2.0000      -0.555144       -15.1062
  44   2.0000      -0.524622       -14.2757
  45   2.0000      -0.521854       -14.2004
  46   2.0000      -0.513884       -13.9835
  47   2.0000      -0.509599       -13.8669
  48   2.0000      -0.501674       -13.6512
  49   2.0000      -0.495246       -13.4763
  50   2.0000      -0.489418       -13.3177
  51   2.0000      -0.470899       -12.8138
  52   2.0000      -0.468492       -12.7483
  53   2.0000      -0.459885       -12.5141
  54   2.0000      -0.457712       -12.4550
  55   2.0000      -0.453393       -12.3375
  56   2.0000      -0.448738       -12.2108
  57   2.0000      -0.432707       -11.7746
  58   2.0000      -0.431205       -11.7337
  59   2.0000      -0.424532       -11.5521
  60   2.0000      -0.421824       -11.4784
  61   2.0000      -0.418739       -11.3945
  62   2.0000      -0.417075       -11.3492
  63   2.0000      -0.336962        -9.1692
  64   2.0000      -0.326414        -8.8822
  65   2.0000      -0.323303        -8.7975
  66   2.0000      -0.302763        -8.2386
  67   0.0000       0.040244         1.0951
  68   0.0000       0.054978         1.4960
  69   0.0000       0.111930         3.0458
  70   0.0000       0.116970         3.1829
  71   0.0000       0.124583         3.3901

MULLIKEN ATOMIC CHARGES
-----------------------
   0 S :    0.111415
   1 C :   -0.127923
   2 C :   -0.043810
   3 C :    0.055354
   4 C :   -0.192710
   5 H :    0.010164
   6 C :    0.006404
   7 H :    0.023683
   8 H :    0.028885
   9 C :   -0.087337
  10 H :    0.039542
  11 H :    0.036683
  12 C :   -0.053347
  13 H :    0.029580
  14 H :    0.054542
  15 H :    0.027782
  16 S :    0.101502
  17 C :   -0.099734
  18 C :    0.005203
  19 C :   -0.042766
  20 C :   -0.180468
  21 H :   -0.006137
  22 C :    0.037804
  23 H :    0.049177
  24 H :    0.042257
  25 C :   -0.115929
  26 H :    0.037654
  27 H :    0.032750
  28 C :    0.012853
  29 H :    0.017062
  30 H :    0.034717
  31 H :    0.025774
  32 H :    0.058132
  33 H :    0.071240
Sum of atomic charges:   -0.0000000

LOEWDIN ATOMIC CHARGES
----------------------
   0 S :    0.396888
   1 C :   -0.187467
   2 C :   -0.062682
   3 C :   -0.048534
   4 C :   -0.201898
   5 H :    0.027834
   6 C :   -0.042990
   7 H :    0.029426
   8 H :    0.029822
   9 C :   -0.038649
  10 H :    0.025016
  11 H :    0.023687
  12 C :   -0.072913
  13 H :    0.020546
  14 H :    0.038851
  15 H :    0.026317
  16 S :    0.380203
  17 C :   -0.172126
  18 C :   -0.066006
  19 C :   -0.043265
  20 C :   -0.206570
  21 H :    0.020405
  22 C :   -0.039074
  23 H :    0.038701
  24 H :    0.036688
  25 C :   -0.042682
  26 H :    0.024964
  27 H :    0.022628
  28 C :   -0.049697
  29 H :    0.019330
  30 H :    0.025884
  31 H :    0.023748
  32 H :    0.028376
  33 H :    0.035238

  Mayer bond orders larger than 0.100000
B(  0-S ,  1-C ) :   1.1487 B(  0-S ,  4-C ) :   1.1334 B(  1-C ,  2-C ) :   1.6306
B(  1-C , 32-H ) :   0.9651 B(  2-C ,  3-C ) :   1.1928 B(  2-C ,  6-C ) :   1.0263
B(  3-C ,  4-C ) :   1.6212 B(  3-C ,  5-H ) :   0.9962 B(  4-C , 20-C ) :   1.0288
B(  6-C ,  7-H ) :   0.9458 B(  6-C ,  8-H ) :   0.9480 B(  6-C ,  9-C ) :   1.0387
B(  9-C , 10-H ) :   0.9616 B(  9-C , 11-H ) :   0.9639 B(  9-C , 12-C ) :   1.0714
B( 12-C , 13-H ) :   0.9773 B( 12-C , 14-H ) :   0.9740 B( 12-C , 15-H ) :   0.9734
B( 16-S , 17-C ) :   1.1507 B( 16-S , 20-C ) :   1.1306 B( 17-C , 18-C ) :   1.6156
B( 17-C , 33-H ) :   0.9603 B( 18-C , 19-C ) :   1.2241 B( 18-C , 21-H ) :   1.0004
B( 19-C , 20-C ) :   1.6064 B( 19-C , 22-C ) :   1.0427 B( 22-C , 23-H ) :   0.9231
B( 22-C , 24-H ) :   0.9407 B( 22-C , 25-C ) :   1.0582 B( 25-C , 26-H ) :   0.9659
B( 25-C , 27-H ) :   0.9481 B( 25-C , 28-C ) :   1.0772 B( 28-C , 29-H ) :   0.9720
B( 28-C , 30-H ) :   0.9762 B( 28-C , 31-H ) :   0.9750

Dispersion correction           -0.013476662
FINAL SINGLE POINT ENERGY     -1339.877802639475

DIPOLE MOMENT
-------------
                                X             Y             Z
Electronic contribution:     -0.05102      23.59813       1.39125
Nuclear contribution   :     -0.03533     -24.13757      -1.63330
                        -----------------------------------------
Total Dipole Moment    :     -0.08635      -0.53944      -0.24205
                        -----------------------------------------
Magnitude (a.u.)       :      0.59753
Magnitude (Debye)      :      1.51879

Rotational constants in cm-1:     0.018478     0.007164     0.006204
Rotational constants in MHz :   553.969164   214.783050   185.976663

                             ****ORCA TERMINATED NORMALLY****
TOTAL RUN TIME: 0 days 0 hours 0 minutes 28 seconds 145 msec
