                         Program Version 4.2.1 -  RELEASE  -
|  1> ! wB97X-D3 SP def2-SVP
|  2> %pal
|  3> nprocs 16
|  4> end
|  5>
|  6> * xyz 0 1
|  7> S 	 -5.88535 	 60.2023 	 49.5151
|  8> C 	 -7.37152 	 60.9324 	 50.044
|  9> C 	 -7.02462 	 62.0811 	 50.7239
| 10> C 	 -5.5678 	 62.3955 	 50.7299
| 11> C 	 -4.79139 	 61.4027 	 50.2204
| 12> H 	 -5.18143 	 63.3153 	 51.1637
| 13> C 	 -8.07703 	 62.988 	 51.4377
| 14> H 	 -8.0235 	 62.8615 	 52.4968
| 15> H 	 -9.00697 	 62.6237 	 51.3068
| 16> C 	 -8.12473 	 64.5003 	 51.0707
| 17> H 	 -7.09175 	 64.8422 	 51.028
| 18> H 	 -8.49823 	 64.7412 	 50.0683
| 19> C 	 -8.99638 	 65.1964 	 52.1906
| 20> H 	 -9.89584 	 64.6479 	 52.4713
| 21> H 	 -8.48561 	 65.5284 	 53.0858
| 22> H 	 -9.33725 	 66.1356 	 51.7379
| 23> S 	 -2.63188 	 59.9149 	 50.8927
| 24> C 	 -0.982287 	 60.3996 	 50.437
| 25> C 	 -1.05218 	 61.634 	 49.8806
| 26> C 	 -2.35855 	 62.145 	 49.6465
| 27> C 	 -3.35759 	 61.2154 	 50.0318
| 28> H 	 -0.148522 	 62.2979 	 49.6872
| 29> C 	 -2.57318 	 63.5449 	 49.139
| 30> H 	 -1.86108 	 64.1901 	 49.6607
| 31> H 	 -3.52454 	 63.8853 	 49.4861
| 32> C 	 -2.30291 	 63.7092 	 47.656
| 33> H 	 -1.22657 	 63.571 	 47.431
| 34> H 	 -2.5349 	 64.7298 	 47.4019
| 35> C 	 -3.10758 	 62.7693 	 46.8579
| 36> H 	 -4.15049 	 62.7184 	 47.0812
| 37> H 	 -2.77718 	 61.7738 	 46.9836
| 38> H 	 -3.13066 	 62.9872 	 45.8302
| 39> H 	 -8.33973 	 60.4212 	 50.1065
| 40> H 	 -0.0926932 	 59.917 	 50.8022
| 41> *
| 42>
| 43>                          ****END OF INPUT****

CARTESIAN COORDINATES (ANGSTROEM)
---------------------------------
  S     -5.885350   60.202300   49.515100
  C     -7.371520   60.932400   50.044000
  C     -7.024620   62.081100   50.723900
  C     -5.567800   62.395500   50.729900
  C     -4.791390   61.402700   50.220400
  H     -5.181430   63.315300   51.163700
  C     -8.077030   62.988000   51.437700
  H     -8.023500   62.861500   52.496800
  H     -9.006970   62.623700   51.306800
  C     -8.124730   64.500300   51.070700
  H     -7.091750   64.842200   51.028000
  H     -8.498230   64.741200   50.068300
  C     -8.996380   65.196400   52.190600
  H     -9.895840   64.647900   52.471300
  H     -8.485610   65.528400   53.085800
  H     -9.337250   66.135600   51.737900
  S     -2.631880   59.914900   50.892700
  C     -0.982287   60.399600   50.437000
  C     -1.052180   61.634000   49.880600
  C     -2.358550   62.145000   49.646500
  C     -3.357590   61.215400   50.031800
  H     -0.148522   62.297900   49.687200
  C     -2.573180   63.544900   49.139000
  H     -1.861080   64.190100   49.660700
  H     -3.524540   63.885300   49.486100
  C     -2.302910   63.709200   47.656000
  H     -1.226570   63.571000   47.431000
  H     -2.534900   64.729800   47.401900
  C     -3.107580   62.769300   46.857900
  H     -4.150490   62.718400   47.081200
  H     -2.777180   61.773800   46.983600
  H     -3.130660   62.987200   45.830200
  H     -8.339730   60.421200   50.106500
  H     -0.092693   59.917000   50.802200

 Total Charge           Charge          ....    0
 Multiplicity           Mult            ....    1
 Number of Electrons    NEL             ....  134
 Basis Dimension        Dim             ....  322

ORBITAL ENERGIES
----------------

  NO   OCC          E(Eh)            E(eV)
   0   2.0000     -88.965744     -2420.8810
   1   2.0000     -88.956337     -2420.6250
   2   2.0000     -10.333324      -281.1840
   3   2.0000     -10.329013      -281.0667
   4   2.0000     -10.320235      -280.8279
   5   2.0000     -10.315620      -280.7023
   6   2.0000     -10.307808      -280.4897
   7   2.0000     -10.304935      -280.4115
   8   2.0000     -10.300856      -280.3005
   9   2.0000     -10.298482      -280.2359
  10   2.0000     -10.293607      -280.1033
  11   2.0000     -10.287061      -279.9252
  12   2.0000     -10.282854      -279.8107
  13   2.0000     -10.282244      -279.7941
  14   2.0000     -10.280496      -279.7465
  15   2.0000     -10.253683      -279.0169
  16   2.0000      -8.080606      -219.8845
  17   2.0000      -8.071465      -219.6357
  18   2.0000      -6.039158      -164.3339
  19   2.0000      -6.035065      -164.2225
  20   2.0000      -6.031301      -164.1200
  21   2.0000      -6.030180      -164.0895
  22   2.0000      -6.025710      -163.9679
  23   2.0000      -6.022142      -163.8708
  24   2.0000      -1.008014       -27.4295
  25   2.0000      -0.983716       -26.7683
  26   2.0000      -0.918719       -24.9996
  27   2.0000      -0.904593       -24.6152
  28   2.0000      -0.873860       -23.7789
  29   2.0000      -0.849523       -23.1167
  30   2.0000      -0.834788       -22.7157
  31   2.0000      -0.820993       -22.3404
  32   2.0000      -0.784316       -21.3423
  33   2.0000      -0.771846       -21.0030
  34   2.0000      -0.714814       -19.4511
  35   2.0000      -0.701894       -19.0995
  36   2.0000      -0.695436       -18.9238
  37   2.0000      -0.656986       -17.8775
  38   2.0000      -0.645216       -17.5572
  39   2.0000      -0.621570       -16.9138
  40   2.0000      -0.601711       -16.3734
  41   2.0000      -0.564779       -15.3684
  42   2.0000      -0.557158       -15.1610
  43   2.0000      -0.554468       -15.0878
  44   2.0000      -0.546265       -14.8646
  45   2.0000      -0.523403       -14.2425
  46   2.0000      -0.520265       -14.1571
  47   2.0000      -0.510439       -13.8897
  48   2.0000      -0.507279       -13.8038
  49   2.0000      -0.499120       -13.5818
  50   2.0000      -0.495302       -13.4779
  51   2.0000      -0.479247       -13.0410
  52   2.0000      -0.470203       -12.7949
  53   2.0000      -0.468152       -12.7391
  54   2.0000      -0.459705       -12.5092
  55   2.0000      -0.454259       -12.3610
  56   2.0000      -0.444372       -12.0920
  57   2.0000      -0.435131       -11.8405
  58   2.0000      -0.429177       -11.6785
  59   2.0000      -0.424763       -11.5584
  60   2.0000      -0.419603       -11.4180
  61   2.0000      -0.414606       -11.2820
  62   2.0000      -0.398451       -10.8424
  63   2.0000      -0.350507        -9.5378
  64   2.0000      -0.327970        -8.9245
  65   2.0000      -0.322448        -8.7743
  66   2.0000      -0.302073        -8.2198
  67   0.0000       0.028916         0.7868
  68   0.0000       0.069738         1.8977
  69   0.0000       0.105562         2.8725
  70   0.0000       0.119514         3.2521
  71   0.0000       0.133689         3.6379

MULLIKEN ATOMIC CHARGES
-----------------------
   0 S :    0.079351
   1 C :   -0.106535
   2 C :   -0.131772
   3 C :    0.033981
   4 C :   -0.147122
   5 H :    0.022156
   6 C :    0.108107
   7 H :    0.027235
   8 H :   -0.026606
   9 C :   -0.075220
  10 H :    0.023129
  11 H :    0.038037
  12 C :   -0.065533
  13 H :    0.037113
  14 H :    0.039823
  15 H :    0.024735
  16 S :    0.107403
  17 C :   -0.081535
  18 C :   -0.047085
  19 C :   -0.079692
  20 C :   -0.130038
  21 H :    0.041664
  22 C :    0.098439
  23 H :    0.019799
  24 H :    0.001969
  25 C :   -0.042014
  26 H :    0.027908
  27 H :    0.019368
  28 C :   -0.006032
  29 H :    0.015392
  30 H :    0.029408
  31 H :    0.013397
  32 H :    0.069946
  33 H :    0.060822
Sum of atomic charges:   -0.0000000

LOEWDIN ATOMIC CHARGES
----------------------
   0 S :    0.390826
   1 C :   -0.205398
   2 C :   -0.059565
   3 C :   -0.069038
   4 C :   -0.184549
   5 H :    0.029128
   6 C :   -0.029302
   7 H :    0.031269
   8 H :    0.011038
   9 C :   -0.032401
  10 H :    0.020161
  11 H :    0.026327
  12 C :   -0.067701
  13 H :    0.025634
  14 H :    0.026218
  15 H :    0.026968
  16 S :    0.420231
  17 C :   -0.175630
  18 C :   -0.077329
  19 C :   -0.050640
  20 C :   -0.219540
  21 H :    0.042231
  22 C :   -0.028293
  23 H :    0.033350
  24 H :    0.023560
  25 C :   -0.035383
  26 H :    0.027160
  27 H :    0.022020
  28 C :   -0.062461
  29 H :    0.025245
  30 H :    0.023871
  31 H :    0.020428
  32 H :    0.040075
  33 H :    0.031489

  Mayer bond orders larger than 0.100000
B(  0-S ,  1-C ) :   1.1246 B(  0-S ,  4-C ) :   1.1456 B(  1-C ,  2-C ) :   1.6412
B(  1-C , 32-H ) :   0.9642 B(  2-C ,  3-C ) :   1.2036 B(  2-C ,  6-C ) :   1.0168
B(  3-C ,  4-C ) :   1.6152 B(  3-C ,  5-H ) :   0.9904 B(  4-C , 20-C ) :   0.9986
B(  6-C ,  7-H ) :   0.9434 B(  6-C ,  8-H ) :   0.9337 B(  6-C ,  9-C ) :   1.0448
B(  9-C , 10-H ) :   0.9629 B(  9-C , 11-H ) :   0.9639 B(  9-C , 12-C ) :   1.0609
B( 12-C , 13-H ) :   0.9781 B( 12-C , 14-H ) :   0.9776 B( 12-C , 15-H ) :   0.9760
B( 16-S , 17-C ) :   1.1508 B( 16-S , 20-C ) :   1.1741 B( 17-C , 18-C ) :   1.5843
B( 17-C , 20-C ) :   0.1037 B( 17-C , 33-H ) :   0.9730 B( 18-C , 19-C ) :   1.2806
B( 18-C , 21-H ) :   0.9736 B( 19-C , 20-C ) :   1.5384 B( 19-C , 22-C ) :   1.0447
B( 22-C , 23-H ) :   0.9293 B( 22-C , 24-H ) :   0.9316 B( 22-C , 25-C ) :   1.0788
B( 25-C , 26-H ) :   0.9522 B( 25-C , 27-H ) :   0.9515 B( 25-C , 28-C ) :   1.0880
B( 28-C , 29-H ) :   0.9707 B( 28-C , 30-H ) :   0.9648 B( 28-C , 31-H ) :   0.9679

Dispersion correction           -0.014505642
FINAL SINGLE POINT ENERGY     -1339.864755434577

DIPOLE MOMENT
-------------
                                X             Y             Z
Electronic contribution:      9.59854     -24.07047       3.08668
Nuclear contribution   :     -9.59699      24.82149      -2.83326
                        -----------------------------------------
Total Dipole Moment    :      0.00155       0.75102       0.25343
                        -----------------------------------------
Magnitude (a.u.)       :      0.79263
Magnitude (Debye)      :      2.01469

Rotational constants in cm-1:     0.019978     0.007961     0.006955
Rotational constants in MHz :   598.934410   238.672797   208.508012

                             ****ORCA TERMINATED NORMALLY****
TOTAL RUN TIME: 0 days 0 hours 0 minutes 34 seconds 56 msec
