                         Program Version 4.2.1 -  RELEASE  -
|  1> ! wB97X-D3 SP def2-SVP
|  2> %pal
|  3> nprocs 16
|  4> end
|  5>
|  6> * xyz 0 1
|  7> S 	 48.8675 	 10.5889 	 77.3433
|  8> C 	 49.6557 	 9.75522 	 78.6601
|  9> C 	 50.3635 	 10.6481 	 79.4597
| 10> C 	 50.2456 	 12.0078 	 78.9007
| 11> C 	 49.4522 	 12.2071 	 77.7897
| 12> H 	 50.7372 	 12.8513 	 79.3238
| 13> C 	 51.1334 	 10.4991 	 80.714
| 14> H 	 51.8521 	 11.2907 	 80.8639
| 15> H 	 51.7752 	 9.61444 	 80.5309
| 16> C 	 50.4009 	 10.2606 	 82.0249
| 17> H 	 49.7253 	 11.0799 	 82.1993
| 18> H 	 49.8694 	 9.31157 	 81.9138
| 19> C 	 51.347 	 10.2384 	 83.2614
| 20> H 	 51.9351 	 9.33677 	 83.4324
| 21> H 	 52.1128 	 11.0304 	 83.3521
| 22> H 	 50.7364 	 10.4514 	 84.153
| 23> S 	 50.1086 	 13.2888 	 75.3487
| 24> C 	 49.6525 	 15.0051 	 74.9691
| 25> C 	 49.2154 	 15.6512 	 76.1398
| 26> C 	 49.1538 	 14.7542 	 77.2426
| 27> C 	 49.3607 	 13.3994 	 76.9537
| 28> H 	 48.9577 	 16.6597 	 76.1349
| 29> C 	 48.58 	 15.1983 	 78.5766
| 30> H 	 48.5206 	 14.2745 	 79.2051
| 31> H 	 47.5216 	 15.4993 	 78.2519
| 32> C 	 49.3175 	 16.3323 	 79.3532
| 33> H 	 48.9028 	 16.319 	 80.3015
| 34> H 	 49.0595 	 17.2742 	 78.8378
| 35> C 	 50.895 	 16.1559 	 79.3394
| 36> H 	 51.2053 	 16.4154 	 78.2929
| 37> H 	 51.1349 	 15.0978 	 79.5031
| 38> H 	 51.4326 	 16.6753 	 80.0683
| 39> H 	 49.6006 	 8.68042 	 78.8745
| 40> H 	 49.8252 	 15.4432 	 74.046
| 41> *
| 42>
| 43>                          ****END OF INPUT****

CARTESIAN COORDINATES (ANGSTROEM)
---------------------------------
  S     48.867500   10.588900   77.343300
  C     49.655700    9.755220   78.660100
  C     50.363500   10.648100   79.459700
  C     50.245600   12.007800   78.900700
  C     49.452200   12.207100   77.789700
  H     50.737200   12.851300   79.323800
  C     51.133400   10.499100   80.714000
  H     51.852100   11.290700   80.863900
  H     51.775200    9.614440   80.530900
  C     50.400900   10.260600   82.024900
  H     49.725300   11.079900   82.199300
  H     49.869400    9.311570   81.913800
  C     51.347000   10.238400   83.261400
  H     51.935100    9.336770   83.432400
  H     52.112800   11.030400   83.352100
  H     50.736400   10.451400   84.153000
  S     50.108600   13.288800   75.348700
  C     49.652500   15.005100   74.969100
  C     49.215400   15.651200   76.139800
  C     49.153800   14.754200   77.242600
  C     49.360700   13.399400   76.953700
  H     48.957700   16.659700   76.134900
  C     48.580000   15.198300   78.576600
  H     48.520600   14.274500   79.205100
  H     47.521600   15.499300   78.251900
  C     49.317500   16.332300   79.353200
  H     48.902800   16.319000   80.301500
  H     49.059500   17.274200   78.837800
  C     50.895000   16.155900   79.339400
  H     51.205300   16.415400   78.292900
  H     51.134900   15.097800   79.503100
  H     51.432600   16.675300   80.068300
  H     49.600600    8.680420   78.874500
  H     49.825200   15.443200   74.046000

 Total Charge           Charge          ....    0
 Multiplicity           Mult            ....    1
 Number of Electrons    NEL             ....  134
 Basis Dimension        Dim             ....  322

ORBITAL ENERGIES
----------------

  NO   OCC          E(Eh)            E(eV)
   0   2.0000     -88.965654     -2420.8785
   1   2.0000     -88.963237     -2420.8128
   2   2.0000     -10.332945      -281.1737
   3   2.0000     -10.330897      -281.1180
   4   2.0000     -10.323868      -280.9267
   5   2.0000     -10.322825      -280.8984
   6   2.0000     -10.305901      -280.4378
   7   2.0000     -10.305777      -280.4345
   8   2.0000     -10.296864      -280.1919
   9   2.0000     -10.296716      -280.1879
  10   2.0000     -10.293970      -280.1132
  11   2.0000     -10.291493      -280.0458
  12   2.0000     -10.290100      -280.0079
  13   2.0000     -10.289666      -279.9960
  14   2.0000     -10.284318      -279.8505
  15   2.0000     -10.281308      -279.7686
  16   2.0000      -8.079868      -219.8644
  17   2.0000      -8.076754      -219.7797
  18   2.0000      -6.038630      -164.3195
  19   2.0000      -6.035375      -164.2309
  20   2.0000      -6.034232      -164.1998
  21   2.0000      -6.031524      -164.1261
  22   2.0000      -6.030567      -164.1001
  23   2.0000      -6.027342      -164.0123
  24   2.0000      -1.000187       -27.2165
  25   2.0000      -0.977785       -26.6069
  26   2.0000      -0.914592       -24.8873
  27   2.0000      -0.900456       -24.5027
  28   2.0000      -0.871449       -23.7133
  29   2.0000      -0.845938       -23.0191
  30   2.0000      -0.840979       -22.8842
  31   2.0000      -0.815277       -22.1848
  32   2.0000      -0.779911       -21.2225
  33   2.0000      -0.771797       -21.0017
  34   2.0000      -0.709441       -19.3049
  35   2.0000      -0.708015       -19.2661
  36   2.0000      -0.697969       -18.9927
  37   2.0000      -0.664832       -18.0910
  38   2.0000      -0.643907       -17.5216
  39   2.0000      -0.617272       -16.7968
  40   2.0000      -0.589281       -16.0352
  41   2.0000      -0.576311       -15.6822
  42   2.0000      -0.566540       -15.4163
  43   2.0000      -0.548989       -14.9387
  44   2.0000      -0.547838       -14.9074
  45   2.0000      -0.527692       -14.3592
  46   2.0000      -0.521599       -14.1934
  47   2.0000      -0.509841       -13.8735
  48   2.0000      -0.507482       -13.8093
  49   2.0000      -0.497874       -13.5478
  50   2.0000      -0.486827       -13.2472
  51   2.0000      -0.473898       -12.8954
  52   2.0000      -0.467938       -12.7332
  53   2.0000      -0.464083       -12.6283
  54   2.0000      -0.459023       -12.4906
  55   2.0000      -0.450529       -12.2595
  56   2.0000      -0.447255       -12.1704
  57   2.0000      -0.434205       -11.8153
  58   2.0000      -0.432225       -11.7614
  59   2.0000      -0.422253       -11.4901
  60   2.0000      -0.421460       -11.4685
  61   2.0000      -0.415736       -11.3127
  62   2.0000      -0.410293       -11.1646
  63   2.0000      -0.347012        -9.4427
  64   2.0000      -0.325894        -8.8680
  65   2.0000      -0.322792        -8.7836
  66   2.0000      -0.296773        -8.0756
  67   0.0000       0.024706         0.6723
  68   0.0000       0.062710         1.7064
  69   0.0000       0.105389         2.8678
  70   0.0000       0.122317         3.3284
  71   0.0000       0.126341         3.4379

MULLIKEN ATOMIC CHARGES
-----------------------
   0 S :    0.103251
   1 C :   -0.121293
   2 C :   -0.071332
   3 C :    0.039060
   4 C :   -0.155705
   5 H :   -0.018977
   6 C :    0.044041
   7 H :    0.015476
   8 H :    0.025475
   9 C :   -0.031274
  10 H :    0.028024
  11 H :    0.033720
  12 C :   -0.076285
  13 H :    0.036711
  14 H :    0.025044
  15 H :    0.034816
  16 S :    0.086575
  17 C :   -0.070774
  18 C :    0.005201
  19 C :   -0.050013
  20 C :   -0.123270
  21 H :    0.002182
  22 C :   -0.027362
  23 H :    0.036894
  24 H :    0.057468
  25 C :   -0.036587
  26 H :    0.023725
  27 H :    0.031538
  28 C :   -0.040830
  29 H :    0.048770
  30 H :    0.019705
  31 H :    0.029882
  32 H :    0.058382
  33 H :    0.037761
Sum of atomic charges:    0.0000000

LOEWDIN ATOMIC CHARGES
----------------------
   0 S :    0.398846
   1 C :   -0.195602
   2 C :   -0.065133
   3 C :   -0.052633
   4 C :   -0.199550
   5 H :    0.018096
   6 C :   -0.043333
   7 H :    0.027819
   8 H :    0.035635
   9 C :   -0.030854
  10 H :    0.024013
  11 H :    0.027871
  12 C :   -0.075016
  13 H :    0.024631
  14 H :    0.026117
  15 H :    0.030739
  16 S :    0.373491
  17 C :   -0.142323
  18 C :   -0.061049
  19 C :   -0.057356
  20 C :   -0.193820
  21 H :    0.023487
  22 C :   -0.040914
  23 H :    0.031122
  24 H :    0.043939
  25 C :   -0.031887
  26 H :    0.015178
  27 H :    0.023993
  28 C :   -0.061183
  29 H :    0.036159
  30 H :    0.022704
  31 H :    0.016831
  32 H :    0.036436
  33 H :    0.013550

  Mayer bond orders larger than 0.100000
B(  0-S ,  1-C ) :   1.1478 B(  0-S ,  4-C ) :   1.1273 B(  1-C ,  2-C ) :   1.5946
B(  1-C , 32-H ) :   0.9672 B(  2-C ,  3-C ) :   1.2463 B(  2-C ,  6-C ) :   1.0316
B(  3-C ,  4-C ) :   1.5747 B(  3-C ,  5-H ) :   0.9961 B(  4-C , 20-C ) :   1.0394
B(  6-C ,  7-H ) :   0.9410 B(  6-C ,  8-H ) :   0.9310 B(  6-C ,  9-C ) :   1.0709
B(  9-C , 10-H ) :   0.9573 B(  9-C , 11-H ) :   0.9540 B(  9-C , 12-C ) :   1.0732
B( 12-C , 13-H ) :   0.9779 B( 12-C , 14-H ) :   0.9742 B( 12-C , 15-H ) :   0.9768
B( 16-S , 17-C ) :   1.1538 B( 16-S , 20-C ) :   1.1284 B( 17-C , 18-C ) :   1.5876
B( 17-C , 20-C ) :   0.1071 B( 17-C , 33-H ) :   0.9801 B( 18-C , 19-C ) :   1.2303
B( 18-C , 21-H ) :   1.0037 B( 19-C , 20-C ) :   1.5882 B( 19-C , 22-C ) :   1.0373
B( 22-C , 23-H ) :   0.9394 B( 22-C , 24-H ) :   0.9475 B( 22-C , 25-C ) :   1.0563
B( 25-C , 26-H ) :   0.9603 B( 25-C , 27-H ) :   0.9578 B( 25-C , 28-C ) :   1.0689
B( 28-C , 29-H ) :   0.9677 B( 28-C , 30-H ) :   0.9806 B( 28-C , 31-H ) :   0.9741

Dispersion correction           -0.014569134
FINAL SINGLE POINT ENERGY     -1339.862186032228

DIPOLE MOMENT
-------------
                                X             Y             Z
Electronic contribution:     -7.26087      -7.05540     -28.08147
Nuclear contribution   :      7.49486       7.42017      28.74672
                        -----------------------------------------
Total Dipole Moment    :      0.23399       0.36477       0.66525
                        -----------------------------------------
Magnitude (a.u.)       :      0.79396
Magnitude (Debye)      :      2.01809

Rotational constants in cm-1:     0.019075     0.008528     0.006435
Rotational constants in MHz :   571.847608   255.654694   192.920439

                             ****ORCA TERMINATED NORMALLY****
TOTAL RUN TIME: 0 days 0 hours 0 minutes 30 seconds 43 msec
