                         Program Version 4.2.1 -  RELEASE  -
|  1> ! wB97X-D3 SP def2-SVP
|  2> %pal
|  3> nprocs 16
|  4> end
|  5>
|  6> * xyz 0 1
|  7> S 	 -53.3069 	 59.4398 	 134.365
|  8> C 	 -52.7781 	 58.9894 	 132.803
|  9> C 	 -53.0157 	 59.9401 	 131.854
| 10> C 	 -53.5345 	 61.123 	 132.473
| 11> C 	 -53.5715 	 61.0847 	 133.835
| 12> H 	 -53.88 	 62.0308 	 132.011
| 13> C 	 -52.7603 	 59.7754 	 130.321
| 14> H 	 -53.6967 	 59.274 	 130.058
| 15> H 	 -51.8931 	 59.1025 	 130.229
| 16> C 	 -52.43 	 61.0016 	 129.544
| 17> H 	 -53.0195 	 61.8538 	 129.716
| 18> H 	 -51.4768 	 61.243 	 129.818
| 19> C 	 -52.5624 	 60.7903 	 128.053
| 20> H 	 -52.1679 	 61.671 	 127.544
| 21> H 	 -51.8983 	 60.0045 	 127.8
| 22> H 	 -53.5891 	 60.5514 	 127.827
| 23> S 	 -55.4197 	 61.7333 	 135.659
| 24> C 	 -55.2456 	 63.2028 	 136.574
| 25> C 	 -54.1706 	 63.9029 	 136.084
| 26> C 	 -53.3795 	 63.2742 	 135.103
| 27> C 	 -53.951 	 62.0727 	 134.769
| 28> H 	 -54.008 	 64.8976 	 136.523
| 29> C 	 -52.1922 	 63.8649 	 134.443
| 30> H 	 -52.4015 	 65.0094 	 134.298
| 31> H 	 -52.2086 	 63.4768 	 133.425
| 32> C 	 -50.8213 	 63.4035 	 135.08
| 33> H 	 -50.8462 	 62.3013 	 134.928
| 34> H 	 -50.9027 	 63.6162 	 136.161
| 35> C 	 -49.6013 	 64.1388 	 134.447
| 36> H 	 -48.6366 	 63.9814 	 135.002
| 37> H 	 -49.5132 	 65.1739 	 134.384
| 38> H 	 -49.5157 	 63.8078 	 133.418
| 39> H 	 -52.4186 	 57.98 	 132.634
| 40> H 	 -55.9805 	 63.6281 	 137.223
| 41> *
| 42>
| 43>                          ****END OF INPUT****

CARTESIAN COORDINATES (ANGSTROEM)
---------------------------------
  S    -53.306900   59.439800  134.365000
  C    -52.778100   58.989400  132.803000
  C    -53.015700   59.940100  131.854000
  C    -53.534500   61.123000  132.473000
  C    -53.571500   61.084700  133.835000
  H    -53.880000   62.030800  132.011000
  C    -52.760300   59.775400  130.321000
  H    -53.696700   59.274000  130.058000
  H    -51.893100   59.102500  130.229000
  C    -52.430000   61.001600  129.544000
  H    -53.019500   61.853800  129.716000
  H    -51.476800   61.243000  129.818000
  C    -52.562400   60.790300  128.053000
  H    -52.167900   61.671000  127.544000
  H    -51.898300   60.004500  127.800000
  H    -53.589100   60.551400  127.827000
  S    -55.419700   61.733300  135.659000
  C    -55.245600   63.202800  136.574000
  C    -54.170600   63.902900  136.084000
  C    -53.379500   63.274200  135.103000
  C    -53.951000   62.072700  134.769000
  H    -54.008000   64.897600  136.523000
  C    -52.192200   63.864900  134.443000
  H    -52.401500   65.009400  134.298000
  H    -52.208600   63.476800  133.425000
  C    -50.821300   63.403500  135.080000
  H    -50.846200   62.301300  134.928000
  H    -50.902700   63.616200  136.161000
  C    -49.601300   64.138800  134.447000
  H    -48.636600   63.981400  135.002000
  H    -49.513200   65.173900  134.384000
  H    -49.515700   63.807800  133.418000
  H    -52.418600   57.980000  132.634000
  H    -55.980500   63.628100  137.223000

 Total Charge           Charge          ....    0
 Multiplicity           Mult            ....    1
 Number of Electrons    NEL             ....  134
 Basis Dimension        Dim             ....  322

ORBITAL ENERGIES
----------------

  NO   OCC          E(Eh)            E(eV)
   0   2.0000     -88.962303     -2420.7873
   1   2.0000     -88.959615     -2420.7142
   2   2.0000     -10.319150      -280.7984
   3   2.0000     -10.317780      -280.7611
   4   2.0000     -10.311047      -280.5778
   5   2.0000     -10.307390      -280.4783
   6   2.0000     -10.301092      -280.3070
   7   2.0000     -10.296761      -280.1891
   8   2.0000     -10.296533      -280.1829
   9   2.0000     -10.295730      -280.1610
  10   2.0000     -10.295674      -280.1595
  11   2.0000     -10.290722      -280.0248
  12   2.0000     -10.289378      -279.9882
  13   2.0000     -10.276882      -279.6482
  14   2.0000     -10.273321      -279.5513
  15   2.0000     -10.271061      -279.4898
  16   2.0000      -8.077427      -219.7980
  17   2.0000      -8.075649      -219.7496
  18   2.0000      -6.035844      -164.2437
  19   2.0000      -6.033954      -164.1922
  20   2.0000      -6.031891      -164.1361
  21   2.0000      -6.030105      -164.0875
  22   2.0000      -6.028250      -164.0370
  23   2.0000      -6.026405      -163.9868
  24   2.0000      -1.014952       -27.6182
  25   2.0000      -0.989279       -26.9197
  26   2.0000      -0.921977       -25.0883
  27   2.0000      -0.903407       -24.5829
  28   2.0000      -0.877954       -23.8904
  29   2.0000      -0.852018       -23.1846
  30   2.0000      -0.846764       -23.0416
  31   2.0000      -0.816345       -22.2139
  32   2.0000      -0.783668       -21.3247
  33   2.0000      -0.772179       -21.0121
  34   2.0000      -0.715416       -19.4675
  35   2.0000      -0.701520       -19.0893
  36   2.0000      -0.693501       -18.8711
  37   2.0000      -0.659777       -17.9535
  38   2.0000      -0.648346       -17.6424
  39   2.0000      -0.620402       -16.8820
  40   2.0000      -0.593944       -16.1621
  41   2.0000      -0.584062       -15.8931
  42   2.0000      -0.563613       -15.3367
  43   2.0000      -0.553151       -15.0520
  44   2.0000      -0.532966       -14.5027
  45   2.0000      -0.525624       -14.3030
  46   2.0000      -0.516022       -14.0417
  47   2.0000      -0.510083       -13.8801
  48   2.0000      -0.507266       -13.8034
  49   2.0000      -0.500567       -13.6211
  50   2.0000      -0.492767       -13.4089
  51   2.0000      -0.483891       -13.1673
  52   2.0000      -0.469582       -12.7780
  53   2.0000      -0.466305       -12.6888
  54   2.0000      -0.460663       -12.5353
  55   2.0000      -0.448620       -12.2076
  56   2.0000      -0.445055       -12.1106
  57   2.0000      -0.440536       -11.9876
  58   2.0000      -0.431631       -11.7453
  59   2.0000      -0.427265       -11.6265
  60   2.0000      -0.418433       -11.3861
  61   2.0000      -0.416688       -11.3387
  62   2.0000      -0.412444       -11.2232
  63   2.0000      -0.342485        -9.3195
  64   2.0000      -0.331184        -9.0120
  65   2.0000      -0.325957        -8.8697
  66   2.0000      -0.294444        -8.0122
  67   0.0000       0.037805         1.0287
  68   0.0000       0.063738         1.7344
  69   0.0000       0.114508         3.1159
  70   0.0000       0.130041         3.5386
  71   0.0000       0.139379         3.7927

MULLIKEN ATOMIC CHARGES
-----------------------
   0 S :    0.112148
   1 C :   -0.137730
   2 C :   -0.077057
   3 C :    0.045577
   4 C :   -0.191060
   5 H :    0.008028
   6 C :    0.065148
   7 H :    0.044279
   8 H :    0.031824
   9 C :   -0.036571
  10 H :    0.016126
  11 H :    0.004213
  12 C :   -0.020487
  13 H :    0.031945
  14 H :    0.013103
  15 H :    0.035206
  16 S :    0.108537
  17 C :   -0.079603
  18 C :   -0.068462
  19 C :    0.005830
  20 C :   -0.186816
  21 H :    0.018772
  22 C :    0.035595
  23 H :    0.044260
  24 H :    0.011253
  25 C :   -0.068552
  26 H :    0.053666
  27 H :    0.037766
  28 C :   -0.028578
  29 H :    0.034310
  30 H :    0.014547
  31 H :    0.027602
  32 H :    0.044354
  33 H :    0.050827
Sum of atomic charges:   -0.0000000

LOEWDIN ATOMIC CHARGES
----------------------
   0 S :    0.415063
   1 C :   -0.207275
   2 C :   -0.064915
   3 C :   -0.061605
   4 C :   -0.201491
   5 H :    0.028673
   6 C :   -0.024997
   7 H :    0.035567
   8 H :    0.035569
   9 C :   -0.038060
  10 H :    0.016686
  11 H :    0.015075
  12 C :   -0.048837
  13 H :    0.028758
  14 H :    0.017404
  15 H :    0.025180
  16 S :    0.408864
  17 C :   -0.191068
  18 C :   -0.071900
  19 C :   -0.062625
  20 C :   -0.199386
  21 H :    0.032230
  22 C :   -0.042267
  23 H :    0.041201
  24 H :    0.026655
  25 C :   -0.031533
  26 H :    0.036821
  27 H :    0.025034
  28 C :   -0.074460
  29 H :    0.034509
  30 H :    0.017469
  31 H :    0.026605
  32 H :    0.025471
  33 H :    0.027587

  Mayer bond orders larger than 0.100000
B(  0-S ,  1-C ) :   1.1498 B(  0-S ,  4-C ) :   1.1412 B(  1-C ,  2-C ) :   1.6220
B(  1-C , 32-H ) :   0.9721 B(  2-C ,  3-C ) :   1.2257 B(  2-C ,  6-C ) :   0.9852
B(  3-C ,  4-C ) :   1.6011 B(  3-C ,  5-H ) :   0.9925 B(  4-C , 20-C ) :   1.0342
B(  6-C ,  7-H ) :   0.9398 B(  6-C ,  8-H ) :   0.9466 B(  6-C ,  9-C ) :   1.0742
B(  9-C , 10-H ) :   0.9512 B(  9-C , 11-H ) :   0.9513 B(  9-C , 12-C ) :   1.0915
B( 12-C , 13-H ) :   0.9716 B( 12-C , 14-H ) :   0.9732 B( 12-C , 15-H ) :   0.9787
B( 16-S , 17-C ) :   1.1404 B( 16-S , 20-C ) :   1.1632 B( 17-C , 18-C ) :   1.6201
B( 17-C , 20-C ) :   0.1049 B( 17-C , 33-H ) :   0.9696 B( 18-C , 19-C ) :   1.2330
B( 18-C , 21-H ) :   0.9847 B( 19-C , 20-C ) :   1.5845 B( 19-C , 22-C ) :   1.0497
B( 22-C , 23-H ) :   0.9395 B( 22-C , 24-H ) :   0.9222 B( 22-C , 25-C ) :   1.0383
B( 25-C , 26-H ) :   0.9559 B( 25-C , 27-H ) :   0.9646 B( 25-C , 28-C ) :   1.0658
B( 28-C , 29-H ) :   0.9739 B( 28-C , 30-H ) :   0.9771 B( 28-C , 31-H ) :   0.9744

Dispersion correction           -0.013975084
FINAL SINGLE POINT ENERGY     -1339.865719534295

DIPOLE MOMENT
-------------
                                X             Y             Z
Electronic contribution:    -17.97277     -10.09434      20.55537
Nuclear contribution   :     18.23134      10.46813     -21.09293
                        -----------------------------------------
Total Dipole Moment    :      0.25857       0.37379      -0.53755
                        -----------------------------------------
Magnitude (a.u.)       :      0.70395
Magnitude (Debye)      :      1.78929

Rotational constants in cm-1:     0.017179     0.008717     0.007046
Rotational constants in MHz :   515.026974   261.324462   211.220269

                             ****ORCA TERMINATED NORMALLY****
TOTAL RUN TIME: 0 days 0 hours 0 minutes 34 seconds 978 msec
