                         Program Version 4.2.1 -  RELEASE  -
|  1> ! wB97X-D3 SP def2-SVP
|  2> %pal
|  3> nprocs 16
|  4> end
|  5>
|  6> * xyz 0 1
|  7> S 	 48.6391 	 5.96564 	 83.1297
|  8> C 	 50.383 	 6.38371 	 82.7702
|  9> C 	 51.2526 	 5.84896 	 83.6568
| 10> C 	 50.5384 	 5.11655 	 84.6943
| 11> C 	 49.1691 	 5.04608 	 84.5229
| 12> H 	 51.0538 	 4.60453 	 85.5193
| 13> C 	 52.7333 	 5.95088 	 83.5399
| 14> H 	 52.9671 	 6.76719 	 82.9016
| 15> H 	 53.0192 	 5.11542 	 82.9434
| 16> C 	 53.4916 	 5.91322 	 84.7987
| 17> H 	 53.2289 	 6.85123 	 85.235
| 18> H 	 53.0727 	 5.12682 	 85.4552
| 19> C 	 54.9606 	 5.6769 	 84.5582
| 20> H 	 55.1612 	 4.62022 	 84.3449
| 21> H 	 55.2514 	 6.22615 	 83.7235
| 22> H 	 55.5708 	 6.00328 	 85.4131
| 23> S 	 47.253 	 3.08598 	 84.6973
| 24> C 	 46.6354 	 2.80526 	 86.2656
| 25> C 	 47.2493 	 3.62941 	 87.2737
| 26> C 	 48.0403 	 4.61767 	 86.6321
| 27> C 	 48.231 	 4.36004 	 85.32
| 28> H 	 46.9841 	 3.38768 	 88.3295
| 29> C 	 48.8082 	 5.63217 	 87.4986
| 30> H 	 49.8615 	 5.6838 	 87.2518
| 31> H 	 48.7635 	 5.06899 	 88.4659
| 32> C 	 48.3111 	 7.01854 	 87.7531
| 33> H 	 47.297 	 7.06788 	 88.113
| 34> H 	 48.3009 	 7.62761 	 86.8356
| 35> C 	 49.1811 	 7.85817 	 88.7651
| 36> H 	 50.2716 	 7.94064 	 88.5225
| 37> H 	 49.1322 	 7.43459 	 89.7791
| 38> H 	 48.8487 	 8.85695 	 88.7991
| 39> H 	 50.6739 	 6.70736 	 81.7845
| 40> H 	 46.063 	 1.96873 	 86.6342
| 41> *
| 42>
| 43>                          ****END OF INPUT****

CARTESIAN COORDINATES (ANGSTROEM)
---------------------------------
  S     48.639100    5.965640   83.129700
  C     50.383000    6.383710   82.770200
  C     51.252600    5.848960   83.656800
  C     50.538400    5.116550   84.694300
  C     49.169100    5.046080   84.522900
  H     51.053800    4.604530   85.519300
  C     52.733300    5.950880   83.539900
  H     52.967100    6.767190   82.901600
  H     53.019200    5.115420   82.943400
  C     53.491600    5.913220   84.798700
  H     53.228900    6.851230   85.235000
  H     53.072700    5.126820   85.455200
  C     54.960600    5.676900   84.558200
  H     55.161200    4.620220   84.344900
  H     55.251400    6.226150   83.723500
  H     55.570800    6.003280   85.413100
  S     47.253000    3.085980   84.697300
  C     46.635400    2.805260   86.265600
  C     47.249300    3.629410   87.273700
  C     48.040300    4.617670   86.632100
  C     48.231000    4.360040   85.320000
  H     46.984100    3.387680   88.329500
  C     48.808200    5.632170   87.498600
  H     49.861500    5.683800   87.251800
  H     48.763500    5.068990   88.465900
  C     48.311100    7.018540   87.753100
  H     47.297000    7.067880   88.113000
  H     48.300900    7.627610   86.835600
  C     49.181100    7.858170   88.765100
  H     50.271600    7.940640   88.522500
  H     49.132200    7.434590   89.779100
  H     48.848700    8.856950   88.799100
  H     50.673900    6.707360   81.784500
  H     46.063000    1.968730   86.634200

 Total Charge           Charge          ....    0
 Multiplicity           Mult            ....    1
 Number of Electrons    NEL             ....  134
 Basis Dimension        Dim             ....  322

ORBITAL ENERGIES
----------------

  NO   OCC          E(Eh)            E(eV)
   0   2.0000     -88.973143     -2421.0823
   1   2.0000     -88.960425     -2420.7362
   2   2.0000     -10.324331      -280.9393
   3   2.0000     -10.316364      -280.7225
   4   2.0000     -10.313507      -280.6448
   5   2.0000     -10.309719      -280.5417
   6   2.0000     -10.300227      -280.2834
   7   2.0000     -10.299896      -280.2744
   8   2.0000     -10.299085      -280.2524
   9   2.0000     -10.295696      -280.1601
  10   2.0000     -10.289092      -279.9804
  11   2.0000     -10.283146      -279.8186
  12   2.0000     -10.281553      -279.7753
  13   2.0000     -10.281317      -279.7689
  14   2.0000     -10.277573      -279.6670
  15   2.0000     -10.276584      -279.6401
  16   2.0000      -8.088579      -220.1014
  17   2.0000      -8.074407      -219.7158
  18   2.0000      -6.046854      -164.5433
  19   2.0000      -6.042990      -164.4381
  20   2.0000      -6.039540      -164.3442
  21   2.0000      -6.033003      -164.1664
  22   2.0000      -6.029166      -164.0619
  23   2.0000      -6.024980      -163.9480
  24   2.0000      -1.013378       -27.5754
  25   2.0000      -0.981166       -26.6989
  26   2.0000      -0.928820       -25.2745
  27   2.0000      -0.906563       -24.6688
  28   2.0000      -0.875654       -23.8278
  29   2.0000      -0.855021       -23.2663
  30   2.0000      -0.841040       -22.8859
  31   2.0000      -0.810091       -22.0437
  32   2.0000      -0.786711       -21.4075
  33   2.0000      -0.775973       -21.1153
  34   2.0000      -0.717577       -19.5263
  35   2.0000      -0.699077       -19.0229
  36   2.0000      -0.689861       -18.7721
  37   2.0000      -0.662456       -18.0264
  38   2.0000      -0.640835       -17.4380
  39   2.0000      -0.621406       -16.9093
  40   2.0000      -0.595735       -16.2108
  41   2.0000      -0.579350       -15.7649
  42   2.0000      -0.566277       -15.4092
  43   2.0000      -0.556596       -15.1457
  44   2.0000      -0.529835       -14.4175
  45   2.0000      -0.522721       -14.2240
  46   2.0000      -0.517028       -14.0691
  47   2.0000      -0.511760       -13.9257
  48   2.0000      -0.502934       -13.6855
  49   2.0000      -0.501814       -13.6550
  50   2.0000      -0.490718       -13.3531
  51   2.0000      -0.479708       -13.0535
  52   2.0000      -0.468339       -12.7441
  53   2.0000      -0.467433       -12.7195
  54   2.0000      -0.458644       -12.4803
  55   2.0000      -0.455652       -12.3989
  56   2.0000      -0.443021       -12.0552
  57   2.0000      -0.442036       -12.0284
  58   2.0000      -0.435805       -11.8589
  59   2.0000      -0.425875       -11.5887
  60   2.0000      -0.422414       -11.4945
  61   2.0000      -0.417617       -11.3639
  62   2.0000      -0.405578       -11.0363
  63   2.0000      -0.338415        -9.2088
  64   2.0000      -0.332448        -9.0464
  65   2.0000      -0.327332        -8.9072
  66   2.0000      -0.296588        -8.0706
  67   0.0000       0.032951         0.8966
  68   0.0000       0.064145         1.7455
  69   0.0000       0.111170         3.0251
  70   0.0000       0.119019         3.2387
  71   0.0000       0.129137         3.5140

MULLIKEN ATOMIC CHARGES
-----------------------
   0 S :    0.085033
   1 C :   -0.133832
   2 C :   -0.090424
   3 C :    0.012045
   4 C :   -0.155479
   5 H :    0.024120
   6 C :    0.111318
   7 H :    0.009123
   8 H :    0.019175
   9 C :   -0.095280
  10 H :    0.024372
  11 H :    0.035611
  12 C :   -0.007065
  13 H :    0.035928
  14 H :    0.013356
  15 H :    0.037723
  16 S :    0.157217
  17 C :   -0.098801
  18 C :   -0.085861
  19 C :    0.001593
  20 C :   -0.174811
  21 H :    0.044332
  22 C :    0.074482
  23 H :    0.012476
  24 H :    0.015001
  25 C :   -0.042967
  26 H :    0.020899
  27 H :    0.033180
  28 C :   -0.066623
  29 H :    0.032367
  30 H :    0.030191
  31 H :    0.026760
  32 H :    0.042904
  33 H :    0.051937
Sum of atomic charges:   -0.0000000

LOEWDIN ATOMIC CHARGES
----------------------
   0 S :    0.361728
   1 C :   -0.176999
   2 C :   -0.053669
   3 C :   -0.066688
   4 C :   -0.182274
   5 H :    0.030265
   6 C :   -0.031737
   7 H :    0.027556
   8 H :    0.030979
   9 C :   -0.042643
  10 H :    0.023334
  11 H :    0.026492
  12 C :   -0.054594
  13 H :    0.030600
  14 H :    0.016147
  15 H :    0.031390
  16 S :    0.449316
  17 C :   -0.206330
  18 C :   -0.072920
  19 C :   -0.050946
  20 C :   -0.224876
  21 H :    0.041057
  22 C :   -0.033720
  23 H :    0.026721
  24 H :    0.034786
  25 C :   -0.038354
  26 H :    0.022273
  27 H :    0.027718
  28 C :   -0.065482
  29 H :    0.027527
  30 H :    0.023151
  31 H :    0.020208
  32 H :    0.022617
  33 H :    0.027368

  Mayer bond orders larger than 0.100000
B(  0-S ,  1-C ) :   1.0970 B(  0-S ,  4-C ) :   1.1375 B(  1-C ,  2-C ) :   1.6797
B(  1-C , 32-H ) :   0.9630 B(  2-C ,  3-C ) :   1.1999 B(  2-C ,  6-C ) :   1.0176
B(  3-C ,  4-C ) :   1.6159 B(  3-C ,  5-H ) :   0.9806 B(  4-C , 20-C ) :   1.0519
B(  6-C ,  7-H ) :   0.9280 B(  6-C ,  8-H ) :   0.9209 B(  6-C ,  9-C ) :   1.0648
B(  9-C , 10-H ) :   0.9576 B(  9-C , 11-H ) :   0.9496 B(  9-C , 12-C ) :   1.0849
B( 12-C , 13-H ) :   0.9727 B( 12-C , 14-H ) :   0.9727 B( 12-C , 15-H ) :   0.9717
B( 16-S , 17-C ) :   1.1779 B( 16-S , 20-C ) :   1.1439 B( 17-C , 18-C ) :   1.6026
B( 17-C , 33-H ) :   0.9640 B( 18-C , 19-C ) :   1.2489 B( 18-C , 21-H ) :   0.9800
B( 19-C , 20-C ) :   1.5890 B( 19-C , 22-C ) :   1.0194 B( 22-C , 23-H ) :   0.9298
B( 22-C , 24-H ) :   0.9348 B( 22-C , 25-C ) :   1.0791 B( 25-C , 26-H ) :   0.9503
B( 25-C , 27-H ) :   0.9523 B( 25-C , 28-C ) :   1.0793 B( 28-C , 29-H ) :   0.9754
B( 28-C , 30-H ) :   0.9773 B( 28-C , 31-H ) :   0.9755

Dispersion correction           -0.013924580
FINAL SINGLE POINT ENERGY     -1339.864054748375

DIPOLE MOMENT
-------------
                                X             Y             Z
Electronic contribution:    -22.69917     -12.27809     -15.32760
Nuclear contribution   :     23.29948      12.19141      15.70078
                        -----------------------------------------
Total Dipole Moment    :      0.60031      -0.08667       0.37318
                        -----------------------------------------
Magnitude (a.u.)       :      0.71214
Magnitude (Debye)      :      1.81012

Rotational constants in cm-1:     0.016552     0.008943     0.007226
Rotational constants in MHz :   496.229759   268.112259   216.620582

                             ****ORCA TERMINATED NORMALLY****
TOTAL RUN TIME: 0 days 0 hours 0 minutes 30 seconds 177 msec
