                         Program Version 4.2.1 -  RELEASE  -
|  1> ! wB97X-D3 SP def2-SVP
|  2> %pal
|  3> nprocs 16
|  4> end
|  5>
|  6> * xyz 0 1
|  7> S 	 -43.405 	 55.2109 	 101.434
|  8> C 	 -44.9999 	 55.0617 	 101.93
|  9> C 	 -45.5847 	 53.8729 	 101.565
| 10> C 	 -44.6062 	 53.0168 	 100.957
| 11> C 	 -43.3737 	 53.5484 	 100.808
| 12> H 	 -44.8415 	 52.0482 	 100.584
| 13> C 	 -47.0505 	 53.4894 	 101.781
| 14> H 	 -47.535 	 52.8979 	 101.06
| 15> H 	 -47.5652 	 54.4282 	 101.743
| 16> C 	 -47.3174 	 52.7938 	 103.161
| 17> H 	 -46.8843 	 51.8105 	 103.139
| 18> H 	 -46.7971 	 53.3084 	 103.914
| 19> C 	 -48.8565 	 52.5064 	 103.494
| 20> H 	 -48.9634 	 51.9897 	 104.463
| 21> H 	 -49.462 	 53.4005 	 103.571
| 22> H 	 -49.3148 	 51.9466 	 102.674
| 23> S 	 -41.1944 	 54.3174 	 99.1707
| 24> C 	 -40.2568 	 53.0772 	 98.3733
| 25> C 	 -40.6029 	 51.8227 	 98.7609
| 26> C 	 -41.8179 	 51.861 	 99.5929
| 27> C 	 -42.2396 	 53.1414 	 99.969
| 28> H 	 -40.0438 	 50.942 	 98.3763
| 29> C 	 -42.3639 	 50.4966 	 99.9775
| 30> H 	 -42.1352 	 49.8059 	 99.2043
| 31> H 	 -43.386 	 50.5948 	 99.9414
| 32> C 	 -41.8037 	 49.8668 	 101.262
| 33> H 	 -40.7309 	 49.6794 	 101.136
| 34> H 	 -42.2085 	 48.9025 	 101.388
| 35> C 	 -41.9767 	 50.6911 	 102.591
| 36> H 	 -41.4961 	 51.6566 	 102.629
| 37> H 	 -41.582 	 50.1383 	 103.391
| 38> H 	 -43.0412 	 50.7701 	 102.753
| 39> H 	 -45.5705 	 55.8499 	 102.35
| 40> H 	 -39.353 	 53.388 	 97.8375
| 41> *
| 42>
| 43>                          ****END OF INPUT****

CARTESIAN COORDINATES (ANGSTROEM)
---------------------------------
  S    -43.405000   55.210900  101.434000
  C    -44.999900   55.061700  101.930000
  C    -45.584700   53.872900  101.565000
  C    -44.606200   53.016800  100.957000
  C    -43.373700   53.548400  100.808000
  H    -44.841500   52.048200  100.584000
  C    -47.050500   53.489400  101.781000
  H    -47.535000   52.897900  101.060000
  H    -47.565200   54.428200  101.743000
  C    -47.317400   52.793800  103.161000
  H    -46.884300   51.810500  103.139000
  H    -46.797100   53.308400  103.914000
  C    -48.856500   52.506400  103.494000
  H    -48.963400   51.989700  104.463000
  H    -49.462000   53.400500  103.571000
  H    -49.314800   51.946600  102.674000
  S    -41.194400   54.317400   99.170700
  C    -40.256800   53.077200   98.373300
  C    -40.602900   51.822700   98.760900
  C    -41.817900   51.861000   99.592900
  C    -42.239600   53.141400   99.969000
  H    -40.043800   50.942000   98.376300
  C    -42.363900   50.496600   99.977500
  H    -42.135200   49.805900   99.204300
  H    -43.386000   50.594800   99.941400
  C    -41.803700   49.866800  101.262000
  H    -40.730900   49.679400  101.136000
  H    -42.208500   48.902500  101.388000
  C    -41.976700   50.691100  102.591000
  H    -41.496100   51.656600  102.629000
  H    -41.582000   50.138300  103.391000
  H    -43.041200   50.770100  102.753000
  H    -45.570500   55.849900  102.350000
  H    -39.353000   53.388000   97.837500

 Total Charge           Charge          ....    0
 Multiplicity           Mult            ....    1
 Number of Electrons    NEL             ....  134
 Basis Dimension        Dim             ....  322

ORBITAL ENERGIES
----------------

  NO   OCC          E(Eh)            E(eV)
   0   2.0000     -88.965093     -2420.8633
   1   2.0000     -88.962821     -2420.8014
   2   2.0000     -10.332768      -281.1689
   3   2.0000     -10.330495      -281.1071
   4   2.0000     -10.316511      -280.7265
   5   2.0000     -10.307990      -280.4947
   6   2.0000     -10.305829      -280.4359
   7   2.0000     -10.301623      -280.3214
   8   2.0000     -10.298021      -280.2234
   9   2.0000     -10.290879      -280.0291
  10   2.0000     -10.290820      -280.0275
  11   2.0000     -10.286126      -279.8997
  12   2.0000     -10.284429      -279.8535
  13   2.0000     -10.283269      -279.8220
  14   2.0000     -10.281350      -279.7698
  15   2.0000     -10.265474      -279.3377
  16   2.0000      -8.081044      -219.8964
  17   2.0000      -8.077667      -219.8045
  18   2.0000      -6.039517      -164.3436
  19   2.0000      -6.036314      -164.2565
  20   2.0000      -6.035408      -164.2318
  21   2.0000      -6.032189      -164.1442
  22   2.0000      -6.031748      -164.1322
  23   2.0000      -6.028243      -164.0368
  24   2.0000      -1.010661       -27.5015
  25   2.0000      -0.986070       -26.8323
  26   2.0000      -0.905947       -24.6521
  27   2.0000      -0.904774       -24.6201
  28   2.0000      -0.871652       -23.7189
  29   2.0000      -0.850047       -23.1310
  30   2.0000      -0.839944       -22.8560
  31   2.0000      -0.819024       -22.2868
  32   2.0000      -0.785422       -21.3724
  33   2.0000      -0.774404       -21.0726
  34   2.0000      -0.711275       -19.3548
  35   2.0000      -0.704930       -19.1821
  36   2.0000      -0.693579       -18.8732
  37   2.0000      -0.664146       -18.0723
  38   2.0000      -0.642917       -17.4947
  39   2.0000      -0.625996       -17.0342
  40   2.0000      -0.595169       -16.1954
  41   2.0000      -0.576301       -15.6819
  42   2.0000      -0.555543       -15.1171
  43   2.0000      -0.545031       -14.8310
  44   2.0000      -0.541593       -14.7375
  45   2.0000      -0.521021       -14.1777
  46   2.0000      -0.516352       -14.0507
  47   2.0000      -0.512996       -13.9593
  48   2.0000      -0.504835       -13.7373
  49   2.0000      -0.502081       -13.6623
  50   2.0000      -0.494792       -13.4640
  51   2.0000      -0.477093       -12.9824
  52   2.0000      -0.471566       -12.8320
  53   2.0000      -0.465151       -12.6574
  54   2.0000      -0.460024       -12.5179
  55   2.0000      -0.449112       -12.2210
  56   2.0000      -0.443778       -12.0758
  57   2.0000      -0.440668       -11.9912
  58   2.0000      -0.435697       -11.8559
  59   2.0000      -0.430505       -11.7146
  60   2.0000      -0.419223       -11.4076
  61   2.0000      -0.414174       -11.2703
  62   2.0000      -0.409444       -11.1415
  63   2.0000      -0.366889        -9.9836
  64   2.0000      -0.333822        -9.0838
  65   2.0000      -0.324579        -8.8322
  66   2.0000      -0.286013        -7.7828
  67   0.0000       0.026533         0.7220
  68   0.0000       0.079532         2.1642
  69   0.0000       0.108350         2.9484
  70   0.0000       0.120581         3.2812
  71   0.0000       0.134226         3.6525

MULLIKEN ATOMIC CHARGES
-----------------------
   0 S :    0.101531
   1 C :   -0.089088
   2 C :   -0.114090
   3 C :    0.024020
   4 C :   -0.113245
   5 H :   -0.009178
   6 C :    0.098907
   7 H :    0.010390
   8 H :    0.011285
   9 C :   -0.059584
  10 H :    0.023289
  11 H :    0.018507
  12 C :   -0.062052
  13 H :    0.046097
  14 H :    0.026248
  15 H :    0.031814
  16 S :    0.085245
  17 C :   -0.098318
  18 C :   -0.028878
  19 C :   -0.118537
  20 C :   -0.095790
  21 H :    0.041012
  22 C :    0.134568
  23 H :    0.004996
  24 H :   -0.010104
  25 C :   -0.056103
  26 H :    0.018182
  27 H :    0.017627
  28 C :   -0.028462
  29 H :    0.047269
  30 H :    0.016336
  31 H :    0.024014
  32 H :    0.033900
  33 H :    0.068193
Sum of atomic charges:    0.0000000

LOEWDIN ATOMIC CHARGES
----------------------
   0 S :    0.420918
   1 C :   -0.206662
   2 C :   -0.061379
   3 C :   -0.056990
   4 C :   -0.177486
   5 H :    0.023405
   6 C :   -0.024638
   7 H :    0.022596
   8 H :    0.027431
   9 C :   -0.029681
  10 H :    0.021566
  11 H :    0.014664
  12 C :   -0.068458
  13 H :    0.031496
  14 H :    0.019990
  15 H :    0.025128
  16 S :    0.388887
  17 C :   -0.183820
  18 C :   -0.074423
  19 C :   -0.051971
  20 C :   -0.196335
  21 H :    0.042129
  22 C :   -0.026563
  23 H :    0.029859
  24 H :    0.013229
  25 C :   -0.028743
  26 H :    0.022453
  27 H :    0.017922
  28 C :   -0.058824
  29 H :    0.028056
  30 H :    0.018748
  31 H :    0.022594
  32 H :    0.023211
  33 H :    0.031692

  Mayer bond orders larger than 0.100000
B(  0-S ,  1-C ) :   1.1637 B(  0-S ,  4-C ) :   1.1324 B(  1-C ,  2-C ) :   1.6086
B(  1-C , 32-H ) :   0.9649 B(  2-C ,  3-C ) :   1.2594 B(  2-C ,  6-C ) :   1.0281
B(  3-C ,  4-C ) :   1.5782 B(  3-C ,  5-H ) :   0.9960 B(  4-C , 20-C ) :   1.0659
B(  6-C ,  7-H ) :   0.9443 B(  6-C ,  8-H ) :   0.9371 B(  6-C ,  9-C ) :   1.0560
B(  9-C , 10-H ) :   0.9586 B(  9-C , 11-H ) :   0.9613 B(  9-C , 12-C ) :   1.0674
B( 12-C , 13-H ) :   0.9767 B( 12-C , 14-H ) :   0.9795 B( 12-C , 15-H ) :   0.9759
B( 16-S , 17-C ) :   1.1486 B( 16-S , 20-C ) :   1.1172 B( 17-C , 18-C ) :   1.6310
B( 17-C , 33-H ) :   0.9614 B( 18-C , 19-C ) :   1.2180 B( 18-C , 21-H ) :   0.9849
B( 19-C , 20-C ) :   1.6109 B( 19-C , 22-C ) :   1.0411 B( 22-C , 23-H ) :   0.9220
B( 22-C , 24-H ) :   0.9294 B( 22-C , 25-C ) :   1.0773 B( 25-C , 26-H ) :   0.9531
B( 25-C , 27-H ) :   0.9539 B( 25-C , 28-C ) :   1.0808 B( 28-C , 29-H ) :   0.9749
B( 28-C , 30-H ) :   0.9720 B( 28-C , 31-H ) :   0.9770

Dispersion correction           -0.014661143
FINAL SINGLE POINT ENERGY     -1339.877977649894

DIPOLE MOMENT
-------------
                                X             Y             Z
Electronic contribution:     17.39533      19.47748     -13.41991
Nuclear contribution   :    -17.72367     -20.04637      13.44669
                        -----------------------------------------
Total Dipole Moment    :     -0.32834      -0.56889       0.02678
                        -----------------------------------------
Magnitude (a.u.)       :      0.65739
Magnitude (Debye)      :      1.67095

Rotational constants in cm-1:     0.021471     0.008187     0.006542
Rotational constants in MHz :   643.699074   245.429933   196.122810

                             ****ORCA TERMINATED NORMALLY****
TOTAL RUN TIME: 0 days 0 hours 0 minutes 30 seconds 316 msec
