                         Program Version 4.2.1 -  RELEASE  -
|  1> ! wB97X-D3 SP def2-SVP
|  2> %pal
|  3> nprocs 16
|  4> end
|  5>
|  6> * xyz 0 1
|  7> S 	 -35.6347 	 54.5183 	 100.823
|  8> C 	 -36.5526 	 53.1567 	 100.258
|  9> C 	 -37.8591 	 53.0916 	 100.758
| 10> C 	 -38.1339 	 54.2749 	 101.491
| 11> C 	 -37.0635 	 55.2351 	 101.584
| 12> H 	 -39.0698 	 54.5239 	 101.979
| 13> C 	 -38.7875 	 51.9114 	 100.644
| 14> H 	 -38.4646 	 51.3059 	 99.7767
| 15> H 	 -39.7568 	 52.3658 	 100.314
| 16> C 	 -38.9843 	 51.0562 	 101.916
| 17> H 	 -37.9954 	 50.8129 	 102.236
| 18> H 	 -39.4481 	 51.6503 	 102.706
| 19> C 	 -39.8992 	 49.834 	 101.865
| 20> H 	 -39.637 	 49.016 	 101.196
| 21> H 	 -39.8397 	 49.3616 	 102.88
| 22> H 	 -40.9122 	 50.1481 	 101.821
| 23> S 	 -37.2421 	 56.1811 	 104.105
| 24> C 	 -37.2572 	 57.86 	 104.414
| 25> C 	 -36.8831 	 58.6083 	 103.292
| 26> C 	 -36.8324 	 57.8301 	 102.118
| 27> C 	 -37.023 	 56.4601 	 102.382
| 28> H 	 -36.9021 	 59.7148 	 103.338
| 29> C 	 -36.5455 	 58.4647 	 100.735
| 30> H 	 -37.1786 	 59.3688 	 100.724
| 31> H 	 -36.7368 	 57.7853 	 99.8887
| 32> C 	 -35.075 	 58.91 	 100.491
| 33> H 	 -34.3328 	 58.0871 	 100.634
| 34> H 	 -34.7622 	 59.5991 	 101.198
| 35> C 	 -35.0448 	 59.4812 	 99.0518
| 36> H 	 -34.9782 	 58.6347 	 98.3205
| 37> H 	 -33.9867 	 59.921 	 98.8531
| 38> H 	 -35.7165 	 60.2991 	 98.7332
| 39> H 	 -36.2136 	 52.2919 	 99.7065
| 40> H 	 -37.3925 	 58.2835 	 105.361
| 41> *
| 42>
| 43>                          ****END OF INPUT****

CARTESIAN COORDINATES (ANGSTROEM)
---------------------------------
  S    -35.634700   54.518300  100.823000
  C    -36.552600   53.156700  100.258000
  C    -37.859100   53.091600  100.758000
  C    -38.133900   54.274900  101.491000
  C    -37.063500   55.235100  101.584000
  H    -39.069800   54.523900  101.979000
  C    -38.787500   51.911400  100.644000
  H    -38.464600   51.305900   99.776700
  H    -39.756800   52.365800  100.314000
  C    -38.984300   51.056200  101.916000
  H    -37.995400   50.812900  102.236000
  H    -39.448100   51.650300  102.706000
  C    -39.899200   49.834000  101.865000
  H    -39.637000   49.016000  101.196000
  H    -39.839700   49.361600  102.880000
  H    -40.912200   50.148100  101.821000
  S    -37.242100   56.181100  104.105000
  C    -37.257200   57.860000  104.414000
  C    -36.883100   58.608300  103.292000
  C    -36.832400   57.830100  102.118000
  C    -37.023000   56.460100  102.382000
  H    -36.902100   59.714800  103.338000
  C    -36.545500   58.464700  100.735000
  H    -37.178600   59.368800  100.724000
  H    -36.736800   57.785300   99.888700
  C    -35.075000   58.910000  100.491000
  H    -34.332800   58.087100  100.634000
  H    -34.762200   59.599100  101.198000
  C    -35.044800   59.481200   99.051800
  H    -34.978200   58.634700   98.320500
  H    -33.986700   59.921000   98.853100
  H    -35.716500   60.299100   98.733200
  H    -36.213600   52.291900   99.706500
  H    -37.392500   58.283500  105.361000

 Total Charge           Charge          ....    0
 Multiplicity           Mult            ....    1
 Number of Electrons    NEL             ....  134
 Basis Dimension        Dim             ....  322

ORBITAL ENERGIES
----------------

  NO   OCC          E(Eh)            E(eV)
   0   2.0000     -88.970111     -2420.9998
   1   2.0000     -88.965948     -2420.8865
   2   2.0000     -10.333370      -281.1853
   3   2.0000     -10.326588      -281.0007
   4   2.0000     -10.313154      -280.6352
   5   2.0000     -10.312505      -280.6175
   6   2.0000     -10.306505      -280.4543
   7   2.0000     -10.300349      -280.2867
   8   2.0000     -10.297616      -280.2124
   9   2.0000     -10.297364      -280.2055
  10   2.0000     -10.295146      -280.1452
  11   2.0000     -10.294964      -280.1402
  12   2.0000     -10.288863      -279.9742
  13   2.0000     -10.286785      -279.9177
  14   2.0000     -10.285960      -279.8952
  15   2.0000     -10.280030      -279.7338
  16   2.0000      -8.084046      -219.9781
  17   2.0000      -8.081195      -219.9005
  18   2.0000      -6.042464      -164.4238
  19   2.0000      -6.039461      -164.3421
  20   2.0000      -6.038604      -164.3188
  21   2.0000      -6.035555      -164.2358
  22   2.0000      -6.035024      -164.2214
  23   2.0000      -6.032239      -164.1456
  24   2.0000      -1.002736       -27.2858
  25   2.0000      -0.981465       -26.7070
  26   2.0000      -0.909092       -24.7377
  27   2.0000      -0.904175       -24.6039
  28   2.0000      -0.866664       -23.5831
  29   2.0000      -0.851114       -23.1600
  30   2.0000      -0.846620       -23.0377
  31   2.0000      -0.806444       -21.9445
  32   2.0000      -0.780384       -21.2353
  33   2.0000      -0.766590       -20.8600
  34   2.0000      -0.706428       -19.2229
  35   2.0000      -0.699529       -19.0352
  36   2.0000      -0.693881       -18.8815
  37   2.0000      -0.662352       -18.0235
  38   2.0000      -0.633522       -17.2390
  39   2.0000      -0.613862       -16.7040
  40   2.0000      -0.597108       -16.2481
  41   2.0000      -0.570861       -15.5339
  42   2.0000      -0.563000       -15.3200
  43   2.0000      -0.561595       -15.2818
  44   2.0000      -0.519041       -14.1238
  45   2.0000      -0.515830       -14.0364
  46   2.0000      -0.511912       -13.9298
  47   2.0000      -0.506980       -13.7956
  48   2.0000      -0.505092       -13.7443
  49   2.0000      -0.502139       -13.6639
  50   2.0000      -0.491154       -13.3650
  51   2.0000      -0.473681       -12.8895
  52   2.0000      -0.466397       -12.6913
  53   2.0000      -0.464657       -12.6440
  54   2.0000      -0.458735       -12.4828
  55   2.0000      -0.447387       -12.1740
  56   2.0000      -0.445115       -12.1122
  57   2.0000      -0.434292       -11.8177
  58   2.0000      -0.430551       -11.7159
  59   2.0000      -0.427455       -11.6316
  60   2.0000      -0.424437       -11.5495
  61   2.0000      -0.420861       -11.4522
  62   2.0000      -0.408921       -11.1273
  63   2.0000      -0.335512        -9.1298
  64   2.0000      -0.329858        -8.9759
  65   2.0000      -0.326344        -8.8803
  66   2.0000      -0.295423        -8.0389
  67   0.0000       0.030366         0.8263
  68   0.0000       0.062666         1.7052
  69   0.0000       0.109892         2.9903
  70   0.0000       0.117313         3.1923
  71   0.0000       0.127935         3.4813

MULLIKEN ATOMIC CHARGES
-----------------------
   0 S :    0.127759
   1 C :   -0.103199
   2 C :   -0.106753
   3 C :    0.024886
   4 C :   -0.168110
   5 H :    0.010765
   6 C :    0.066322
   7 H :    0.019748
   8 H :    0.028812
   9 C :   -0.061201
  10 H :    0.022897
  11 H :    0.027850
  12 C :   -0.038547
  13 H :    0.038454
  14 H :    0.031187
  15 H :    0.028237
  16 S :    0.128534
  17 C :   -0.078122
  18 C :   -0.055217
  19 C :    0.000738
  20 C :   -0.193387
  21 H :    0.032755
  22 C :    0.044033
  23 H :    0.031886
  24 H :    0.035391
  25 C :   -0.040582
  26 H :    0.035067
  27 H :    0.009935
  28 C :   -0.104878
  29 H :    0.045628
  30 H :    0.030207
  31 H :    0.052830
  32 H :    0.037904
  33 H :    0.038169
Sum of atomic charges:    0.0000000

LOEWDIN ATOMIC CHARGES
----------------------
   0 S :    0.414196
   1 C :   -0.203858
   2 C :   -0.069810
   3 C :   -0.056085
   4 C :   -0.207275
   5 H :    0.027440
   6 C :   -0.036725
   7 H :    0.030669
   8 H :    0.034056
   9 C :   -0.038864
  10 H :    0.020397
  11 H :    0.029142
  12 C :   -0.065283
  13 H :    0.023737
  14 H :    0.036387
  15 H :    0.021732
  16 S :    0.435450
  17 C :   -0.188327
  18 C :   -0.080041
  19 C :   -0.051527
  20 C :   -0.211205
  21 H :    0.036608
  22 C :   -0.028221
  23 H :    0.033779
  24 H :    0.033269
  25 C :   -0.035858
  26 H :    0.031749
  27 H :    0.009544
  28 C :   -0.082975
  29 H :    0.032094
  30 H :    0.032690
  31 H :    0.029748
  32 H :    0.026468
  33 H :    0.016899

  Mayer bond orders larger than 0.100000
B(  0-S ,  1-C ) :   1.1621 B(  0-S ,  4-C ) :   1.1504 B(  1-C ,  2-C ) :   1.5814
B(  1-C ,  4-C ) :   0.1069 B(  1-C , 32-H ) :   0.9597 B(  2-C ,  3-C ) :   1.2741
B(  2-C ,  6-C ) :   1.0350 B(  3-C ,  4-C ) :   1.5339 B(  3-C ,  5-H ) :   0.9949
B(  4-C , 20-C ) :   1.0442 B(  6-C ,  7-H ) :   0.9367 B(  6-C ,  8-H ) :   0.9341
B(  6-C ,  9-C ) :   1.0558 B(  9-C , 10-H ) :   0.9571 B(  9-C , 11-H ) :   0.9530
B(  9-C , 12-C ) :   1.0903 B( 12-C , 13-H ) :   0.9760 B( 12-C , 14-H ) :   0.9703
B( 12-C , 15-H ) :   0.9746 B( 16-S , 17-C ) :   1.1892 B( 16-S , 20-C ) :   1.1542
B( 17-C , 18-C ) :   1.5717 B( 17-C , 20-C ) :   0.1060 B( 17-C , 33-H ) :   0.9735
B( 18-C , 19-C ) :   1.2737 B( 18-C , 21-H ) :   0.9811 B( 19-C , 20-C ) :   1.5628
B( 19-C , 22-C ) :   1.0362 B( 22-C , 23-H ) :   0.9351 B( 22-C , 24-H ) :   0.9450
B( 22-C , 25-C ) :   1.0605 B( 25-C , 26-H ) :   0.9515 B( 25-C , 27-H ) :   0.9566
B( 25-C , 28-C ) :   1.0762 B( 28-C , 29-H ) :   0.9743 B( 28-C , 30-H ) :   0.9710
B( 28-C , 31-H ) :   0.9756

Dispersion correction           -0.013578221
FINAL SINGLE POINT ENERGY     -1339.873933433924

DIPOLE MOMENT
-------------
                                X             Y             Z
Electronic contribution:      5.43558       3.74147      10.61435
Nuclear contribution   :     -5.64601      -3.75193     -10.59372
                        -----------------------------------------
Total Dipole Moment    :     -0.21044      -0.01046       0.02063
                        -----------------------------------------
Magnitude (a.u.)       :      0.21170
Magnitude (Debye)      :      0.53811

Rotational constants in cm-1:     0.022324     0.007185     0.005861
Rotational constants in MHz :   669.265995   215.398381   175.707697

                             ****ORCA TERMINATED NORMALLY****
TOTAL RUN TIME: 0 days 0 hours 0 minutes 28 seconds 194 msec
