                         Program Version 4.2.1 -  RELEASE  -
|  1> ! wB97X-D3 SP def2-SVP
|  2> %pal
|  3> nprocs 16
|  4> end
|  5>
|  6> * xyz 0 1
|  7> S 	 -14.8151 	 70.2749 	 51.4094
|  8> C 	 -14.9452 	 69.9788 	 49.6594
|  9> C 	 -13.8149 	 70.3763 	 48.9757
| 10> C 	 -12.7696 	 70.854 	 49.8525
| 11> C 	 -13.0991 	 70.7408 	 51.1894
| 12> H 	 -11.8335 	 71.2892 	 49.5021
| 13> C 	 -13.5568 	 70.189 	 47.4412
| 14> H 	 -13.678 	 71.1505 	 46.9395
| 15> H 	 -14.4061 	 69.6277 	 47.1062
| 16> C 	 -12.2783 	 69.4243 	 47.0261
| 17> H 	 -11.3231 	 69.8951 	 47.417
| 18> H 	 -12.158 	 68.4152 	 47.4541
| 19> C 	 -12.387 	 69.1761 	 45.5316
| 20> H 	 -12.376 	 70.0867 	 45.0216
| 21> H 	 -11.5022 	 68.6276 	 45.2348
| 22> H 	 -13.2972 	 68.6317 	 45.2018
| 23> S 	 -12.9494 	 72.7528 	 53.1348
| 24> C 	 -11.5616 	 72.875 	 54.1697
| 25> C 	 -10.7351 	 71.8064 	 53.8924
| 26> C 	 -11.0639 	 70.9549 	 52.7321
| 27> C 	 -12.2888 	 71.3383 	 52.2492
| 28> H 	 -9.82834 	 71.661 	 54.457
| 29> C 	 -10.1579 	 69.7693 	 52.3089
| 30> H 	 -10.6532 	 69.2209 	 51.5627
| 31> H 	 -9.91797 	 69.1595 	 53.1532
| 32> C 	 -8.84033 	 70.1283 	 51.5971
| 33> H 	 -8.26906 	 70.6705 	 52.2863
| 34> H 	 -9.11206 	 70.706 	 50.748
| 35> C 	 -7.95958 	 68.9551 	 51.2975
| 36> H 	 -7.6226 	 68.5781 	 52.3065
| 37> H 	 -7.05864 	 69.2477 	 50.7659
| 38> H 	 -8.48801 	 68.2029 	 50.7843
| 39> H 	 -15.7781 	 69.5589 	 49.1564
| 40> H 	 -11.378 	 73.5106 	 54.9879
| 41> *
| 42>
| 43>                          ****END OF INPUT****

CARTESIAN COORDINATES (ANGSTROEM)
---------------------------------
  S    -14.815100   70.274900   51.409400
  C    -14.945200   69.978800   49.659400
  C    -13.814900   70.376300   48.975700
  C    -12.769600   70.854000   49.852500
  C    -13.099100   70.740800   51.189400
  H    -11.833500   71.289200   49.502100
  C    -13.556800   70.189000   47.441200
  H    -13.678000   71.150500   46.939500
  H    -14.406100   69.627700   47.106200
  C    -12.278300   69.424300   47.026100
  H    -11.323100   69.895100   47.417000
  H    -12.158000   68.415200   47.454100
  C    -12.387000   69.176100   45.531600
  H    -12.376000   70.086700   45.021600
  H    -11.502200   68.627600   45.234800
  H    -13.297200   68.631700   45.201800
  S    -12.949400   72.752800   53.134800
  C    -11.561600   72.875000   54.169700
  C    -10.735100   71.806400   53.892400
  C    -11.063900   70.954900   52.732100
  C    -12.288800   71.338300   52.249200
  H     -9.828340   71.661000   54.457000
  C    -10.157900   69.769300   52.308900
  H    -10.653200   69.220900   51.562700
  H     -9.917970   69.159500   53.153200
  C     -8.840330   70.128300   51.597100
  H     -8.269060   70.670500   52.286300
  H     -9.112060   70.706000   50.748000
  C     -7.959580   68.955100   51.297500
  H     -7.622600   68.578100   52.306500
  H     -7.058640   69.247700   50.765900
  H     -8.488010   68.202900   50.784300
  H    -15.778100   69.558900   49.156400
  H    -11.378000   73.510600   54.987900

 Total Charge           Charge          ....    0
 Multiplicity           Mult            ....    1
 Number of Electrons    NEL             ....  134
 Basis Dimension        Dim             ....  322

ORBITAL ENERGIES
----------------

  NO   OCC          E(Eh)            E(eV)
   0   2.0000     -88.969138     -2420.9733
   1   2.0000     -88.961987     -2420.7787
   2   2.0000     -10.331903      -281.1454
   3   2.0000     -10.328721      -281.0588
   4   2.0000     -10.315407      -280.6965
   5   2.0000     -10.313202      -280.6365
   6   2.0000     -10.307146      -280.4717
   7   2.0000     -10.303896      -280.3833
   8   2.0000     -10.297668      -280.2138
   9   2.0000     -10.296803      -280.1903
  10   2.0000     -10.295700      -280.1602
  11   2.0000     -10.292388      -280.0701
  12   2.0000     -10.287924      -279.9486
  13   2.0000     -10.277247      -279.6581
  14   2.0000     -10.276351      -279.6337
  15   2.0000     -10.274635      -279.5870
  16   2.0000      -8.082560      -219.9376
  17   2.0000      -8.076340      -219.7684
  18   2.0000      -6.041276      -164.3915
  19   2.0000      -6.037429      -164.2868
  20   2.0000      -6.035102      -164.2235
  21   2.0000      -6.032995      -164.1661
  22   2.0000      -6.030851      -164.1078
  23   2.0000      -6.026877      -163.9997
  24   2.0000      -0.998849       -27.1801
  25   2.0000      -0.976106       -26.5612
  26   2.0000      -0.915310       -24.9068
  27   2.0000      -0.909972       -24.7616
  28   2.0000      -0.871002       -23.7012
  29   2.0000      -0.850603       -23.1461
  30   2.0000      -0.843017       -22.9397
  31   2.0000      -0.811818       -22.0907
  32   2.0000      -0.783563       -21.3218
  33   2.0000      -0.772896       -21.0316
  34   2.0000      -0.709911       -19.3177
  35   2.0000      -0.698688       -19.0123
  36   2.0000      -0.695208       -18.9176
  37   2.0000      -0.657232       -17.8842
  38   2.0000      -0.640578       -17.4310
  39   2.0000      -0.618031       -16.8175
  40   2.0000      -0.597539       -16.2599
  41   2.0000      -0.583138       -15.8680
  42   2.0000      -0.566942       -15.4273
  43   2.0000      -0.557337       -15.1659
  44   2.0000      -0.531715       -14.4687
  45   2.0000      -0.526855       -14.3365
  46   2.0000      -0.516925       -14.0662
  47   2.0000      -0.510453       -13.8901
  48   2.0000      -0.503717       -13.7068
  49   2.0000      -0.499439       -13.5904
  50   2.0000      -0.495605       -13.4861
  51   2.0000      -0.481004       -13.0888
  52   2.0000      -0.472101       -12.8465
  53   2.0000      -0.463991       -12.6259
  54   2.0000      -0.461135       -12.5481
  55   2.0000      -0.449966       -12.2442
  56   2.0000      -0.446579       -12.1520
  57   2.0000      -0.441756       -12.0208
  58   2.0000      -0.430499       -11.7145
  59   2.0000      -0.424742       -11.5578
  60   2.0000      -0.421302       -11.4642
  61   2.0000      -0.414736       -11.2855
  62   2.0000      -0.409694       -11.1484
  63   2.0000      -0.344058        -9.3623
  64   2.0000      -0.331392        -9.0176
  65   2.0000      -0.323619        -8.8061
  66   2.0000      -0.299918        -8.1612
  67   0.0000       0.035293         0.9604
  68   0.0000       0.063743         1.7345
  69   0.0000       0.112887         3.0718
  70   0.0000       0.120071         3.2673
  71   0.0000       0.130881         3.5615

MULLIKEN ATOMIC CHARGES
-----------------------
   0 S :    0.105251
   1 C :   -0.106709
   2 C :   -0.081241
   3 C :    0.021280
   4 C :   -0.147689
   5 H :    0.025786
   6 C :    0.074776
   7 H :    0.041982
   8 H :    0.001351
   9 C :   -0.099994
  10 H :    0.037880
  11 H :    0.033422
  12 C :   -0.026692
  13 H :    0.015044
  14 H :    0.030178
  15 H :    0.041191
  16 S :    0.100962
  17 C :   -0.062784
  18 C :   -0.044656
  19 C :   -0.024694
  20 C :   -0.176405
  21 H :    0.010691
  22 C :    0.097291
  23 H :    0.005887
  24 H :    0.020500
  25 C :   -0.060234
  26 H :    0.008654
  27 H :    0.018682
  28 C :   -0.023931
  29 H :    0.025556
  30 H :    0.039459
  31 H :    0.021006
  32 H :    0.033625
  33 H :    0.044572
Sum of atomic charges:   -0.0000000

LOEWDIN ATOMIC CHARGES
----------------------
   0 S :    0.377701
   1 C :   -0.182546
   2 C :   -0.060441
   3 C :   -0.053827
   4 C :   -0.182416
   5 H :    0.033332
   6 C :   -0.029373
   7 H :    0.034652
   8 H :    0.025170
   9 C :   -0.047522
  10 H :    0.028204
  11 H :    0.028677
  12 C :   -0.059927
  13 H :    0.015138
  14 H :    0.026640
  15 H :    0.032150
  16 S :    0.385869
  17 C :   -0.187607
  18 C :   -0.068780
  19 C :   -0.051147
  20 C :   -0.182978
  21 H :    0.022565
  22 C :   -0.017863
  23 H :    0.021560
  24 H :    0.027609
  25 C :   -0.034210
  26 H :    0.014376
  27 H :    0.016301
  28 C :   -0.056064
  29 H :    0.031454
  30 H :    0.029430
  31 H :    0.014893
  32 H :    0.021947
  33 H :    0.027031

  Mayer bond orders larger than 0.100000
B(  0-S ,  1-C ) :   1.1167 B(  0-S ,  4-C ) :   1.1286 B(  1-C ,  2-C ) :   1.6576
B(  1-C , 32-H ) :   0.9658 B(  2-C ,  3-C ) :   1.2190 B(  2-C ,  6-C ) :   1.0079
B(  3-C ,  4-C ) :   1.5949 B(  3-C ,  5-H ) :   0.9889 B(  4-C , 20-C ) :   1.0322
B(  6-C ,  7-H ) :   0.9381 B(  6-C ,  8-H ) :   0.9443 B(  6-C ,  9-C ) :   1.0546
B(  9-C , 10-H ) :   0.9526 B(  9-C , 11-H ) :   0.9577 B(  9-C , 12-C ) :   1.0804
B( 12-C , 13-H ) :   0.9748 B( 12-C , 14-H ) :   0.9721 B( 12-C , 15-H ) :   0.9741
B( 16-S , 17-C ) :   1.1262 B( 16-S , 20-C ) :   1.1265 B( 17-C , 18-C ) :   1.6505
B( 17-C , 33-H ) :   0.9727 B( 18-C , 19-C ) :   1.2028 B( 18-C , 21-H ) :   0.9824
B( 19-C , 20-C ) :   1.6426 B( 19-C , 22-C ) :   1.0462 B( 22-C , 23-H ) :   0.9268
B( 22-C , 24-H ) :   0.9379 B( 22-C , 25-C ) :   1.0702 B( 25-C , 26-H ) :   0.9565
B( 25-C , 27-H ) :   0.9530 B( 25-C , 28-C ) :   1.0913 B( 28-C , 29-H ) :   0.9719
B( 28-C , 30-H ) :   0.9716 B( 28-C , 31-H ) :   0.9750

Dispersion correction           -0.013564371
FINAL SINGLE POINT ENERGY     -1339.869917717101

DIPOLE MOMENT
-------------
                                X             Y             Z
Electronic contribution:    -20.70446      13.18725      20.96407
Nuclear contribution   :     21.24396     -13.44376     -21.46602
                        -----------------------------------------
Total Dipole Moment    :      0.53949      -0.25650      -0.50195
                        -----------------------------------------
Magnitude (a.u.)       :      0.78026
Magnitude (Debye)      :      1.98326

Rotational constants in cm-1:     0.015857     0.009122     0.006364
Rotational constants in MHz :   475.393392   273.455810   190.781589

                             ****ORCA TERMINATED NORMALLY****
TOTAL RUN TIME: 0 days 0 hours 0 minutes 31 seconds 146 msec
