                         Program Version 4.2.1 -  RELEASE  -
|  1> ! wB97X-D3 SP def2-SVP
|  2> %pal
|  3> nprocs 16
|  4> end
|  5>
|  6> * xyz 0 1
|  7> S 	 -21.5153 	 -2.32038 	 80.3654
|  8> C 	 -19.9529 	 -2.41385 	 79.6766
|  9> C 	 -19.0219 	 -2.54363 	 80.6935
| 10> C 	 -19.558 	 -2.233 	 81.9885
| 11> C 	 -20.9885 	 -2.23312 	 81.9989
| 12> H 	 -19.0316 	 -2.08831 	 82.9317
| 13> C 	 -17.5551 	 -2.81149 	 80.5402
| 14> H 	 -17.1495 	 -2.9569 	 81.5249
| 15> H 	 -17.104 	 -2.00214 	 80.0596
| 16> C 	 -17.3271 	 -4.12641 	 79.7173
| 17> H 	 -17.9788 	 -4.85012 	 80.2807
| 18> H 	 -17.7701 	 -4.07344 	 78.7213
| 19> C 	 -15.9094 	 -4.6558 	 79.6332
| 20> H 	 -15.2773 	 -4.15036 	 78.9315
| 21> H 	 -15.4021 	 -4.46872 	 80.5925
| 22> H 	 -15.8791 	 -5.68369 	 79.4184
| 23> S 	 -22.8495 	 -0.289152 	 82.8116
| 24> C 	 -23.4429 	 -0.369099 	 84.5038
| 25> C 	 -22.7345 	 -1.3039 	 85.2381
| 26> C 	 -21.8149 	 -2.05875 	 84.4798
| 27> C 	 -21.7858 	 -1.71748 	 83.106
| 28> H 	 -22.9881 	 -1.46447 	 86.2839
| 29> C 	 -20.9711 	 -3.17074 	 85.0303
| 30> H 	 -20.7182 	 -2.93343 	 86.0265
| 31> H 	 -20.117 	 -3.13364 	 84.392
| 32> C 	 -21.5921 	 -4.49188 	 85.184
| 33> H 	 -22.0232 	 -4.72923 	 84.1925
| 34> H 	 -22.5138 	 -4.42897 	 85.8281
| 35> C 	 -20.7428 	 -5.61718 	 85.743
| 36> H 	 -20.0027 	 -5.82314 	 84.9785
| 37> H 	 -21.3384 	 -6.46771 	 85.9024
| 38> H 	 -20.1238 	 -5.41531 	 86.5503
| 39> H 	 -19.6693 	 -2.65083 	 78.6129
| 40> H 	 -23.9727 	 0.411848 	 85.0214
| 41> *
| 42>
| 43>                          ****END OF INPUT****

CARTESIAN COORDINATES (ANGSTROEM)
---------------------------------
  S    -21.515300   -2.320380   80.365400
  C    -19.952900   -2.413850   79.676600
  C    -19.021900   -2.543630   80.693500
  C    -19.558000   -2.233000   81.988500
  C    -20.988500   -2.233120   81.998900
  H    -19.031600   -2.088310   82.931700
  C    -17.555100   -2.811490   80.540200
  H    -17.149500   -2.956900   81.524900
  H    -17.104000   -2.002140   80.059600
  C    -17.327100   -4.126410   79.717300
  H    -17.978800   -4.850120   80.280700
  H    -17.770100   -4.073440   78.721300
  C    -15.909400   -4.655800   79.633200
  H    -15.277300   -4.150360   78.931500
  H    -15.402100   -4.468720   80.592500
  H    -15.879100   -5.683690   79.418400
  S    -22.849500   -0.289152   82.811600
  C    -23.442900   -0.369099   84.503800
  C    -22.734500   -1.303900   85.238100
  C    -21.814900   -2.058750   84.479800
  C    -21.785800   -1.717480   83.106000
  H    -22.988100   -1.464470   86.283900
  C    -20.971100   -3.170740   85.030300
  H    -20.718200   -2.933430   86.026500
  H    -20.117000   -3.133640   84.392000
  C    -21.592100   -4.491880   85.184000
  H    -22.023200   -4.729230   84.192500
  H    -22.513800   -4.428970   85.828100
  C    -20.742800   -5.617180   85.743000
  H    -20.002700   -5.823140   84.978500
  H    -21.338400   -6.467710   85.902400
  H    -20.123800   -5.415310   86.550300
  H    -19.669300   -2.650830   78.612900
  H    -23.972700    0.411848   85.021400

 Total Charge           Charge          ....    0
 Multiplicity           Mult            ....    1
 Number of Electrons    NEL             ....  134
 Basis Dimension        Dim             ....  322

ORBITAL ENERGIES
----------------

  NO   OCC          E(Eh)            E(eV)
   0   2.0000     -88.970704     -2421.0159
   1   2.0000     -88.966675     -2420.9063
   2   2.0000     -10.334841      -281.2253
   3   2.0000     -10.332471      -281.1608
   4   2.0000     -10.318401      -280.7780
   5   2.0000     -10.317723      -280.7595
   6   2.0000     -10.303339      -280.3681
   7   2.0000     -10.301809      -280.3265
   8   2.0000     -10.300371      -280.2873
   9   2.0000     -10.294437      -280.1259
  10   2.0000     -10.291368      -280.0424
  11   2.0000     -10.287134      -279.9271
  12   2.0000     -10.282121      -279.7907
  13   2.0000     -10.277718      -279.6709
  14   2.0000     -10.274157      -279.5740
  15   2.0000     -10.266747      -279.3724
  16   2.0000      -8.086036      -220.0322
  17   2.0000      -8.079668      -219.8589
  18   2.0000      -6.044538      -164.4803
  19   2.0000      -6.040182      -164.3617
  20   2.0000      -6.038249      -164.3091
  21   2.0000      -6.037009      -164.2754
  22   2.0000      -6.034487      -164.2067
  23   2.0000      -6.030370      -164.0947
  24   2.0000      -1.008475       -27.4420
  25   2.0000      -0.980978       -26.6938
  26   2.0000      -0.917896       -24.9772
  27   2.0000      -0.914043       -24.8724
  28   2.0000      -0.870041       -23.6750
  29   2.0000      -0.855035       -23.2667
  30   2.0000      -0.849009       -23.1027
  31   2.0000      -0.814221       -22.1561
  32   2.0000      -0.787378       -21.4256
  33   2.0000      -0.775330       -21.0978
  34   2.0000      -0.710169       -19.3247
  35   2.0000      -0.702534       -19.1169
  36   2.0000      -0.693159       -18.8618
  37   2.0000      -0.662438       -18.0258
  38   2.0000      -0.640106       -17.4182
  39   2.0000      -0.612444       -16.6655
  40   2.0000      -0.593205       -16.1419
  41   2.0000      -0.575493       -15.6600
  42   2.0000      -0.572006       -15.5651
  43   2.0000      -0.564597       -15.3635
  44   2.0000      -0.535890       -14.5823
  45   2.0000      -0.526336       -14.3223
  46   2.0000      -0.520055       -14.1514
  47   2.0000      -0.516097       -14.0437
  48   2.0000      -0.511500       -13.9186
  49   2.0000      -0.503769       -13.7083
  50   2.0000      -0.496491       -13.5102
  51   2.0000      -0.483665       -13.1612
  52   2.0000      -0.478954       -13.0330
  53   2.0000      -0.463818       -12.6211
  54   2.0000      -0.458583       -12.4787
  55   2.0000      -0.452687       -12.3182
  56   2.0000      -0.445364       -12.1190
  57   2.0000      -0.437765       -11.9122
  58   2.0000      -0.428607       -11.6630
  59   2.0000      -0.423555       -11.5255
  60   2.0000      -0.420254       -11.4357
  61   2.0000      -0.416277       -11.3275
  62   2.0000      -0.401818       -10.9340
  63   2.0000      -0.350539        -9.5387
  64   2.0000      -0.332468        -9.0469
  65   2.0000      -0.327879        -8.9220
  66   2.0000      -0.287848        -7.8328
  67   0.0000       0.020709         0.5635
  68   0.0000       0.065251         1.7756
  69   0.0000       0.108152         2.9430
  70   0.0000       0.116047         3.1578
  71   0.0000       0.132522         3.6061

MULLIKEN ATOMIC CHARGES
-----------------------
   0 S :    0.125548
   1 C :   -0.125819
   2 C :   -0.129227
   3 C :    0.002635
   4 C :   -0.161170
   5 H :    0.040338
   6 C :    0.132648
   7 H :    0.012141
   8 H :    0.029116
   9 C :   -0.150617
  10 H :    0.037609
  11 H :    0.028338
  12 C :    0.008619
  13 H :    0.022581
  14 H :    0.017692
  15 H :    0.030261
  16 S :    0.096906
  17 C :   -0.085021
  18 C :   -0.045199
  19 C :   -0.065332
  20 C :   -0.148137
  21 H :    0.025269
  22 C :    0.159758
  23 H :   -0.005324
  24 H :   -0.012759
  25 C :   -0.103810
  26 H :    0.023662
  27 H :    0.020662
  28 C :    0.028878
  29 H :    0.015306
  30 H :    0.030821
  31 H :    0.008743
  32 H :    0.075246
  33 H :    0.059637
Sum of atomic charges:    0.0000000

LOEWDIN ATOMIC CHARGES
----------------------
   0 S :    0.450365
   1 C :   -0.223472
   2 C :   -0.065994
   3 C :   -0.060238
   4 C :   -0.219186
   5 H :    0.031425
   6 C :   -0.022011
   7 H :    0.027300
   8 H :    0.023818
   9 C :   -0.043432
  10 H :    0.030774
  11 H :    0.018765
  12 C :   -0.062870
  13 H :    0.022312
  14 H :    0.027472
  15 H :    0.023226
  16 S :    0.370096
  17 C :   -0.175389
  18 C :   -0.068829
  19 C :   -0.051630
  20 C :   -0.179926
  21 H :    0.035033
  22 C :   -0.032053
  23 H :    0.024704
  24 H :    0.023384
  25 C :   -0.042752
  26 H :    0.025663
  27 H :    0.024330
  28 C :   -0.054447
  29 H :    0.028060
  30 H :    0.025125
  31 H :    0.016086
  32 H :    0.044530
  33 H :    0.029761

  Mayer bond orders larger than 0.100000
B(  0-S ,  1-C ) :   1.1598 B(  0-S ,  4-C ) :   1.1820 B(  1-C ,  2-C ) :   1.5569
B(  1-C ,  4-C ) :   0.1002 B(  1-C , 32-H ) :   0.9605 B(  2-C ,  3-C ) :   1.2936
B(  2-C ,  6-C ) :   1.0315 B(  3-C ,  4-C ) :   1.5041 B(  3-C ,  5-H ) :   0.9750
B(  4-C , 20-C ) :   1.0594 B(  6-C ,  7-H ) :   0.9385 B(  6-C ,  8-H ) :   0.9346
B(  6-C ,  9-C ) :   1.0553 B(  9-C , 10-H ) :   0.9611 B(  9-C , 11-H ) :   0.9562
B(  9-C , 12-C ) :   1.0884 B( 12-C , 13-H ) :   0.9711 B( 12-C , 14-H ) :   0.9700
B( 12-C , 15-H ) :   0.9730 B( 16-S , 17-C ) :   1.1402 B( 16-S , 20-C ) :   1.1324
B( 17-C , 18-C ) :   1.6150 B( 17-C , 20-C ) :   0.1039 B( 17-C , 33-H ) :   0.9608
B( 18-C , 19-C ) :   1.2632 B( 18-C , 21-H ) :   0.9853 B( 19-C , 20-C ) :   1.5706
B( 19-C , 22-C ) :   1.0488 B( 22-C , 23-H ) :   0.9117 B( 22-C , 24-H ) :   0.9134
B( 22-C , 25-C ) :   1.0817 B( 25-C , 26-H ) :   0.9491 B( 25-C , 27-H ) :   0.9519
B( 25-C , 28-C ) :   1.0840 B( 28-C , 29-H ) :   0.9688 B( 28-C , 30-H ) :   0.9719
B( 28-C , 31-H ) :   0.9715

Dispersion correction           -0.013646624
FINAL SINGLE POINT ENERGY     -1339.860438978529

DIPOLE MOMENT
-------------
                                X             Y             Z
Electronic contribution:    -21.14335      20.17469      -6.21665
Nuclear contribution   :     21.79554     -20.45841       6.50479
                        -----------------------------------------
Total Dipole Moment    :      0.65219      -0.28372       0.28814
                        -----------------------------------------
Magnitude (a.u.)       :      0.76738
Magnitude (Debye)      :      1.95053

Rotational constants in cm-1:     0.018658     0.008229     0.006246
Rotational constants in MHz :   559.345397   246.687514   187.257757

                             ****ORCA TERMINATED NORMALLY****
TOTAL RUN TIME: 0 days 0 hours 0 minutes 33 seconds 213 msec
