                         Program Version 4.2.1 -  RELEASE  -
|  1> ! wB97X-D3 SP def2-SVP
|  2> %pal
|  3> nprocs 16
|  4> end
|  5>
|  6> * xyz 0 1
|  7> S 	 -0.839138 	 79.9811 	 49.5633
|  8> C 	 0.748253 	 80.5816 	 49.7309
|  9> C 	 1.36945 	 79.8637 	 50.7193
| 10> C 	 0.508964 	 78.9668 	 51.3961
| 11> C 	 -0.78406 	 78.9462 	 50.9577
| 12> H 	 0.865148 	 78.3454 	 52.2389
| 13> C 	 2.88983 	 80.0283 	 51.0532
| 14> H 	 2.81633 	 80.5934 	 51.9741
| 15> H 	 3.28903 	 80.7878 	 50.346
| 16> C 	 3.86928 	 78.8045 	 51.0758
| 17> H 	 4.93382 	 79.0713 	 51.206
| 18> H 	 3.59668 	 78.2546 	 51.979
| 19> C 	 3.80669 	 77.8834 	 49.8817
| 20> H 	 2.78369 	 77.6385 	 49.7928
| 21> H 	 4.07439 	 78.2926 	 48.9193
| 22> H 	 4.30091 	 76.9073 	 50.0248
| 23> S 	 -2.19745 	 77.8327 	 52.9336
| 24> C 	 -3.37019 	 76.5722 	 52.5577
| 25> C 	 -3.42489 	 76.3011 	 51.1602
| 26> C 	 -2.45473 	 77.0131 	 50.4264
| 27> C 	 -1.82143 	 77.9723 	 51.258
| 28> H 	 -4.03059 	 75.6001 	 50.7315
| 29> C 	 -2.25284 	 76.8008 	 48.9111
| 30> H 	 -2.00675 	 77.698 	 48.4145
| 31> H 	 -3.10325 	 76.3833 	 48.5246
| 32> C 	 -1.19597 	 75.7082 	 48.5529
| 33> H 	 -0.982529 	 75.707 	 47.4335
| 34> H 	 -1.45484 	 74.6637 	 48.7797
| 35> C 	 0.186502 	 76.064 	 49.1514
| 36> H 	 0.13205 	 76.3963 	 50.1528
| 37> H 	 0.597017 	 76.9332 	 48.6255
| 38> H 	 0.886129 	 75.1727 	 49.0781
| 39> H 	 1.17024 	 81.2925 	 49.0048
| 40> H 	 -4.11187 	 76.1149 	 53.217
| 41> *
| 42>
| 43>                          ****END OF INPUT****

CARTESIAN COORDINATES (ANGSTROEM)
---------------------------------
  S     -0.839138   79.981100   49.563300
  C      0.748253   80.581600   49.730900
  C      1.369450   79.863700   50.719300
  C      0.508964   78.966800   51.396100
  C     -0.784060   78.946200   50.957700
  H      0.865148   78.345400   52.238900
  C      2.889830   80.028300   51.053200
  H      2.816330   80.593400   51.974100
  H      3.289030   80.787800   50.346000
  C      3.869280   78.804500   51.075800
  H      4.933820   79.071300   51.206000
  H      3.596680   78.254600   51.979000
  C      3.806690   77.883400   49.881700
  H      2.783690   77.638500   49.792800
  H      4.074390   78.292600   48.919300
  H      4.300910   76.907300   50.024800
  S     -2.197450   77.832700   52.933600
  C     -3.370190   76.572200   52.557700
  C     -3.424890   76.301100   51.160200
  C     -2.454730   77.013100   50.426400
  C     -1.821430   77.972300   51.258000
  H     -4.030590   75.600100   50.731500
  C     -2.252840   76.800800   48.911100
  H     -2.006750   77.698000   48.414500
  H     -3.103250   76.383300   48.524600
  C     -1.195970   75.708200   48.552900
  H     -0.982529   75.707000   47.433500
  H     -1.454840   74.663700   48.779700
  C      0.186502   76.064000   49.151400
  H      0.132050   76.396300   50.152800
  H      0.597017   76.933200   48.625500
  H      0.886129   75.172700   49.078100
  H      1.170240   81.292500   49.004800
  H     -4.111870   76.114900   53.217000

 Total Charge           Charge          ....    0
 Multiplicity           Mult            ....    1
 Number of Electrons    NEL             ....  134
 Basis Dimension        Dim             ....  322

ORBITAL ENERGIES
----------------

  NO   OCC          E(Eh)            E(eV)
   0   2.0000     -88.975678     -2421.1513
   1   2.0000     -88.963481     -2420.8194
   2   2.0000     -10.329351      -281.0759
   3   2.0000     -10.327675      -281.0303
   4   2.0000     -10.322291      -280.8838
   5   2.0000     -10.314236      -280.6646
   6   2.0000     -10.307195      -280.4730
   7   2.0000     -10.302833      -280.3543
   8   2.0000     -10.297383      -280.2060
   9   2.0000     -10.294569      -280.1295
  10   2.0000     -10.292299      -280.0677
  11   2.0000     -10.291472      -280.0452
  12   2.0000     -10.290146      -280.0091
  13   2.0000     -10.286106      -279.8992
  14   2.0000     -10.269018      -279.4342
  15   2.0000     -10.268003      -279.4066
  16   2.0000      -8.089935      -220.1383
  17   2.0000      -8.079109      -219.8437
  18   2.0000      -6.048283      -164.5822
  19   2.0000      -6.044481      -164.4787
  20   2.0000      -6.040931      -164.3821
  21   2.0000      -6.037486      -164.2884
  22   2.0000      -6.033342      -164.1756
  23   2.0000      -6.030085      -164.0870
  24   2.0000      -1.015045       -27.6208
  25   2.0000      -0.988803       -26.9067
  26   2.0000      -0.905767       -24.6472
  27   2.0000      -0.904646       -24.6167
  28   2.0000      -0.874158       -23.7870
  29   2.0000      -0.850543       -23.1445
  30   2.0000      -0.843988       -22.9661
  31   2.0000      -0.813764       -22.1436
  32   2.0000      -0.784881       -21.3577
  33   2.0000      -0.772866       -21.0307
  34   2.0000      -0.706340       -19.2205
  35   2.0000      -0.696740       -18.9593
  36   2.0000      -0.685157       -18.6441
  37   2.0000      -0.672537       -18.3007
  38   2.0000      -0.641284       -17.4502
  39   2.0000      -0.621630       -16.9154
  40   2.0000      -0.593612       -16.1530
  41   2.0000      -0.562634       -15.3101
  42   2.0000      -0.556348       -15.1390
  43   2.0000      -0.550391       -14.9769
  44   2.0000      -0.546997       -14.8846
  45   2.0000      -0.538268       -14.6470
  46   2.0000      -0.513663       -13.9775
  47   2.0000      -0.511348       -13.9145
  48   2.0000      -0.508285       -13.8311
  49   2.0000      -0.498085       -13.5536
  50   2.0000      -0.485051       -13.1989
  51   2.0000      -0.478420       -13.0185
  52   2.0000      -0.475223       -12.9315
  53   2.0000      -0.465507       -12.6671
  54   2.0000      -0.457672       -12.4539
  55   2.0000      -0.454212       -12.3598
  56   2.0000      -0.445460       -12.1216
  57   2.0000      -0.439203       -11.9513
  58   2.0000      -0.428910       -11.6712
  59   2.0000      -0.419335       -11.4107
  60   2.0000      -0.412880       -11.2350
  61   2.0000      -0.411640       -11.2013
  62   2.0000      -0.409085       -11.1318
  63   2.0000      -0.349975        -9.5233
  64   2.0000      -0.338217        -9.2034
  65   2.0000      -0.327993        -8.9251
  66   2.0000      -0.290973        -7.9178
  67   0.0000       0.027890         0.7589
  68   0.0000       0.067251         1.8300
  69   0.0000       0.108420         2.9502
  70   0.0000       0.122203         3.3253
  71   0.0000       0.135000         3.6735

MULLIKEN ATOMIC CHARGES
-----------------------
   0 S :    0.097654
   1 C :   -0.135556
   2 C :   -0.115534
   3 C :    0.021518
   4 C :   -0.137151
   5 H :    0.023093
   6 C :    0.054641
   7 H :    0.042380
   8 H :    0.014885
   9 C :   -0.064522
  10 H :    0.037229
  11 H :    0.026525
  12 C :   -0.025315
  13 H :    0.010593
  14 H :    0.026753
  15 H :    0.035920
  16 S :    0.134611
  17 C :   -0.095256
  18 C :   -0.000564
  19 C :   -0.059235
  20 C :   -0.180390
  21 H :   -0.018129
  22 C :    0.170986
  23 H :    0.015730
  24 H :   -0.005525
  25 C :   -0.097929
  26 H :    0.038181
  27 H :    0.030832
  28 C :   -0.084057
  29 H :    0.033073
  30 H :    0.034660
  31 H :    0.040773
  32 H :    0.066312
  33 H :    0.062814
Sum of atomic charges:    0.0000000

LOEWDIN ATOMIC CHARGES
----------------------
   0 S :    0.436190
   1 C :   -0.212561
   2 C :   -0.072166
   3 C :   -0.074888
   4 C :   -0.206305
   5 H :    0.033816
   6 C :   -0.033598
   7 H :    0.034411
   8 H :    0.028404
   9 C :   -0.042280
  10 H :    0.028882
  11 H :    0.024045
  12 C :   -0.067002
  13 H :    0.020893
  14 H :    0.023133
  15 H :    0.032414
  16 S :    0.437604
  17 C :   -0.195170
  18 C :   -0.050821
  19 C :   -0.050832
  20 C :   -0.209234
  21 H :    0.015167
  22 C :   -0.015860
  23 H :    0.017341
  24 H :    0.020156
  25 C :   -0.039794
  26 H :    0.031744
  27 H :    0.020632
  28 C :   -0.073264
  29 H :    0.015086
  30 H :    0.023823
  31 H :    0.030643
  32 H :    0.037250
  33 H :    0.032140

  Mayer bond orders larger than 0.100000
B(  0-S ,  1-C ) :   1.1604 B(  0-S ,  4-C ) :   1.1688 B(  1-C ,  2-C ) :   1.5770
B(  1-C , 32-H ) :   0.9692 B(  2-C ,  3-C ) :   1.2872 B(  2-C ,  6-C ) :   0.9969
B(  3-C ,  4-C ) :   1.5409 B(  3-C ,  5-H ) :   0.9880 B(  4-C , 20-C ) :   1.0183
B(  6-C ,  7-H ) :   0.9460 B(  6-C ,  8-H ) :   0.9462 B(  6-C ,  9-C ) :   1.0568
B(  9-C , 10-H ) :   0.9584 B(  9-C , 11-H ) :   0.9532 B(  9-C , 12-C ) :   1.0817
B( 12-C , 13-H ) :   0.9702 B( 12-C , 14-H ) :   0.9735 B( 12-C , 15-H ) :   0.9692
B( 16-S , 17-C ) :   1.1588 B( 16-S , 20-C ) :   1.1778 B( 17-C , 18-C ) :   1.5732
B( 17-C , 20-C ) :   0.1131 B( 17-C , 33-H ) :   0.9659 B( 18-C , 19-C ) :   1.2891
B( 18-C , 21-H ) :   0.9934 B( 19-C , 20-C ) :   1.5314 B( 19-C , 22-C ) :   1.0405
B( 22-C , 23-H ) :   0.9357 B( 22-C , 24-H ) :   0.9220 B( 22-C , 25-C ) :   1.0623
B( 25-C , 26-H ) :   0.9580 B( 25-C , 27-H ) :   0.9600 B( 25-C , 28-C ) :   1.0679
B( 28-C , 29-H ) :   0.9768 B( 28-C , 30-H ) :   0.9708 B( 28-C , 31-H ) :   0.9740

Dispersion correction           -0.016981870
FINAL SINGLE POINT ENERGY     -1339.869527477275

DIPOLE MOMENT
-------------
                                X             Y             Z
Electronic contribution:    -19.88620      10.36478      10.39997
Nuclear contribution   :     20.15780     -10.65367     -10.58164
                        -----------------------------------------
Total Dipole Moment    :      0.27161      -0.28889      -0.18166
                        -----------------------------------------
Magnitude (a.u.)       :      0.43615
Magnitude (Debye)      :      1.10862

Rotational constants in cm-1:     0.020326     0.009449     0.008616
Rotational constants in MHz :   609.348328   283.263583   258.290893

                             ****ORCA TERMINATED NORMALLY****
TOTAL RUN TIME: 0 days 0 hours 0 minutes 35 seconds 297 msec
