                         Program Version 4.2.1 -  RELEASE  -
|  1> ! wB97X-D3 SP def2-SVP
|  2> %pal
|  3> nprocs 16
|  4> end
|  5>
|  6> * xyz 0 1
|  7> S 	 45.0069 	 19.2374 	 48.2463
|  8> C 	 44.2908 	 18.9899 	 46.6543
|  9> C 	 43.0542 	 19.5955 	 46.4689
| 10> C 	 42.6309 	 20.3321 	 47.6109
| 11> C 	 43.5907 	 20.2759 	 48.6257
| 12> H 	 41.8008 	 20.9986 	 47.6472
| 13> C 	 42.1221 	 19.4125 	 45.2752
| 14> H 	 42.7206 	 18.8032 	 44.5612
| 15> H 	 41.9627 	 20.356 	 44.6921
| 16> C 	 40.7323 	 18.7972 	 45.5277
| 17> H 	 40.0744 	 19.4136 	 46.1565
| 18> H 	 40.153 	 18.7692 	 44.6342
| 19> C 	 40.7883 	 17.3134 	 45.9947
| 20> H 	 41.0384 	 16.6656 	 45.1491
| 21> H 	 41.5078 	 17.0074 	 46.7687
| 22> H 	 39.8005 	 17.0078 	 46.4494
| 23> S 	 44.6816 	 22.2628 	 50.3034
| 24> C 	 43.9719 	 22.3573 	 51.9407
| 25> C 	 42.9275 	 21.5197 	 52.0776
| 26> C 	 42.5825 	 20.7616 	 50.9073
| 27> C 	 43.4831 	 20.9997 	 49.8986
| 28> H 	 42.3617 	 21.4583 	 53.0087
| 29> C 	 41.3774 	 19.8351 	 50.8616
| 30> H 	 40.8717 	 19.6681 	 49.8642
| 31> H 	 40.6196 	 20.3397 	 51.5245
| 32> C 	 41.6504 	 18.4283 	 51.4594
| 33> H 	 42.2677 	 18.4024 	 52.4143
| 34> H 	 42.3107 	 17.8991 	 50.7807
| 35> C 	 40.299 	 17.6473 	 51.7316
| 36> H 	 40.6055 	 16.7146 	 52.2314
| 37> H 	 39.7996 	 17.2812 	 50.8707
| 38> H 	 39.5878 	 18.2266 	 52.3955
| 39> H 	 44.7261 	 18.3024 	 45.928
| 40> H 	 44.4443 	 22.8247 	 52.7553
| 41> *
| 42>
| 43>                          ****END OF INPUT****

CARTESIAN COORDINATES (ANGSTROEM)
---------------------------------
  S     45.006900   19.237400   48.246300
  C     44.290800   18.989900   46.654300
  C     43.054200   19.595500   46.468900
  C     42.630900   20.332100   47.610900
  C     43.590700   20.275900   48.625700
  H     41.800800   20.998600   47.647200
  C     42.122100   19.412500   45.275200
  H     42.720600   18.803200   44.561200
  H     41.962700   20.356000   44.692100
  C     40.732300   18.797200   45.527700
  H     40.074400   19.413600   46.156500
  H     40.153000   18.769200   44.634200
  C     40.788300   17.313400   45.994700
  H     41.038400   16.665600   45.149100
  H     41.507800   17.007400   46.768700
  H     39.800500   17.007800   46.449400
  S     44.681600   22.262800   50.303400
  C     43.971900   22.357300   51.940700
  C     42.927500   21.519700   52.077600
  C     42.582500   20.761600   50.907300
  C     43.483100   20.999700   49.898600
  H     42.361700   21.458300   53.008700
  C     41.377400   19.835100   50.861600
  H     40.871700   19.668100   49.864200
  H     40.619600   20.339700   51.524500
  C     41.650400   18.428300   51.459400
  H     42.267700   18.402400   52.414300
  H     42.310700   17.899100   50.780700
  C     40.299000   17.647300   51.731600
  H     40.605500   16.714600   52.231400
  H     39.799600   17.281200   50.870700
  H     39.587800   18.226600   52.395500
  H     44.726100   18.302400   45.928000
  H     44.444300   22.824700   52.755300

 Total Charge           Charge          ....    0
 Multiplicity           Mult            ....    1
 Number of Electrons    NEL             ....  134
 Basis Dimension        Dim             ....  322

ORBITAL ENERGIES
----------------

  NO   OCC          E(Eh)            E(eV)
   0   2.0000     -88.972137     -2421.0549
   1   2.0000     -88.962455     -2420.7915
   2   2.0000     -10.332493      -281.1614
   3   2.0000     -10.324168      -280.9349
   4   2.0000     -10.317121      -280.7431
   5   2.0000     -10.312387      -280.6143
   6   2.0000     -10.302325      -280.3405
   7   2.0000     -10.301930      -280.3298
   8   2.0000     -10.300914      -280.3021
   9   2.0000     -10.300457      -280.2897
  10   2.0000     -10.294083      -280.1162
  11   2.0000     -10.292889      -280.0837
  12   2.0000     -10.292137      -280.0633
  13   2.0000     -10.291493      -280.0458
  14   2.0000     -10.282986      -279.8143
  15   2.0000     -10.282302      -279.7957
  16   2.0000      -8.085672      -220.0223
  17   2.0000      -8.076375      -219.7693
  18   2.0000      -6.044120      -164.4689
  19   2.0000      -6.040558      -164.3719
  20   2.0000      -6.036359      -164.2577
  21   2.0000      -6.035053      -164.2221
  22   2.0000      -6.031155      -164.1161
  23   2.0000      -6.026848      -163.9989
  24   2.0000      -0.999017       -27.1846
  25   2.0000      -0.977864       -26.6090
  26   2.0000      -0.905608       -24.6428
  27   2.0000      -0.898660       -24.4538
  28   2.0000      -0.864923       -23.5358
  29   2.0000      -0.848734       -23.0952
  30   2.0000      -0.842009       -22.9122
  31   2.0000      -0.811179       -22.0733
  32   2.0000      -0.779414       -21.2089
  33   2.0000      -0.768583       -20.9142
  34   2.0000      -0.709958       -19.3189
  35   2.0000      -0.698299       -19.0017
  36   2.0000      -0.691375       -18.8133
  37   2.0000      -0.659075       -17.9344
  38   2.0000      -0.639807       -17.4100
  39   2.0000      -0.617978       -16.8160
  40   2.0000      -0.597688       -16.2639
  41   2.0000      -0.558399       -15.1948
  42   2.0000      -0.553636       -15.0652
  43   2.0000      -0.543620       -14.7927
  44   2.0000      -0.540866       -14.7177
  45   2.0000      -0.519110       -14.1257
  46   2.0000      -0.515050       -14.0152
  47   2.0000      -0.507318       -13.8048
  48   2.0000      -0.498386       -13.5618
  49   2.0000      -0.491598       -13.3771
  50   2.0000      -0.487685       -13.2706
  51   2.0000      -0.474073       -12.9002
  52   2.0000      -0.467928       -12.7330
  53   2.0000      -0.458152       -12.4670
  54   2.0000      -0.456809       -12.4304
  55   2.0000      -0.450709       -12.2644
  56   2.0000      -0.446133       -12.1399
  57   2.0000      -0.436742       -11.8843
  58   2.0000      -0.435465       -11.8496
  59   2.0000      -0.426812       -11.6141
  60   2.0000      -0.420433       -11.4406
  61   2.0000      -0.415088       -11.2951
  62   2.0000      -0.413683       -11.2569
  63   2.0000      -0.341701        -9.2982
  64   2.0000      -0.329626        -8.9696
  65   2.0000      -0.328689        -8.9441
  66   2.0000      -0.297596        -8.0980
  67   0.0000       0.032932         0.8961
  68   0.0000       0.062630         1.7042
  69   0.0000       0.108139         2.9426
  70   0.0000       0.112544         3.0625
  71   0.0000       0.126420         3.4401

MULLIKEN ATOMIC CHARGES
-----------------------
   0 S :    0.120549
   1 C :   -0.127241
   2 C :   -0.069285
   3 C :    0.042650
   4 C :   -0.162742
   5 H :    0.016821
   6 C :    0.045829
   7 H :    0.012675
   8 H :    0.043583
   9 C :   -0.040891
  10 H :    0.027852
  11 H :    0.022747
  12 C :   -0.090832
  13 H :    0.032514
  14 H :    0.041995
  15 H :    0.036555
  16 S :    0.093013
  17 C :   -0.067939
  18 C :   -0.032635
  19 C :    0.004874
  20 C :   -0.198277
  21 H :    0.021202
  22 C :    0.047145
  23 H :    0.043203
  24 H :    0.027384
  25 C :   -0.103646
  26 H :    0.036880
  27 H :    0.032058
  28 C :   -0.053271
  29 H :    0.032408
  30 H :    0.028638
  31 H :    0.044331
  32 H :    0.048080
  33 H :    0.043772
Sum of atomic charges:    0.0000000

LOEWDIN ATOMIC CHARGES
----------------------
   0 S :    0.387207
   1 C :   -0.194581
   2 C :   -0.064533
   3 C :   -0.049828
   4 C :   -0.173750
   5 H :    0.031045
   6 C :   -0.037007
   7 H :    0.029852
   8 H :    0.037498
   9 C :   -0.042125
  10 H :    0.023708
  11 H :    0.025897
  12 C :   -0.075873
  13 H :    0.024989
  14 H :    0.026277
  15 H :    0.031064
  16 S :    0.363888
  17 C :   -0.164414
  18 C :   -0.067252
  19 C :   -0.055658
  20 C :   -0.190511
  21 H :    0.033746
  22 C :   -0.037739
  23 H :    0.038513
  24 H :    0.033144
  25 C :   -0.043309
  26 H :    0.029262
  27 H :    0.023228
  28 C :   -0.070328
  29 H :    0.029671
  30 H :    0.018216
  31 H :    0.030947
  32 H :    0.026404
  33 H :    0.022349

  Mayer bond orders larger than 0.100000
B(  0-S ,  1-C ) :   1.1274 B(  0-S ,  4-C ) :   1.1410 B(  1-C ,  2-C ) :   1.6337
B(  1-C , 32-H ) :   0.9589 B(  2-C ,  3-C ) :   1.2222 B(  2-C ,  6-C ) :   1.0282
B(  3-C ,  4-C ) :   1.5960 B(  3-C ,  5-H ) :   0.9933 B(  4-C , 20-C ) :   1.0379
B(  6-C ,  7-H ) :   0.9410 B(  6-C ,  8-H ) :   0.9361 B(  6-C ,  9-C ) :   1.0724
B(  9-C , 10-H ) :   0.9566 B(  9-C , 11-H ) :   0.9513 B(  9-C , 12-C ) :   1.0599
B( 12-C , 13-H ) :   0.9772 B( 12-C , 14-H ) :   0.9814 B( 12-C , 15-H ) :   0.9755
B( 16-S , 17-C ) :   1.1178 B( 16-S , 20-C ) :   1.1243 B( 17-C , 18-C ) :   1.6681
B( 17-C , 33-H ) :   0.9680 B( 18-C , 19-C ) :   1.2130 B( 18-C , 21-H ) :   0.9808
B( 19-C , 20-C ) :   1.6361 B( 19-C , 22-C ) :   1.0348 B( 22-C , 23-H ) :   0.9381
B( 22-C , 24-H ) :   0.9367 B( 22-C , 25-C ) :   1.0521 B( 25-C , 26-H ) :   0.9622
B( 25-C , 27-H ) :   0.9543 B( 25-C , 28-C ) :   1.0686 B( 28-C , 29-H ) :   0.9747
B( 28-C , 30-H ) :   0.9763 B( 28-C , 31-H ) :   0.9769

Dispersion correction           -0.014820828
FINAL SINGLE POINT ENERGY     -1339.883662319054

DIPOLE MOMENT
-------------
                                X             Y             Z
Electronic contribution:     24.40339      17.22011       4.00179
Nuclear contribution   :    -24.99753     -17.54939      -4.04893
                        -----------------------------------------
Total Dipole Moment    :     -0.59414      -0.32928      -0.04714
                        -----------------------------------------
Magnitude (a.u.)       :      0.68092
Magnitude (Debye)      :      1.73075

Rotational constants in cm-1:     0.017101     0.009720     0.007253
Rotational constants in MHz :   512.683727   291.386505   217.450226

                             ****ORCA TERMINATED NORMALLY****
TOTAL RUN TIME: 0 days 0 hours 0 minutes 35 seconds 68 msec
