                         Program Version 4.2.1 -  RELEASE  -
|  1> ! wB97X-D3 SP def2-SVP
|  2> %pal
|  3> nprocs 16
|  4> end
|  5>
|  6> * xyz 0 1
|  7> S 	 -51.0999 	 12.4414 	 79.3915
|  8> C 	 -49.6072 	 11.5493 	 79.7804
|  9> C 	 -48.8837 	 12.1868 	 80.8241
| 10> C 	 -49.6371 	 13.1709 	 81.4474
| 11> C 	 -50.8486 	 13.4407 	 80.8161
| 12> H 	 -49.3764 	 13.7704 	 82.3845
| 13> C 	 -47.6138 	 11.6005 	 81.4557
| 14> H 	 -47.8697 	 10.5464 	 81.629
| 15> H 	 -47.4254 	 12.033 	 82.4466
| 16> C 	 -46.377 	 11.7057 	 80.5838
| 17> H 	 -45.6271 	 11.0222 	 80.9284
| 18> H 	 -46.5882 	 11.3938 	 79.5587
| 19> C 	 -45.8472 	 13.1907 	 80.6113
| 20> H 	 -45.4781 	 13.53 	 81.5989
| 21> H 	 -45.1071 	 13.4118 	 79.8491
| 22> H 	 -46.6818 	 13.9246 	 80.4206
| 23> S 	 -52.2041 	 15.749 	 80.1827
| 24> C 	 -53.3603 	 16.4187 	 81.2835
| 25> C 	 -53.3242 	 15.7428 	 82.5146
| 26> C 	 -52.4603 	 14.5927 	 82.4594
| 27> C 	 -51.8243 	 14.4092 	 81.2436
| 28> H 	 -53.8791 	 16.1362 	 83.3902
| 29> C 	 -52.2389 	 13.613 	 83.5576
| 30> H 	 -51.4576 	 12.9142 	 83.3289
| 31> H 	 -53.2078 	 13.0277 	 83.5581
| 32> C 	 -51.8659 	 14.2441 	 84.9328
| 33> H 	 -52.4878 	 15.0716 	 85.2321
| 34> H 	 -50.8697 	 14.7115 	 84.8685
| 35> C 	 -51.7611 	 13.3129 	 86.1536
| 36> H 	 -51.4662 	 13.8443 	 87.0872
| 37> H 	 -51.0589 	 12.4243 	 86.1318
| 38> H 	 -52.684 	 12.7895 	 86.3608
| 39> H 	 -49.3067 	 10.6096 	 79.245
| 40> H 	 -53.7948 	 17.3525 	 81.193
| 41> *
| 42>
| 43>                          ****END OF INPUT****

CARTESIAN COORDINATES (ANGSTROEM)
---------------------------------
  S    -51.099900   12.441400   79.391500
  C    -49.607200   11.549300   79.780400
  C    -48.883700   12.186800   80.824100
  C    -49.637100   13.170900   81.447400
  C    -50.848600   13.440700   80.816100
  H    -49.376400   13.770400   82.384500
  C    -47.613800   11.600500   81.455700
  H    -47.869700   10.546400   81.629000
  H    -47.425400   12.033000   82.446600
  C    -46.377000   11.705700   80.583800
  H    -45.627100   11.022200   80.928400
  H    -46.588200   11.393800   79.558700
  C    -45.847200   13.190700   80.611300
  H    -45.478100   13.530000   81.598900
  H    -45.107100   13.411800   79.849100
  H    -46.681800   13.924600   80.420600
  S    -52.204100   15.749000   80.182700
  C    -53.360300   16.418700   81.283500
  C    -53.324200   15.742800   82.514600
  C    -52.460300   14.592700   82.459400
  C    -51.824300   14.409200   81.243600
  H    -53.879100   16.136200   83.390200
  C    -52.238900   13.613000   83.557600
  H    -51.457600   12.914200   83.328900
  H    -53.207800   13.027700   83.558100
  C    -51.865900   14.244100   84.932800
  H    -52.487800   15.071600   85.232100
  H    -50.869700   14.711500   84.868500
  C    -51.761100   13.312900   86.153600
  H    -51.466200   13.844300   87.087200
  H    -51.058900   12.424300   86.131800
  H    -52.684000   12.789500   86.360800
  H    -49.306700   10.609600   79.245000
  H    -53.794800   17.352500   81.193000

 Total Charge           Charge          ....    0
 Multiplicity           Mult            ....    1
 Number of Electrons    NEL             ....  134
 Basis Dimension        Dim             ....  322

ORBITAL ENERGIES
----------------

  NO   OCC          E(Eh)            E(eV)
   0   2.0000     -88.973202     -2421.0839
   1   2.0000     -88.963283     -2420.8140
   2   2.0000     -10.328844      -281.0621
   3   2.0000     -10.325002      -280.9576
   4   2.0000     -10.321088      -280.8511
   5   2.0000     -10.313228      -280.6372
   6   2.0000     -10.305721      -280.4329
   7   2.0000     -10.301751      -280.3249
   8   2.0000     -10.300041      -280.2784
   9   2.0000     -10.299666      -280.2682
  10   2.0000     -10.294655      -280.1318
  11   2.0000     -10.291181      -280.0373
  12   2.0000     -10.291041      -280.0335
  13   2.0000     -10.288271      -279.9581
  14   2.0000     -10.282973      -279.8139
  15   2.0000     -10.282095      -279.7900
  16   2.0000      -8.086890      -220.0555
  17   2.0000      -8.078343      -219.8229
  18   2.0000      -6.045233      -164.4992
  19   2.0000      -6.041554      -164.3990
  20   2.0000      -6.037887      -164.2992
  21   2.0000      -6.036795      -164.2695
  22   2.0000      -6.032734      -164.1590
  23   2.0000      -6.029219      -164.0634
  24   2.0000      -1.006707       -27.3939
  25   2.0000      -0.982378       -26.7319
  26   2.0000      -0.910912       -24.7872
  27   2.0000      -0.905494       -24.6397
  28   2.0000      -0.866450       -23.5773
  29   2.0000      -0.851149       -23.1609
  30   2.0000      -0.845209       -22.9993
  31   2.0000      -0.808747       -22.0071
  32   2.0000      -0.780326       -21.2338
  33   2.0000      -0.767926       -20.8963
  34   2.0000      -0.707175       -19.2432
  35   2.0000      -0.704979       -19.1835
  36   2.0000      -0.699781       -19.0420
  37   2.0000      -0.656853       -17.8739
  38   2.0000      -0.638069       -17.3627
  39   2.0000      -0.613179       -16.6854
  40   2.0000      -0.595493       -16.2042
  41   2.0000      -0.572568       -15.5804
  42   2.0000      -0.556961       -15.1557
  43   2.0000      -0.551403       -15.0044
  44   2.0000      -0.537141       -14.6164
  45   2.0000      -0.528421       -14.3791
  46   2.0000      -0.511905       -13.9296
  47   2.0000      -0.509224       -13.8567
  48   2.0000      -0.503934       -13.7127
  49   2.0000      -0.491447       -13.3729
  50   2.0000      -0.483658       -13.1610
  51   2.0000      -0.475831       -12.9480
  52   2.0000      -0.470215       -12.7952
  53   2.0000      -0.468235       -12.7413
  54   2.0000      -0.453885       -12.3508
  55   2.0000      -0.451719       -12.2919
  56   2.0000      -0.443563       -12.0700
  57   2.0000      -0.440450       -11.9853
  58   2.0000      -0.434378       -11.8200
  59   2.0000      -0.428522       -11.6607
  60   2.0000      -0.420724       -11.4485
  61   2.0000      -0.419572       -11.4171
  62   2.0000      -0.409027       -11.1302
  63   2.0000      -0.342155        -9.3105
  64   2.0000      -0.336458        -9.1555
  65   2.0000      -0.326855        -8.8942
  66   2.0000      -0.289690        -7.8829
  67   0.0000       0.028703         0.7810
  68   0.0000       0.057789         1.5725
  69   0.0000       0.109684         2.9846
  70   0.0000       0.117775         3.2048
  71   0.0000       0.125752         3.4219

MULLIKEN ATOMIC CHARGES
-----------------------
   0 S :    0.132159
   1 C :   -0.151419
   2 C :   -0.068040
   3 C :    0.012336
   4 C :   -0.189576
   5 H :    0.046785
   6 C :    0.036089
   7 H :    0.038788
   8 H :    0.023205
   9 C :   -0.033226
  10 H :    0.026653
  11 H :    0.027154
  12 C :   -0.084648
  13 H :    0.029374
  14 H :    0.038533
  15 H :    0.038055
  16 S :    0.107135
  17 C :   -0.062487
  18 C :   -0.063384
  19 C :   -0.031369
  20 C :   -0.157579
  21 H :    0.037448
  22 C :    0.074986
  23 H :    0.022847
  24 H :    0.048110
  25 C :   -0.074787
  26 H :    0.025871
  27 H :    0.027086
  28 C :   -0.075500
  29 H :    0.038652
  30 H :    0.028550
  31 H :    0.022709
  32 H :    0.072559
  33 H :    0.036930
Sum of atomic charges:    0.0000000

LOEWDIN ATOMIC CHARGES
----------------------
   0 S :    0.407782
   1 C :   -0.197274
   2 C :   -0.064892
   3 C :   -0.069017
   4 C :   -0.198667
   5 H :    0.047695
   6 C :   -0.029903
   7 H :    0.035241
   8 H :    0.029157
   9 C :   -0.036939
  10 H :    0.021157
  11 H :    0.024365
  12 C :   -0.073608
  13 H :    0.024588
  14 H :    0.023543
  15 H :    0.031879
  16 S :    0.414055
  17 C :   -0.181555
  18 C :   -0.073883
  19 C :   -0.058579
  20 C :   -0.208394
  21 H :    0.038100
  22 C :   -0.032708
  23 H :    0.027014
  24 H :    0.042927
  25 C :   -0.042610
  26 H :    0.021192
  27 H :    0.027390
  28 C :   -0.078946
  29 H :    0.031185
  30 H :    0.027511
  31 H :    0.019779
  32 H :    0.036824
  33 H :    0.015590

  Mayer bond orders larger than 0.100000
B(  0-S ,  1-C ) :   1.1530 B(  0-S ,  4-C ) :   1.1634 B(  1-C ,  2-C ) :   1.5637
B(  1-C ,  4-C ) :   0.1212 B(  1-C , 32-H ) :   0.9626 B(  2-C ,  3-C ) :   1.2763
B(  2-C ,  6-C ) :   1.0082 B(  3-C ,  4-C ) :   1.5460 B(  3-C ,  5-H ) :   0.9786
B(  4-C , 20-C ) :   1.0427 B(  6-C ,  7-H ) :   0.9437 B(  6-C ,  8-H ) :   0.9511
B(  6-C ,  9-C ) :   1.0701 B(  9-C , 10-H ) :   0.9556 B(  9-C , 11-H ) :   0.9588
B(  9-C , 12-C ) :   1.0603 B( 12-C , 13-H ) :   0.9760 B( 12-C , 14-H ) :   0.9775
B( 12-C , 15-H ) :   0.9775 B( 16-S , 17-C ) :   1.1716 B( 16-S , 20-C ) :   1.1415
B( 17-C , 18-C ) :   1.5897 B( 17-C , 20-C ) :   0.1009 B( 17-C , 33-H ) :   0.9729
B( 18-C , 19-C ) :   1.2413 B( 18-C , 21-H ) :   0.9862 B( 19-C , 20-C ) :   1.5896
B( 19-C , 22-C ) :   1.0519 B( 22-C , 23-H ) :   0.9338 B( 22-C , 24-H ) :   0.9297
B( 22-C , 25-C ) :   1.0484 B( 25-C , 26-H ) :   0.9577 B( 25-C , 27-H ) :   0.9540
B( 25-C , 28-C ) :   1.0819 B( 28-C , 29-H ) :   0.9745 B( 28-C , 30-H ) :   0.9749
B( 28-C , 31-H ) :   0.9747

Dispersion correction           -0.014268259
FINAL SINGLE POINT ENERGY     -1339.880695001214

DIPOLE MOMENT
-------------
                                X             Y             Z
Electronic contribution:    -16.36268       6.47349     -20.84626
Nuclear contribution   :     16.67841      -6.64807      21.43483
                        -----------------------------------------
Total Dipole Moment    :      0.31572      -0.17458       0.58858
                        -----------------------------------------
Magnitude (a.u.)       :      0.69035
Magnitude (Debye)      :      1.75473

Rotational constants in cm-1:     0.017145     0.008731     0.006848
Rotational constants in MHz :   514.005541   261.752178   205.306403

                             ****ORCA TERMINATED NORMALLY****
TOTAL RUN TIME: 0 days 0 hours 0 minutes 28 seconds 255 msec
