                         Program Version 4.2.1 -  RELEASE  -
|  1> ! wB97X-D3 SP def2-SVP
|  2> %pal
|  3> nprocs 16
|  4> end
|  5>
|  6> * xyz 0 1
|  7> S 	 10.6478 	 -5.3685 	 91.9278
|  8> C 	 9.53664 	 -6.2197 	 92.9709
|  9> C 	 9.07537 	 -7.38393 	 92.3268
| 10> C 	 9.69848 	 -7.62326 	 91.0533
| 11> C 	 10.575 	 -6.60208 	 90.7139
| 12> H 	 9.6009 	 -8.50724 	 90.4151
| 13> C 	 8.15167 	 -8.35191 	 92.9527
| 14> H 	 7.36363 	 -8.76071 	 92.2149
| 15> H 	 7.47597 	 -7.75911 	 93.6117
| 16> C 	 8.77693 	 -9.4442 	 93.8005
| 17> H 	 9.22584 	 -10.1289 	 93.0583
| 18> H 	 9.53658 	 -9.04143 	 94.4642
| 19> C 	 7.76601 	 -10.1676 	 94.614
| 20> H 	 7.53464 	 -9.72913 	 95.599
| 21> H 	 6.86652 	 -10.4594 	 94.1429
| 22> H 	 8.20297 	 -11.133 	 94.8719
| 23> S 	 13.2153 	 -6.64293 	 89.5904
| 24> C 	 13.3582 	 -6.44448 	 87.8557
| 25> C 	 12.0783 	 -6.31925 	 87.3063
| 26> C 	 10.9489 	 -6.33691 	 88.1732
| 27> C 	 11.4222 	 -6.53268 	 89.4929
| 28> H 	 11.8959 	 -6.25773 	 86.2715
| 29> C 	 9.50796 	 -6.14402 	 87.6833
| 30> H 	 8.68698 	 -6.54367 	 88.3263
| 31> H 	 9.51591 	 -6.70125 	 86.7085
| 32> C 	 9.11084 	 -4.71468 	 87.4066
| 33> H 	 9.88668 	 -4.21281 	 86.783
| 34> H 	 9.19739 	 -4.18501 	 88.3603
| 35> C 	 7.76178 	 -4.63449 	 86.7552
| 36> H 	 7.50229 	 -3.60895 	 86.5398
| 37> H 	 6.95854 	 -5.02079 	 87.3293
| 38> H 	 7.72341 	 -5.13515 	 85.8544
| 39> H 	 9.07293 	 -5.88237 	 93.8781
| 40> H 	 14.2469 	 -6.7134 	 87.2381
| 41> *
| 42>
| 43>                          ****END OF INPUT****

CARTESIAN COORDINATES (ANGSTROEM)
---------------------------------
  S     10.647800   -5.368500   91.927800
  C      9.536640   -6.219700   92.970900
  C      9.075370   -7.383930   92.326800
  C      9.698480   -7.623260   91.053300
  C     10.575000   -6.602080   90.713900
  H      9.600900   -8.507240   90.415100
  C      8.151670   -8.351910   92.952700
  H      7.363630   -8.760710   92.214900
  H      7.475970   -7.759110   93.611700
  C      8.776930   -9.444200   93.800500
  H      9.225840  -10.128900   93.058300
  H      9.536580   -9.041430   94.464200
  C      7.766010  -10.167600   94.614000
  H      7.534640   -9.729130   95.599000
  H      6.866520  -10.459400   94.142900
  H      8.202970  -11.133000   94.871900
  S     13.215300   -6.642930   89.590400
  C     13.358200   -6.444480   87.855700
  C     12.078300   -6.319250   87.306300
  C     10.948900   -6.336910   88.173200
  C     11.422200   -6.532680   89.492900
  H     11.895900   -6.257730   86.271500
  C      9.507960   -6.144020   87.683300
  H      8.686980   -6.543670   88.326300
  H      9.515910   -6.701250   86.708500
  C      9.110840   -4.714680   87.406600
  H      9.886680   -4.212810   86.783000
  H      9.197390   -4.185010   88.360300
  C      7.761780   -4.634490   86.755200
  H      7.502290   -3.608950   86.539800
  H      6.958540   -5.020790   87.329300
  H      7.723410   -5.135150   85.854400
  H      9.072930   -5.882370   93.878100
  H     14.246900   -6.713400   87.238100

 Total Charge           Charge          ....    0
 Multiplicity           Mult            ....    1
 Number of Electrons    NEL             ....  134
 Basis Dimension        Dim             ....  322

ORBITAL ENERGIES
----------------

  NO   OCC          E(Eh)            E(eV)
   0   2.0000     -88.969673     -2420.9879
   1   2.0000     -88.967563     -2420.9305
   2   2.0000     -10.333527      -281.1896
   3   2.0000     -10.328671      -281.0574
   4   2.0000     -10.322891      -280.9002
   5   2.0000     -10.312840      -280.6267
   6   2.0000     -10.307912      -280.4925
   7   2.0000     -10.300098      -280.2799
   8   2.0000     -10.298599      -280.2391
   9   2.0000     -10.294902      -280.1385
  10   2.0000     -10.292165      -280.0640
  11   2.0000     -10.291802      -280.0542
  12   2.0000     -10.283702      -279.8337
  13   2.0000     -10.283099      -279.8174
  14   2.0000     -10.271613      -279.5048
  15   2.0000     -10.266010      -279.3523
  16   2.0000      -8.083220      -219.9556
  17   2.0000      -8.082251      -219.9292
  18   2.0000      -6.041795      -164.4056
  19   2.0000      -6.040742      -164.3769
  20   2.0000      -6.037866      -164.2987
  21   2.0000      -6.036550      -164.2629
  22   2.0000      -6.034006      -164.1936
  23   2.0000      -6.033264      -164.1735
  24   2.0000      -1.000546       -27.2262
  25   2.0000      -0.979143       -26.6438
  26   2.0000      -0.916851       -24.9488
  27   2.0000      -0.914386       -24.8817
  28   2.0000      -0.864880       -23.5346
  29   2.0000      -0.854739       -23.2586
  30   2.0000      -0.848184       -23.0802
  31   2.0000      -0.810280       -22.0488
  32   2.0000      -0.785212       -21.3667
  33   2.0000      -0.769016       -20.9260
  34   2.0000      -0.704493       -19.1702
  35   2.0000      -0.697937       -18.9918
  36   2.0000      -0.691315       -18.8116
  37   2.0000      -0.657660       -17.8958
  38   2.0000      -0.640554       -17.4304
  39   2.0000      -0.615822       -16.7574
  40   2.0000      -0.598934       -16.2978
  41   2.0000      -0.573780       -15.6133
  42   2.0000      -0.565829       -15.3970
  43   2.0000      -0.556496       -15.1430
  44   2.0000      -0.524429       -14.2704
  45   2.0000      -0.522610       -14.2209
  46   2.0000      -0.520581       -14.1657
  47   2.0000      -0.509670       -13.8688
  48   2.0000      -0.507080       -13.7983
  49   2.0000      -0.503879       -13.7113
  50   2.0000      -0.491761       -13.3815
  51   2.0000      -0.473775       -12.8921
  52   2.0000      -0.470054       -12.7908
  53   2.0000      -0.463807       -12.6208
  54   2.0000      -0.456653       -12.4262
  55   2.0000      -0.450573       -12.2607
  56   2.0000      -0.446408       -12.1474
  57   2.0000      -0.434603       -11.8262
  58   2.0000      -0.431935       -11.7535
  59   2.0000      -0.428298       -11.6546
  60   2.0000      -0.424507       -11.5514
  61   2.0000      -0.414009       -11.2658
  62   2.0000      -0.406870       -11.0715
  63   2.0000      -0.337656        -9.1881
  64   2.0000      -0.332951        -9.0601
  65   2.0000      -0.325454        -8.8560
  66   2.0000      -0.297084        -8.0841
  67   0.0000       0.036120         0.9829
  68   0.0000       0.056626         1.5409
  69   0.0000       0.116047         3.1578
  70   0.0000       0.117909         3.2085
  71   0.0000       0.132727         3.6117

MULLIKEN ATOMIC CHARGES
-----------------------
   0 S :    0.124745
   1 C :   -0.104441
   2 C :   -0.094887
   3 C :    0.046533
   4 C :   -0.175186
   5 H :    0.023524
   6 C :   -0.006242
   7 H :    0.037129
   8 H :    0.010742
   9 C :   -0.032764
  10 H :    0.027939
  11 H :    0.032278
  12 C :   -0.024540
  13 H :    0.034351
  14 H :    0.016172
  15 H :    0.018543
  16 S :    0.117259
  17 C :   -0.104003
  18 C :   -0.022618
  19 C :   -0.001384
  20 C :   -0.196213
  21 H :   -0.004669
  22 C :    0.040923
  23 H :    0.036751
  24 H :    0.026119
  25 C :   -0.083698
  26 H :    0.025098
  27 H :    0.030890
  28 C :    0.026207
  29 H :    0.026573
  30 H :    0.017542
  31 H :    0.005375
  32 H :    0.042301
  33 H :    0.083649
Sum of atomic charges:   -0.0000000

LOEWDIN ATOMIC CHARGES
----------------------
   0 S :    0.422824
   1 C :   -0.206365
   2 C :   -0.063237
   3 C :   -0.064225
   4 C :   -0.201185
   5 H :    0.037263
   6 C :   -0.050266
   7 H :    0.037291
   8 H :    0.026735
   9 C :   -0.038771
  10 H :    0.027623
  11 H :    0.029492
  12 C :   -0.066836
  13 H :    0.028757
  14 H :    0.018422
  15 H :    0.029451
  16 S :    0.393701
  17 C :   -0.202542
  18 C :   -0.065965
  19 C :   -0.050166
  20 C :   -0.191169
  21 H :    0.018835
  22 C :   -0.034030
  23 H :    0.036457
  24 H :    0.033603
  25 C :   -0.043453
  26 H :    0.025563
  27 H :    0.027190
  28 C :   -0.055375
  29 H :    0.029481
  30 H :    0.022556
  31 H :    0.016351
  32 H :    0.027114
  33 H :    0.044876

  Mayer bond orders larger than 0.100000
B(  0-S ,  1-C ) :   1.1370 B(  0-S ,  4-C ) :   1.1750 B(  1-C ,  2-C ) :   1.5917
B(  1-C , 32-H ) :   0.9693 B(  2-C ,  3-C ) :   1.2418 B(  2-C ,  6-C ) :   1.0441
B(  3-C ,  4-C ) :   1.5702 B(  3-C ,  5-H ) :   0.9927 B(  4-C , 20-C ) :   1.0097
B(  6-C ,  7-H ) :   0.9372 B(  6-C ,  8-H ) :   0.9370 B(  6-C ,  9-C ) :   1.0634
B(  9-C , 10-H ) :   0.9530 B(  9-C , 11-H ) :   0.9509 B(  9-C , 12-C ) :   1.0948
B( 12-C , 13-H ) :   0.9723 B( 12-C , 14-H ) :   0.9710 B( 12-C , 15-H ) :   0.9677
B( 16-S , 17-C ) :   1.1451 B( 16-S , 20-C ) :   1.1561 B( 17-C , 18-C ) :   1.5922
B( 17-C , 20-C ) :   0.1050 B( 17-C , 33-H ) :   0.9596 B( 18-C , 19-C ) :   1.2749
B( 18-C , 21-H ) :   0.9818 B( 19-C , 20-C ) :   1.5666 B( 19-C , 22-C ) :   1.0299
B( 22-C , 23-H ) :   0.9369 B( 22-C , 24-H ) :   0.9309 B( 22-C , 25-C ) :   1.0730
B( 25-C , 26-H ) :   0.9524 B( 25-C , 27-H ) :   0.9492 B( 25-C , 28-C ) :   1.0880
B( 28-C , 29-H ) :   0.9689 B( 28-C , 30-H ) :   0.9694 B( 28-C , 31-H ) :   0.9687

Dispersion correction           -0.013738773
FINAL SINGLE POINT ENERGY     -1339.881521899322

DIPOLE MOMENT
-------------
                                X             Y             Z
Electronic contribution:     23.06531       8.16939       0.64860
Nuclear contribution   :    -23.61248      -8.50482      -0.88862
                        -----------------------------------------
Total Dipole Moment    :     -0.54716      -0.33543      -0.24001
                        -----------------------------------------
Magnitude (a.u.)       :      0.68520
Magnitude (Debye)      :      1.74165

Rotational constants in cm-1:     0.018722     0.007588     0.006419
Rotational constants in MHz :   561.262430   227.468242   192.447943

                             ****ORCA TERMINATED NORMALLY****
TOTAL RUN TIME: 0 days 0 hours 0 minutes 30 seconds 120 msec
