                         Program Version 4.2.1 -  RELEASE  -
|  1> ! wB97X-D3 SP def2-SVP
|  2> %pal
|  3> nprocs 16
|  4> end
|  5>
|  6> * xyz 0 1
|  7> S 	 -59.0444 	 16.7081 	 87.8613
|  8> C 	 -57.5616 	 15.7552 	 88.3487
|  9> C 	 -56.4565 	 16.5444 	 88.6547
| 10> C 	 -56.8591 	 17.8919 	 88.6228
| 11> C 	 -58.1765 	 18.1541 	 88.4582
| 12> H 	 -56.2107 	 18.7328 	 88.6083
| 13> C 	 -54.9291 	 16.1806 	 88.7994
| 14> H 	 -54.2814 	 16.9696 	 88.4964
| 15> H 	 -54.6651 	 15.4051 	 88.0698
| 16> C 	 -54.4883 	 15.9509 	 90.285
| 17> H 	 -53.4385 	 15.8384 	 90.3649
| 18> H 	 -54.7747 	 16.8118 	 90.8759
| 19> C 	 -55.1521 	 14.6643 	 90.9514
| 20> H 	 -55.1231 	 13.749 	 90.3543
| 21> H 	 -54.761 	 14.3679 	 91.9086
| 22> H 	 -56.2025 	 14.9249 	 91.0763
| 23> S 	 -59.1162 	 19.9203 	 86.5407
| 24> C 	 -59.2491 	 21.5803 	 86.8964
| 25> C 	 -59.0092 	 21.8533 	 88.2182
| 26> C 	 -58.6255 	 20.6729 	 88.9513
| 27> C 	 -58.6253 	 19.5067 	 88.1508
| 28> H 	 -59.143 	 22.8836 	 88.5857
| 29> C 	 -58.2811 	 20.5356 	 90.3434
| 30> H 	 -58.6193 	 21.4957 	 90.7686
| 31> H 	 -57.1807 	 20.4315 	 90.4157
| 32> C 	 -59.2038 	 19.586 	 91.1174
| 33> H 	 -58.9896 	 18.5174 	 90.7075
| 34> H 	 -60.2543 	 19.81 	 90.9153
| 35> C 	 -58.94 	 19.6068 	 92.6399
| 36> H 	 -59.3613 	 20.5084 	 93.0653
| 37> H 	 -57.8642 	 19.6086 	 92.8954
| 38> H 	 -59.3684 	 18.6548 	 93.0737
| 39> H 	 -57.5445 	 14.6777 	 88.5037
| 40> H 	 -59.5095 	 22.3323 	 86.1426
| 41> *
| 42>
| 43>                          ****END OF INPUT****

CARTESIAN COORDINATES (ANGSTROEM)
---------------------------------
  S    -59.044400   16.708100   87.861300
  C    -57.561600   15.755200   88.348700
  C    -56.456500   16.544400   88.654700
  C    -56.859100   17.891900   88.622800
  C    -58.176500   18.154100   88.458200
  H    -56.210700   18.732800   88.608300
  C    -54.929100   16.180600   88.799400
  H    -54.281400   16.969600   88.496400
  H    -54.665100   15.405100   88.069800
  C    -54.488300   15.950900   90.285000
  H    -53.438500   15.838400   90.364900
  H    -54.774700   16.811800   90.875900
  C    -55.152100   14.664300   90.951400
  H    -55.123100   13.749000   90.354300
  H    -54.761000   14.367900   91.908600
  H    -56.202500   14.924900   91.076300
  S    -59.116200   19.920300   86.540700
  C    -59.249100   21.580300   86.896400
  C    -59.009200   21.853300   88.218200
  C    -58.625500   20.672900   88.951300
  C    -58.625300   19.506700   88.150800
  H    -59.143000   22.883600   88.585700
  C    -58.281100   20.535600   90.343400
  H    -58.619300   21.495700   90.768600
  H    -57.180700   20.431500   90.415700
  C    -59.203800   19.586000   91.117400
  H    -58.989600   18.517400   90.707500
  H    -60.254300   19.810000   90.915300
  C    -58.940000   19.606800   92.639900
  H    -59.361300   20.508400   93.065300
  H    -57.864200   19.608600   92.895400
  H    -59.368400   18.654800   93.073700
  H    -57.544500   14.677700   88.503700
  H    -59.509500   22.332300   86.142600

 Total Charge           Charge          ....    0
 Multiplicity           Mult            ....    1
 Number of Electrons    NEL             ....  134
 Basis Dimension        Dim             ....  322

ORBITAL ENERGIES
----------------

  NO   OCC          E(Eh)            E(eV)
   0   2.0000     -88.972076     -2421.0533
   1   2.0000     -88.961599     -2420.7682
   2   2.0000     -10.328385      -281.0497
   3   2.0000     -10.325628      -280.9746
   4   2.0000     -10.319045      -280.7955
   5   2.0000     -10.311547      -280.5915
   6   2.0000     -10.309061      -280.5238
   7   2.0000     -10.303628      -280.3760
   8   2.0000     -10.297056      -280.1971
   9   2.0000     -10.294420      -280.1254
  10   2.0000     -10.292882      -280.0836
  11   2.0000     -10.288110      -279.9537
  12   2.0000     -10.286724      -279.9160
  13   2.0000     -10.283891      -279.8389
  14   2.0000     -10.278407      -279.6897
  15   2.0000     -10.277215      -279.6572
  16   2.0000      -8.084895      -220.0012
  17   2.0000      -8.077463      -219.7989
  18   2.0000      -6.043582      -164.4542
  19   2.0000      -6.040062      -164.3584
  20   2.0000      -6.035769      -164.2416
  21   2.0000      -6.035184      -164.2257
  22   2.0000      -6.031680      -164.1304
  23   2.0000      -6.028516      -164.0442
  24   2.0000      -1.008244       -27.4357
  25   2.0000      -0.982569       -26.7371
  26   2.0000      -0.913084       -24.8463
  27   2.0000      -0.903354       -24.5815
  28   2.0000      -0.865960       -23.5640
  29   2.0000      -0.848169       -23.0799
  30   2.0000      -0.843013       -22.9396
  31   2.0000      -0.811489       -22.0817
  32   2.0000      -0.787011       -21.4157
  33   2.0000      -0.766677       -20.8624
  34   2.0000      -0.706586       -19.2272
  35   2.0000      -0.703378       -19.1399
  36   2.0000      -0.684169       -18.6172
  37   2.0000      -0.657715       -17.8973
  38   2.0000      -0.640882       -17.4393
  39   2.0000      -0.620129       -16.8746
  40   2.0000      -0.589910       -16.0523
  41   2.0000      -0.571798       -15.5594
  42   2.0000      -0.565495       -15.3879
  43   2.0000      -0.543062       -14.7775
  44   2.0000      -0.537514       -14.6265
  45   2.0000      -0.524973       -14.2852
  46   2.0000      -0.515115       -14.0170
  47   2.0000      -0.510033       -13.8787
  48   2.0000      -0.502323       -13.6689
  49   2.0000      -0.494222       -13.4485
  50   2.0000      -0.482220       -13.1219
  51   2.0000      -0.481066       -13.0905
  52   2.0000      -0.473857       -12.8943
  53   2.0000      -0.462720       -12.5912
  54   2.0000      -0.458148       -12.4668
  55   2.0000      -0.448135       -12.1944
  56   2.0000      -0.442193       -12.0327
  57   2.0000      -0.438518       -11.9327
  58   2.0000      -0.432418       -11.7667
  59   2.0000      -0.425938       -11.5904
  60   2.0000      -0.422092       -11.4857
  61   2.0000      -0.418432       -11.3861
  62   2.0000      -0.396755       -10.7963
  63   2.0000      -0.343795        -9.3551
  64   2.0000      -0.335118        -9.1190
  65   2.0000      -0.325832        -8.8663
  66   2.0000      -0.289971        -7.8905
  67   0.0000       0.027206         0.7403
  68   0.0000       0.059721         1.6251
  69   0.0000       0.093894         2.5550
  70   0.0000       0.128649         3.5007
  71   0.0000       0.133028         3.6199

MULLIKEN ATOMIC CHARGES
-----------------------
   0 S :    0.099064
   1 C :   -0.133124
   2 C :   -0.049806
   3 C :    0.025333
   4 C :   -0.151095
   5 H :    0.011782
   6 C :    0.060378
   7 H :    0.022354
   8 H :    0.039470
   9 C :   -0.055819
  10 H :    0.028269
  11 H :    0.033302
  12 C :   -0.074527
  13 H :    0.028399
  14 H :    0.031474
  15 H :    0.035516
  16 S :    0.118046
  17 C :   -0.111372
  18 C :   -0.029689
  19 C :   -0.073121
  20 C :   -0.163310
  21 H :    0.025285
  22 C :    0.075408
  23 H :    0.003627
  24 H :    0.047019
  25 C :   -0.124407
  26 H :    0.060352
  27 H :    0.039711
  28 C :   -0.042330
  29 H :    0.031168
  30 H :    0.028159
  31 H :    0.046262
  32 H :    0.054631
  33 H :    0.063594
Sum of atomic charges:    0.0000000

LOEWDIN ATOMIC CHARGES
----------------------
   0 S :    0.359465
   1 C :   -0.164263
   2 C :   -0.058793
   3 C :   -0.051491
   4 C :   -0.185104
   5 H :    0.027439
   6 C :   -0.022138
   7 H :    0.030335
   8 H :    0.033692
   9 C :   -0.028728
  10 H :    0.017057
  11 H :    0.026249
  12 C :   -0.072410
  13 H :    0.022520
  14 H :    0.022140
  15 H :    0.024993
  16 S :    0.430448
  17 C :   -0.205609
  18 C :   -0.081075
  19 C :   -0.063048
  20 C :   -0.209471
  21 H :    0.037298
  22 C :   -0.047823
  23 H :    0.031711
  24 H :    0.037407
  25 C :   -0.042927
  26 H :    0.032532
  27 H :    0.027731
  28 C :   -0.070529
  29 H :    0.020774
  30 H :    0.025209
  31 H :    0.035235
  32 H :    0.027138
  33 H :    0.034034

  Mayer bond orders larger than 0.100000
B(  0-S ,  1-C ) :   1.1270 B(  0-S ,  4-C ) :   1.1098 B(  1-C ,  2-C ) :   1.6304
B(  1-C ,  4-C ) :   0.1005 B(  1-C , 32-H ) :   0.9610 B(  2-C ,  3-C ) :   1.2297
B(  2-C ,  6-C ) :   1.0023 B(  3-C ,  4-C ) :   1.6067 B(  3-C ,  5-H ) :   0.9864
B(  4-C , 20-C ) :   1.0388 B(  6-C ,  7-H ) :   0.9473 B(  6-C ,  8-H ) :   0.9513
B(  6-C ,  9-C ) :   1.0629 B(  9-C , 10-H ) :   0.9624 B(  9-C , 11-H ) :   0.9589
B(  9-C , 12-C ) :   1.0638 B( 12-C , 13-H ) :   0.9799 B( 12-C , 14-H ) :   0.9782
B( 12-C , 15-H ) :   0.9774 B( 16-S , 17-C ) :   1.1848 B( 16-S , 20-C ) :   1.1536
B( 17-C , 18-C ) :   1.5791 B( 17-C , 33-H ) :   0.9626 B( 18-C , 19-C ) :   1.2649
B( 18-C , 21-H ) :   0.9926 B( 19-C , 20-C ) :   1.5540 B( 19-C , 22-C ) :   1.0583
B( 22-C , 23-H ) :   0.9265 B( 22-C , 24-H ) :   0.9190 B( 22-C , 25-C ) :   1.0587
B( 25-C , 26-H ) :   0.9482 B( 25-C , 27-H ) :   0.9558 B( 25-C , 28-C ) :   1.0795
B( 28-C , 29-H ) :   0.9752 B( 28-C , 30-H ) :   0.9741 B( 28-C , 31-H ) :   0.9747

Dispersion correction           -0.014997745
FINAL SINGLE POINT ENERGY     -1339.856915486842

DIPOLE MOMENT
-------------
                                X             Y             Z
Electronic contribution:    -13.48074       5.23902     -23.87195
Nuclear contribution   :     14.06052      -5.10847      24.14461
                        -----------------------------------------
Total Dipole Moment    :      0.57978       0.13054       0.27266
                        -----------------------------------------
Magnitude (a.u.)       :      0.65386
Magnitude (Debye)      :      1.66198

Rotational constants in cm-1:     0.019180     0.009038     0.007388
Rotational constants in MHz :   574.989204   270.959001   221.501269

                             ****ORCA TERMINATED NORMALLY****
TOTAL RUN TIME: 0 days 0 hours 0 minutes 29 seconds 492 msec
