                         Program Version 4.2.1 -  RELEASE  -
|  1> ! wB97X-D3 SP def2-SVP
|  2> %pal
|  3> nprocs 16
|  4> end
|  5>
|  6> * xyz 0 1
|  7> S 	 44.298 	 8.66843 	 80.7884
|  8> C 	 44.5611 	 7.93761 	 82.3234
|  9> C 	 45.2018 	 8.70963 	 83.2028
| 10> C 	 45.6063 	 9.89319 	 82.6274
| 11> C 	 45.1898 	 10.0832 	 81.3237
| 12> H 	 46.2926 	 10.6435 	 83.018
| 13> C 	 45.5717 	 8.36462 	 84.6126
| 14> H 	 45.5802 	 7.27541 	 84.8106
| 15> H 	 44.7364 	 8.76003 	 85.2155
| 16> C 	 46.7837 	 8.99466 	 85.2156
| 17> H 	 46.683 	 10.1177 	 85.3468
| 18> H 	 46.8804 	 8.62052 	 86.2734
| 19> C 	 47.9493 	 8.6037 	 84.4802
| 20> H 	 47.9461 	 8.87995 	 83.4105
| 21> H 	 48.8446 	 8.93199 	 84.9208
| 22> H 	 48.0596 	 7.50624 	 84.4252
| 23> S 	 46.1228 	 10.8514 	 78.8371
| 24> C 	 46.4167 	 12.5419 	 78.5176
| 25> C 	 46.135 	 13.3001 	 79.6489
| 26> C 	 45.6992 	 12.5154 	 80.7407
| 27> C 	 45.5384 	 11.1838 	 80.4228
| 28> H 	 46.3223 	 14.3701 	 79.6326
| 29> C 	 45.1128 	 13.147 	 81.9502
| 30> H 	 44.6413 	 12.3155 	 82.4937
| 31> H 	 44.172 	 13.7202 	 81.6729
| 32> C 	 45.9962 	 13.9427 	 82.8711
| 33> H 	 46.8461 	 13.2547 	 83.2321
| 34> H 	 45.4323 	 14.0098 	 83.7608
| 35> C 	 46.5601 	 15.2772 	 82.481
| 36> H 	 47.0341 	 15.7157 	 83.34
| 37> H 	 45.6628 	 15.8633 	 82.0832
| 38> H 	 47.3194 	 15.3062 	 81.6553
| 39> H 	 44.1719 	 6.96968 	 82.5916
| 40> H 	 46.8803 	 12.9425 	 77.581
| 41> *
| 42>
| 43>                          ****END OF INPUT****

CARTESIAN COORDINATES (ANGSTROEM)
---------------------------------
  S     44.298000    8.668430   80.788400
  C     44.561100    7.937610   82.323400
  C     45.201800    8.709630   83.202800
  C     45.606300    9.893190   82.627400
  C     45.189800   10.083200   81.323700
  H     46.292600   10.643500   83.018000
  C     45.571700    8.364620   84.612600
  H     45.580200    7.275410   84.810600
  H     44.736400    8.760030   85.215500
  C     46.783700    8.994660   85.215600
  H     46.683000   10.117700   85.346800
  H     46.880400    8.620520   86.273400
  C     47.949300    8.603700   84.480200
  H     47.946100    8.879950   83.410500
  H     48.844600    8.931990   84.920800
  H     48.059600    7.506240   84.425200
  S     46.122800   10.851400   78.837100
  C     46.416700   12.541900   78.517600
  C     46.135000   13.300100   79.648900
  C     45.699200   12.515400   80.740700
  C     45.538400   11.183800   80.422800
  H     46.322300   14.370100   79.632600
  C     45.112800   13.147000   81.950200
  H     44.641300   12.315500   82.493700
  H     44.172000   13.720200   81.672900
  C     45.996200   13.942700   82.871100
  H     46.846100   13.254700   83.232100
  H     45.432300   14.009800   83.760800
  C     46.560100   15.277200   82.481000
  H     47.034100   15.715700   83.340000
  H     45.662800   15.863300   82.083200
  H     47.319400   15.306200   81.655300
  H     44.171900    6.969680   82.591600
  H     46.880300   12.942500   77.581000

 Total Charge           Charge          ....    0
 Multiplicity           Mult            ....    1
 Number of Electrons    NEL             ....  134
 Basis Dimension        Dim             ....  322

ORBITAL ENERGIES
----------------

  NO   OCC          E(Eh)            E(eV)
   0   2.0000     -88.966371     -2420.8980
   1   2.0000     -88.965439     -2420.8727
   2   2.0000     -10.327493      -281.0254
   3   2.0000     -10.322964      -280.9021
   4   2.0000     -10.320220      -280.8275
   5   2.0000     -10.304472      -280.3989
   6   2.0000     -10.294299      -280.1221
   7   2.0000     -10.292049      -280.0609
   8   2.0000     -10.290743      -280.0254
   9   2.0000     -10.290408      -280.0162
  10   2.0000     -10.287734      -279.9435
  11   2.0000     -10.287310      -279.9319
  12   2.0000     -10.287164      -279.9280
  13   2.0000     -10.286161      -279.9007
  14   2.0000     -10.285445      -279.8812
  15   2.0000     -10.265677      -279.3433
  16   2.0000      -8.081575      -219.9108
  17   2.0000      -8.080767      -219.8888
  18   2.0000      -6.039965      -164.3558
  19   2.0000      -6.039181      -164.3345
  20   2.0000      -6.036077      -164.2500
  21   2.0000      -6.035127      -164.2242
  22   2.0000      -6.032399      -164.1499
  23   2.0000      -6.031654      -164.1297
  24   2.0000      -1.015581       -27.6354
  25   2.0000      -0.994121       -27.0514
  26   2.0000      -0.928747       -25.2725
  27   2.0000      -0.913835       -24.8667
  28   2.0000      -0.874979       -23.8094
  29   2.0000      -0.857490       -23.3335
  30   2.0000      -0.849374       -23.1126
  31   2.0000      -0.817797       -22.2534
  32   2.0000      -0.788589       -21.4586
  33   2.0000      -0.776744       -21.1363
  34   2.0000      -0.708321       -19.2744
  35   2.0000      -0.693158       -18.8618
  36   2.0000      -0.690629       -18.7930
  37   2.0000      -0.661395       -17.9975
  38   2.0000      -0.640260       -17.4224
  39   2.0000      -0.628536       -17.1033
  40   2.0000      -0.594488       -16.1768
  41   2.0000      -0.571342       -15.5470
  42   2.0000      -0.565878       -15.3983
  43   2.0000      -0.552540       -15.0354
  44   2.0000      -0.542765       -14.7694
  45   2.0000      -0.540546       -14.7090
  46   2.0000      -0.520644       -14.1675
  47   2.0000      -0.514166       -13.9912
  48   2.0000      -0.500912       -13.6305
  49   2.0000      -0.498210       -13.5570
  50   2.0000      -0.493922       -13.4403
  51   2.0000      -0.483122       -13.1464
  52   2.0000      -0.478649       -13.0247
  53   2.0000      -0.474070       -12.9001
  54   2.0000      -0.459983       -12.5168
  55   2.0000      -0.446240       -12.1428
  56   2.0000      -0.442954       -12.0534
  57   2.0000      -0.435720       -11.8565
  58   2.0000      -0.431631       -11.7453
  59   2.0000      -0.426117       -11.5952
  60   2.0000      -0.419679       -11.4201
  61   2.0000      -0.409795       -11.1511
  62   2.0000      -0.403763       -10.9869
  63   2.0000      -0.352348        -9.5879
  64   2.0000      -0.334512        -9.1025
  65   2.0000      -0.330791        -9.0013
  66   2.0000      -0.287670        -7.8279
  67   0.0000       0.028899         0.7864
  68   0.0000       0.079893         2.1740
  69   0.0000       0.115854         3.1526
  70   0.0000       0.121501         3.3062
  71   0.0000       0.127699         3.4749

MULLIKEN ATOMIC CHARGES
-----------------------
   0 S :    0.115719
   1 C :   -0.131361
   2 C :   -0.054942
   3 C :    0.004390
   4 C :   -0.171776
   5 H :    0.016735
   6 C :    0.077062
   7 H :    0.025743
   8 H :    0.037144
   9 C :   -0.095073
  10 H :    0.035728
  11 H :    0.033751
  12 C :   -0.020143
  13 H :    0.040509
  14 H :    0.016701
  15 H :    0.015797
  16 S :    0.112492
  17 C :   -0.117606
  18 C :   -0.031459
  19 C :   -0.010914
  20 C :   -0.129407
  21 H :    0.019536
  22 C :   -0.004404
  23 H :    0.018194
  24 H :    0.041592
  25 C :   -0.055571
  26 H :    0.021665
  27 H :    0.016118
  28 C :   -0.048215
  29 H :    0.039758
  30 H :    0.034962
  31 H :    0.042129
  32 H :    0.031012
  33 H :    0.074136
Sum of atomic charges:    0.0000000

LOEWDIN ATOMIC CHARGES
----------------------
   0 S :    0.412853
   1 C :   -0.196782
   2 C :   -0.074050
   3 C :   -0.064232
   4 C :   -0.188044
   5 H :    0.033007
   6 C :   -0.032733
   7 H :    0.032714
   8 H :    0.039742
   9 C :   -0.056043
  10 H :    0.027935
  11 H :    0.035520
  12 C :   -0.068900
  13 H :    0.030762
  14 H :    0.017658
  15 H :    0.028861
  16 S :    0.420296
  17 C :   -0.195265
  18 C :   -0.068931
  19 C :   -0.067062
  20 C :   -0.207305
  21 H :    0.032300
  22 C :   -0.045032
  23 H :    0.033273
  24 H :    0.038908
  25 C :   -0.050950
  26 H :    0.027121
  27 H :    0.022870
  28 C :   -0.071080
  29 H :    0.028237
  30 H :    0.032588
  31 H :    0.027067
  32 H :    0.024643
  33 H :    0.040053

  Mayer bond orders larger than 0.100000
B(  0-S ,  1-C ) :   1.1386 B(  0-S ,  4-C ) :   1.1582 B(  1-C ,  2-C ) :   1.6291
B(  1-C , 32-H ) :   0.9644 B(  2-C ,  3-C ) :   1.2557 B(  2-C ,  6-C ) :   1.0063
B(  3-C ,  4-C ) :   1.5627 B(  3-C ,  5-H ) :   0.9839 B(  4-C , 20-C ) :   1.0359
B(  6-C ,  7-H ) :   0.9441 B(  6-C ,  8-H ) :   0.9176 B(  6-C ,  9-C ) :   1.1030
B(  9-C , 10-H ) :   0.9354 B(  9-C , 11-H ) :   0.9408 B(  9-C , 12-C ) :   1.1036
B( 12-C , 13-H ) :   0.9669 B( 12-C , 14-H ) :   0.9669 B( 12-C , 15-H ) :   0.9626
B( 16-S , 17-C ) :   1.1590 B( 16-S , 20-C ) :   1.1547 B( 17-C , 18-C ) :   1.5873
B( 17-C , 33-H ) :   0.9628 B( 18-C , 19-C ) :   1.2508 B( 18-C , 21-H ) :   0.9910
B( 19-C , 20-C ) :   1.5727 B( 19-C , 22-C ) :   1.0433 B( 22-C , 23-H ) :   0.9266
B( 22-C , 24-H ) :   0.9337 B( 22-C , 25-C ) :   1.0883 B( 25-C , 26-H ) :   0.9400
B( 25-C , 27-H ) :   0.9469 B( 25-C , 28-C ) :   1.0830 B( 28-C , 29-H ) :   0.9674
B( 28-C , 30-H ) :   0.9702 B( 28-C , 31-H ) :   0.9698

Dispersion correction           -0.014888558
FINAL SINGLE POINT ENERGY     -1339.880467580538

DIPOLE MOMENT
-------------
                                X             Y             Z
Electronic contribution:     -9.38415     -11.03098     -23.91489
Nuclear contribution   :      9.59472      11.28596      24.54219
                        -----------------------------------------
Total Dipole Moment    :      0.21056       0.25498       0.62731
                        -----------------------------------------
Magnitude (a.u.)       :      0.70913
Magnitude (Debye)      :      1.80246

Rotational constants in cm-1:     0.017293     0.010121     0.007364
Rotational constants in MHz :   518.432933   303.416447   220.753223

                             ****ORCA TERMINATED NORMALLY****
TOTAL RUN TIME: 0 days 0 hours 0 minutes 32 seconds 260 msec
