                         Program Version 4.2.1 -  RELEASE  -
|  1> ! wB97X-D3 SP def2-SVP
|  2> %pal
|  3> nprocs 16
|  4> end
|  5>
|  6> * xyz 0 1
|  7> S 	 -47.9704 	 33.6274 	 91.0483
|  8> C 	 -48.785 	 32.1885 	 90.4654
|  9> C 	 -49.6788 	 31.6428 	 91.3432
| 10> C 	 -49.698 	 32.4304 	 92.5122
| 11> C 	 -48.9441 	 33.6137 	 92.4954
| 12> H 	 -50.3028 	 32.3021 	 93.4054
| 13> C 	 -50.4561 	 30.3416 	 91.2536
| 14> H 	 -50.7814 	 30.1678 	 92.2948
| 15> H 	 -49.6945 	 29.4692 	 91.1371
| 16> C 	 -51.6462 	 30.2816 	 90.2818
| 17> H 	 -51.3818 	 30.8841 	 89.4445
| 18> H 	 -51.8425 	 29.2107 	 90.0179
| 19> C 	 -52.9634 	 30.8321 	 90.9203
| 20> H 	 -52.8801 	 31.8834 	 91.2705
| 21> H 	 -53.6752 	 30.8642 	 90.1886
| 22> H 	 -53.4277 	 30.2629 	 91.7128
| 23> S 	 -49.1026 	 36.3431 	 92.936
| 24> C 	 -48.7183 	 36.9279 	 94.5537
| 25> C 	 -48.4423 	 35.9092 	 95.3843
| 26> C 	 -48.7357 	 34.6327 	 94.8731
| 27> C 	 -48.9317 	 34.6764 	 93.5085
| 28> H 	 -48.0513 	 36.0599 	 96.3911
| 29> C 	 -48.481 	 33.4044 	 95.7922
| 30> H 	 -49.3814 	 32.7108 	 95.886
| 31> H 	 -48.3563 	 33.6499 	 96.8767
| 32> C 	 -47.2891 	 32.5585 	 95.5568
| 33> H 	 -46.4207 	 33.1888 	 95.3504
| 34> H 	 -47.4987 	 31.9622 	 94.6605
| 35> C 	 -46.967 	 31.5648 	 96.6416
| 36> H 	 -46.7525 	 32.0707 	 97.5882
| 37> H 	 -46.055 	 30.9968 	 96.4241
| 38> H 	 -47.8372 	 30.8368 	 96.7113
| 39> H 	 -48.4054 	 31.6527 	 89.5763
| 40> H 	 -48.552 	 37.9847 	 94.8406
| 41> *
| 42>
| 43>                          ****END OF INPUT****

CARTESIAN COORDINATES (ANGSTROEM)
---------------------------------
  S    -47.970400   33.627400   91.048300
  C    -48.785000   32.188500   90.465400
  C    -49.678800   31.642800   91.343200
  C    -49.698000   32.430400   92.512200
  C    -48.944100   33.613700   92.495400
  H    -50.302800   32.302100   93.405400
  C    -50.456100   30.341600   91.253600
  H    -50.781400   30.167800   92.294800
  H    -49.694500   29.469200   91.137100
  C    -51.646200   30.281600   90.281800
  H    -51.381800   30.884100   89.444500
  H    -51.842500   29.210700   90.017900
  C    -52.963400   30.832100   90.920300
  H    -52.880100   31.883400   91.270500
  H    -53.675200   30.864200   90.188600
  H    -53.427700   30.262900   91.712800
  S    -49.102600   36.343100   92.936000
  C    -48.718300   36.927900   94.553700
  C    -48.442300   35.909200   95.384300
  C    -48.735700   34.632700   94.873100
  C    -48.931700   34.676400   93.508500
  H    -48.051300   36.059900   96.391100
  C    -48.481000   33.404400   95.792200
  H    -49.381400   32.710800   95.886000
  H    -48.356300   33.649900   96.876700
  C    -47.289100   32.558500   95.556800
  H    -46.420700   33.188800   95.350400
  H    -47.498700   31.962200   94.660500
  C    -46.967000   31.564800   96.641600
  H    -46.752500   32.070700   97.588200
  H    -46.055000   30.996800   96.424100
  H    -47.837200   30.836800   96.711300
  H    -48.405400   31.652700   89.576300
  H    -48.552000   37.984700   94.840600

 Total Charge           Charge          ....    0
 Multiplicity           Mult            ....    1
 Number of Electrons    NEL             ....  134
 Basis Dimension        Dim             ....  322

ORBITAL ENERGIES
----------------

  NO   OCC          E(Eh)            E(eV)
   0   2.0000     -88.969067     -2420.9714
   1   2.0000     -88.966870     -2420.9116
   2   2.0000     -10.331925      -281.1460
   3   2.0000     -10.329614      -281.0831
   4   2.0000     -10.315246      -280.6921
   5   2.0000     -10.314447      -280.6704
   6   2.0000     -10.304870      -280.4098
   7   2.0000     -10.300658      -280.2952
   8   2.0000     -10.300222      -280.2833
   9   2.0000     -10.297719      -280.2152
  10   2.0000     -10.293409      -280.0979
  11   2.0000     -10.291911      -280.0571
  12   2.0000     -10.288539      -279.9654
  13   2.0000     -10.282024      -279.7881
  14   2.0000     -10.276163      -279.6286
  15   2.0000     -10.271908      -279.5128
  16   2.0000      -8.083662      -219.9676
  17   2.0000      -8.081208      -219.9008
  18   2.0000      -6.042064      -164.4129
  19   2.0000      -6.039834      -164.3522
  20   2.0000      -6.038198      -164.3077
  21   2.0000      -6.035848      -164.2438
  22   2.0000      -6.034532      -164.2080
  23   2.0000      -6.031784      -164.1332
  24   2.0000      -1.008346       -27.4385
  25   2.0000      -0.988149       -26.8889
  26   2.0000      -0.913901       -24.8685
  27   2.0000      -0.908870       -24.7316
  28   2.0000      -0.869028       -23.6475
  29   2.0000      -0.852193       -23.1894
  30   2.0000      -0.847568       -23.0635
  31   2.0000      -0.810868       -22.0648
  32   2.0000      -0.784155       -21.3379
  33   2.0000      -0.774454       -21.0740
  34   2.0000      -0.708047       -19.2669
  35   2.0000      -0.702338       -19.1116
  36   2.0000      -0.682702       -18.5773
  37   2.0000      -0.661701       -18.0058
  38   2.0000      -0.638713       -17.3803
  39   2.0000      -0.612927       -16.6786
  40   2.0000      -0.600134       -16.3305
  41   2.0000      -0.574594       -15.6355
  42   2.0000      -0.569072       -15.4852
  43   2.0000      -0.547037       -14.8856
  44   2.0000      -0.533941       -14.5293
  45   2.0000      -0.522424       -14.2159
  46   2.0000      -0.514626       -14.0037
  47   2.0000      -0.512229       -13.9385
  48   2.0000      -0.496617       -13.5136
  49   2.0000      -0.493275       -13.4227
  50   2.0000      -0.488290       -13.2870
  51   2.0000      -0.478491       -13.0204
  52   2.0000      -0.473434       -12.8828
  53   2.0000      -0.466982       -12.7072
  54   2.0000      -0.457704       -12.4548
  55   2.0000      -0.450864       -12.2686
  56   2.0000      -0.443705       -12.0738
  57   2.0000      -0.438692       -11.9374
  58   2.0000      -0.433824       -11.8049
  59   2.0000      -0.426253       -11.5989
  60   2.0000      -0.420940       -11.4544
  61   2.0000      -0.414157       -11.2698
  62   2.0000      -0.403608       -10.9827
  63   2.0000      -0.347935        -9.4678
  64   2.0000      -0.337722        -9.1899
  65   2.0000      -0.333159        -9.0657
  66   2.0000      -0.289712        -7.8835
  67   0.0000       0.026961         0.7337
  68   0.0000       0.067485         1.8364
  69   0.0000       0.109839         2.9889
  70   0.0000       0.119046         3.2394
  71   0.0000       0.133544         3.6339

MULLIKEN ATOMIC CHARGES
-----------------------
   0 S :    0.122847
   1 C :   -0.146572
   2 C :   -0.060455
   3 C :    0.018290
   4 C :   -0.168508
   5 H :    0.007568
   6 C :    0.028704
   7 H :    0.016815
   8 H :    0.049164
   9 C :   -0.037819
  10 H :    0.032214
  11 H :    0.041072
  12 C :   -0.041100
  13 H :    0.038178
  14 H :    0.008039
  15 H :    0.029206
  16 S :    0.106239
  17 C :   -0.088284
  18 C :   -0.041105
  19 C :    0.027064
  20 C :   -0.169869
  21 H :    0.022963
  22 C :    0.000776
  23 H :    0.029355
  24 H :    0.010038
  25 C :   -0.061194
  26 H :    0.026922
  27 H :    0.032252
  28 C :   -0.062300
  29 H :    0.029244
  30 H :    0.039359
  31 H :    0.037731
  32 H :    0.057347
  33 H :    0.065821
Sum of atomic charges:   -0.0000000

LOEWDIN ATOMIC CHARGES
----------------------
   0 S :    0.413341
   1 C :   -0.197495
   2 C :   -0.072312
   3 C :   -0.064084
   4 C :   -0.201947
   5 H :    0.028578
   6 C :   -0.040229
   7 H :    0.029606
   8 H :    0.042034
   9 C :   -0.032144
  10 H :    0.023313
  11 H :    0.033160
  12 C :   -0.063313
  13 H :    0.031760
  14 H :    0.013008
  15 H :    0.024164
  16 S :    0.392357
  17 C :   -0.187517
  18 C :   -0.070267
  19 C :   -0.056316
  20 C :   -0.183832
  21 H :    0.034714
  22 C :   -0.041879
  23 H :    0.032703
  24 H :    0.029606
  25 C :   -0.052826
  26 H :    0.024041
  27 H :    0.025584
  28 C :   -0.066768
  29 H :    0.021306
  30 H :    0.030423
  31 H :    0.031503
  32 H :    0.031501
  33 H :    0.038229

  Mayer bond orders larger than 0.100000
B(  0-S ,  1-C ) :   1.1507 B(  0-S ,  4-C ) :   1.1588 B(  1-C ,  2-C ) :   1.5960
B(  1-C , 32-H ) :   0.9607 B(  2-C ,  3-C ) :   1.2682 B(  2-C ,  6-C ) :   1.0067
B(  3-C ,  4-C ) :   1.5601 B(  3-C ,  5-H ) :   0.9897 B(  4-C , 20-C ) :   1.0490
B(  6-C ,  7-H ) :   0.9452 B(  6-C ,  8-H ) :   0.9421 B(  6-C ,  9-C ) :   1.0502
B(  9-C , 10-H ) :   0.9620 B(  9-C , 11-H ) :   0.9546 B(  9-C , 12-C ) :   1.0813
B( 12-C , 13-H ) :   0.9756 B( 12-C , 14-H ) :   0.9719 B( 12-C , 15-H ) :   0.9756
B( 16-S , 17-C ) :   1.1271 B( 16-S , 20-C ) :   1.1432 B( 17-C , 18-C ) :   1.6396
B( 17-C , 33-H ) :   0.9608 B( 18-C , 19-C ) :   1.2440 B( 18-C , 21-H ) :   0.9841
B( 19-C , 20-C ) :   1.5959 B( 19-C , 22-C ) :   1.0297 B( 22-C , 23-H ) :   0.9310
B( 22-C , 24-H ) :   0.9425 B( 22-C , 25-C ) :   1.0693 B( 25-C , 26-H ) :   0.9508
B( 25-C , 27-H ) :   0.9448 B( 25-C , 28-C ) :   1.0956 B( 28-C , 29-H ) :   0.9706
B( 28-C , 30-H ) :   0.9714 B( 28-C , 31-H ) :   0.9722

Dispersion correction           -0.014212350
FINAL SINGLE POINT ENERGY     -1339.872683610454

DIPOLE MOMENT
-------------
                                X             Y             Z
Electronic contribution:      7.09650      22.89573      -9.69843
Nuclear contribution   :     -7.09988     -23.39678      10.01995
                        -----------------------------------------
Total Dipole Moment    :     -0.00338      -0.50105       0.32152
                        -----------------------------------------
Magnitude (a.u.)       :      0.59534
Magnitude (Debye)      :      1.51324

Rotational constants in cm-1:     0.017468     0.008552     0.007096
Rotational constants in MHz :   523.680630   256.369777   212.746086

                             ****ORCA TERMINATED NORMALLY****
TOTAL RUN TIME: 0 days 0 hours 0 minutes 30 seconds 437 msec
