                         Program Version 4.2.1 -  RELEASE  -
|  1> ! wB97X-D3 SP def2-SVP
|  2> %pal
|  3> nprocs 16
|  4> end
|  5>
|  6> * xyz 0 1
|  7> S 	 2.49917 	 21.4238 	 51.4696
|  8> C 	 2.34986 	 20.6152 	 49.8659
|  9> C 	 1.0534 	 20.2902 	 49.5339
| 10> C 	 0.237894 	 20.5666 	 50.6653
| 11> C 	 0.786458 	 21.0477 	 51.819
| 12> H 	 -0.851035 	 20.2941 	 50.7068
| 13> C 	 0.604247 	 19.7826 	 48.1568
| 14> H 	 1.19852 	 20.3293 	 47.3994
| 15> H 	 -0.463789 	 19.9559 	 47.9862
| 16> C 	 0.870376 	 18.2739 	 48.1008
| 17> H 	 1.94293 	 18.0513 	 48.2899
| 18> H 	 0.400849 	 17.8742 	 48.9494
| 19> C 	 0.13421 	 17.724 	 46.901
| 20> H 	 -0.948564 	 17.9531 	 46.8461
| 21> H 	 0.536879 	 18.0155 	 45.9829
| 22> H 	 0.171656 	 16.6865 	 46.8772
| 23> S 	 1.17632 	 20.8576 	 54.4669
| 24> C 	 0.115527 	 21.7315 	 55.5994
| 25> C 	 -0.961697 	 22.3314 	 54.948
| 26> C 	 -0.865627 	 22.1618 	 53.5075
| 27> C 	 0.143704 	 21.2705 	 53.1039
| 28> H 	 -1.60031 	 23.0093 	 55.3981
| 29> C 	 -1.77411 	 22.845 	 52.5512
| 30> H 	 -2.78655 	 22.6784 	 52.8273
| 31> H 	 -1.71319 	 22.4145 	 51.5714
| 32> C 	 -1.52011 	 24.2985 	 52.3864
| 33> H 	 -1.4794 	 24.8686 	 53.2932
| 34> H 	 -2.41933 	 24.7587 	 51.9301
| 35> C 	 -0.292519 	 24.5518 	 51.5165
| 36> H 	 -0.287335 	 25.5971 	 51.4075
| 37> H 	 -0.369593 	 24.0528 	 50.5161
| 38> H 	 0.703292 	 24.3594 	 51.9408
| 39> H 	 3.2216 	 20.4207 	 49.2847
| 40> H 	 0.196938 	 21.7505 	 56.6734
| 41> *
| 42>
| 43>                          ****END OF INPUT****

CARTESIAN COORDINATES (ANGSTROEM)
---------------------------------
  S      2.499170   21.423800   51.469600
  C      2.349860   20.615200   49.865900
  C      1.053400   20.290200   49.533900
  C      0.237894   20.566600   50.665300
  C      0.786458   21.047700   51.819000
  H     -0.851035   20.294100   50.706800
  C      0.604247   19.782600   48.156800
  H      1.198520   20.329300   47.399400
  H     -0.463789   19.955900   47.986200
  C      0.870376   18.273900   48.100800
  H      1.942930   18.051300   48.289900
  H      0.400849   17.874200   48.949400
  C      0.134210   17.724000   46.901000
  H     -0.948564   17.953100   46.846100
  H      0.536879   18.015500   45.982900
  H      0.171656   16.686500   46.877200
  S      1.176320   20.857600   54.466900
  C      0.115527   21.731500   55.599400
  C     -0.961697   22.331400   54.948000
  C     -0.865627   22.161800   53.507500
  C      0.143704   21.270500   53.103900
  H     -1.600310   23.009300   55.398100
  C     -1.774110   22.845000   52.551200
  H     -2.786550   22.678400   52.827300
  H     -1.713190   22.414500   51.571400
  C     -1.520110   24.298500   52.386400
  H     -1.479400   24.868600   53.293200
  H     -2.419330   24.758700   51.930100
  C     -0.292519   24.551800   51.516500
  H     -0.287335   25.597100   51.407500
  H     -0.369593   24.052800   50.516100
  H      0.703292   24.359400   51.940800
  H      3.221600   20.420700   49.284700
  H      0.196938   21.750500   56.673400

 Total Charge           Charge          ....    0
 Multiplicity           Mult            ....    1
 Number of Electrons    NEL             ....  134
 Basis Dimension        Dim             ....  322

ORBITAL ENERGIES
----------------

  NO   OCC          E(Eh)            E(eV)
   0   2.0000     -88.965212     -2420.8665
   1   2.0000     -88.962963     -2420.8053
   2   2.0000     -10.328330      -281.0481
   3   2.0000     -10.326305      -280.9930
   4   2.0000     -10.323999      -280.9303
   5   2.0000     -10.313704      -280.6501
   6   2.0000     -10.306851      -280.4637
   7   2.0000     -10.301643      -280.3219
   8   2.0000     -10.297421      -280.2071
   9   2.0000     -10.295068      -280.1430
  10   2.0000     -10.292203      -280.0651
  11   2.0000     -10.283674      -279.8330
  12   2.0000     -10.279961      -279.7320
  13   2.0000     -10.277296      -279.6594
  14   2.0000     -10.269654      -279.4515
  15   2.0000     -10.268486      -279.4197
  16   2.0000      -8.079338      -219.8500
  17   2.0000      -8.076294      -219.7671
  18   2.0000      -6.038019      -164.3028
  19   2.0000      -6.034946      -164.2192
  20   2.0000      -6.033815      -164.1884
  21   2.0000      -6.031160      -164.1162
  22   2.0000      -6.030043      -164.0858
  23   2.0000      -6.026802      -163.9976
  24   2.0000      -1.000558       -27.2266
  25   2.0000      -0.976914       -26.5832
  26   2.0000      -0.917862       -24.9763
  27   2.0000      -0.915668       -24.9166
  28   2.0000      -0.870816       -23.6961
  29   2.0000      -0.845836       -23.0164
  30   2.0000      -0.840752       -22.8780
  31   2.0000      -0.814716       -22.1696
  32   2.0000      -0.784048       -21.3350
  33   2.0000      -0.772088       -21.0096
  34   2.0000      -0.708017       -19.2661
  35   2.0000      -0.704600       -19.1731
  36   2.0000      -0.695367       -18.9219
  37   2.0000      -0.662946       -18.0397
  38   2.0000      -0.642096       -17.4723
  39   2.0000      -0.616826       -16.7847
  40   2.0000      -0.600413       -16.3381
  41   2.0000      -0.574355       -15.6290
  42   2.0000      -0.563034       -15.3209
  43   2.0000      -0.560011       -15.2387
  44   2.0000      -0.540092       -14.6967
  45   2.0000      -0.522257       -14.2113
  46   2.0000      -0.515393       -14.0246
  47   2.0000      -0.509993       -13.8776
  48   2.0000      -0.500802       -13.6275
  49   2.0000      -0.499985       -13.6053
  50   2.0000      -0.492728       -13.4078
  51   2.0000      -0.473353       -12.8806
  52   2.0000      -0.465193       -12.6585
  53   2.0000      -0.463855       -12.6221
  54   2.0000      -0.458653       -12.4806
  55   2.0000      -0.452820       -12.3219
  56   2.0000      -0.442355       -12.0371
  57   2.0000      -0.438545       -11.9334
  58   2.0000      -0.429625       -11.6907
  59   2.0000      -0.426739       -11.6121
  60   2.0000      -0.421788       -11.4774
  61   2.0000      -0.415056       -11.2943
  62   2.0000      -0.408023       -11.1029
  63   2.0000      -0.344218        -9.3666
  64   2.0000      -0.331486        -9.0202
  65   2.0000      -0.326228        -8.8771
  66   2.0000      -0.289669        -7.8823
  67   0.0000       0.025971         0.7067
  68   0.0000       0.066042         1.7971
  69   0.0000       0.102928         2.8008
  70   0.0000       0.117850         3.2069
  71   0.0000       0.123067         3.3488

MULLIKEN ATOMIC CHARGES
-----------------------
   0 S :    0.094610
   1 C :   -0.143365
   2 C :   -0.064954
   3 C :   -0.009265
   4 C :   -0.129147
   5 H :    0.024348
   6 C :    0.069954
   7 H :    0.040100
   8 H :    0.023230
   9 C :   -0.063028
  10 H :    0.035912
  11 H :    0.014603
  12 C :    0.011775
  13 H :    0.029239
  14 H :    0.009662
  15 H :    0.012047
  16 S :    0.089668
  17 C :   -0.085047
  18 C :    0.018599
  19 C :   -0.068939
  20 C :   -0.149654
  21 H :   -0.001715
  22 C :    0.122216
  23 H :    0.011839
  24 H :   -0.004553
  25 C :   -0.079710
  26 H :    0.014642
  27 H :    0.021349
  28 C :   -0.037012
  29 H :    0.013484
  30 H :    0.040800
  31 H :    0.040890
  32 H :    0.039499
  33 H :    0.057925
Sum of atomic charges:    0.0000000

LOEWDIN ATOMIC CHARGES
----------------------
   0 S :    0.360310
   1 C :   -0.171749
   2 C :   -0.062460
   3 C :   -0.075829
   4 C :   -0.187082
   5 H :    0.033290
   6 C :   -0.021875
   7 H :    0.034021
   8 H :    0.030594
   9 C :   -0.037047
  10 H :    0.031201
  11 H :    0.020375
  12 C :   -0.058959
  13 H :    0.032477
  14 H :    0.016568
  15 H :    0.017810
  16 S :    0.394478
  17 C :   -0.165450
  18 C :   -0.059609
  19 C :   -0.035779
  20 C :   -0.202049
  21 H :    0.019899
  22 C :   -0.035653
  23 H :    0.027115
  24 H :    0.027339
  25 C :   -0.039470
  26 H :    0.018567
  27 H :    0.027916
  28 C :   -0.064435
  29 H :    0.018821
  30 H :    0.031907
  31 H :    0.027924
  32 H :    0.018196
  33 H :    0.028640

  Mayer bond orders larger than 0.100000
B(  0-S ,  1-C ) :   1.1303 B(  0-S ,  4-C ) :   1.1074 B(  1-C ,  2-C ) :   1.6148
B(  1-C , 32-H ) :   0.9708 B(  2-C ,  3-C ) :   1.2368 B(  2-C ,  6-C ) :   1.0087
B(  3-C ,  4-C ) :   1.6187 B(  3-C ,  5-H ) :   0.9779 B(  4-C , 20-C ) :   1.0550
B(  6-C ,  7-H ) :   0.9417 B(  6-C ,  8-H ) :   0.9468 B(  6-C ,  9-C ) :   1.0587
B(  9-C , 10-H ) :   0.9567 B(  9-C , 11-H ) :   0.9532 B(  9-C , 12-C ) :   1.0814
B( 12-C , 13-H ) :   0.9702 B( 12-C , 14-H ) :   0.9702 B( 12-C , 15-H ) :   0.9694
B( 16-S , 17-C ) :   1.1586 B( 16-S , 20-C ) :   1.1163 B( 17-C , 18-C ) :   1.6040
B( 17-C , 33-H ) :   0.9660 B( 18-C , 19-C ) :   1.2433 B( 18-C , 21-H ) :   0.9932
B( 19-C , 20-C ) :   1.5791 B( 19-C , 22-C ) :   1.0483 B( 22-C , 23-H ) :   0.9233
B( 22-C , 24-H ) :   0.9284 B( 22-C , 25-C ) :   1.0862 B( 25-C , 26-H ) :   0.9531
B( 25-C , 27-H ) :   0.9486 B( 25-C , 28-C ) :   1.0794 B( 28-C , 29-H ) :   0.9695
B( 28-C , 30-H ) :   0.9724 B( 28-C , 31-H ) :   0.9735

Dispersion correction           -0.015002641
FINAL SINGLE POINT ENERGY     -1339.865765256932

DIPOLE MOMENT
-------------
                                X             Y             Z
Electronic contribution:     12.17418      -0.85134      20.80951
Nuclear contribution   :    -12.69456       0.98089     -21.16182
                        -----------------------------------------
Total Dipole Moment    :     -0.52038       0.12955      -0.35231
                        -----------------------------------------
Magnitude (a.u.)       :      0.64164
Magnitude (Debye)      :      1.63091

Rotational constants in cm-1:     0.022176     0.007769     0.007000
Rotational constants in MHz :   664.809838   232.916383   209.866889

                             ****ORCA TERMINATED NORMALLY****
TOTAL RUN TIME: 0 days 0 hours 0 minutes 35 seconds 966 msec
