                         Program Version 4.2.1 -  RELEASE  -
|  1> ! wB97X-D3 SP def2-SVP
|  2> %pal
|  3> nprocs 16
|  4> end
|  5>
|  6> * xyz 0 1
|  7> S 	 -0.814461 	 -16.4083 	 84.8999
|  8> C 	 -2.31047 	 -17.3898 	 84.527
|  9> C 	 -2.0904 	 -18.6436 	 84.0336
| 10> C 	 -0.646932 	 -18.8574 	 84.0567
| 11> C 	 0.115755 	 -17.7459 	 84.3083
| 12> H 	 -0.290837 	 -19.7546 	 83.5714
| 13> C 	 -3.14946 	 -19.6976 	 83.641
| 14> H 	 -4.12105 	 -19.6191 	 84.0659
| 15> H 	 -2.81752 	 -20.6778 	 83.9389
| 16> C 	 -3.51535 	 -19.6093 	 82.1432
| 17> H 	 -4.21637 	 -20.3836 	 81.8245
| 18> H 	 -4.07579 	 -18.6169 	 81.9834
| 19> C 	 -2.28722 	 -19.7529 	 81.2255
| 20> H 	 -1.70816 	 -20.5063 	 81.715
| 21> H 	 -2.53419 	 -20.2583 	 80.2614
| 22> H 	 -1.72674 	 -18.8183 	 81.1386
| 23> S 	 2.47158 	 -17.2799 	 85.6073
| 24> C 	 3.92854 	 -17.5581 	 84.6162
| 25> C 	 3.6654 	 -17.8241 	 83.3221
| 26> C 	 2.264 	 -17.9841 	 83.0327
| 27> C 	 1.51924 	 -17.7418 	 84.1995
| 28> H 	 4.39816 	 -17.9124 	 82.5518
| 29> C 	 1.81418 	 -18.1962 	 81.5945
| 30> H 	 2.19485 	 -17.3737 	 81.0078
| 31> H 	 0.795269 	 -18.1425 	 81.344
| 32> C 	 2.36921 	 -19.4847 	 81.0281
| 33> H 	 3.51752 	 -19.3991 	 81.0723
| 34> H 	 2.12518 	 -19.6128 	 79.9632
| 35> C 	 1.92999 	 -20.7888 	 81.6983
| 36> H 	 2.11905 	 -20.6231 	 82.7396
| 37> H 	 2.46388 	 -21.6111 	 81.2874
| 38> H 	 0.824558 	 -20.9769 	 81.759
| 39> H 	 -3.29944 	 -16.9823 	 84.6559
| 40> H 	 5.00313 	 -17.3999 	 84.9648
| 41> *
| 42>
| 43>                          ****END OF INPUT****

CARTESIAN COORDINATES (ANGSTROEM)
---------------------------------
  S     -0.814461  -16.408300   84.899900
  C     -2.310470  -17.389800   84.527000
  C     -2.090400  -18.643600   84.033600
  C     -0.646932  -18.857400   84.056700
  C      0.115755  -17.745900   84.308300
  H     -0.290837  -19.754600   83.571400
  C     -3.149460  -19.697600   83.641000
  H     -4.121050  -19.619100   84.065900
  H     -2.817520  -20.677800   83.938900
  C     -3.515350  -19.609300   82.143200
  H     -4.216370  -20.383600   81.824500
  H     -4.075790  -18.616900   81.983400
  C     -2.287220  -19.752900   81.225500
  H     -1.708160  -20.506300   81.715000
  H     -2.534190  -20.258300   80.261400
  H     -1.726740  -18.818300   81.138600
  S      2.471580  -17.279900   85.607300
  C      3.928540  -17.558100   84.616200
  C      3.665400  -17.824100   83.322100
  C      2.264000  -17.984100   83.032700
  C      1.519240  -17.741800   84.199500
  H      4.398160  -17.912400   82.551800
  C      1.814180  -18.196200   81.594500
  H      2.194850  -17.373700   81.007800
  H      0.795269  -18.142500   81.344000
  C      2.369210  -19.484700   81.028100
  H      3.517520  -19.399100   81.072300
  H      2.125180  -19.612800   79.963200
  C      1.929990  -20.788800   81.698300
  H      2.119050  -20.623100   82.739600
  H      2.463880  -21.611100   81.287400
  H      0.824558  -20.976900   81.759000
  H     -3.299440  -16.982300   84.655900
  H      5.003130  -17.399900   84.964800

 Total Charge           Charge          ....    0
 Multiplicity           Mult            ....    1
 Number of Electrons    NEL             ....  134
 Basis Dimension        Dim             ....  322

ORBITAL ENERGIES
----------------

  NO   OCC          E(Eh)            E(eV)
   0   2.0000     -88.968884     -2420.9664
   1   2.0000     -88.967477     -2420.9281
   2   2.0000     -10.324026      -280.9310
   3   2.0000     -10.322068      -280.8777
   4   2.0000     -10.321786      -280.8701
   5   2.0000     -10.315904      -280.7100
   6   2.0000     -10.306832      -280.4632
   7   2.0000     -10.305227      -280.4195
   8   2.0000     -10.296632      -280.1856
   9   2.0000     -10.294305      -280.1223
  10   2.0000     -10.291300      -280.0405
  11   2.0000     -10.291059      -280.0340
  12   2.0000     -10.291025      -280.0330
  13   2.0000     -10.288795      -279.9724
  14   2.0000     -10.278386      -279.6891
  15   2.0000     -10.273543      -279.5573
  16   2.0000      -8.083032      -219.9505
  17   2.0000      -8.081596      -219.9114
  18   2.0000      -6.041658      -164.4019
  19   2.0000      -6.040229      -164.3630
  20   2.0000      -6.037892      -164.2994
  21   2.0000      -6.036481      -164.2610
  22   2.0000      -6.033436      -164.1781
  23   2.0000      -6.031977      -164.1384
  24   2.0000      -1.006203       -27.3802
  25   2.0000      -0.978414       -26.6240
  26   2.0000      -0.915600       -24.9147
  27   2.0000      -0.912123       -24.8201
  28   2.0000      -0.871891       -23.7254
  29   2.0000      -0.847499       -23.0616
  30   2.0000      -0.841469       -22.8975
  31   2.0000      -0.812409       -22.1068
  32   2.0000      -0.792045       -21.5526
  33   2.0000      -0.777055       -21.1447
  34   2.0000      -0.706554       -19.2263
  35   2.0000      -0.697617       -18.9831
  36   2.0000      -0.688143       -18.7253
  37   2.0000      -0.659024       -17.9330
  38   2.0000      -0.636744       -17.3267
  39   2.0000      -0.618448       -16.8288
  40   2.0000      -0.603530       -16.4229
  41   2.0000      -0.572651       -15.5826
  42   2.0000      -0.560384       -15.2488
  43   2.0000      -0.549913       -14.9639
  44   2.0000      -0.542726       -14.7683
  45   2.0000      -0.535142       -14.5619
  46   2.0000      -0.513971       -13.9859
  47   2.0000      -0.508750       -13.8438
  48   2.0000      -0.505258       -13.7488
  49   2.0000      -0.498799       -13.5730
  50   2.0000      -0.489912       -13.3312
  51   2.0000      -0.476408       -12.9637
  52   2.0000      -0.469245       -12.7688
  53   2.0000      -0.463961       -12.6250
  54   2.0000      -0.455170       -12.3858
  55   2.0000      -0.450970       -12.2715
  56   2.0000      -0.444916       -12.1068
  57   2.0000      -0.440936       -11.9985
  58   2.0000      -0.429175       -11.6785
  59   2.0000      -0.426273       -11.5995
  60   2.0000      -0.421117       -11.4592
  61   2.0000      -0.416460       -11.3325
  62   2.0000      -0.408769       -11.1232
  63   2.0000      -0.344510        -9.3746
  64   2.0000      -0.335503        -9.1295
  65   2.0000      -0.330188        -8.9849
  66   2.0000      -0.292444        -7.9578
  67   0.0000       0.032521         0.8849
  68   0.0000       0.067876         1.8470
  69   0.0000       0.096229         2.6185
  70   0.0000       0.117736         3.2038
  71   0.0000       0.125631         3.4186

MULLIKEN ATOMIC CHARGES
-----------------------
   0 S :    0.103450
   1 C :   -0.120072
   2 C :   -0.089038
   3 C :    0.050801
   4 C :   -0.148352
   5 H :   -0.014714
   6 C :    0.095654
   7 H :    0.020090
   8 H :    0.026815
   9 C :   -0.121094
  10 H :    0.032267
  11 H :    0.040658
  12 C :   -0.062706
  13 H :    0.011656
  14 H :    0.038391
  15 H :    0.070175
  16 S :    0.111489
  17 C :   -0.100189
  18 C :   -0.016714
  19 C :   -0.043883
  20 C :   -0.168209
  21 H :    0.010595
  22 C :    0.134359
  23 H :    0.030052
  24 H :    0.002591
  25 C :   -0.136736
  26 H :    0.031984
  27 H :    0.030962
  28 C :   -0.034676
  29 H :    0.032041
  30 H :    0.038337
  31 H :    0.032948
  32 H :    0.035759
  33 H :    0.075306
Sum of atomic charges:    0.0000000

LOEWDIN ATOMIC CHARGES
----------------------
   0 S :    0.373227
   1 C :   -0.164762
   2 C :   -0.055091
   3 C :   -0.058419
   4 C :   -0.199927
   5 H :    0.022633
   6 C :   -0.026075
   7 H :    0.030615
   8 H :    0.028279
   9 C :   -0.043681
  10 H :    0.023394
  11 H :    0.029299
  12 C :   -0.072019
  13 H :    0.016609
  14 H :    0.032005
  15 H :    0.029678
  16 S :    0.384343
  17 C :   -0.181617
  18 C :   -0.065488
  19 C :   -0.045599
  20 C :   -0.194139
  21 H :    0.027399
  22 C :   -0.028996
  23 H :    0.038301
  24 H :    0.023981
  25 C :   -0.043898
  26 H :    0.026430
  27 H :    0.022574
  28 C :   -0.068435
  29 H :    0.022691
  30 H :    0.025086
  31 H :    0.027189
  32 H :    0.020054
  33 H :    0.044362

  Mayer bond orders larger than 0.100000
B(  0-S ,  1-C ) :   1.1074 B(  0-S ,  4-C ) :   1.1230 B(  1-C ,  2-C ) :   1.6781
B(  1-C , 32-H ) :   0.9619 B(  2-C ,  3-C ) :   1.2048 B(  2-C ,  6-C ) :   1.0135
B(  3-C ,  4-C ) :   1.6145 B(  3-C ,  5-H ) :   0.9807 B(  4-C , 20-C ) :   1.0664
B(  6-C ,  7-H ) :   0.9448 B(  6-C ,  8-H ) :   0.9409 B(  6-C ,  9-C ) :   1.0711
B(  9-C , 10-H ) :   0.9576 B(  9-C , 11-H ) :   0.9581 B(  9-C , 12-C ) :   1.0723
B( 12-C , 13-H ) :   0.9725 B( 12-C , 14-H ) :   0.9721 B( 12-C , 15-H ) :   0.9680
B( 16-S , 17-C ) :   1.1169 B( 16-S , 20-C ) :   1.1288 B( 17-C , 18-C ) :   1.6634
B( 17-C , 33-H ) :   0.9548 B( 18-C , 19-C ) :   1.2080 B( 18-C , 21-H ) :   0.9865
B( 19-C , 20-C ) :   1.6087 B( 19-C , 22-C ) :   1.0349 B( 22-C , 23-H ) :   0.9306
B( 22-C , 24-H ) :   0.9324 B( 22-C , 25-C ) :   1.0739 B( 25-C , 26-H ) :   0.9544
B( 25-C , 27-H ) :   0.9544 B( 25-C , 28-C ) :   1.0759 B( 28-C , 29-H ) :   0.9673
B( 28-C , 30-H ) :   0.9687 B( 28-C , 31-H ) :   0.9667

Dispersion correction           -0.016667156
FINAL SINGLE POINT ENERGY     -1339.865056300878

DIPOLE MOMENT
-------------
                                X             Y             Z
Electronic contribution:      7.56929      18.66933      22.67542
Nuclear contribution   :     -7.70329     -19.03419     -23.31433
                        -----------------------------------------
Total Dipole Moment    :     -0.13400      -0.36486      -0.63891
                        -----------------------------------------
Magnitude (a.u.)       :      0.74786
Magnitude (Debye)      :      1.90090

Rotational constants in cm-1:     0.018550     0.010949     0.007553
Rotational constants in MHz :   556.104180   328.229013   226.437104

                             ****ORCA TERMINATED NORMALLY****
TOTAL RUN TIME: 0 days 0 hours 0 minutes 37 seconds 268 msec
