                         Program Version 4.2.1 -  RELEASE  -
|  1> ! wB97X-D3 SP def2-SVP
|  2> %pal
|  3> nprocs 16
|  4> end
|  5>
|  6> * xyz 0 1
|  7> S 	 12.6917 	 -0.49866 	 65.9895
|  8> C 	 11.9792 	 0.242433 	 64.539
|  9> C 	 12.9556 	 0.607802 	 63.5892
| 10> C 	 14.2414 	 0.153034 	 64.0415
| 11> C 	 14.2627 	 -0.414931 	 65.2746
| 12> H 	 15.1962 	 0.150233 	 63.3809
| 13> C 	 12.7284 	 1.26891 	 62.277
| 14> H 	 12.1945 	 0.589541 	 61.7138
| 15> H 	 13.7369 	 1.36702 	 61.8384
| 16> C 	 12.0663 	 2.66421 	 62.2755
| 17> H 	 11.6914 	 3.03098 	 61.3354
| 18> H 	 11.2241 	 2.74075 	 62.9763
| 19> C 	 13.1263 	 3.68415 	 62.8761
| 20> H 	 13.8881 	 3.92129 	 62.1364
| 21> H 	 12.6333 	 4.65302 	 63.0846
| 22> H 	 13.5664 	 3.28845 	 63.7666
| 23> S 	 15.5333 	 -2.62735 	 66.487
| 24> C 	 17.0482 	 -2.35774 	 67.2679
| 25> C 	 17.4625 	 -0.998767 	 67.1066
| 26> C 	 16.5737 	 -0.209693 	 66.3969
| 27> C 	 15.4402 	 -0.898137 	 65.9928
| 28> H 	 18.3738 	 -0.632478 	 67.5469
| 29> C 	 16.7997 	 1.24427 	 66.133
| 30> H 	 16.7737 	 1.57112 	 65.0736
| 31> H 	 17.8162 	 1.50992 	 66.3311
| 32> C 	 15.9725 	 2.14121 	 67.1451
| 33> H 	 14.9266 	 2.01729 	 67.0551
| 34> H 	 16.2793 	 3.16616 	 66.826
| 35> C 	 16.2681 	 1.93509 	 68.6687
| 36> H 	 15.4761 	 2.40668 	 69.4157
| 37> H 	 17.1309 	 2.47821 	 68.9091
| 38> H 	 16.2679 	 0.866648 	 68.8708
| 39> H 	 10.894 	 0.345126 	 64.395
| 40> H 	 17.6332 	 -2.97091 	 67.9236
| 41> *
| 42>
| 43>                          ****END OF INPUT****

CARTESIAN COORDINATES (ANGSTROEM)
---------------------------------
  S     12.691700   -0.498660   65.989500
  C     11.979200    0.242433   64.539000
  C     12.955600    0.607802   63.589200
  C     14.241400    0.153034   64.041500
  C     14.262700   -0.414931   65.274600
  H     15.196200    0.150233   63.380900
  C     12.728400    1.268910   62.277000
  H     12.194500    0.589541   61.713800
  H     13.736900    1.367020   61.838400
  C     12.066300    2.664210   62.275500
  H     11.691400    3.030980   61.335400
  H     11.224100    2.740750   62.976300
  C     13.126300    3.684150   62.876100
  H     13.888100    3.921290   62.136400
  H     12.633300    4.653020   63.084600
  H     13.566400    3.288450   63.766600
  S     15.533300   -2.627350   66.487000
  C     17.048200   -2.357740   67.267900
  C     17.462500   -0.998767   67.106600
  C     16.573700   -0.209693   66.396900
  C     15.440200   -0.898137   65.992800
  H     18.373800   -0.632478   67.546900
  C     16.799700    1.244270   66.133000
  H     16.773700    1.571120   65.073600
  H     17.816200    1.509920   66.331100
  C     15.972500    2.141210   67.145100
  H     14.926600    2.017290   67.055100
  H     16.279300    3.166160   66.826000
  C     16.268100    1.935090   68.668700
  H     15.476100    2.406680   69.415700
  H     17.130900    2.478210   68.909100
  H     16.267900    0.866648   68.870800
  H     10.894000    0.345126   64.395000
  H     17.633200   -2.970910   67.923600

 Total Charge           Charge          ....    0
 Multiplicity           Mult            ....    1
 Number of Electrons    NEL             ....  134
 Basis Dimension        Dim             ....  322

ORBITAL ENERGIES
----------------

  NO   OCC          E(Eh)            E(eV)
   0   2.0000     -88.971354     -2421.0336
   1   2.0000     -88.968092     -2420.9449
   2   2.0000     -10.325947      -280.9833
   3   2.0000     -10.324181      -280.9352
   4   2.0000     -10.319997      -280.8214
   5   2.0000     -10.319419      -280.8057
   6   2.0000     -10.305408      -280.4244
   7   2.0000     -10.298669      -280.2410
   8   2.0000     -10.298092      -280.2253
   9   2.0000     -10.292110      -280.0626
  10   2.0000     -10.291503      -280.0460
  11   2.0000     -10.291269      -280.0397
  12   2.0000     -10.289338      -279.9871
  13   2.0000     -10.286108      -279.8992
  14   2.0000     -10.279429      -279.7175
  15   2.0000     -10.275986      -279.6238
  16   2.0000      -8.085117      -220.0072
  17   2.0000      -8.082634      -219.9397
  18   2.0000      -6.043514      -164.4524
  19   2.0000      -6.041144      -164.3879
  20   2.0000      -6.039659      -164.3475
  21   2.0000      -6.037160      -164.2795
  22   2.0000      -6.036171      -164.2526
  23   2.0000      -6.033405      -164.1773
  24   2.0000      -1.005302       -27.3556
  25   2.0000      -0.982687       -26.7403
  26   2.0000      -0.913529       -24.8584
  27   2.0000      -0.903759       -24.5925
  28   2.0000      -0.860972       -23.4282
  29   2.0000      -0.847827       -23.0705
  30   2.0000      -0.843383       -22.9496
  31   2.0000      -0.807497       -21.9731
  32   2.0000      -0.784557       -21.3489
  33   2.0000      -0.771430       -20.9917
  34   2.0000      -0.709944       -19.3186
  35   2.0000      -0.703326       -19.1385
  36   2.0000      -0.685834       -18.6625
  37   2.0000      -0.661965       -18.0130
  38   2.0000      -0.637694       -17.3525
  39   2.0000      -0.612359       -16.6631
  40   2.0000      -0.598392       -16.2831
  41   2.0000      -0.570620       -15.5274
  42   2.0000      -0.560867       -15.2620
  43   2.0000      -0.546213       -14.8632
  44   2.0000      -0.543742       -14.7960
  45   2.0000      -0.532540       -14.4911
  46   2.0000      -0.513553       -13.9745
  47   2.0000      -0.505043       -13.7429
  48   2.0000      -0.498428       -13.5629
  49   2.0000      -0.490610       -13.3502
  50   2.0000      -0.489465       -13.3190
  51   2.0000      -0.472680       -12.8623
  52   2.0000      -0.470677       -12.8078
  53   2.0000      -0.460655       -12.5351
  54   2.0000      -0.459637       -12.5074
  55   2.0000      -0.447545       -12.1783
  56   2.0000      -0.441129       -12.0037
  57   2.0000      -0.438388       -11.9291
  58   2.0000      -0.436397       -11.8750
  59   2.0000      -0.429175       -11.6785
  60   2.0000      -0.419787       -11.4230
  61   2.0000      -0.419380       -11.4119
  62   2.0000      -0.402687       -10.9577
  63   2.0000      -0.337944        -9.1959
  64   2.0000      -0.335489        -9.1291
  65   2.0000      -0.327455        -8.9105
  66   2.0000      -0.295045        -8.0286
  67   0.0000       0.028089         0.7643
  68   0.0000       0.062409         1.6982
  69   0.0000       0.111563         3.0358
  70   0.0000       0.119356         3.2478
  71   0.0000       0.127585         3.4718

MULLIKEN ATOMIC CHARGES
-----------------------
   0 S :    0.118950
   1 C :   -0.139558
   2 C :   -0.122380
   3 C :    0.010509
   4 C :   -0.161351
   5 H :    0.048990
   6 C :    0.112547
   7 H :    0.024466
   8 H :    0.019226
   9 C :   -0.060418
  10 H :    0.028893
  11 H :    0.030328
  12 C :   -0.080717
  13 H :    0.028746
  14 H :    0.032490
  15 H :    0.044094
  16 S :    0.128280
  17 C :   -0.077925
  18 C :   -0.059312
  19 C :    0.000141
  20 C :   -0.198154
  21 H :    0.010834
  22 C :    0.088046
  23 H :    0.037116
  24 H :   -0.004324
  25 C :   -0.070884
  26 H :    0.037874
  27 H :    0.028892
  28 C :   -0.085309
  29 H :    0.045298
  30 H :    0.022742
  31 H :    0.053039
  32 H :    0.058312
  33 H :    0.050517
Sum of atomic charges:   -0.0000000

LOEWDIN ATOMIC CHARGES
----------------------
   0 S :    0.407787
   1 C :   -0.193409
   2 C :   -0.060028
   3 C :   -0.072990
   4 C :   -0.208654
   5 H :    0.047695
   6 C :   -0.028300
   7 H :    0.024786
   8 H :    0.034472
   9 C :   -0.032247
  10 H :    0.021402
  11 H :    0.023644
  12 C :   -0.063082
  13 H :    0.020839
  14 H :    0.026114
  15 H :    0.022696
  16 S :    0.411211
  17 C :   -0.196377
  18 C :   -0.071377
  19 C :   -0.058652
  20 C :   -0.192321
  21 H :    0.027527
  22 C :   -0.032367
  23 H :    0.036968
  24 H :    0.024323
  25 C :   -0.029305
  26 H :    0.015902
  27 H :    0.024936
  28 C :   -0.071359
  29 H :    0.040996
  30 H :    0.013397
  31 H :    0.027020
  32 H :    0.029722
  33 H :    0.029030

  Mayer bond orders larger than 0.100000
B(  0-S ,  1-C ) :   1.1387 B(  0-S ,  4-C ) :   1.1509 B(  1-C ,  2-C ) :   1.5961
B(  1-C , 32-H ) :   0.9678 B(  2-C ,  3-C ) :   1.2426 B(  2-C ,  6-C ) :   1.0126
B(  3-C ,  4-C ) :   1.6050 B(  3-C ,  5-H ) :   0.9715 B(  4-C , 20-C ) :   1.0283
B(  6-C ,  7-H ) :   0.9293 B(  6-C ,  8-H ) :   0.9425 B(  6-C ,  9-C ) :   1.0638
B(  9-C , 10-H ) :   0.9599 B(  9-C , 11-H ) :   0.9634 B(  9-C , 12-C ) :   1.0626
B( 12-C , 13-H ) :   0.9776 B( 12-C , 14-H ) :   0.9767 B( 12-C , 15-H ) :   0.9808
B( 16-S , 17-C ) :   1.1770 B( 16-S , 20-C ) :   1.1464 B( 17-C , 18-C ) :   1.5587
B( 17-C , 20-C ) :   0.1164 B( 17-C , 33-H ) :   0.9672 B( 18-C , 19-C ) :   1.2964
B( 18-C , 21-H ) :   0.9851 B( 19-C , 20-C ) :   1.5519 B( 19-C , 22-C ) :   1.0467
B( 22-C , 23-H ) :   0.9367 B( 22-C , 24-H ) :   0.9268 B( 22-C , 25-C ) :   1.0472
B( 25-C , 26-H ) :   0.9672 B( 25-C , 27-H ) :   0.9622 B( 25-C , 28-C ) :   1.0609
B( 28-C , 29-H ) :   0.9756 B( 28-C , 30-H ) :   0.9792 B( 28-C , 31-H ) :   0.9739

Dispersion correction           -0.015551204
FINAL SINGLE POINT ENERGY     -1339.869782047264

DIPOLE MOMENT
-------------
                                X             Y             Z
Electronic contribution:     -2.44168     -25.58669       5.76487
Nuclear contribution   :      2.61746      26.05847      -6.05532
                        -----------------------------------------
Total Dipole Moment    :      0.17578       0.47179      -0.29045
                        -----------------------------------------
Magnitude (a.u.)       :      0.58124
Magnitude (Debye)      :      1.47741

Rotational constants in cm-1:     0.021185     0.008889     0.007412
Rotational constants in MHz :   635.118967   266.496151   222.201554

                             ****ORCA TERMINATED NORMALLY****
TOTAL RUN TIME: 0 days 0 hours 0 minutes 35 seconds 819 msec
