                         Program Version 4.2.1 -  RELEASE  -
|  1> ! wB97X-D3 SP def2-SVP
|  2> %pal
|  3> nprocs 16
|  4> end
|  5>
|  6> * xyz 0 1
|  7> S 	 -0.641166 	 -14.1779 	 71.6369
|  8> C 	 -1.82941 	 -15.3595 	 72.0949
|  9> C 	 -3.05847 	 -14.998 	 71.5974
| 10> C 	 -2.94885 	 -13.9894 	 70.6242
| 11> C 	 -1.68142 	 -13.4383 	 70.4592
| 12> H 	 -3.78247 	 -13.654 	 70.0745
| 13> C 	 -4.2842 	 -15.8392 	 71.8621
| 14> H 	 -4.10895 	 -16.3326 	 72.7545
| 15> H 	 -4.24731 	 -16.5959 	 71.172
| 16> C 	 -5.59053 	 -15.0628 	 71.9093
| 17> H 	 -5.55117 	 -14.4185 	 72.826
| 18> H 	 -5.71784 	 -14.3346 	 71.0828
| 19> C 	 -6.79143 	 -16.0396 	 72.1144
| 20> H 	 -7.71941 	 -15.5501 	 72.2899
| 21> H 	 -6.81575 	 -16.6466 	 71.2342
| 22> H 	 -6.70182 	 -16.7682 	 72.9085
| 23> S 	 -1.20184 	 -10.9134 	 70.8144
| 24> C 	 -1.1513 	 -9.79087 	 69.5111
| 25> C 	 -1.35113 	 -10.4104 	 68.2808
| 26> C 	 -1.56825 	 -11.8072 	 68.4475
| 27> C 	 -1.3666 	 -12.2302 	 69.7334
| 28> H 	 -1.49935 	 -9.75406 	 67.3822
| 29> C 	 -2.13048 	 -12.7577 	 67.3264
| 30> H 	 -3.18729 	 -12.5173 	 67.2582
| 31> H 	 -2.24033 	 -13.794 	 67.748
| 32> C 	 -1.2493 	 -12.7058 	 66.0486
| 33> H 	 -0.312976 	 -13.223 	 66.2885
| 34> H 	 -1.00573 	 -11.7226 	 65.6716
| 35> C 	 -2.01233 	 -13.4445 	 64.9501
| 36> H 	 -2.96869 	 -12.9121 	 64.8651
| 37> H 	 -2.09364 	 -14.5017 	 65.2354
| 38> H 	 -1.39167 	 -13.2972 	 64.046
| 39> H 	 -1.5949 	 -16.1022 	 72.8492
| 40> H 	 -1.10351 	 -8.67926 	 69.5662
| 41> *
| 42>
| 43>                          ****END OF INPUT****

CARTESIAN COORDINATES (ANGSTROEM)
---------------------------------
  S     -0.641166  -14.177900   71.636900
  C     -1.829410  -15.359500   72.094900
  C     -3.058470  -14.998000   71.597400
  C     -2.948850  -13.989400   70.624200
  C     -1.681420  -13.438300   70.459200
  H     -3.782470  -13.654000   70.074500
  C     -4.284200  -15.839200   71.862100
  H     -4.108950  -16.332600   72.754500
  H     -4.247310  -16.595900   71.172000
  C     -5.590530  -15.062800   71.909300
  H     -5.551170  -14.418500   72.826000
  H     -5.717840  -14.334600   71.082800
  C     -6.791430  -16.039600   72.114400
  H     -7.719410  -15.550100   72.289900
  H     -6.815750  -16.646600   71.234200
  H     -6.701820  -16.768200   72.908500
  S     -1.201840  -10.913400   70.814400
  C     -1.151300   -9.790870   69.511100
  C     -1.351130  -10.410400   68.280800
  C     -1.568250  -11.807200   68.447500
  C     -1.366600  -12.230200   69.733400
  H     -1.499350   -9.754060   67.382200
  C     -2.130480  -12.757700   67.326400
  H     -3.187290  -12.517300   67.258200
  H     -2.240330  -13.794000   67.748000
  C     -1.249300  -12.705800   66.048600
  H     -0.312976  -13.223000   66.288500
  H     -1.005730  -11.722600   65.671600
  C     -2.012330  -13.444500   64.950100
  H     -2.968690  -12.912100   64.865100
  H     -2.093640  -14.501700   65.235400
  H     -1.391670  -13.297200   64.046000
  H     -1.594900  -16.102200   72.849200
  H     -1.103510   -8.679260   69.566200

 Total Charge           Charge          ....    0
 Multiplicity           Mult            ....    1
 Number of Electrons    NEL             ....  134
 Basis Dimension        Dim             ....  322

ORBITAL ENERGIES
----------------

  NO   OCC          E(Eh)            E(eV)
   0   2.0000     -88.962293     -2420.7871
   1   2.0000     -88.962143     -2420.7830
   2   2.0000     -10.325915      -280.9824
   3   2.0000     -10.316022      -280.7132
   4   2.0000     -10.315978      -280.7120
   5   2.0000     -10.310121      -280.5527
   6   2.0000     -10.302185      -280.3367
   7   2.0000     -10.296404      -280.1794
   8   2.0000     -10.296100      -280.1711
   9   2.0000     -10.294989      -280.1409
  10   2.0000     -10.294349      -280.1235
  11   2.0000     -10.287137      -279.9272
  12   2.0000     -10.284929      -279.8672
  13   2.0000     -10.278751      -279.6990
  14   2.0000     -10.278169      -279.6832
  15   2.0000     -10.275515      -279.6110
  16   2.0000      -8.078203      -219.8191
  17   2.0000      -8.077610      -219.8029
  18   2.0000      -6.036664      -164.2660
  19   2.0000      -6.035960      -164.2468
  20   2.0000      -6.032450      -164.1513
  21   2.0000      -6.031943      -164.1375
  22   2.0000      -6.028985      -164.0570
  23   2.0000      -6.028590      -164.0463
  24   2.0000      -1.014751       -27.6128
  25   2.0000      -0.989787       -26.9335
  26   2.0000      -0.916241       -24.9322
  27   2.0000      -0.905229       -24.6325
  28   2.0000      -0.872402       -23.7393
  29   2.0000      -0.850767       -23.1505
  30   2.0000      -0.845819       -23.0159
  31   2.0000      -0.815236       -22.1837
  32   2.0000      -0.782355       -21.2890
  33   2.0000      -0.767335       -20.8802
  34   2.0000      -0.715214       -19.4620
  35   2.0000      -0.696204       -18.9447
  36   2.0000      -0.691308       -18.8115
  37   2.0000      -0.655953       -17.8494
  38   2.0000      -0.643756       -17.5175
  39   2.0000      -0.625497       -17.0206
  40   2.0000      -0.590612       -16.0714
  41   2.0000      -0.570333       -15.5196
  42   2.0000      -0.564556       -15.3623
  43   2.0000      -0.563085       -15.3223
  44   2.0000      -0.533870       -14.5274
  45   2.0000      -0.527157       -14.3447
  46   2.0000      -0.515713       -14.0333
  47   2.0000      -0.508961       -13.8495
  48   2.0000      -0.506561       -13.7842
  49   2.0000      -0.501755       -13.6535
  50   2.0000      -0.491057       -13.3623
  51   2.0000      -0.476013       -12.9530
  52   2.0000      -0.473145       -12.8749
  53   2.0000      -0.464969       -12.6525
  54   2.0000      -0.458506       -12.4766
  55   2.0000      -0.451034       -12.2733
  56   2.0000      -0.446083       -12.1385
  57   2.0000      -0.442705       -12.0466
  58   2.0000      -0.441360       -12.0100
  59   2.0000      -0.425178       -11.5697
  60   2.0000      -0.420160       -11.4331
  61   2.0000      -0.410513       -11.1706
  62   2.0000      -0.405090       -11.0231
  63   2.0000      -0.343493        -9.3469
  64   2.0000      -0.327693        -8.9170
  65   2.0000      -0.325031        -8.8445
  66   2.0000      -0.296259        -8.0616
  67   0.0000       0.039760         1.0819
  68   0.0000       0.063513         1.7283
  69   0.0000       0.117484         3.1969
  70   0.0000       0.127797         3.4775
  71   0.0000       0.136669         3.7190

MULLIKEN ATOMIC CHARGES
-----------------------
   0 S :    0.109502
   1 C :   -0.134810
   2 C :   -0.088809
   3 C :    0.049177
   4 C :   -0.163253
   5 H :   -0.013357
   6 C :    0.143604
   7 H :   -0.008988
   8 H :    0.015874
   9 C :   -0.120594
  10 H :    0.035376
  11 H :    0.042477
  12 C :   -0.011559
  13 H :    0.030656
  14 H :    0.018927
  15 H :    0.020958
  16 S :    0.118115
  17 C :   -0.104789
  18 C :   -0.065851
  19 C :   -0.046058
  20 C :   -0.140508
  21 H :    0.039782
  22 C :    0.034738
  23 H :    0.031364
  24 H :    0.031144
  25 C :   -0.086081
  26 H :    0.039941
  27 H :    0.031904
  28 C :   -0.039846
  29 H :    0.034409
  30 H :    0.040359
  31 H :    0.037381
  32 H :    0.053350
  33 H :    0.065467
Sum of atomic charges:    0.0000000

LOEWDIN ATOMIC CHARGES
----------------------
   0 S :    0.418421
   1 C :   -0.199599
   2 C :   -0.061664
   3 C :   -0.060830
   4 C :   -0.208257
   5 H :    0.019120
   6 C :   -0.020301
   7 H :    0.023094
   8 H :    0.022411
   9 C :   -0.039453
  10 H :    0.029934
  11 H :    0.025592
  12 C :   -0.060200
  13 H :    0.022242
  14 H :    0.021563
  15 H :    0.024872
  16 S :    0.440411
  17 C :   -0.201714
  18 C :   -0.084922
  19 C :   -0.055609
  20 C :   -0.218555
  21 H :    0.041326
  22 C :   -0.032715
  23 H :    0.027630
  24 H :    0.035342
  25 C :   -0.038451
  26 H :    0.029464
  27 H :    0.019984
  28 C :   -0.064420
  29 H :    0.025946
  30 H :    0.026984
  31 H :    0.027592
  32 H :    0.027551
  33 H :    0.037211

  Mayer bond orders larger than 0.100000
B(  0-S ,  1-C ) :   1.1565 B(  0-S ,  4-C ) :   1.1706 B(  1-C ,  2-C ) :   1.5681
B(  1-C ,  4-C ) :   0.1067 B(  1-C , 32-H ) :   0.9731 B(  2-C ,  3-C ) :   1.2805
B(  2-C ,  6-C ) :   1.0165 B(  3-C ,  4-C ) :   1.5277 B(  3-C ,  5-H ) :   1.0026
B(  4-C , 20-C ) :   1.0139 B(  6-C ,  7-H ) :   0.9269 B(  6-C ,  8-H ) :   0.9399
B(  6-C ,  9-C ) :   1.0518 B(  9-C , 10-H ) :   0.9581 B(  9-C , 11-H ) :   0.9605
B(  9-C , 12-C ) :   1.0759 B( 12-C , 13-H ) :   0.9757 B( 12-C , 14-H ) :   0.9764
B( 12-C , 15-H ) :   0.9743 B( 16-S , 17-C ) :   1.1755 B( 16-S , 20-C ) :   1.1568
B( 17-C , 18-C ) :   1.6095 B( 17-C , 33-H ) :   0.9605 B( 18-C , 19-C ) :   1.2402
B( 18-C , 21-H ) :   0.9835 B( 19-C , 20-C ) :   1.6183 B( 19-C , 22-C ) :   1.0220
B( 22-C , 23-H ) :   0.9431 B( 22-C , 24-H ) :   0.9362 B( 22-C , 25-C ) :   1.0472
B( 25-C , 26-H ) :   0.9535 B( 25-C , 27-H ) :   0.9645 B( 25-C , 28-C ) :   1.0799
B( 28-C , 29-H ) :   0.9780 B( 28-C , 30-H ) :   0.9741 B( 28-C , 31-H ) :   0.9748

Dispersion correction           -0.013426044
FINAL SINGLE POINT ENERGY     -1339.864995184433

DIPOLE MOMENT
-------------
                                X             Y             Z
Electronic contribution:     19.44093      11.72270      13.89261
Nuclear contribution   :    -20.10259     -11.86984     -14.12021
                        -----------------------------------------
Total Dipole Moment    :     -0.66166      -0.14714      -0.22760
                        -----------------------------------------
Magnitude (a.u.)       :      0.71502
Magnitude (Debye)      :      1.81743

Rotational constants in cm-1:     0.016804     0.008064     0.006741
Rotational constants in MHz :   503.776211   241.759684   202.079163

                             ****ORCA TERMINATED NORMALLY****
TOTAL RUN TIME: 0 days 0 hours 0 minutes 33 seconds 951 msec
