                         Program Version 4.2.1 -  RELEASE  -
|  1> ! wB97X-D3 SP def2-SVP
|  2> %pal
|  3> nprocs 16
|  4> end
|  5>
|  6> * xyz 0 1
|  7> S 	 1.60453 	 -8.73228 	 91.6881
|  8> C 	 1.96435 	 -9.13546 	 93.2873
|  9> C 	 1.0528 	 -10.0512 	 93.8124
| 10> C 	 0.0281199 	 -10.3703 	 92.8798
| 11> C 	 0.206181 	 -9.81685 	 91.6561
| 12> H 	 -0.884924 	 -10.9022 	 93.0563
| 13> C 	 0.887316 	 -10.4072 	 95.27
| 14> H 	 -0.0806233 	 -10.3727 	 95.6211
| 15> H 	 1.57576 	 -9.65286 	 95.7961
| 16> C 	 1.41027 	 -11.8536 	 95.558
| 17> H 	 0.995082 	 -12.5885 	 94.8071
| 18> H 	 2.46274 	 -11.9741 	 95.3756
| 19> C 	 1.16691 	 -12.3003 	 96.9536
| 20> H 	 0.0535289 	 -12.1174 	 97.198
| 21> H 	 1.61582 	 -13.2779 	 97.1971
| 22> H 	 1.65948 	 -11.5737 	 97.6133
| 23> S 	 -1.13479 	 -8.49513 	 89.6913
| 24> C 	 -2.16707 	 -9.31444 	 88.5778
| 25> C 	 -2.25292 	 -10.6062 	 88.8971
| 26> C 	 -1.43074 	 -11.0314 	 90.0092
| 27> C 	 -0.692874 	 -9.9344 	 90.535
| 28> H 	 -2.94662 	 -11.2919 	 88.34
| 29> C 	 -1.32245 	 -12.5008 	 90.4035
| 30> H 	 -2.29506 	 -12.9424 	 90.5082
| 31> H 	 -0.979084 	 -12.5239 	 91.4651
| 32> C 	 -0.317639 	 -13.3851 	 89.5313
| 33> H 	 0.667471 	 -12.9864 	 89.4561
| 34> H 	 -0.702858 	 -13.2767 	 88.5069
| 35> C 	 -0.322894 	 -14.8394 	 89.952
| 36> H 	 -0.420947 	 -14.8995 	 91.0289
| 37> H 	 0.646122 	 -15.3228 	 89.744
| 38> H 	 -1.09811 	 -15.4254 	 89.4844
| 39> H 	 2.81575 	 -8.7241 	 93.7862
| 40> H 	 -2.72202 	 -8.74261 	 87.9047
| 41> *
| 42>
| 43>                          ****END OF INPUT****

CARTESIAN COORDINATES (ANGSTROEM)
---------------------------------
  S      1.604530   -8.732280   91.688100
  C      1.964350   -9.135460   93.287300
  C      1.052800  -10.051200   93.812400
  C      0.028120  -10.370300   92.879800
  C      0.206181   -9.816850   91.656100
  H     -0.884924  -10.902200   93.056300
  C      0.887316  -10.407200   95.270000
  H     -0.080623  -10.372700   95.621100
  H      1.575760   -9.652860   95.796100
  C      1.410270  -11.853600   95.558000
  H      0.995082  -12.588500   94.807100
  H      2.462740  -11.974100   95.375600
  C      1.166910  -12.300300   96.953600
  H      0.053529  -12.117400   97.198000
  H      1.615820  -13.277900   97.197100
  H      1.659480  -11.573700   97.613300
  S     -1.134790   -8.495130   89.691300
  C     -2.167070   -9.314440   88.577800
  C     -2.252920  -10.606200   88.897100
  C     -1.430740  -11.031400   90.009200
  C     -0.692874   -9.934400   90.535000
  H     -2.946620  -11.291900   88.340000
  C     -1.322450  -12.500800   90.403500
  H     -2.295060  -12.942400   90.508200
  H     -0.979084  -12.523900   91.465100
  C     -0.317639  -13.385100   89.531300
  H      0.667471  -12.986400   89.456100
  H     -0.702858  -13.276700   88.506900
  C     -0.322894  -14.839400   89.952000
  H     -0.420947  -14.899500   91.028900
  H      0.646122  -15.322800   89.744000
  H     -1.098110  -15.425400   89.484400
  H      2.815750   -8.724100   93.786200
  H     -2.722020   -8.742610   87.904700

 Total Charge           Charge          ....    0
 Multiplicity           Mult            ....    1
 Number of Electrons    NEL             ....  134
 Basis Dimension        Dim             ....  322

ORBITAL ENERGIES
----------------

  NO   OCC          E(Eh)            E(eV)
   0   2.0000     -88.966259     -2420.8950
   1   2.0000     -88.960174     -2420.7294
   2   2.0000     -10.327991      -281.0389
   3   2.0000     -10.325294      -280.9655
   4   2.0000     -10.312822      -280.6262
   5   2.0000     -10.307805      -280.4896
   6   2.0000     -10.307370      -280.4778
   7   2.0000     -10.300342      -280.2865
   8   2.0000     -10.295036      -280.1422
   9   2.0000     -10.294643      -280.1315
  10   2.0000     -10.294337      -280.1231
  11   2.0000     -10.288384      -279.9612
  12   2.0000     -10.285151      -279.8732
  13   2.0000     -10.283803      -279.8365
  14   2.0000     -10.282928      -279.8127
  15   2.0000     -10.275095      -279.5995
  16   2.0000      -8.081905      -219.9198
  17   2.0000      -8.076325      -219.7680
  18   2.0000      -6.040289      -164.3646
  19   2.0000      -6.036223      -164.2540
  20   2.0000      -6.034779      -164.2147
  21   2.0000      -6.032813      -164.1612
  22   2.0000      -6.030478      -164.0977
  23   2.0000      -6.027225      -164.0091
  24   2.0000      -1.013042       -27.5663
  25   2.0000      -0.991248       -26.9732
  26   2.0000      -0.913180       -24.8489
  27   2.0000      -0.901400       -24.5283
  28   2.0000      -0.878248       -23.8983
  29   2.0000      -0.856962       -23.3191
  30   2.0000      -0.847498       -23.0616
  31   2.0000      -0.819977       -22.3127
  32   2.0000      -0.778112       -21.1735
  33   2.0000      -0.766705       -20.8631
  34   2.0000      -0.706919       -19.2362
  35   2.0000      -0.699394       -19.0315
  36   2.0000      -0.693756       -18.8781
  37   2.0000      -0.664000       -18.0684
  38   2.0000      -0.646731       -17.5984
  39   2.0000      -0.621779       -16.9195
  40   2.0000      -0.600382       -16.3372
  41   2.0000      -0.578271       -15.7355
  42   2.0000      -0.557973       -15.1832
  43   2.0000      -0.552159       -15.0250
  44   2.0000      -0.530058       -14.4236
  45   2.0000      -0.523094       -14.2341
  46   2.0000      -0.519093       -14.1252
  47   2.0000      -0.515160       -14.0182
  48   2.0000      -0.510138       -13.8816
  49   2.0000      -0.503145       -13.6913
  50   2.0000      -0.491986       -13.3876
  51   2.0000      -0.486311       -13.2332
  52   2.0000      -0.470863       -12.8128
  53   2.0000      -0.465057       -12.6549
  54   2.0000      -0.455987       -12.4080
  55   2.0000      -0.452883       -12.3236
  56   2.0000      -0.441622       -12.0171
  57   2.0000      -0.437463       -11.9040
  58   2.0000      -0.434619       -11.8266
  59   2.0000      -0.424982       -11.5643
  60   2.0000      -0.419617       -11.4184
  61   2.0000      -0.410828       -11.1792
  62   2.0000      -0.407888       -11.0992
  63   2.0000      -0.360458        -9.8086
  64   2.0000      -0.332026        -9.0349
  65   2.0000      -0.326014        -8.8713
  66   2.0000      -0.287913        -7.8345
  67   0.0000       0.028416         0.7732
  68   0.0000       0.079182         2.1546
  69   0.0000       0.113942         3.1005
  70   0.0000       0.127766         3.4767
  71   0.0000       0.132275         3.5994

MULLIKEN ATOMIC CHARGES
-----------------------
   0 S :    0.119479
   1 C :   -0.117555
   2 C :   -0.061919
   3 C :    0.018788
   4 C :   -0.142733
   5 H :    0.016794
   6 C :    0.071676
   7 H :    0.011692
   8 H :    0.033875
   9 C :   -0.104620
  10 H :    0.029544
  11 H :    0.017027
  12 C :   -0.035771
  13 H :    0.032945
  14 H :    0.047721
  15 H :    0.017973
  16 S :    0.089563
  17 C :   -0.064863
  18 C :   -0.035170
  19 C :   -0.060159
  20 C :   -0.148506
  21 H :    0.033957
  22 C :    0.054745
  23 H :    0.021301
  24 H :    0.008568
  25 C :   -0.049382
  26 H :    0.030786
  27 H :    0.021505
  28 C :   -0.034697
  29 H :    0.023680
  30 H :    0.033994
  31 H :    0.035383
  32 H :    0.046082
  33 H :    0.038297
Sum of atomic charges:    0.0000000

LOEWDIN ATOMIC CHARGES
----------------------
   0 S :    0.423242
   1 C :   -0.208003
   2 C :   -0.065085
   3 C :   -0.056698
   4 C :   -0.192001
   5 H :    0.031056
   6 C :   -0.019637
   7 H :    0.017989
   8 H :    0.039692
   9 C :   -0.052120
  10 H :    0.024633
  11 H :    0.019898
  12 C :   -0.074733
  13 H :    0.031091
  14 H :    0.031127
  15 H :    0.023417
  16 S :    0.419096
  17 C :   -0.182500
  18 C :   -0.076317
  19 C :   -0.060904
  20 C :   -0.201770
  21 H :    0.039496
  22 C :   -0.036257
  23 H :    0.027317
  24 H :    0.027869
  25 C :   -0.034328
  26 H :    0.023965
  27 H :    0.024133
  28 C :   -0.066719
  29 H :    0.023291
  30 H :    0.031288
  31 H :    0.024921
  32 H :    0.025201
  33 H :    0.018349

  Mayer bond orders larger than 0.100000
B(  0-S ,  1-C ) :   1.1630 B(  0-S ,  4-C ) :   1.1437 B(  1-C ,  2-C ) :   1.5836
B(  1-C , 32-H ) :   0.9711 B(  2-C ,  3-C ) :   1.2451 B(  2-C ,  6-C ) :   1.0307
B(  3-C ,  4-C ) :   1.5867 B(  3-C ,  5-H ) :   0.9899 B(  4-C , 20-C ) :   1.0551
B(  6-C ,  7-H ) :   0.9505 B(  6-C ,  8-H ) :   0.9423 B(  6-C ,  9-C ) :   1.0452
B(  9-C , 10-H ) :   0.9576 B(  9-C , 11-H ) :   0.9511 B(  9-C , 12-C ) :   1.0910
B( 12-C , 13-H ) :   0.9709 B( 12-C , 14-H ) :   0.9707 B( 12-C , 15-H ) :   0.9668
B( 16-S , 17-C ) :   1.1494 B( 16-S , 20-C ) :   1.1661 B( 17-C , 18-C ) :   1.5983
B( 17-C , 33-H ) :   0.9811 B( 18-C , 19-C ) :   1.2496 B( 18-C , 21-H ) :   0.9837
B( 19-C , 20-C ) :   1.5588 B( 19-C , 22-C ) :   1.0573 B( 22-C , 23-H ) :   0.9363
B( 22-C , 24-H ) :   0.9256 B( 22-C , 25-C ) :   1.0482 B( 25-C , 26-H ) :   0.9608
B( 25-C , 27-H ) :   0.9589 B( 25-C , 28-C ) :   1.0755 B( 28-C , 29-H ) :   0.9749
B( 28-C , 30-H ) :   0.9744 B( 28-C , 31-H ) :   0.9763

Dispersion correction           -0.013486123
FINAL SINGLE POINT ENERGY     -1339.880671678216

DIPOLE MOMENT
-------------
                                X             Y             Z
Electronic contribution:     -0.89512      26.66812     -15.47310
Nuclear contribution   :      0.73437     -27.09931      15.74680
                        -----------------------------------------
Total Dipole Moment    :     -0.16075      -0.43119       0.27371
                        -----------------------------------------
Magnitude (a.u.)       :      0.53543
Magnitude (Debye)      :      1.36094

Rotational constants in cm-1:     0.016894     0.008751     0.006451
Rotational constants in MHz :   506.460727   262.342127   193.384127

                             ****ORCA TERMINATED NORMALLY****
TOTAL RUN TIME: 0 days 0 hours 0 minutes 33 seconds 276 msec
