                         Program Version 4.2.1 -  RELEASE  -
|  1> ! wB97X-D3 SP def2-SVP
|  2> %pal
|  3> nprocs 16
|  4> end
|  5>
|  6> * xyz 0 1
|  7> S 	 -1.71973 	 -23.4004 	 59.5208
|  8> C 	 -0.852709 	 -22.0261 	 60.1508
|  9> C 	 0.262869 	 -22.4026 	 60.8542
| 10> C 	 0.457327 	 -23.8437 	 60.791
| 11> C 	 -0.524403 	 -24.4913 	 60.0926
| 12> H 	 1.26047 	 -24.4735 	 61.3216
| 13> C 	 1.20024 	 -21.4469 	 61.5094
| 14> H 	 1.50426 	 -21.901 	 62.4973
| 15> H 	 0.66153 	 -20.4484 	 61.5936
| 16> C 	 2.58046 	 -21.1308 	 60.7946
| 17> H 	 3.04792 	 -20.304 	 61.3054
| 18> H 	 3.27937 	 -21.9662 	 61.0017
| 19> C 	 2.52426 	 -20.9408 	 59.3089
| 20> H 	 1.83615 	 -20.1785 	 59.0417
| 21> H 	 3.42939 	 -20.428 	 58.9497
| 22> H 	 2.32644 	 -21.7306 	 58.6761
| 23> S 	 -2.02972 	 -26.7961 	 60.1091
| 24> C 	 -1.43959 	 -28.2094 	 59.2224
| 25> C 	 -0.125712 	 -28.0084 	 58.9128
| 26> C 	 0.412211 	 -26.7 	 59.2082
| 27> C 	 -0.568163 	 -25.8983 	 59.7507
| 28> H 	 0.457038 	 -28.8614 	 58.5398
| 29> C 	 1.78157 	 -26.3086 	 58.7611
| 30> H 	 2.27537 	 -25.9591 	 59.6636
| 31> H 	 1.81345 	 -25.3952 	 58.249
| 32> C 	 2.60906 	 -27.3375 	 57.9998
| 33> H 	 2.04805 	 -27.7376 	 57.1632
| 34> H 	 2.73258 	 -28.1593 	 58.6781
| 35> C 	 4.03844 	 -26.8416 	 57.5608
| 36> H 	 4.59226 	 -26.5571 	 58.4755
| 37> H 	 3.8553 	 -26.0272 	 56.8613
| 38> H 	 4.71715 	 -27.6661 	 57.1624
| 39> H 	 -1.1917 	 -20.996 	 60.0656
| 40> H 	 -1.89404 	 -29.2491 	 59.2024
| 41> *
| 42>
| 43>                          ****END OF INPUT****

CARTESIAN COORDINATES (ANGSTROEM)
---------------------------------
  S     -1.719730  -23.400400   59.520800
  C     -0.852709  -22.026100   60.150800
  C      0.262869  -22.402600   60.854200
  C      0.457327  -23.843700   60.791000
  C     -0.524403  -24.491300   60.092600
  H      1.260470  -24.473500   61.321600
  C      1.200240  -21.446900   61.509400
  H      1.504260  -21.901000   62.497300
  H      0.661530  -20.448400   61.593600
  C      2.580460  -21.130800   60.794600
  H      3.047920  -20.304000   61.305400
  H      3.279370  -21.966200   61.001700
  C      2.524260  -20.940800   59.308900
  H      1.836150  -20.178500   59.041700
  H      3.429390  -20.428000   58.949700
  H      2.326440  -21.730600   58.676100
  S     -2.029720  -26.796100   60.109100
  C     -1.439590  -28.209400   59.222400
  C     -0.125712  -28.008400   58.912800
  C      0.412211  -26.700000   59.208200
  C     -0.568163  -25.898300   59.750700
  H      0.457038  -28.861400   58.539800
  C      1.781570  -26.308600   58.761100
  H      2.275370  -25.959100   59.663600
  H      1.813450  -25.395200   58.249000
  C      2.609060  -27.337500   57.999800
  H      2.048050  -27.737600   57.163200
  H      2.732580  -28.159300   58.678100
  C      4.038440  -26.841600   57.560800
  H      4.592260  -26.557100   58.475500
  H      3.855300  -26.027200   56.861300
  H      4.717150  -27.666100   57.162400
  H     -1.191700  -20.996000   60.065600
  H     -1.894040  -29.249100   59.202400

 Total Charge           Charge          ....    0
 Multiplicity           Mult            ....    1
 Number of Electrons    NEL             ....  134
 Basis Dimension        Dim             ....  322

ORBITAL ENERGIES
----------------

  NO   OCC          E(Eh)            E(eV)
   0   2.0000     -88.964648     -2420.8511
   1   2.0000     -88.963729     -2420.8261
   2   2.0000     -10.324633      -280.9476
   3   2.0000     -10.324432      -280.9421
   4   2.0000     -10.319997      -280.8214
   5   2.0000     -10.312701      -280.6229
   6   2.0000     -10.304162      -280.3905
   7   2.0000     -10.302129      -280.3352
   8   2.0000     -10.301930      -280.3298
   9   2.0000     -10.300567      -280.2927
  10   2.0000     -10.293018      -280.0873
  11   2.0000     -10.291112      -280.0354
  12   2.0000     -10.289664      -279.9960
  13   2.0000     -10.287559      -279.9387
  14   2.0000     -10.285715      -279.8885
  15   2.0000     -10.265717      -279.3444
  16   2.0000      -8.080286      -219.8758
  17   2.0000      -8.078191      -219.8187
  18   2.0000      -6.038781      -164.3236
  19   2.0000      -6.036845      -164.2709
  20   2.0000      -6.034672      -164.2118
  21   2.0000      -6.032776      -164.1602
  22   2.0000      -6.030982      -164.1114
  23   2.0000      -6.028769      -164.0511
  24   2.0000      -1.010811       -27.5056
  25   2.0000      -0.985803       -26.8251
  26   2.0000      -0.912298       -24.8249
  27   2.0000      -0.909529       -24.7495
  28   2.0000      -0.872109       -23.7313
  29   2.0000      -0.851011       -23.1572
  30   2.0000      -0.842993       -22.9390
  31   2.0000      -0.816355       -22.2141
  32   2.0000      -0.784488       -21.3470
  33   2.0000      -0.774533       -21.0761
  34   2.0000      -0.713249       -19.4085
  35   2.0000      -0.706097       -19.2139
  36   2.0000      -0.695944       -18.9376
  37   2.0000      -0.647564       -17.6211
  38   2.0000      -0.637129       -17.3372
  39   2.0000      -0.615822       -16.7574
  40   2.0000      -0.598345       -16.2818
  41   2.0000      -0.571845       -15.5607
  42   2.0000      -0.561617       -15.2824
  43   2.0000      -0.553178       -15.0527
  44   2.0000      -0.543142       -14.7796
  45   2.0000      -0.522715       -14.2238
  46   2.0000      -0.518632       -14.1127
  47   2.0000      -0.507499       -13.8098
  48   2.0000      -0.502977       -13.6867
  49   2.0000      -0.500630       -13.6228
  50   2.0000      -0.495060       -13.4713
  51   2.0000      -0.477235       -12.9862
  52   2.0000      -0.470197       -12.7947
  53   2.0000      -0.465252       -12.6602
  54   2.0000      -0.461070       -12.5464
  55   2.0000      -0.453376       -12.3370
  56   2.0000      -0.449109       -12.2209
  57   2.0000      -0.432547       -11.7702
  58   2.0000      -0.427294       -11.6273
  59   2.0000      -0.426175       -11.5968
  60   2.0000      -0.423180       -11.5153
  61   2.0000      -0.418657       -11.3922
  62   2.0000      -0.412684       -11.2297
  63   2.0000      -0.347951        -9.4682
  64   2.0000      -0.329638        -8.9699
  65   2.0000      -0.326873        -8.8947
  66   2.0000      -0.295478        -8.0404
  67   0.0000       0.032262         0.8779
  68   0.0000       0.073753         2.0069
  69   0.0000       0.109566         2.9814
  70   0.0000       0.122515         3.3338
  71   0.0000       0.128430         3.4948

MULLIKEN ATOMIC CHARGES
-----------------------
   0 S :    0.121121
   1 C :   -0.128637
   2 C :   -0.073757
   3 C :   -0.016142
   4 C :   -0.153704
   5 H :    0.047178
   6 C :    0.029892
   7 H :    0.041943
   8 H :    0.034894
   9 C :   -0.069013
  10 H :    0.029600
  11 H :    0.023129
  12 C :   -0.003372
  13 H :    0.001753
  14 H :    0.020159
  15 H :    0.029122
  16 S :    0.101654
  17 C :   -0.096193
  18 C :   -0.077268
  19 C :   -0.017279
  20 C :   -0.170379
  21 H :    0.028290
  22 C :    0.109601
  23 H :    0.004224
  24 H :    0.009908
  25 C :   -0.088088
  26 H :    0.037655
  27 H :    0.022271
  28 C :   -0.058149
  29 H :    0.034412
  30 H :    0.047632
  31 H :    0.049156
  32 H :    0.048553
  33 H :    0.079833
Sum of atomic charges:   -0.0000000

LOEWDIN ATOMIC CHARGES
----------------------
   0 S :    0.422504
   1 C :   -0.198621
   2 C :   -0.069488
   3 C :   -0.074962
   4 C :   -0.206956
   5 H :    0.045406
   6 C :   -0.037985
   7 H :    0.040185
   8 H :    0.036059
   9 C :   -0.040566
  10 H :    0.025568
  11 H :    0.023205
  12 C :   -0.066201
  13 H :    0.020386
  14 H :    0.032816
  15 H :    0.017857
  16 S :    0.392068
  17 C :   -0.195384
  18 C :   -0.077744
  19 C :   -0.050897
  20 C :   -0.197902
  21 H :    0.033620
  22 C :   -0.035945
  23 H :    0.033077
  24 H :    0.027167
  25 C :   -0.040205
  26 H :    0.022995
  27 H :    0.018524
  28 C :   -0.067549
  29 H :    0.027737
  30 H :    0.026688
  31 H :    0.036855
  32 H :    0.029529
  33 H :    0.048158

  Mayer bond orders larger than 0.100000
B(  0-S ,  1-C ) :   1.1331 B(  0-S ,  4-C ) :   1.1589 B(  1-C ,  2-C ) :   1.6194
B(  1-C , 32-H ) :   0.9660 B(  2-C ,  3-C ) :   1.2047 B(  2-C ,  6-C ) :   1.0482
B(  3-C ,  4-C ) :   1.5993 B(  3-C ,  5-H ) :   0.9807 B(  4-C , 20-C ) :   1.0291
B(  6-C ,  7-H ) :   0.9370 B(  6-C ,  8-H ) :   0.9410 B(  6-C ,  9-C ) :   1.0610
B(  9-C , 10-H ) :   0.9573 B(  9-C , 11-H ) :   0.9539 B(  9-C , 12-C ) :   1.0882
B( 12-C , 13-H ) :   0.9691 B( 12-C , 14-H ) :   0.9658 B( 12-C , 15-H ) :   0.9720
B( 16-S , 17-C ) :   1.1278 B( 16-S , 20-C ) :   1.1471 B( 17-C , 18-C ) :   1.6348
B( 17-C , 33-H ) :   0.9535 B( 18-C , 19-C ) :   1.2386 B( 18-C , 21-H ) :   0.9744
B( 19-C , 20-C ) :   1.6030 B( 19-C , 22-C ) :   1.0359 B( 22-C , 23-H ) :   0.9046
B( 22-C , 24-H ) :   0.9193 B( 22-C , 25-C ) :   1.0809 B( 25-C , 26-H ) :   0.9514
B( 25-C , 27-H ) :   0.9476 B( 25-C , 28-C ) :   1.0735 B( 28-C , 29-H ) :   0.9747
B( 28-C , 30-H ) :   0.9775 B( 28-C , 31-H ) :   0.9742

Dispersion correction           -0.014247248
FINAL SINGLE POINT ENERGY     -1339.877529155310

DIPOLE MOMENT
-------------
                                X             Y             Z
Electronic contribution:    -29.40990      -7.21879       5.14929
Nuclear contribution   :     30.20276       7.27797      -5.14439
                        -----------------------------------------
Total Dipole Moment    :      0.79286       0.05918       0.00490
                        -----------------------------------------
Magnitude (a.u.)       :      0.79508
Magnitude (Debye)      :      2.02094

Rotational constants in cm-1:     0.016689     0.009721     0.006645
Rotational constants in MHz :   500.314712   291.422799   199.224218

                             ****ORCA TERMINATED NORMALLY****
TOTAL RUN TIME: 0 days 0 hours 0 minutes 35 seconds 40 msec
