                         Program Version 4.2.1 -  RELEASE  -
|  1> ! wB97X-D3 SP def2-SVP
|  2> %pal
|  3> nprocs 16
|  4> end
|  5>
|  6> * xyz 0 1
|  7> S 	 -73.9732 	 43.6142 	 125.121
|  8> C 	 -73.546 	 44.4236 	 126.626
|  9> C 	 -72.5084 	 43.7713 	 127.244
| 10> C 	 -71.9831 	 42.7511 	 126.46
| 11> C 	 -72.7573 	 42.3781 	 125.392
| 12> H 	 -71.0822 	 42.1261 	 126.611
| 13> C 	 -71.908 	 44.0732 	 128.639
| 14> H 	 -71.1103 	 44.897 	 128.559
| 15> H 	 -71.2631 	 43.2329 	 128.937
| 16> C 	 -72.8788 	 44.3868 	 129.837
| 17> H 	 -73.6582 	 43.721 	 130.021
| 18> H 	 -72.3431 	 44.2835 	 130.782
| 19> C 	 -73.3941 	 45.8871 	 129.945
| 20> H 	 -72.4939 	 46.5167 	 130.153
| 21> H 	 -73.8711 	 46.1948 	 129.024
| 22> H 	 -73.9855 	 45.9338 	 130.867
| 23> S 	 -72.0909 	 42.0987 	 122.771
| 24> C 	 -72.1194 	 40.4377 	 122.115
| 25> C 	 -71.9447 	 39.4723 	 123.126
| 26> C 	 -72.046 	 40.092 	 124.374
| 27> C 	 -72.4894 	 41.3977 	 124.351
| 28> H 	 -71.6385 	 38.4527 	 122.874
| 29> C 	 -71.6085 	 39.3639 	 125.658
| 30> H 	 -72.1382 	 38.4404 	 125.715
| 31> H 	 -72.0496 	 39.8404 	 126.558
| 32> C 	 -70.1176 	 39.0098 	 125.821
| 33> H 	 -69.8322 	 38.4097 	 124.973
| 34> H 	 -70.0219 	 38.481 	 126.667
| 35> C 	 -69.0923 	 40.126 	 125.99
| 36> H 	 -69.0982 	 40.5716 	 126.942
| 37> H 	 -69.1925 	 40.9044 	 125.237
| 38> H 	 -68.1083 	 39.6506 	 125.791
| 39> H 	 -74.0903 	 45.3244 	 126.967
| 40> H 	 -72.0788 	 40.1989 	 121.041
| 41> *
| 42>
| 43>                          ****END OF INPUT****

CARTESIAN COORDINATES (ANGSTROEM)
---------------------------------
  S    -73.973200   43.614200  125.121000
  C    -73.546000   44.423600  126.626000
  C    -72.508400   43.771300  127.244000
  C    -71.983100   42.751100  126.460000
  C    -72.757300   42.378100  125.392000
  H    -71.082200   42.126100  126.611000
  C    -71.908000   44.073200  128.639000
  H    -71.110300   44.897000  128.559000
  H    -71.263100   43.232900  128.937000
  C    -72.878800   44.386800  129.837000
  H    -73.658200   43.721000  130.021000
  H    -72.343100   44.283500  130.782000
  C    -73.394100   45.887100  129.945000
  H    -72.493900   46.516700  130.153000
  H    -73.871100   46.194800  129.024000
  H    -73.985500   45.933800  130.867000
  S    -72.090900   42.098700  122.771000
  C    -72.119400   40.437700  122.115000
  C    -71.944700   39.472300  123.126000
  C    -72.046000   40.092000  124.374000
  C    -72.489400   41.397700  124.351000
  H    -71.638500   38.452700  122.874000
  C    -71.608500   39.363900  125.658000
  H    -72.138200   38.440400  125.715000
  H    -72.049600   39.840400  126.558000
  C    -70.117600   39.009800  125.821000
  H    -69.832200   38.409700  124.973000
  H    -70.021900   38.481000  126.667000
  C    -69.092300   40.126000  125.990000
  H    -69.098200   40.571600  126.942000
  H    -69.192500   40.904400  125.237000
  H    -68.108300   39.650600  125.791000
  H    -74.090300   45.324400  126.967000
  H    -72.078800   40.198900  121.041000

 Total Charge           Charge          ....    0
 Multiplicity           Mult            ....    1
 Number of Electrons    NEL             ....  134
 Basis Dimension        Dim             ....  322

ORBITAL ENERGIES
----------------

  NO   OCC          E(Eh)            E(eV)
   0   2.0000     -88.964770     -2420.8545
   1   2.0000     -88.962412     -2420.7903
   2   2.0000     -10.323983      -280.9299
   3   2.0000     -10.323101      -280.9059
   4   2.0000     -10.323059      -280.9047
   5   2.0000     -10.317160      -280.7442
   6   2.0000     -10.305717      -280.4328
   7   2.0000     -10.302367      -280.3417
   8   2.0000     -10.301536      -280.3190
   9   2.0000     -10.296782      -280.1897
  10   2.0000     -10.290579      -280.0209
  11   2.0000     -10.288623      -279.9677
  12   2.0000     -10.287982      -279.9502
  13   2.0000     -10.285444      -279.8812
  14   2.0000     -10.279050      -279.7072
  15   2.0000     -10.274610      -279.5864
  16   2.0000      -8.078663      -219.8316
  17   2.0000      -8.077150      -219.7904
  18   2.0000      -6.037146      -164.2791
  19   2.0000      -6.035594      -164.2369
  20   2.0000      -6.033835      -164.1890
  21   2.0000      -6.031614      -164.1286
  22   2.0000      -6.028929      -164.0555
  23   2.0000      -6.027997      -164.0301
  24   2.0000      -1.008068       -27.4309
  25   2.0000      -0.984319       -26.7847
  26   2.0000      -0.908670       -24.7262
  27   2.0000      -0.899444       -24.4751
  28   2.0000      -0.866139       -23.5688
  29   2.0000      -0.851496       -23.1704
  30   2.0000      -0.846407       -23.0319
  31   2.0000      -0.809664       -22.0321
  32   2.0000      -0.784427       -21.3453
  33   2.0000      -0.774758       -21.0822
  34   2.0000      -0.706805       -19.2331
  35   2.0000      -0.702890       -19.1266
  36   2.0000      -0.692954       -18.8562
  37   2.0000      -0.660365       -17.9695
  38   2.0000      -0.643509       -17.5108
  39   2.0000      -0.612149       -16.6574
  40   2.0000      -0.595066       -16.1926
  41   2.0000      -0.570392       -15.5212
  42   2.0000      -0.556207       -15.1352
  43   2.0000      -0.548122       -14.9152
  44   2.0000      -0.539788       -14.6884
  45   2.0000      -0.533572       -14.5192
  46   2.0000      -0.519857       -14.1460
  47   2.0000      -0.511353       -13.9146
  48   2.0000      -0.504078       -13.7166
  49   2.0000      -0.494077       -13.4445
  50   2.0000      -0.487583       -13.2678
  51   2.0000      -0.484694       -13.1892
  52   2.0000      -0.471857       -12.8399
  53   2.0000      -0.464502       -12.6397
  54   2.0000      -0.456068       -12.4102
  55   2.0000      -0.449560       -12.2332
  56   2.0000      -0.441238       -12.0067
  57   2.0000      -0.434841       -11.8326
  58   2.0000      -0.432825       -11.7778
  59   2.0000      -0.426300       -11.6002
  60   2.0000      -0.422024       -11.4839
  61   2.0000      -0.417007       -11.3473
  62   2.0000      -0.410635       -11.1739
  63   2.0000      -0.341342        -9.2884
  64   2.0000      -0.327444        -8.9102
  65   2.0000      -0.324601        -8.8328
  66   2.0000      -0.290648        -7.9089
  67   0.0000       0.020466         0.5569
  68   0.0000       0.063132         1.7179
  69   0.0000       0.091038         2.4773
  70   0.0000       0.119364         3.2481
  71   0.0000       0.130943         3.5632

MULLIKEN ATOMIC CHARGES
-----------------------
   0 S :    0.100164
   1 C :   -0.151856
   2 C :   -0.029727
   3 C :    0.022536
   4 C :   -0.172879
   5 H :    0.006301
   6 C :    0.038766
   7 H :    0.046462
   8 H :    0.024529
   9 C :   -0.060278
  10 H :    0.021808
  11 H :    0.017234
  12 C :   -0.071233
  13 H :    0.034714
  14 H :    0.035263
  15 H :    0.041579
  16 S :    0.097914
  17 C :   -0.099811
  18 C :   -0.039909
  19 C :   -0.029704
  20 C :   -0.138094
  21 H :    0.031345
  22 C :    0.052103
  23 H :    0.011720
  24 H :    0.021548
  25 C :   -0.017448
  26 H :    0.021915
  27 H :    0.004808
  28 C :   -0.054409
  29 H :    0.033174
  30 H :    0.036658
  31 H :    0.034233
  32 H :    0.067025
  33 H :    0.063548
Sum of atomic charges:    0.0000000

LOEWDIN ATOMIC CHARGES
----------------------
   0 S :    0.401328
   1 C :   -0.191722
   2 C :   -0.071300
   3 C :   -0.063871
   4 C :   -0.198268
   5 H :    0.037153
   6 C :   -0.035428
   7 H :    0.041483
   8 H :    0.031214
   9 C :   -0.040579
  10 H :    0.015333
  11 H :    0.027414
  12 C :   -0.064246
  13 H :    0.028409
  14 H :    0.016500
  15 H :    0.029598
  16 S :    0.382638
  17 C :   -0.167957
  18 C :   -0.072301
  19 C :   -0.055915
  20 C :   -0.193738
  21 H :    0.038166
  22 C :   -0.035878
  23 H :    0.027209
  24 H :    0.031031
  25 C :   -0.026061
  26 H :    0.023646
  27 H :    0.012977
  28 C :   -0.062835
  29 H :    0.015217
  30 H :    0.024284
  31 H :    0.034690
  32 H :    0.032807
  33 H :    0.029001

  Mayer bond orders larger than 0.100000
B(  0-S ,  1-C ) :   1.1480 B(  0-S ,  4-C ) :   1.1511 B(  1-C ,  2-C ) :   1.5891
B(  1-C ,  4-C ) :   0.1032 B(  1-C , 32-H ) :   0.9656 B(  2-C ,  3-C ) :   1.2546
B(  2-C ,  6-C ) :   1.0040 B(  3-C ,  4-C ) :   1.5748 B(  3-C ,  5-H ) :   0.9806
B(  4-C , 20-C ) :   1.0373 B(  6-C ,  7-H ) :   0.9397 B(  6-C ,  8-H ) :   0.9474
B(  6-C ,  9-C ) :   1.0605 B(  9-C , 10-H ) :   0.9648 B(  9-C , 11-H ) :   0.9551
B(  9-C , 12-C ) :   1.0677 B( 12-C , 13-H ) :   0.9770 B( 12-C , 14-H ) :   0.9817
B( 12-C , 15-H ) :   0.9741 B( 16-S , 17-C ) :   1.1540 B( 16-S , 20-C ) :   1.1352
B( 17-C , 18-C ) :   1.5903 B( 17-C , 20-C ) :   0.1152 B( 17-C , 33-H ) :   0.9660
B( 18-C , 19-C ) :   1.2374 B( 18-C , 21-H ) :   0.9940 B( 19-C , 20-C ) :   1.6004
B( 19-C , 22-C ) :   1.0436 B( 22-C , 23-H ) :   0.9276 B( 22-C , 24-H ) :   0.9323
B( 22-C , 25-C ) :   1.0805 B( 25-C , 26-H ) :   0.9561 B( 25-C , 27-H ) :   0.9475
B( 25-C , 28-C ) :   1.0881 B( 28-C , 29-H ) :   0.9689 B( 28-C , 30-H ) :   0.9735
B( 28-C , 31-H ) :   0.9697

Dispersion correction           -0.014831816
FINAL SINGLE POINT ENERGY     -1339.841309353797

DIPOLE MOMENT
-------------
                                X             Y             Z
Electronic contribution:    -11.18606       2.01187     -24.30083
Nuclear contribution   :     11.73956      -2.36654      24.86029
                        -----------------------------------------
Total Dipole Moment    :      0.55350      -0.35467       0.55946
                        -----------------------------------------
Magnitude (a.u.)       :      0.86322
Magnitude (Debye)      :      2.19412

Rotational constants in cm-1:     0.022285     0.008200     0.006459
Rotational constants in MHz :   668.086641   245.831471   193.650452

                             ****ORCA TERMINATED NORMALLY****
TOTAL RUN TIME: 0 days 0 hours 0 minutes 34 seconds 364 msec
