                         Program Version 4.2.1 -  RELEASE  -
|  1> ! wB97X-D3 SP def2-SVP
|  2> %pal
|  3> nprocs 16
|  4> end
|  5>
|  6> * xyz 0 1
|  7> S 	 -2.61835 	 10.3317 	 79.5669
|  8> C 	 -3.54607 	 8.91528 	 79.7286
|  9> C 	 -4.57272 	 9.04486 	 80.6803
| 10> C 	 -4.47045 	 10.3604 	 81.2411
| 11> C 	 -3.48455 	 11.194 	 80.8281
| 12> H 	 -5.11984 	 10.7662 	 81.9912
| 13> C 	 -5.51265 	 7.94678 	 81.2005
| 14> H 	 -5.41171 	 8.09171 	 82.2662
| 15> H 	 -5.19499 	 6.98135 	 80.7779
| 16> C 	 -6.94765 	 8.3069 	 80.8656
| 17> H 	 -7.51011 	 7.62381 	 81.4627
| 18> H 	 -7.09371 	 9.41127 	 81.1251
| 19> C 	 -7.1979 	 8.22078 	 79.3086
| 20> H 	 -6.75387 	 9.02695 	 78.7628
| 21> H 	 -6.95046 	 7.24456 	 78.8274
| 22> H 	 -8.27116 	 8.47388 	 79.24
| 23> S 	 -1.81951 	 12.7825 	 82.1424
| 24> C 	 -2.28509 	 14.3677 	 82.6308
| 25> C 	 -3.43441 	 14.7891 	 82.0072
| 26> C 	 -4.0215 	 13.7071 	 81.2935
| 27> C 	 -3.26916 	 12.5432 	 81.3526
| 28> H 	 -3.88098 	 15.7891 	 82.0672
| 29> C 	 -5.45933 	 13.7844 	 80.9058
| 30> H 	 -5.6975 	 14.864 	 81.1066
| 31> H 	 -6.09352 	 13.2961 	 81.6332
| 32> C 	 -5.89247 	 13.3506 	 79.4879
| 33> H 	 -5.99115 	 12.249 	 79.3819
| 34> H 	 -5.18267 	 13.692 	 78.7942
| 35> C 	 -7.21772 	 13.9987 	 79.0226
| 36> H 	 -8.05379 	 13.987 	 79.7074
| 37> H 	 -7.51351 	 13.6462 	 78.0553
| 38> H 	 -7.07535 	 15.0463 	 78.7751
| 39> H 	 -3.4334 	 7.94612 	 79.1779
| 40> H 	 -1.55845 	 14.9601 	 83.215
| 41> *
| 42>
| 43>                          ****END OF INPUT****

CARTESIAN COORDINATES (ANGSTROEM)
---------------------------------
  S     -2.618350   10.331700   79.566900
  C     -3.546070    8.915280   79.728600
  C     -4.572720    9.044860   80.680300
  C     -4.470450   10.360400   81.241100
  C     -3.484550   11.194000   80.828100
  H     -5.119840   10.766200   81.991200
  C     -5.512650    7.946780   81.200500
  H     -5.411710    8.091710   82.266200
  H     -5.194990    6.981350   80.777900
  C     -6.947650    8.306900   80.865600
  H     -7.510110    7.623810   81.462700
  H     -7.093710    9.411270   81.125100
  C     -7.197900    8.220780   79.308600
  H     -6.753870    9.026950   78.762800
  H     -6.950460    7.244560   78.827400
  H     -8.271160    8.473880   79.240000
  S     -1.819510   12.782500   82.142400
  C     -2.285090   14.367700   82.630800
  C     -3.434410   14.789100   82.007200
  C     -4.021500   13.707100   81.293500
  C     -3.269160   12.543200   81.352600
  H     -3.880980   15.789100   82.067200
  C     -5.459330   13.784400   80.905800
  H     -5.697500   14.864000   81.106600
  H     -6.093520   13.296100   81.633200
  C     -5.892470   13.350600   79.487900
  H     -5.991150   12.249000   79.381900
  H     -5.182670   13.692000   78.794200
  C     -7.217720   13.998700   79.022600
  H     -8.053790   13.987000   79.707400
  H     -7.513510   13.646200   78.055300
  H     -7.075350   15.046300   78.775100
  H     -3.433400    7.946120   79.177900
  H     -1.558450   14.960100   83.215000

 Total Charge           Charge          ....    0
 Multiplicity           Mult            ....    1
 Number of Electrons    NEL             ....  134
 Basis Dimension        Dim             ....  322

ORBITAL ENERGIES
----------------

  NO   OCC          E(Eh)            E(eV)
   0   2.0000     -88.964683     -2420.8521
   1   2.0000     -88.964000     -2420.8335
   2   2.0000     -10.323249      -280.9099
   3   2.0000     -10.318928      -280.7923
   4   2.0000     -10.316942      -280.7383
   5   2.0000     -10.314421      -280.6697
   6   2.0000     -10.299386      -280.2605
   7   2.0000     -10.298206      -280.2284
   8   2.0000     -10.296478      -280.1814
   9   2.0000     -10.293561      -280.1020
  10   2.0000     -10.293085      -280.0891
  11   2.0000     -10.290203      -280.0107
  12   2.0000     -10.286048      -279.8976
  13   2.0000     -10.282069      -279.7893
  14   2.0000     -10.280804      -279.7549
  15   2.0000     -10.271569      -279.5036
  16   2.0000      -8.081150      -219.8993
  17   2.0000      -8.079816      -219.8630
  18   2.0000      -6.039287      -164.3374
  19   2.0000      -6.038342      -164.3116
  20   2.0000      -6.035198      -164.2261
  21   2.0000      -6.034123      -164.1968
  22   2.0000      -6.032260      -164.1461
  23   2.0000      -6.030662      -164.1027
  24   2.0000      -1.017869       -27.6976
  25   2.0000      -0.992298       -27.0018
  26   2.0000      -0.913892       -24.8683
  27   2.0000      -0.907191       -24.6859
  28   2.0000      -0.873441       -23.7675
  29   2.0000      -0.854495       -23.2520
  30   2.0000      -0.840339       -22.8668
  31   2.0000      -0.814417       -22.1614
  32   2.0000      -0.782300       -21.2875
  33   2.0000      -0.771967       -21.0063
  34   2.0000      -0.708737       -19.2857
  35   2.0000      -0.696443       -18.9512
  36   2.0000      -0.685187       -18.6449
  37   2.0000      -0.668707       -18.1964
  38   2.0000      -0.637946       -17.3594
  39   2.0000      -0.622275       -16.9330
  40   2.0000      -0.601465       -16.3667
  41   2.0000      -0.569365       -15.4932
  42   2.0000      -0.556817       -15.1518
  43   2.0000      -0.550165       -14.9708
  44   2.0000      -0.537617       -14.6293
  45   2.0000      -0.528378       -14.3779
  46   2.0000      -0.517173       -14.0730
  47   2.0000      -0.514428       -13.9983
  48   2.0000      -0.501225       -13.6390
  49   2.0000      -0.497696       -13.5430
  50   2.0000      -0.493280       -13.4228
  51   2.0000      -0.479092       -13.0368
  52   2.0000      -0.470717       -12.8089
  53   2.0000      -0.462680       -12.5902
  54   2.0000      -0.459214       -12.4958
  55   2.0000      -0.452770       -12.3205
  56   2.0000      -0.443452       -12.0669
  57   2.0000      -0.435848       -11.8600
  58   2.0000      -0.433756       -11.8031
  59   2.0000      -0.421914       -11.4809
  60   2.0000      -0.419709       -11.4209
  61   2.0000      -0.413629       -11.2554
  62   2.0000      -0.413459       -11.2508
  63   2.0000      -0.345654        -9.4057
  64   2.0000      -0.329227        -8.9587
  65   2.0000      -0.322913        -8.7869
  66   2.0000      -0.299824        -8.1586
  67   0.0000       0.041981         1.1424
  68   0.0000       0.067455         1.8356
  69   0.0000       0.117011         3.1840
  70   0.0000       0.120799         3.2871
  71   0.0000       0.130635         3.5548

MULLIKEN ATOMIC CHARGES
-----------------------
   0 S :    0.126279
   1 C :   -0.139188
   2 C :   -0.114703
   3 C :    0.012602
   4 C :   -0.136483
   5 H :   -0.001969
   6 C :    0.104987
   7 H :    0.034886
   8 H :    0.026526
   9 C :   -0.090095
  10 H :    0.032422
  11 H :    0.042214
  12 C :   -0.068197
  13 H :    0.040439
  14 H :    0.043645
  15 H :    0.033514
  16 S :    0.128761
  17 C :   -0.107162
  18 C :   -0.033741
  19 C :   -0.016254
  20 C :   -0.193724
  21 H :    0.032717
  22 C :    0.030123
  23 H :    0.006756
  24 H :    0.035185
  25 C :   -0.041562
  26 H :    0.048183
  27 H :    0.017741
  28 C :   -0.044912
  29 H :    0.027651
  30 H :    0.020008
  31 H :    0.016277
  32 H :    0.060822
  33 H :    0.066253
Sum of atomic charges:   -0.0000000

LOEWDIN ATOMIC CHARGES
----------------------
   0 S :    0.419573
   1 C :   -0.224520
   2 C :   -0.067680
   3 C :   -0.066677
   4 C :   -0.207729
   5 H :    0.023267
   6 C :   -0.027194
   7 H :    0.034523
   8 H :    0.030518
   9 C :   -0.038113
  10 H :    0.019209
  11 H :    0.035196
  12 C :   -0.071183
  13 H :    0.023893
  14 H :    0.027363
  15 H :    0.030101
  16 S :    0.463487
  17 C :   -0.195656
  18 C :   -0.070838
  19 C :   -0.062408
  20 C :   -0.224913
  21 H :    0.038193
  22 C :   -0.036218
  23 H :    0.032653
  24 H :    0.030875
  25 C :   -0.035606
  26 H :    0.029456
  27 H :    0.020671
  28 C :   -0.066643
  29 H :    0.019946
  30 H :    0.023393
  31 H :    0.023323
  32 H :    0.039696
  33 H :    0.030039

  Mayer bond orders larger than 0.100000
B(  0-S ,  1-C ) :   1.1647 B(  0-S ,  4-C ) :   1.1311 B(  1-C ,  2-C ) :   1.5867
B(  1-C , 32-H ) :   0.9568 B(  2-C ,  3-C ) :   1.2492 B(  2-C ,  6-C ) :   1.0086
B(  3-C ,  4-C ) :   1.6035 B(  3-C ,  5-H ) :   0.9897 B(  4-C , 20-C ) :   1.0203
B(  6-C ,  7-H ) :   0.9379 B(  6-C ,  8-H ) :   0.9425 B(  6-C ,  9-C ) :   1.0747
B(  9-C , 10-H ) :   0.9597 B(  9-C , 11-H ) :   0.9549 B(  9-C , 12-C ) :   1.0615
B( 12-C , 13-H ) :   0.9737 B( 12-C , 14-H ) :   0.9776 B( 12-C , 15-H ) :   0.9740
B( 16-S , 17-C ) :   1.1889 B( 16-S , 20-C ) :   1.1866 B( 17-C , 18-C ) :   1.5618
B( 17-C , 33-H ) :   0.9663 B( 18-C , 19-C ) :   1.2801 B( 18-C , 21-H ) :   0.9871
B( 19-C , 20-C ) :   1.5581 B( 19-C , 22-C ) :   1.0480 B( 22-C , 23-H ) :   0.9355
B( 22-C , 24-H ) :   0.9334 B( 22-C , 25-C ) :   1.0538 B( 25-C , 26-H ) :   0.9536
B( 25-C , 27-H ) :   0.9572 B( 25-C , 28-C ) :   1.0878 B( 28-C , 29-H ) :   0.9773
B( 28-C , 30-H ) :   0.9722 B( 28-C , 31-H ) :   0.9725

Dispersion correction           -0.015154830
FINAL SINGLE POINT ENERGY     -1339.871214660571

DIPOLE MOMENT
-------------
                                X             Y             Z
Electronic contribution:     28.36196       3.29362       6.85223
Nuclear contribution   :    -28.92638      -3.26830      -6.70868
                        -----------------------------------------
Total Dipole Moment    :     -0.56442       0.02533       0.14356
                        -----------------------------------------
Magnitude (a.u.)       :      0.58294
Magnitude (Debye)      :      1.48172

Rotational constants in cm-1:     0.018197     0.009721     0.007427
Rotational constants in MHz :   545.525687   291.413353   222.654410

                             ****ORCA TERMINATED NORMALLY****
TOTAL RUN TIME: 0 days 0 hours 0 minutes 36 seconds 420 msec
