                         Program Version 4.2.1 -  RELEASE  -
|  1> ! wB97X-D3 SP def2-SVP
|  2> %pal
|  3> nprocs 16
|  4> end
|  5>
|  6> * xyz 0 1
|  7> S 	 -3.25679 	 72.2784 	 55.717
|  8> C 	 -3.15204 	 70.5897 	 56.1196
|  9> C 	 -2.77206 	 69.9012 	 54.9927
| 10> C 	 -2.51551 	 70.7733 	 53.883
| 11> C 	 -2.65379 	 72.1009 	 54.1181
| 12> H 	 -2.24535 	 70.3819 	 52.9594
| 13> C 	 -2.66403 	 68.3883 	 54.9721
| 14> H 	 -2.04541 	 68.1055 	 55.8183
| 15> H 	 -2.16693 	 68.0134 	 54.1048
| 16> C 	 -3.98248 	 67.7332 	 55.1715
| 17> H 	 -4.2969 	 67.9555 	 56.1964
| 18> H 	 -4.73155 	 68.2086 	 54.4981
| 19> C 	 -3.87952 	 66.2367 	 55.0275
| 20> H 	 -4.75041 	 65.698 	 55.2809
| 21> H 	 -3.53159 	 65.9229 	 54.0338
| 22> H 	 -3.09639 	 65.9038 	 55.6083
| 23> S 	 -4.31703 	 73.7707 	 52.6607
| 24> C 	 -3.63562 	 74.6425 	 51.3661
| 25> C 	 -2.2607 	 74.5116 	 51.2518
| 26> C 	 -1.71318 	 73.5797 	 52.2201
| 27> C 	 -2.70861 	 73.1741 	 53.1439
| 28> H 	 -1.64258 	 75.0405 	 50.4998
| 29> C 	 -0.264108 	 73.0647 	 52.2821
| 30> H 	 -0.0176906 	 72.7191 	 51.2388
| 31> H 	 -0.179097 	 72.2665 	 52.9583
| 32> C 	 0.800735 	 74.1314 	 52.4531
| 33> H 	 0.755879 	 74.6851 	 53.3611
| 34> H 	 0.804149 	 74.8159 	 51.6582
| 35> C 	 2.16588 	 73.4979 	 52.4178
| 36> H 	 2.85802 	 74.1869 	 52.6856
| 37> H 	 2.31288 	 73.1609 	 51.3753
| 38> H 	 2.24408 	 72.5728 	 53.1179
| 39> H 	 -3.40495 	 70.2178 	 57.104
| 40> H 	 -4.24102 	 75.2223 	 50.7452
| 41> *
| 42>
| 43>                          ****END OF INPUT****

CARTESIAN COORDINATES (ANGSTROEM)
---------------------------------
  S     -3.256790   72.278400   55.717000
  C     -3.152040   70.589700   56.119600
  C     -2.772060   69.901200   54.992700
  C     -2.515510   70.773300   53.883000
  C     -2.653790   72.100900   54.118100
  H     -2.245350   70.381900   52.959400
  C     -2.664030   68.388300   54.972100
  H     -2.045410   68.105500   55.818300
  H     -2.166930   68.013400   54.104800
  C     -3.982480   67.733200   55.171500
  H     -4.296900   67.955500   56.196400
  H     -4.731550   68.208600   54.498100
  C     -3.879520   66.236700   55.027500
  H     -4.750410   65.698000   55.280900
  H     -3.531590   65.922900   54.033800
  H     -3.096390   65.903800   55.608300
  S     -4.317030   73.770700   52.660700
  C     -3.635620   74.642500   51.366100
  C     -2.260700   74.511600   51.251800
  C     -1.713180   73.579700   52.220100
  C     -2.708610   73.174100   53.143900
  H     -1.642580   75.040500   50.499800
  C     -0.264108   73.064700   52.282100
  H     -0.017691   72.719100   51.238800
  H     -0.179097   72.266500   52.958300
  C      0.800735   74.131400   52.453100
  H      0.755879   74.685100   53.361100
  H      0.804149   74.815900   51.658200
  C      2.165880   73.497900   52.417800
  H      2.858020   74.186900   52.685600
  H      2.312880   73.160900   51.375300
  H      2.244080   72.572800   53.117900
  H     -3.404950   70.217800   57.104000
  H     -4.241020   75.222300   50.745200

 Total Charge           Charge          ....    0
 Multiplicity           Mult            ....    1
 Number of Electrons    NEL             ....  134
 Basis Dimension        Dim             ....  322

ORBITAL ENERGIES
----------------

  NO   OCC          E(Eh)            E(eV)
   0   2.0000     -88.965389     -2420.8713
   1   2.0000     -88.958931     -2420.6956
   2   2.0000     -10.326417      -280.9961
   3   2.0000     -10.321545      -280.8635
   4   2.0000     -10.313679      -280.6495
   5   2.0000     -10.311956      -280.6026
   6   2.0000     -10.309750      -280.5426
   7   2.0000     -10.299576      -280.2657
   8   2.0000     -10.297848      -280.2187
   9   2.0000     -10.292754      -280.0801
  10   2.0000     -10.285236      -279.8755
  11   2.0000     -10.284157      -279.8461
  12   2.0000     -10.282110      -279.7904
  13   2.0000     -10.274312      -279.5782
  14   2.0000     -10.274196      -279.5751
  15   2.0000     -10.267113      -279.3824
  16   2.0000      -8.080576      -219.8836
  17   2.0000      -8.074764      -219.7255
  18   2.0000      -6.038966      -164.3286
  19   2.0000      -6.035029      -164.2215
  20   2.0000      -6.033225      -164.1724
  21   2.0000      -6.031422      -164.1233
  22   2.0000      -6.028925      -164.0554
  23   2.0000      -6.025696      -163.9675
  24   2.0000      -1.009739       -27.4764
  25   2.0000      -0.985035       -26.8042
  26   2.0000      -0.923196       -25.1214
  27   2.0000      -0.917808       -24.9748
  28   2.0000      -0.872562       -23.7436
  29   2.0000      -0.854281       -23.2462
  30   2.0000      -0.845553       -23.0087
  31   2.0000      -0.814985       -22.1769
  32   2.0000      -0.785596       -21.3772
  33   2.0000      -0.771811       -21.0020
  34   2.0000      -0.703384       -19.1400
  35   2.0000      -0.700152       -19.0521
  36   2.0000      -0.697242       -18.9729
  37   2.0000      -0.657066       -17.8797
  38   2.0000      -0.647334       -17.6149
  39   2.0000      -0.623087       -16.9551
  40   2.0000      -0.603174       -16.4132
  41   2.0000      -0.578949       -15.7540
  42   2.0000      -0.575570       -15.6621
  43   2.0000      -0.563349       -15.3295
  44   2.0000      -0.532442       -14.4885
  45   2.0000      -0.530475       -14.4350
  46   2.0000      -0.522521       -14.2185
  47   2.0000      -0.516770       -14.0620
  48   2.0000      -0.507302       -13.8044
  49   2.0000      -0.494916       -13.4674
  50   2.0000      -0.493942       -13.4408
  51   2.0000      -0.478466       -13.0197
  52   2.0000      -0.473356       -12.8807
  53   2.0000      -0.459594       -12.5062
  54   2.0000      -0.457145       -12.4395
  55   2.0000      -0.450649       -12.2628
  56   2.0000      -0.448127       -12.1941
  57   2.0000      -0.441829       -12.0228
  58   2.0000      -0.439371       -11.9559
  59   2.0000      -0.429326       -11.6826
  60   2.0000      -0.417792       -11.3687
  61   2.0000      -0.415354       -11.3023
  62   2.0000      -0.413012       -11.2386
  63   2.0000      -0.343120        -9.3368
  64   2.0000      -0.328493        -8.9387
  65   2.0000      -0.324674        -8.8348
  66   2.0000      -0.298059        -8.1106
  67   0.0000       0.039605         1.0777
  68   0.0000       0.063069         1.7162
  69   0.0000       0.114297         3.1102
  70   0.0000       0.126712         3.4480
  71   0.0000       0.134975         3.6728

MULLIKEN ATOMIC CHARGES
-----------------------
   0 S :    0.095118
   1 C :   -0.134615
   2 C :   -0.093452
   3 C :    0.070420
   4 C :   -0.161546
   5 H :   -0.022789
   6 C :    0.086370
   7 H :    0.024794
   8 H :    0.006177
   9 C :   -0.098495
  10 H :    0.020148
  11 H :    0.038534
  12 C :    0.030769
  13 H :    0.028965
  14 H :    0.015699
  15 H :   -0.005604
  16 S :    0.117592
  17 C :   -0.068946
  18 C :   -0.031517
  19 C :   -0.038576
  20 C :   -0.146443
  21 H :    0.028745
  22 C :    0.078530
  23 H :    0.025225
  24 H :    0.017116
  25 C :   -0.050156
  26 H :    0.024432
  27 H :    0.012420
  28 C :   -0.037178
  29 H :    0.015307
  30 H :    0.024069
  31 H :    0.038413
  32 H :    0.053187
  33 H :    0.037288
Sum of atomic charges:   -0.0000000

LOEWDIN ATOMIC CHARGES
----------------------
   0 S :    0.420806
   1 C :   -0.195577
   2 C :   -0.061203
   3 C :   -0.056219
   4 C :   -0.213270
   5 H :    0.018144
   6 C :   -0.030777
   7 H :    0.032753
   8 H :    0.021708
   9 C :   -0.039841
  10 H :    0.022062
  11 H :    0.027334
  12 C :   -0.056156
  13 H :    0.022283
  14 H :    0.026367
  15 H :    0.015161
  16 S :    0.417720
  17 C :   -0.183453
  18 C :   -0.077581
  19 C :   -0.040812
  20 C :   -0.202204
  21 H :    0.035462
  22 C :   -0.022365
  23 H :    0.039798
  24 H :    0.021628
  25 C :   -0.034662
  26 H :    0.019443
  27 H :    0.016860
  28 C :   -0.054438
  29 H :    0.009473
  30 H :    0.024167
  31 H :    0.033292
  32 H :    0.028284
  33 H :    0.015813

  Mayer bond orders larger than 0.100000
B(  0-S ,  1-C ) :   1.1533 B(  0-S ,  4-C ) :   1.1638 B(  1-C ,  2-C ) :   1.5674
B(  1-C , 32-H ) :   0.9780 B(  2-C ,  3-C ) :   1.2767 B(  2-C ,  6-C ) :   1.0194
B(  3-C ,  4-C ) :   1.5370 B(  3-C ,  5-H ) :   1.0128 B(  4-C , 20-C ) :   1.0166
B(  6-C ,  7-H ) :   0.9299 B(  6-C ,  8-H ) :   0.9473 B(  6-C ,  9-C ) :   1.0642
B(  9-C , 10-H ) :   0.9497 B(  9-C , 11-H ) :   0.9590 B(  9-C , 12-C ) :   1.0912
B( 12-C , 13-H ) :   0.9724 B( 12-C , 14-H ) :   0.9698 B( 12-C , 15-H ) :   0.9619
B( 16-S , 17-C ) :   1.1800 B( 16-S , 20-C ) :   1.1367 B( 17-C , 18-C ) :   1.5907
B( 17-C , 33-H ) :   0.9744 B( 18-C , 19-C ) :   1.2413 B( 18-C , 21-H ) :   0.9861
B( 19-C , 20-C ) :   1.5971 B( 19-C , 22-C ) :   1.0420 B( 22-C , 23-H ) :   0.9309
B( 22-C , 24-H ) :   0.9391 B( 22-C , 25-C ) :   1.0704 B( 25-C , 26-H ) :   0.9541
B( 25-C , 27-H ) :   0.9506 B( 25-C , 28-C ) :   1.0925 B( 28-C , 29-H ) :   0.9728
B( 28-C , 30-H ) :   0.9743 B( 28-C , 31-H ) :   0.9735

Dispersion correction           -0.013294464
FINAL SINGLE POINT ENERGY     -1339.874268709219

DIPOLE MOMENT
-------------
                                X             Y             Z
Electronic contribution:    -15.96099      17.71385       2.82893
Nuclear contribution   :     16.30808     -18.10534      -3.13423
                        -----------------------------------------
Total Dipole Moment    :      0.34709      -0.39149      -0.30531
                        -----------------------------------------
Magnitude (a.u.)       :      0.60577
Magnitude (Debye)      :      1.53973

Rotational constants in cm-1:     0.018999     0.007472     0.006333
Rotational constants in MHz :   569.586267   224.010997   189.851431

                             ****ORCA TERMINATED NORMALLY****
TOTAL RUN TIME: 0 days 0 hours 0 minutes 32 seconds 647 msec
