                         Program Version 4.2.1 -  RELEASE  -
|  1> ! wB97X-D3 SP def2-SVP
|  2> %pal
|  3> nprocs 16
|  4> end
|  5>
|  6> * xyz 0 1
|  7> S 	 56.0555 	 12.0175 	 76.0058
|  8> C 	 57.1327 	 12.4713 	 77.3578
|  9> C 	 57.6259 	 11.3203 	 77.9208
| 10> C 	 56.9544 	 10.155 	 77.5024
| 11> C 	 56.021 	 10.3897 	 76.4649
| 12> H 	 57.0143 	 9.1486 	 77.9957
| 13> C 	 58.6698 	 11.3213 	 79.0334
| 14> H 	 59.2619 	 10.4066 	 78.8644
| 15> H 	 58.1732 	 11.1628 	 79.9747
| 16> C 	 59.6089 	 12.471 	 79.1765
| 17> H 	 60.0612 	 12.5417 	 78.2255
| 18> H 	 59.0446 	 13.3912 	 79.2275
| 19> C 	 60.6458 	 12.5394 	 80.3372
| 20> H 	 61.3439 	 11.7407 	 80.3978
| 21> H 	 61.1673 	 13.4783 	 80.2817
| 22> H 	 60.1184 	 12.6356 	 81.3219
| 23> S 	 53.4381 	 9.6032 	 75.6223
| 24> C 	 53.2172 	 8.1387 	 74.8194
| 25> C 	 54.4082 	 7.43785 	 74.7725
| 26> C 	 55.5343 	 8.10756 	 75.3793
| 27> C 	 55.1811 	 9.358 	 75.8549
| 28> H 	 54.4305 	 6.52625 	 74.1988
| 29> C 	 56.9486 	 7.63352 	 75.172
| 30> H 	 57.4303 	 7.85911 	 76.0706
| 31> H 	 57.2668 	 8.27138 	 74.3173
| 32> C 	 57.2269 	 6.21776 	 74.6625
| 33> H 	 56.727 	 6.05441 	 73.7245
| 34> H 	 56.7406 	 5.42072 	 75.2919
| 35> C 	 58.6898 	 5.74928 	 74.4297
| 36> H 	 59.2332 	 6.47688 	 73.9155
| 37> H 	 58.6029 	 4.74571 	 73.8928
| 38> H 	 59.1583 	 5.46577 	 75.4574
| 39> H 	 57.5258 	 13.4591 	 77.57
| 40> H 	 52.3873 	 7.89114 	 74.3539
| 41> *
| 42>
| 43>                          ****END OF INPUT****

CARTESIAN COORDINATES (ANGSTROEM)
---------------------------------
  S     56.055500   12.017500   76.005800
  C     57.132700   12.471300   77.357800
  C     57.625900   11.320300   77.920800
  C     56.954400   10.155000   77.502400
  C     56.021000   10.389700   76.464900
  H     57.014300    9.148600   77.995700
  C     58.669800   11.321300   79.033400
  H     59.261900   10.406600   78.864400
  H     58.173200   11.162800   79.974700
  C     59.608900   12.471000   79.176500
  H     60.061200   12.541700   78.225500
  H     59.044600   13.391200   79.227500
  C     60.645800   12.539400   80.337200
  H     61.343900   11.740700   80.397800
  H     61.167300   13.478300   80.281700
  H     60.118400   12.635600   81.321900
  S     53.438100    9.603200   75.622300
  C     53.217200    8.138700   74.819400
  C     54.408200    7.437850   74.772500
  C     55.534300    8.107560   75.379300
  C     55.181100    9.358000   75.854900
  H     54.430500    6.526250   74.198800
  C     56.948600    7.633520   75.172000
  H     57.430300    7.859110   76.070600
  H     57.266800    8.271380   74.317300
  C     57.226900    6.217760   74.662500
  H     56.727000    6.054410   73.724500
  H     56.740600    5.420720   75.291900
  C     58.689800    5.749280   74.429700
  H     59.233200    6.476880   73.915500
  H     58.602900    4.745710   73.892800
  H     59.158300    5.465770   75.457400
  H     57.525800   13.459100   77.570000
  H     52.387300    7.891140   74.353900

 Total Charge           Charge          ....    0
 Multiplicity           Mult            ....    1
 Number of Electrons    NEL             ....  134
 Basis Dimension        Dim             ....  322

ORBITAL ENERGIES
----------------

  NO   OCC          E(Eh)            E(eV)
   0   2.0000     -88.968109     -2420.9453
   1   2.0000     -88.962649     -2420.7968
   2   2.0000     -10.330423      -281.1051
   3   2.0000     -10.326328      -280.9937
   4   2.0000     -10.313846      -280.6540
   5   2.0000     -10.304964      -280.4123
   6   2.0000     -10.304550      -280.4011
   7   2.0000     -10.301376      -280.3147
   8   2.0000     -10.296938      -280.1939
   9   2.0000     -10.290737      -280.0252
  10   2.0000     -10.290333      -280.0142
  11   2.0000     -10.289461      -279.9905
  12   2.0000     -10.289395      -279.9887
  13   2.0000     -10.288976      -279.9773
  14   2.0000     -10.283528      -279.8290
  15   2.0000     -10.282731      -279.8073
  16   2.0000      -8.082996      -219.9495
  17   2.0000      -8.078302      -219.8218
  18   2.0000      -6.041429      -164.3956
  19   2.0000      -6.037430      -164.2868
  20   2.0000      -6.036715      -164.2674
  21   2.0000      -6.033857      -164.1896
  22   2.0000      -6.032516      -164.1531
  23   2.0000      -6.029263      -164.0646
  24   2.0000      -1.009786       -27.4777
  25   2.0000      -0.989245       -26.9187
  26   2.0000      -0.916817       -24.9479
  27   2.0000      -0.910683       -24.7810
  28   2.0000      -0.871320       -23.7098
  29   2.0000      -0.854761       -23.2592
  30   2.0000      -0.842809       -22.9340
  31   2.0000      -0.811756       -22.0890
  32   2.0000      -0.788772       -21.4636
  33   2.0000      -0.778985       -21.1973
  34   2.0000      -0.715587       -19.4721
  35   2.0000      -0.703897       -19.1540
  36   2.0000      -0.699755       -19.0413
  37   2.0000      -0.652429       -17.7535
  38   2.0000      -0.635702       -17.2983
  39   2.0000      -0.612845       -16.6764
  40   2.0000      -0.599588       -16.3156
  41   2.0000      -0.575269       -15.6539
  42   2.0000      -0.573907       -15.6168
  43   2.0000      -0.572108       -15.5678
  44   2.0000      -0.534989       -14.5578
  45   2.0000      -0.522691       -14.2231
  46   2.0000      -0.520167       -14.1545
  47   2.0000      -0.511749       -13.9254
  48   2.0000      -0.507354       -13.8058
  49   2.0000      -0.502818       -13.6824
  50   2.0000      -0.496439       -13.5088
  51   2.0000      -0.483576       -13.1588
  52   2.0000      -0.474739       -12.9183
  53   2.0000      -0.466138       -12.6843
  54   2.0000      -0.464956       -12.6521
  55   2.0000      -0.451487       -12.2856
  56   2.0000      -0.448216       -12.1966
  57   2.0000      -0.437238       -11.8979
  58   2.0000      -0.425728       -11.5847
  59   2.0000      -0.422036       -11.4842
  60   2.0000      -0.417282       -11.3548
  61   2.0000      -0.415465       -11.3054
  62   2.0000      -0.413949       -11.2641
  63   2.0000      -0.345017        -9.3884
  64   2.0000      -0.331995        -9.0340
  65   2.0000      -0.327309        -8.9065
  66   2.0000      -0.292480        -7.9588
  67   0.0000       0.026057         0.7090
  68   0.0000       0.079097         2.1523
  69   0.0000       0.113001         3.0749
  70   0.0000       0.125248         3.4082
  71   0.0000       0.134530         3.6607

MULLIKEN ATOMIC CHARGES
-----------------------
   0 S :    0.120338
   1 C :   -0.139781
   2 C :   -0.083552
   3 C :   -0.007640
   4 C :   -0.152678
   5 H :    0.041061
   6 C :    0.090649
   7 H :    0.021694
   8 H :    0.030535
   9 C :   -0.096280
  10 H :    0.015542
  11 H :    0.018060
  12 C :   -0.017829
  13 H :    0.032605
  14 H :    0.029222
  15 H :    0.030481
  16 S :    0.114053
  17 C :   -0.016315
  18 C :   -0.059731
  19 C :   -0.046562
  20 C :   -0.171310
  21 H :    0.015626
  22 C :    0.135419
  23 H :    0.003864
  24 H :    0.052119
  25 C :   -0.131385
  26 H :    0.020845
  27 H :    0.027772
  28 C :   -0.048498
  29 H :    0.033441
  30 H :    0.046527
  31 H :    0.044339
  32 H :    0.050854
  33 H :   -0.003483
Sum of atomic charges:   -0.0000000

LOEWDIN ATOMIC CHARGES
----------------------
   0 S :    0.424452
   1 C :   -0.196677
   2 C :   -0.060872
   3 C :   -0.074875
   4 C :   -0.209467
   5 H :    0.040341
   6 C :   -0.032304
   7 H :    0.032450
   8 H :    0.029791
   9 C :   -0.045974
  10 H :    0.019225
  11 H :    0.020731
  12 C :   -0.056620
  13 H :    0.018984
  14 H :    0.029020
  15 H :    0.031366
  16 S :    0.424601
  17 C :   -0.176746
  18 C :   -0.074499
  19 C :   -0.048589
  20 C :   -0.203533
  21 H :    0.027571
  22 C :   -0.029986
  23 H :    0.020238
  24 H :    0.050152
  25 C :   -0.053705
  26 H :    0.017690
  27 H :    0.025411
  28 C :   -0.062056
  29 H :    0.013769
  30 H :    0.038563
  31 H :    0.034084
  32 H :    0.028074
  33 H :   -0.000608

  Mayer bond orders larger than 0.100000
B(  0-S ,  1-C ) :   1.1238 B(  0-S ,  4-C ) :   1.1875 B(  1-C ,  2-C ) :   1.5942
B(  1-C , 32-H ) :   0.9677 B(  2-C ,  3-C ) :   1.2748 B(  2-C ,  6-C ) :   1.0088
B(  3-C ,  4-C ) :   1.5299 B(  3-C ,  5-H ) :   0.9802 B(  4-C , 20-C ) :   1.0505
B(  6-C ,  7-H ) :   0.9379 B(  6-C ,  8-H ) :   0.9335 B(  6-C ,  9-C ) :   1.0763
B(  9-C , 10-H ) :   0.9574 B(  9-C , 11-H ) :   0.9434 B(  9-C , 12-C ) :   1.0868
B( 12-C , 13-H ) :   0.9789 B( 12-C , 14-H ) :   0.9715 B( 12-C , 15-H ) :   0.9724
B( 16-S , 17-C ) :   1.1797 B( 16-S , 20-C ) :   1.1419 B( 17-C , 18-C ) :   1.5767
B( 17-C , 33-H ) :   0.9841 B( 18-C , 19-C ) :   1.2494 B( 18-C , 21-H ) :   0.9919
B( 19-C , 20-C ) :   1.5802 B( 19-C , 22-C ) :   1.0378 B( 22-C , 23-H ) :   0.9211
B( 22-C , 24-H ) :   0.9237 B( 22-C , 25-C ) :   1.0816 B( 25-C , 26-H ) :   0.9442
B( 25-C , 27-H ) :   0.9553 B( 25-C , 28-C ) :   1.0843 B( 28-C , 29-H ) :   0.9759
B( 28-C , 30-H ) :   0.9725 B( 28-C , 31-H ) :   0.9761

Dispersion correction           -0.013196143
FINAL SINGLE POINT ENERGY     -1339.862637694641

DIPOLE MOMENT
-------------
                                X             Y             Z
Electronic contribution:    -26.54870       9.42552      -8.46464
Nuclear contribution   :     27.08584      -9.73694       8.51016
                        -----------------------------------------
Total Dipole Moment    :      0.53714      -0.31142       0.04551
                        -----------------------------------------
Magnitude (a.u.)       :      0.62256
Magnitude (Debye)      :      1.58241

Rotational constants in cm-1:     0.018463     0.007482     0.005685
Rotational constants in MHz :   553.510193   224.316707   170.434813

                             ****ORCA TERMINATED NORMALLY****
TOTAL RUN TIME: 0 days 0 hours 0 minutes 28 seconds 386 msec
