                         Program Version 4.2.1 -  RELEASE  -
|  1> ! wB97X-D3 SP def2-SVP
|  2> %pal
|  3> nprocs 16
|  4> end
|  5>
|  6> * xyz 0 1
|  7> S 	 19.7192 	 3.75992 	 74.2399
|  8> C 	 20.6298 	 3.34112 	 72.7987
|  9> C 	 21.5755 	 4.30094 	 72.4764
| 10> C 	 21.817 	 5.13434 	 73.602
| 11> C 	 20.8756 	 5.06024 	 74.5875
| 12> H 	 22.6344 	 5.83594 	 73.7069
| 13> C 	 22.5391 	 4.232 	 71.3685
| 14> H 	 22.4557 	 5.12645 	 70.6566
| 15> H 	 22.1816 	 3.40205 	 70.7082
| 16> C 	 24.0292 	 4.05545 	 71.7075
| 17> H 	 24.573 	 4.12527 	 70.7923
| 18> H 	 24.3753 	 4.79795 	 72.3565
| 19> C 	 24.3298 	 2.69813 	 72.2996
| 20> H 	 25.303 	 2.5739 	 72.8894
| 21> H 	 23.522 	 2.49967 	 72.9724
| 22> H 	 24.348 	 1.99301 	 71.5167
| 23> S 	 20.7629 	 4.9832 	 77.3433
| 24> C 	 21.0134 	 6.46175 	 78.2246
| 25> C 	 21.0895 	 7.56492 	 77.3708
| 26> C 	 21.1032 	 7.24313 	 75.9879
| 27> C 	 20.8016 	 5.88701 	 75.7864
| 28> H 	 21.2738 	 8.55633 	 77.8536
| 29> C 	 21.281 	 8.16999 	 74.8338
| 30> H 	 21.0275 	 7.59094 	 73.913
| 31> H 	 22.3295 	 8.44493 	 74.8061
| 32> C 	 20.4071 	 9.44549 	 74.8102
| 33> H 	 19.3826 	 9.21681 	 74.5917
| 34> H 	 20.6765 	 10.0697 	 73.9152
| 35> C 	 20.567 	 10.4215 	 75.9809
| 36> H 	 20.1706 	 10.1052 	 76.8825
| 37> H 	 20.173 	 11.3937 	 75.7789
| 38> H 	 21.562 	 10.6111 	 76.1784
| 39> H 	 20.3513 	 2.49324 	 72.1129
| 40> H 	 21.0434 	 6.42316 	 79.2883
| 41> *
| 42>
| 43>                          ****END OF INPUT****

CARTESIAN COORDINATES (ANGSTROEM)
---------------------------------
  S     19.719200    3.759920   74.239900
  C     20.629800    3.341120   72.798700
  C     21.575500    4.300940   72.476400
  C     21.817000    5.134340   73.602000
  C     20.875600    5.060240   74.587500
  H     22.634400    5.835940   73.706900
  C     22.539100    4.232000   71.368500
  H     22.455700    5.126450   70.656600
  H     22.181600    3.402050   70.708200
  C     24.029200    4.055450   71.707500
  H     24.573000    4.125270   70.792300
  H     24.375300    4.797950   72.356500
  C     24.329800    2.698130   72.299600
  H     25.303000    2.573900   72.889400
  H     23.522000    2.499670   72.972400
  H     24.348000    1.993010   71.516700
  S     20.762900    4.983200   77.343300
  C     21.013400    6.461750   78.224600
  C     21.089500    7.564920   77.370800
  C     21.103200    7.243130   75.987900
  C     20.801600    5.887010   75.786400
  H     21.273800    8.556330   77.853600
  C     21.281000    8.169990   74.833800
  H     21.027500    7.590940   73.913000
  H     22.329500    8.444930   74.806100
  C     20.407100    9.445490   74.810200
  H     19.382600    9.216810   74.591700
  H     20.676500   10.069700   73.915200
  C     20.567000   10.421500   75.980900
  H     20.170600   10.105200   76.882500
  H     20.173000   11.393700   75.778900
  H     21.562000   10.611100   76.178400
  H     20.351300    2.493240   72.112900
  H     21.043400    6.423160   79.288300

 Total Charge           Charge          ....    0
 Multiplicity           Mult            ....    1
 Number of Electrons    NEL             ....  134
 Basis Dimension        Dim             ....  322

ORBITAL ENERGIES
----------------

  NO   OCC          E(Eh)            E(eV)
   0   2.0000     -88.966362     -2420.8978
   1   2.0000     -88.963994     -2420.8333
   2   2.0000     -10.328421      -281.0506
   3   2.0000     -10.327878      -281.0359
   4   2.0000     -10.320230      -280.8277
   5   2.0000     -10.319883      -280.8183
   6   2.0000     -10.307981      -280.4944
   7   2.0000     -10.300245      -280.2839
   8   2.0000     -10.298664      -280.2409
   9   2.0000     -10.297461      -280.2082
  10   2.0000     -10.293861      -280.1102
  11   2.0000     -10.290178      -280.0100
  12   2.0000     -10.288340      -279.9600
  13   2.0000     -10.278538      -279.6932
  14   2.0000     -10.269409      -279.4448
  15   2.0000     -10.263483      -279.2836
  16   2.0000      -8.080727      -219.8877
  17   2.0000      -8.078469      -219.8263
  18   2.0000      -6.039262      -164.3367
  19   2.0000      -6.036850      -164.2710
  20   2.0000      -6.035400      -164.2316
  21   2.0000      -6.033027      -164.1670
  22   2.0000      -6.031370      -164.1219
  23   2.0000      -6.029361      -164.0673
  24   2.0000      -1.005070       -27.3494
  25   2.0000      -0.982942       -26.7472
  26   2.0000      -0.916771       -24.9466
  27   2.0000      -0.910044       -24.7636
  28   2.0000      -0.869652       -23.6644
  29   2.0000      -0.854546       -23.2534
  30   2.0000      -0.845523       -23.0079
  31   2.0000      -0.813645       -22.1404
  32   2.0000      -0.789943       -21.4954
  33   2.0000      -0.771213       -20.9858
  34   2.0000      -0.713493       -19.4151
  35   2.0000      -0.702780       -19.1236
  36   2.0000      -0.692977       -18.8569
  37   2.0000      -0.657777       -17.8990
  38   2.0000      -0.638321       -17.3696
  39   2.0000      -0.624844       -17.0029
  40   2.0000      -0.595570       -16.2063
  41   2.0000      -0.570672       -15.5288
  42   2.0000      -0.558552       -15.1990
  43   2.0000      -0.548570       -14.9273
  44   2.0000      -0.541719       -14.7409
  45   2.0000      -0.537715       -14.6320
  46   2.0000      -0.517549       -14.0832
  47   2.0000      -0.513259       -13.9665
  48   2.0000      -0.501860       -13.6563
  49   2.0000      -0.493347       -13.4247
  50   2.0000      -0.490313       -13.3421
  51   2.0000      -0.487519       -13.2661
  52   2.0000      -0.474559       -12.9134
  53   2.0000      -0.464093       -12.6286
  54   2.0000      -0.458149       -12.4669
  55   2.0000      -0.446047       -12.1376
  56   2.0000      -0.439872       -11.9695
  57   2.0000      -0.436120       -11.8674
  58   2.0000      -0.435327       -11.8459
  59   2.0000      -0.427357       -11.6290
  60   2.0000      -0.422552       -11.4982
  61   2.0000      -0.417650       -11.3648
  62   2.0000      -0.413871       -11.2620
  63   2.0000      -0.346119        -9.4184
  64   2.0000      -0.332558        -9.0494
  65   2.0000      -0.330230        -8.9860
  66   2.0000      -0.289608        -7.8806
  67   0.0000       0.025866         0.7039
  68   0.0000       0.069075         1.8796
  69   0.0000       0.108296         2.9469
  70   0.0000       0.115649         3.1470
  71   0.0000       0.132790         3.6134

MULLIKEN ATOMIC CHARGES
-----------------------
   0 S :    0.107635
   1 C :   -0.133190
   2 C :   -0.067640
   3 C :    0.000628
   4 C :   -0.138470
   5 H :    0.018701
   6 C :   -0.003520
   7 H :    0.046503
   8 H :    0.016170
   9 C :   -0.014868
  10 H :    0.019982
  11 H :    0.017760
  12 C :   -0.055269
  13 H :    0.043424
  14 H :    0.033975
  15 H :    0.015443
  16 S :    0.092979
  17 C :   -0.090152
  18 C :   -0.050897
  19 C :   -0.027006
  20 C :   -0.154946
  21 H :    0.038174
  22 C :    0.047694
  23 H :    0.050710
  24 H :    0.035764
  25 C :   -0.073281
  26 H :    0.028460
  27 H :    0.026419
  28 C :    0.006414
  29 H :    0.019419
  30 H :    0.020159
  31 H :   -0.000657
  32 H :    0.069456
  33 H :    0.054028
Sum of atomic charges:   -0.0000000

LOEWDIN ATOMIC CHARGES
----------------------
   0 S :    0.387646
   1 C :   -0.195926
   2 C :   -0.073733
   3 C :   -0.061047
   4 C :   -0.188090
   5 H :    0.030829
   6 C :   -0.041257
   7 H :    0.041339
   8 H :    0.031429
   9 C :   -0.032691
  10 H :    0.023155
  11 H :    0.015018
  12 C :   -0.064277
  13 H :    0.034956
  14 H :    0.023263
  15 H :    0.016159
  16 S :    0.391489
  17 C :   -0.174759
  18 C :   -0.081402
  19 C :   -0.049413
  20 C :   -0.187837
  21 H :    0.040341
  22 C :   -0.035618
  23 H :    0.042752
  24 H :    0.031798
  25 C :   -0.035618
  26 H :    0.022262
  27 H :    0.031606
  28 C :   -0.058040
  29 H :    0.012380
  30 H :    0.027272
  31 H :    0.015402
  32 H :    0.038274
  33 H :    0.022337

  Mayer bond orders larger than 0.100000
B(  0-S ,  1-C ) :   1.1363 B(  0-S ,  4-C ) :   1.1317 B(  1-C ,  2-C ) :   1.6075
B(  1-C , 32-H ) :   0.9558 B(  2-C ,  3-C ) :   1.2071 B(  2-C ,  6-C ) :   1.0592
B(  3-C ,  4-C ) :   1.6018 B(  3-C ,  5-H ) :   0.9907 B(  4-C , 20-C ) :   1.0390
B(  6-C ,  7-H ) :   0.9267 B(  6-C ,  8-H ) :   0.9411 B(  6-C ,  9-C ) :   1.0713
B(  9-C , 10-H ) :   0.9521 B(  9-C , 11-H ) :   0.9534 B(  9-C , 12-C ) :   1.0693
B( 12-C , 13-H ) :   0.9741 B( 12-C , 14-H ) :   0.9794 B( 12-C , 15-H ) :   0.9761
B( 16-S , 17-C ) :   1.1752 B( 16-S , 20-C ) :   1.1351 B( 17-C , 18-C ) :   1.5828
B( 17-C , 20-C ) :   0.1077 B( 17-C , 33-H ) :   0.9718 B( 18-C , 19-C ) :   1.2388
B( 18-C , 21-H ) :   0.9799 B( 19-C , 20-C ) :   1.5854 B( 19-C , 22-C ) :   1.0390
B( 22-C , 23-H ) :   0.9309 B( 22-C , 24-H ) :   0.9247 B( 22-C , 25-C ) :   1.0785
B( 25-C , 26-H ) :   0.9574 B( 25-C , 27-H ) :   0.9526 B( 25-C , 28-C ) :   1.0818
B( 28-C , 29-H ) :   0.9683 B( 28-C , 30-H ) :   0.9664 B( 28-C , 31-H ) :   0.9703

Dispersion correction           -0.014468294
FINAL SINGLE POINT ENERGY     -1339.875177004948

DIPOLE MOMENT
-------------
                                X             Y             Z
Electronic contribution:    -13.23202     -12.93546      13.20511
Nuclear contribution   :     13.68115      13.41737     -13.47428
                        -----------------------------------------
Total Dipole Moment    :      0.44913       0.48190      -0.26917
                        -----------------------------------------
Magnitude (a.u.)       :      0.71162
Magnitude (Debye)      :      1.80879

Rotational constants in cm-1:     0.019761     0.008267     0.007066
Rotational constants in MHz :   592.415699   247.845060   211.838638

                             ****ORCA TERMINATED NORMALLY****
TOTAL RUN TIME: 0 days 0 hours 0 minutes 36 seconds 389 msec
