                         Program Version 4.2.1 -  RELEASE  -
|  1> ! wB97X-D3 SP def2-SVP
|  2> %pal
|  3> nprocs 16
|  4> end
|  5>
|  6> * xyz 0 1
|  7> S 	 -106.072 	 50.6599 	 117.023
|  8> C 	 -107.095 	 49.9527 	 118.238
|  9> C 	 -106.683 	 50.2243 	 119.552
| 10> C 	 -105.614 	 51.1575 	 119.534
| 11> C 	 -105.116 	 51.4407 	 118.277
| 12> H 	 -105.148 	 51.4626 	 120.509
| 13> C 	 -107.17 	 49.613 	 120.897
| 14> H 	 -106.391 	 49.2252 	 121.403
| 15> H 	 -107.669 	 48.6946 	 120.661
| 16> C 	 -108.053 	 50.478 	 121.752
| 17> H 	 -108.83 	 51.0013 	 121.159
| 18> H 	 -108.647 	 49.7159 	 122.177
| 19> C 	 -107.424 	 51.4341 	 122.827
| 20> H 	 -108.163 	 51.9337 	 123.499
| 21> H 	 -106.791 	 50.9015 	 123.519
| 22> H 	 -106.809 	 52.2604 	 122.287
| 23> S 	 -102.582 	 52.255 	 118.557
| 24> C 	 -102.125 	 53.8243 	 118.085
| 25> C 	 -103.171 	 54.5848 	 117.727
| 26> C 	 -104.359 	 53.8412 	 117.525
| 27> C 	 -104.195 	 52.5253 	 117.995
| 28> H 	 -103.063 	 55.6052 	 117.526
| 29> C 	 -105.721 	 54.3514 	 117.004
| 30> H 	 -105.92 	 55.3444 	 117.474
| 31> H 	 -106.577 	 53.8631 	 117.324
| 32> C 	 -105.837 	 54.4889 	 115.512
| 33> H 	 -105.032 	 55.19 	 115.212
| 34> H 	 -106.779 	 55.005 	 115.242
| 35> C 	 -105.545 	 53.2229 	 114.654
| 36> H 	 -106.179 	 52.3695 	 114.627
| 37> H 	 -104.626 	 52.8179 	 114.845
| 38> H 	 -105.367 	 53.5628 	 113.618
| 39> H 	 -107.928 	 49.3204 	 118.032
| 40> H 	 -101.156 	 54.2537 	 118.177
| 41> *
| 42>
| 43>                          ****END OF INPUT****

CARTESIAN COORDINATES (ANGSTROEM)
---------------------------------
  S    -106.072000   50.659900  117.023000
  C    -107.095000   49.952700  118.238000
  C    -106.683000   50.224300  119.552000
  C    -105.614000   51.157500  119.534000
  C    -105.116000   51.440700  118.277000
  H    -105.148000   51.462600  120.509000
  C    -107.170000   49.613000  120.897000
  H    -106.391000   49.225200  121.403000
  H    -107.669000   48.694600  120.661000
  C    -108.053000   50.478000  121.752000
  H    -108.830000   51.001300  121.159000
  H    -108.647000   49.715900  122.177000
  C    -107.424000   51.434100  122.827000
  H    -108.163000   51.933700  123.499000
  H    -106.791000   50.901500  123.519000
  H    -106.809000   52.260400  122.287000
  S    -102.582000   52.255000  118.557000
  C    -102.125000   53.824300  118.085000
  C    -103.171000   54.584800  117.727000
  C    -104.359000   53.841200  117.525000
  C    -104.195000   52.525300  117.995000
  H    -103.063000   55.605200  117.526000
  C    -105.721000   54.351400  117.004000
  H    -105.920000   55.344400  117.474000
  H    -106.577000   53.863100  117.324000
  C    -105.837000   54.488900  115.512000
  H    -105.032000   55.190000  115.212000
  H    -106.779000   55.005000  115.242000
  C    -105.545000   53.222900  114.654000
  H    -106.179000   52.369500  114.627000
  H    -104.626000   52.817900  114.845000
  H    -105.367000   53.562800  113.618000
  H    -107.928000   49.320400  118.032000
  H    -101.156000   54.253700  118.177000

 Total Charge           Charge          ....    0
 Multiplicity           Mult            ....    1
 Number of Electrons    NEL             ....  134
 Basis Dimension        Dim             ....  322

ORBITAL ENERGIES
----------------

  NO   OCC          E(Eh)            E(eV)
   0   2.0000     -88.969944     -2420.9953
   1   2.0000     -88.961722     -2420.7715
   2   2.0000     -10.325140      -280.9613
   3   2.0000     -10.320096      -280.8241
   4   2.0000     -10.313201      -280.6365
   5   2.0000     -10.304345      -280.3955
   6   2.0000     -10.303024      -280.3595
   7   2.0000     -10.299640      -280.2675
   8   2.0000     -10.293530      -280.1012
   9   2.0000     -10.292000      -280.0596
  10   2.0000     -10.286190      -279.9014
  11   2.0000     -10.285784      -279.8904
  12   2.0000     -10.285381      -279.8795
  13   2.0000     -10.283567      -279.8301
  14   2.0000     -10.283446      -279.8268
  15   2.0000     -10.261503      -279.2297
  16   2.0000      -8.083910      -219.9744
  17   2.0000      -8.077839      -219.8092
  18   2.0000      -6.042310      -164.4196
  19   2.0000      -6.038526      -164.3167
  20   2.0000      -6.036118      -164.2511
  21   2.0000      -6.034827      -164.2160
  22   2.0000      -6.032105      -164.1419
  23   2.0000      -6.028821      -164.0526
  24   2.0000      -1.010275       -27.4910
  25   2.0000      -0.986219       -26.8364
  26   2.0000      -0.912778       -24.8380
  27   2.0000      -0.905167       -24.6308
  28   2.0000      -0.870523       -23.6881
  29   2.0000      -0.846090       -23.0233
  30   2.0000      -0.843386       -22.9497
  31   2.0000      -0.811387       -22.0790
  32   2.0000      -0.791976       -21.5508
  33   2.0000      -0.777928       -21.1685
  34   2.0000      -0.706845       -19.2342
  35   2.0000      -0.704579       -19.1726
  36   2.0000      -0.690679       -18.7943
  37   2.0000      -0.659348       -17.9418
  38   2.0000      -0.636495       -17.3199
  39   2.0000      -0.622692       -16.9443
  40   2.0000      -0.603822       -16.4308
  41   2.0000      -0.571028       -15.5385
  42   2.0000      -0.544973       -14.8295
  43   2.0000      -0.544723       -14.8227
  44   2.0000      -0.538330       -14.6487
  45   2.0000      -0.531015       -14.4496
  46   2.0000      -0.517352       -14.0779
  47   2.0000      -0.512202       -13.9377
  48   2.0000      -0.497884       -13.5481
  49   2.0000      -0.491947       -13.3866
  50   2.0000      -0.487627       -13.2690
  51   2.0000      -0.482908       -13.1406
  52   2.0000      -0.474763       -12.9190
  53   2.0000      -0.464749       -12.6465
  54   2.0000      -0.460426       -12.5288
  55   2.0000      -0.448944       -12.2164
  56   2.0000      -0.445068       -12.1109
  57   2.0000      -0.440016       -11.9734
  58   2.0000      -0.429777       -11.6948
  59   2.0000      -0.427013       -11.6196
  60   2.0000      -0.417064       -11.3489
  61   2.0000      -0.408368       -11.1123
  62   2.0000      -0.405677       -11.0390
  63   2.0000      -0.340928        -9.2771
  64   2.0000      -0.334740        -9.1087
  65   2.0000      -0.323029        -8.7901
  66   2.0000      -0.295980        -8.0540
  67   0.0000       0.040621         1.1054
  68   0.0000       0.065226         1.7749
  69   0.0000       0.111417         3.0318
  70   0.0000       0.116580         3.1723
  71   0.0000       0.140608         3.8261

MULLIKEN ATOMIC CHARGES
-----------------------
   0 S :    0.125552
   1 C :   -0.122328
   2 C :   -0.105756
   3 C :    0.023112
   4 C :   -0.152307
   5 H :    0.031982
   6 C :    0.125035
   7 H :   -0.002687
   8 H :    0.001884
   9 C :   -0.045633
  10 H :    0.028407
  11 H :    0.010351
  12 C :   -0.074731
  13 H :    0.044262
  14 H :    0.028769
  15 H :    0.053488
  16 S :    0.118277
  17 C :   -0.061472
  18 C :   -0.026267
  19 C :   -0.018477
  20 C :   -0.192086
  21 H :   -0.004612
  22 C :    0.100140
  23 H :    0.018329
  24 H :    0.009822
  25 C :   -0.073031
  26 H :    0.018812
  27 H :    0.034377
  28 C :   -0.020152
  29 H :    0.027765
  30 H :    0.004684
  31 H :    0.020384
  32 H :    0.034125
  33 H :    0.039984
Sum of atomic charges:   -0.0000000

LOEWDIN ATOMIC CHARGES
----------------------
   0 S :    0.429059
   1 C :   -0.199635
   2 C :   -0.060870
   3 C :   -0.062196
   4 C :   -0.207905
   5 H :    0.038286
   6 C :   -0.019394
   7 H :    0.018758
   8 H :    0.031740
   9 C :   -0.045055
  10 H :    0.030501
  11 H :    0.022002
  12 C :   -0.074178
  13 H :    0.032911
  14 H :    0.019873
  15 H :    0.036391
  16 S :    0.438295
  17 C :   -0.195932
  18 C :   -0.067144
  19 C :   -0.048387
  20 C :   -0.205902
  21 H :    0.023508
  22 C :   -0.034137
  23 H :    0.036597
  24 H :    0.018932
  25 C :   -0.038366
  26 H :    0.024981
  27 H :    0.027117
  28 C :   -0.071535
  29 H :    0.011829
  30 H :    0.013006
  31 H :    0.032288
  32 H :    0.019778
  33 H :    0.024784

  Mayer bond orders larger than 0.100000
B(  0-S ,  1-C ) :   1.1592 B(  0-S ,  4-C ) :   1.1423 B(  1-C ,  2-C ) :   1.5991
B(  1-C , 32-H ) :   0.9667 B(  2-C ,  3-C ) :   1.2748 B(  2-C ,  6-C ) :   1.0145
B(  3-C ,  4-C ) :   1.5785 B(  3-C ,  5-H ) :   0.9760 B(  4-C , 20-C ) :   1.0049
B(  6-C ,  7-H ) :   0.9326 B(  6-C ,  8-H ) :   0.9345 B(  6-C ,  9-C ) :   1.0661
B(  9-C , 10-H ) :   0.9554 B(  9-C , 11-H ) :   0.9533 B(  9-C , 12-C ) :   1.0675
B( 12-C , 13-H ) :   0.9739 B( 12-C , 14-H ) :   0.9762 B( 12-C , 15-H ) :   0.9743
B( 16-S , 17-C ) :   1.1606 B( 16-S , 20-C ) :   1.1725 B( 17-C , 18-C ) :   1.6064
B( 17-C , 33-H ) :   0.9683 B( 18-C , 19-C ) :   1.2607 B( 18-C , 21-H ) :   0.9977
B( 19-C , 20-C ) :   1.5664 B( 19-C , 22-C ) :   1.0284 B( 22-C , 23-H ) :   0.9320
B( 22-C , 24-H ) :   0.9388 B( 22-C , 25-C ) :   1.0784 B( 25-C , 26-H ) :   0.9566
B( 25-C , 27-H ) :   0.9559 B( 25-C , 28-C ) :   1.0705 B( 28-C , 29-H ) :   0.9747
B( 28-C , 30-H ) :   0.9665 B( 28-C , 31-H ) :   0.9693

Dispersion correction           -0.015393358
FINAL SINGLE POINT ENERGY     -1339.853720221717

DIPOLE MOMENT
-------------
                                X             Y             Z
Electronic contribution:     14.41885      -5.40621      -5.95143
Nuclear contribution   :    -14.73869       5.51698       6.36828
                        -----------------------------------------
Total Dipole Moment    :     -0.31983       0.11077       0.41685
                        -----------------------------------------
Magnitude (a.u.)       :      0.53696
Magnitude (Debye)      :      1.36484

Rotational constants in cm-1:     0.019424     0.008877     0.007585
Rotational constants in MHz :   582.317100   266.118555   227.391942

                             ****ORCA TERMINATED NORMALLY****
TOTAL RUN TIME: 0 days 0 hours 0 minutes 34 seconds 272 msec
