                         Program Version 4.2.1 -  RELEASE  -
|  1> ! wB97X-D3 SP def2-SVP
|  2> %pal
|  3> nprocs 16
|  4> end
|  5>
|  6> * xyz 0 1
|  7> S 	 -0.564671 	 77.3599 	 47.9505
|  8> C 	 -0.0885708 	 77.8539 	 49.5699
|  9> C 	 0.595236 	 76.8093 	 50.1879
| 10> C 	 0.918478 	 75.7692 	 49.2769
| 11> C 	 0.43319 	 75.916 	 48.0068
| 12> H 	 1.42882 	 74.8507 	 49.4653
| 13> C 	 1.03232 	 76.9045 	 51.6723
| 14> H 	 0.328399 	 76.3427 	 52.3298
| 15> H 	 0.984202 	 77.9135 	 52.0424
| 16> C 	 2.46725 	 76.4662 	 51.8063
| 17> H 	 2.70374 	 76.376 	 52.8411
| 18> H 	 2.60402 	 75.4438 	 51.4083
| 19> C 	 3.55902 	 77.404 	 51.2777
| 20> H 	 3.49026 	 77.5093 	 50.1792
| 21> H 	 3.42064 	 78.3678 	 51.7406
| 22> H 	 4.55402 	 77.1578 	 51.5986
| 23> S 	 0.207934 	 75.6092 	 45.3069
| 24> C 	 0.608388 	 74.076 	 44.5441
| 25> C 	 0.898262 	 73.1641 	 45.5202
| 26> C 	 0.837093 	 73.6098 	 46.855
| 27> C 	 0.507554 	 74.9532 	 46.9374
| 28> H 	 1.26473 	 72.1566 	 45.3286
| 29> C 	 1.16908 	 72.7183 	 47.963
| 30> H 	 0.521041 	 71.9082 	 47.6678
| 31> H 	 0.700983 	 72.991 	 48.8708
| 32> C 	 2.70546 	 72.4015 	 48.1927
| 33> H 	 2.72251 	 72.1889 	 49.3063
| 34> H 	 3.37858 	 73.2592 	 48.0516
| 35> C 	 3.17664 	 71.2242 	 47.3036
| 36> H 	 4.04693 	 70.6963 	 47.8079
| 37> H 	 3.54425 	 71.488 	 46.2385
| 38> H 	 2.39052 	 70.4762 	 47.1498
| 39> H 	 -0.386035 	 78.8042 	 50.0926
| 40> H 	 0.709212 	 73.9388 	 43.4679
| 41> *
| 42>
| 43>                          ****END OF INPUT****

CARTESIAN COORDINATES (ANGSTROEM)
---------------------------------
  S     -0.564671   77.359900   47.950500
  C     -0.088571   77.853900   49.569900
  C      0.595236   76.809300   50.187900
  C      0.918478   75.769200   49.276900
  C      0.433190   75.916000   48.006800
  H      1.428820   74.850700   49.465300
  C      1.032320   76.904500   51.672300
  H      0.328399   76.342700   52.329800
  H      0.984202   77.913500   52.042400
  C      2.467250   76.466200   51.806300
  H      2.703740   76.376000   52.841100
  H      2.604020   75.443800   51.408300
  C      3.559020   77.404000   51.277700
  H      3.490260   77.509300   50.179200
  H      3.420640   78.367800   51.740600
  H      4.554020   77.157800   51.598600
  S      0.207934   75.609200   45.306900
  C      0.608388   74.076000   44.544100
  C      0.898262   73.164100   45.520200
  C      0.837093   73.609800   46.855000
  C      0.507554   74.953200   46.937400
  H      1.264730   72.156600   45.328600
  C      1.169080   72.718300   47.963000
  H      0.521041   71.908200   47.667800
  H      0.700983   72.991000   48.870800
  C      2.705460   72.401500   48.192700
  H      2.722510   72.188900   49.306300
  H      3.378580   73.259200   48.051600
  C      3.176640   71.224200   47.303600
  H      4.046930   70.696300   47.807900
  H      3.544250   71.488000   46.238500
  H      2.390520   70.476200   47.149800
  H     -0.386035   78.804200   50.092600
  H      0.709212   73.938800   43.467900

 Total Charge           Charge          ....    0
 Multiplicity           Mult            ....    1
 Number of Electrons    NEL             ....  134
 Basis Dimension        Dim             ....  322

ORBITAL ENERGIES
----------------

  NO   OCC          E(Eh)            E(eV)
   0   2.0000     -88.963909     -2420.8310
   1   2.0000     -88.961856     -2420.7752
   2   2.0000     -10.327748      -281.0323
   3   2.0000     -10.327531      -281.0264
   4   2.0000     -10.319648      -280.8119
   5   2.0000     -10.317478      -280.7529
   6   2.0000     -10.305336      -280.4225
   7   2.0000     -10.303022      -280.3595
   8   2.0000     -10.297996      -280.2227
   9   2.0000     -10.295828      -280.1637
  10   2.0000     -10.295343      -280.1505
  11   2.0000     -10.290667      -280.0233
  12   2.0000     -10.288683      -279.9693
  13   2.0000     -10.288646      -279.9683
  14   2.0000     -10.281123      -279.7636
  15   2.0000     -10.273460      -279.5551
  16   2.0000      -8.078299      -219.8217
  17   2.0000      -8.076263      -219.7663
  18   2.0000      -6.036906      -164.2726
  19   2.0000      -6.034896      -164.2179
  20   2.0000      -6.032876      -164.1629
  21   2.0000      -6.030780      -164.1059
  22   2.0000      -6.028946      -164.0560
  23   2.0000      -6.026962      -164.0020
  24   2.0000      -1.008113       -27.4322
  25   2.0000      -0.984454       -26.7883
  26   2.0000      -0.914025       -24.8719
  27   2.0000      -0.911012       -24.7899
  28   2.0000      -0.871418       -23.7125
  29   2.0000      -0.851407       -23.1680
  30   2.0000      -0.839754       -22.8509
  31   2.0000      -0.815795       -22.1989
  32   2.0000      -0.785378       -21.3712
  33   2.0000      -0.773942       -21.0600
  34   2.0000      -0.713999       -19.4289
  35   2.0000      -0.702361       -19.1122
  36   2.0000      -0.689526       -18.7630
  37   2.0000      -0.664820       -18.0907
  38   2.0000      -0.640797       -17.4370
  39   2.0000      -0.623186       -16.9578
  40   2.0000      -0.602951       -16.4071
  41   2.0000      -0.564389       -15.3578
  42   2.0000      -0.553411       -15.0591
  43   2.0000      -0.544660       -14.8210
  44   2.0000      -0.537513       -14.6265
  45   2.0000      -0.535677       -14.5765
  46   2.0000      -0.526027       -14.3139
  47   2.0000      -0.506744       -13.7892
  48   2.0000      -0.503912       -13.7122
  49   2.0000      -0.501566       -13.6483
  50   2.0000      -0.489149       -13.3104
  51   2.0000      -0.484305       -13.1786
  52   2.0000      -0.472451       -12.8561
  53   2.0000      -0.470524       -12.8036
  54   2.0000      -0.459534       -12.5045
  55   2.0000      -0.453338       -12.3360
  56   2.0000      -0.444769       -12.1028
  57   2.0000      -0.439982       -11.9725
  58   2.0000      -0.432380       -11.7657
  59   2.0000      -0.426932       -11.6174
  60   2.0000      -0.420591       -11.4449
  61   2.0000      -0.407267       -11.0823
  62   2.0000      -0.401900       -10.9363
  63   2.0000      -0.361062        -9.8250
  64   2.0000      -0.332648        -9.0518
  65   2.0000      -0.327224        -8.9042
  66   2.0000      -0.281820        -7.6687
  67   0.0000       0.019657         0.5349
  68   0.0000       0.084712         2.3051
  69   0.0000       0.100850         2.7443
  70   0.0000       0.122331         3.3288
  71   0.0000       0.128151         3.4872

MULLIKEN ATOMIC CHARGES
-----------------------
   0 S :    0.098858
   1 C :   -0.141516
   2 C :   -0.079409
   3 C :   -0.018405
   4 C :   -0.080362
   5 H :   -0.015618
   6 C :    0.101655
   7 H :    0.046958
   8 H :    0.007022
   9 C :   -0.097266
  10 H :    0.012358
  11 H :    0.027683
  12 C :   -0.032542
  13 H :    0.049355
  14 H :    0.013393
  15 H :    0.027935
  16 S :    0.079604
  17 C :   -0.077548
  18 C :   -0.031232
  19 C :   -0.044631
  20 C :   -0.135949
  21 H :    0.009240
  22 C :    0.021256
  23 H :    0.031166
  24 H :    0.009191
  25 C :   -0.056690
  26 H :    0.044243
  27 H :    0.052636
  28 C :   -0.097787
  29 H :    0.047639
  30 H :    0.057072
  31 H :    0.035636
  32 H :    0.070608
  33 H :    0.065447
Sum of atomic charges:    0.0000000

LOEWDIN ATOMIC CHARGES
----------------------
   0 S :    0.392998
   1 C :   -0.204528
   2 C :   -0.061517
   3 C :   -0.073433
   4 C :   -0.184055
   5 H :    0.024465
   6 C :   -0.025652
   7 H :    0.038651
   8 H :    0.025475
   9 C :   -0.047724
  10 H :    0.019248
  11 H :    0.021297
  12 C :   -0.061129
  13 H :    0.029826
  14 H :    0.021680
  15 H :    0.024583
  16 S :    0.382448
  17 C :   -0.177545
  18 C :   -0.074279
  19 C :   -0.061489
  20 C :   -0.178418
  21 H :    0.030199
  22 C :   -0.040487
  23 H :    0.039994
  24 H :    0.022865
  25 C :   -0.037363
  26 H :    0.033739
  27 H :    0.032426
  28 C :   -0.082555
  29 H :    0.034786
  30 H :    0.036086
  31 H :    0.021878
  32 H :    0.042315
  33 H :    0.035214

  Mayer bond orders larger than 0.100000
B(  0-S ,  1-C ) :   1.1334 B(  0-S ,  4-C ) :   1.1368 B(  1-C ,  2-C ) :   1.6016
B(  1-C , 32-H ) :   0.9636 B(  2-C ,  3-C ) :   1.2329 B(  2-C ,  6-C ) :   1.0143
B(  3-C ,  4-C ) :   1.5805 B(  3-C ,  5-H ) :   1.0007 B(  4-C , 20-C ) :   1.0869
B(  6-C ,  7-H ) :   0.9350 B(  6-C ,  8-H ) :   0.9429 B(  6-C ,  9-C ) :   1.0822
B(  9-C , 10-H ) :   0.9502 B(  9-C , 11-H ) :   0.9523 B(  9-C , 12-C ) :   1.0782
B( 12-C , 13-H ) :   0.9758 B( 12-C , 14-H ) :   0.9695 B( 12-C , 15-H ) :   0.9744
B( 16-S , 17-C ) :   1.1469 B( 16-S , 20-C ) :   1.1254 B( 17-C , 18-C ) :   1.5860
B( 17-C , 33-H ) :   0.9699 B( 18-C , 19-C ) :   1.2720 B( 18-C , 21-H ) :   0.9806
B( 19-C , 20-C ) :   1.5762 B( 19-C , 22-C ) :   1.0304 B( 22-C , 23-H ) :   0.9338
B( 22-C , 24-H ) :   0.9363 B( 22-C , 25-C ) :   1.0365 B( 25-C , 26-H ) :   0.9618
B( 25-C , 27-H ) :   0.9594 B( 25-C , 28-C ) :   1.0652 B( 28-C , 29-H ) :   0.9722
B( 28-C , 30-H ) :   0.9715 B( 28-C , 31-H ) :   0.9775

Dispersion correction           -0.014658867
FINAL SINGLE POINT ENERGY     -1339.875806261065

DIPOLE MOMENT
-------------
                                X             Y             Z
Electronic contribution:    -18.59567      12.43347     -18.49514
Nuclear contribution   :     19.01860     -12.97154      19.03647
                        -----------------------------------------
Total Dipole Moment    :      0.42293      -0.53807       0.54134
                        -----------------------------------------
Magnitude (a.u.)       :      0.87260
Magnitude (Debye)      :      2.21798

Rotational constants in cm-1:     0.017843     0.009778     0.006859
Rotational constants in MHz :   534.925382   293.123215   205.639347

                             ****ORCA TERMINATED NORMALLY****
TOTAL RUN TIME: 0 days 0 hours 0 minutes 33 seconds 111 msec
