                         Program Version 4.2.1 -  RELEASE  -
|  1> ! wB97X-D3 SP def2-SVP
|  2> %pal
|  3> nprocs 16
|  4> end
|  5>
|  6> * xyz 0 1
|  7> S 	 8.5437 	 -21.6559 	 83.4981
|  8> C 	 7.9308 	 -20.0136 	 82.9772
|  9> C 	 8.42945 	 -19.6571 	 81.764
| 10> C 	 9.47933 	 -20.5279 	 81.3692
| 11> C 	 9.61249 	 -21.7037 	 82.1291
| 12> H 	 10.1622 	 -20.2933 	 80.5874
| 13> C 	 8.19665 	 -18.3541 	 81.0001
| 14> H 	 7.78413 	 -18.722 	 80.0155
| 15> H 	 9.08537 	 -17.8042 	 80.8286
| 16> C 	 6.99889 	 -17.421 	 81.4129
| 17> H 	 6.13401 	 -17.9757 	 81.3321
| 18> H 	 7.12604 	 -17.1975 	 82.449
| 19> C 	 6.84343 	 -16.1793 	 80.5275
| 20> H 	 5.95724 	 -15.6352 	 80.7481
| 21> H 	 7.78756 	 -15.536 	 80.5773
| 22> H 	 6.70103 	 -16.4746 	 79.4789
| 23> S 	 9.89795 	 -24.2868 	 81.2809
| 24> C 	 11.3783 	 -25.1039 	 81.6746
| 25> C 	 12.3168 	 -24.3201 	 82.2739
| 26> C 	 11.8414 	 -22.9806 	 82.4559
| 27> C 	 10.5299 	 -22.8087 	 82.0222
| 28> H 	 13.2799 	 -24.7544 	 82.5144
| 29> C 	 12.6903 	 -21.9037 	 83.1306
| 30> H 	 12.3581 	 -20.9819 	 82.7682
| 31> H 	 13.7539 	 -21.8881 	 82.6938
| 32> C 	 12.8295 	 -22.1398 	 84.6632
| 33> H 	 13.5919 	 -22.9218 	 84.7778
| 34> H 	 11.8658 	 -22.5779 	 84.9392
| 35> C 	 13.2002 	 -20.8883 	 85.5327
| 36> H 	 12.3536 	 -20.2606 	 85.7256
| 37> H 	 13.8965 	 -20.207 	 85.0455
| 38> H 	 13.597 	 -21.3066 	 86.4654
| 39> H 	 7.36054 	 -19.3218 	 83.538
| 40> H 	 11.7549 	 -26.0438 	 81.1974
| 41> *
| 42>
| 43>                          ****END OF INPUT****

CARTESIAN COORDINATES (ANGSTROEM)
---------------------------------
  S      8.543700  -21.655900   83.498100
  C      7.930800  -20.013600   82.977200
  C      8.429450  -19.657100   81.764000
  C      9.479330  -20.527900   81.369200
  C      9.612490  -21.703700   82.129100
  H     10.162200  -20.293300   80.587400
  C      8.196650  -18.354100   81.000100
  H      7.784130  -18.722000   80.015500
  H      9.085370  -17.804200   80.828600
  C      6.998890  -17.421000   81.412900
  H      6.134010  -17.975700   81.332100
  H      7.126040  -17.197500   82.449000
  C      6.843430  -16.179300   80.527500
  H      5.957240  -15.635200   80.748100
  H      7.787560  -15.536000   80.577300
  H      6.701030  -16.474600   79.478900
  S      9.897950  -24.286800   81.280900
  C     11.378300  -25.103900   81.674600
  C     12.316800  -24.320100   82.273900
  C     11.841400  -22.980600   82.455900
  C     10.529900  -22.808700   82.022200
  H     13.279900  -24.754400   82.514400
  C     12.690300  -21.903700   83.130600
  H     12.358100  -20.981900   82.768200
  H     13.753900  -21.888100   82.693800
  C     12.829500  -22.139800   84.663200
  H     13.591900  -22.921800   84.777800
  H     11.865800  -22.577900   84.939200
  C     13.200200  -20.888300   85.532700
  H     12.353600  -20.260600   85.725600
  H     13.896500  -20.207000   85.045500
  H     13.597000  -21.306600   86.465400
  H      7.360540  -19.321800   83.538000
  H     11.754900  -26.043800   81.197400

 Total Charge           Charge          ....    0
 Multiplicity           Mult            ....    1
 Number of Electrons    NEL             ....  134
 Basis Dimension        Dim             ....  322

ORBITAL ENERGIES
----------------

  NO   OCC          E(Eh)            E(eV)
   0   2.0000     -88.965555     -2420.8758
   1   2.0000     -88.964685     -2420.8522
   2   2.0000     -10.328924      -281.0643
   3   2.0000     -10.325144      -280.9614
   4   2.0000     -10.314392      -280.6689
   5   2.0000     -10.314110      -280.6612
   6   2.0000     -10.305576      -280.4290
   7   2.0000     -10.301355      -280.3141
   8   2.0000     -10.298293      -280.2308
   9   2.0000     -10.293792      -280.1083
  10   2.0000     -10.290841      -280.0280
  11   2.0000     -10.289598      -279.9942
  12   2.0000     -10.288462      -279.9633
  13   2.0000     -10.286338      -279.9055
  14   2.0000     -10.283836      -279.8374
  15   2.0000     -10.277686      -279.6700
  16   2.0000      -8.079501      -219.8544
  17   2.0000      -8.079260      -219.8478
  18   2.0000      -6.038014      -164.3027
  19   2.0000      -6.037907      -164.2998
  20   2.0000      -6.034042      -164.1946
  21   2.0000      -6.033910      -164.1910
  22   2.0000      -6.030198      -164.0900
  23   2.0000      -6.029911      -164.0822
  24   2.0000      -1.004296       -27.3283
  25   2.0000      -0.980925       -26.6923
  26   2.0000      -0.911982       -24.8163
  27   2.0000      -0.899851       -24.4862
  28   2.0000      -0.872815       -23.7505
  29   2.0000      -0.845253       -23.0005
  30   2.0000      -0.844043       -22.9676
  31   2.0000      -0.811255       -22.0754
  32   2.0000      -0.785284       -21.3687
  33   2.0000      -0.771508       -20.9938
  34   2.0000      -0.715375       -19.4664
  35   2.0000      -0.703699       -19.1486
  36   2.0000      -0.694359       -18.8945
  37   2.0000      -0.653836       -17.7918
  38   2.0000      -0.637982       -17.3604
  39   2.0000      -0.614065       -16.7096
  40   2.0000      -0.591520       -16.0961
  41   2.0000      -0.577520       -15.7151
  42   2.0000      -0.570453       -15.5228
  43   2.0000      -0.553049       -15.0492
  44   2.0000      -0.529181       -14.3997
  45   2.0000      -0.521568       -14.1926
  46   2.0000      -0.518172       -14.1002
  47   2.0000      -0.514799       -14.0084
  48   2.0000      -0.501598       -13.6492
  49   2.0000      -0.493311       -13.4237
  50   2.0000      -0.489788       -13.3278
  51   2.0000      -0.476872       -12.9763
  52   2.0000      -0.471807       -12.8385
  53   2.0000      -0.465687       -12.6720
  54   2.0000      -0.455644       -12.3987
  55   2.0000      -0.449552       -12.2329
  56   2.0000      -0.443696       -12.0736
  57   2.0000      -0.438426       -11.9302
  58   2.0000      -0.435988       -11.8638
  59   2.0000      -0.428133       -11.6501
  60   2.0000      -0.422158       -11.4875
  61   2.0000      -0.412430       -11.2228
  62   2.0000      -0.409567       -11.1449
  63   2.0000      -0.336384        -9.1535
  64   2.0000      -0.331792        -9.0285
  65   2.0000      -0.320623        -8.7246
  66   2.0000      -0.305570        -8.3150
  67   0.0000       0.045867         1.2481
  68   0.0000       0.050145         1.3645
  69   0.0000       0.109947         2.9918
  70   0.0000       0.115711         3.1486
  71   0.0000       0.126751         3.4491

MULLIKEN ATOMIC CHARGES
-----------------------
   0 S :    0.110407
   1 C :   -0.121357
   2 C :   -0.047214
   3 C :    0.046504
   4 C :   -0.166156
   5 H :    0.000411
   6 C :    0.013043
   7 H :    0.040327
   8 H :    0.036230
   9 C :   -0.054236
  10 H :    0.015594
  11 H :    0.023419
  12 C :   -0.046120
  13 H :    0.033995
  14 H :    0.044323
  15 H :    0.026348
  16 S :    0.117872
  17 C :   -0.092602
  18 C :   -0.052801
  19 C :   -0.024726
  20 C :   -0.198510
  21 H :    0.021724
  22 C :    0.092032
  23 H :   -0.001254
  24 H :    0.026828
  25 C :   -0.087604
  26 H :    0.032013
  27 H :    0.040777
  28 C :   -0.033897
  29 H :    0.035519
  30 H :    0.028904
  31 H :    0.040996
  32 H :    0.028837
  33 H :    0.070377
Sum of atomic charges:   -0.0000000

LOEWDIN ATOMIC CHARGES
----------------------
   0 S :    0.385206
   1 C :   -0.171610
   2 C :   -0.063360
   3 C :   -0.053003
   4 C :   -0.202405
   5 H :    0.025869
   6 C :   -0.027808
   7 H :    0.042974
   8 H :    0.024578
   9 C :   -0.035326
  10 H :    0.015615
  11 H :    0.015144
  12 C :   -0.062592
  13 H :    0.024239
  14 H :    0.033615
  15 H :    0.026355
  16 S :    0.405500
  17 C :   -0.196558
  18 C :   -0.074926
  19 C :   -0.045706
  20 C :   -0.207568
  21 H :    0.033901
  22 C :   -0.034852
  23 H :    0.016156
  24 H :    0.036661
  25 C :   -0.036770
  26 H :    0.023807
  27 H :    0.025454
  28 C :   -0.062958
  29 H :    0.025050
  30 H :    0.024605
  31 H :    0.030731
  32 H :    0.019511
  33 H :    0.040473

  Mayer bond orders larger than 0.100000
B(  0-S ,  1-C ) :   1.1145 B(  0-S ,  4-C ) :   1.1442 B(  1-C ,  2-C ) :   1.6499
B(  1-C , 32-H ) :   0.9677 B(  2-C ,  3-C ) :   1.2223 B(  2-C ,  6-C ) :   0.9974
B(  3-C ,  4-C ) :   1.5988 B(  3-C ,  5-H ) :   1.0033 B(  4-C , 20-C ) :   1.0196
B(  6-C ,  7-H ) :   0.9402 B(  6-C ,  8-H ) :   0.9550 B(  6-C ,  9-C ) :   1.0621
B(  9-C , 10-H ) :   0.9557 B(  9-C , 11-H ) :   0.9516 B(  9-C , 12-C ) :   1.0922
B( 12-C , 13-H ) :   0.9720 B( 12-C , 14-H ) :   0.9759 B( 12-C , 15-H ) :   0.9726
B( 16-S , 17-C ) :   1.1525 B( 16-S , 20-C ) :   1.1399 B( 17-C , 18-C ) :   1.6460
B( 17-C , 33-H ) :   0.9509 B( 18-C , 19-C ) :   1.2163 B( 18-C , 21-H ) :   0.9904
B( 19-C , 20-C ) :   1.6119 B( 19-C , 22-C ) :   1.0532 B( 22-C , 23-H ) :   0.9334
B( 22-C , 24-H ) :   0.9339 B( 22-C , 25-C ) :   1.0329 B( 25-C , 26-H ) :   0.9595
B( 25-C , 27-H ) :   0.9635 B( 25-C , 28-C ) :   1.0717 B( 28-C , 29-H ) :   0.9779
B( 28-C , 30-H ) :   0.9766 B( 28-C , 31-H ) :   0.9771

Dispersion correction           -0.013874601
FINAL SINGLE POINT ENERGY     -1339.862766091179

DIPOLE MOMENT
-------------
                                X             Y             Z
Electronic contribution:     -5.16589     -23.78261      -2.88745
Nuclear contribution   :      5.52460      24.36324       2.74476
                        -----------------------------------------
Total Dipole Moment    :      0.35871       0.58063      -0.14268
                        -----------------------------------------
Magnitude (a.u.)       :      0.69725
Magnitude (Debye)      :      1.77227

Rotational constants in cm-1:     0.020649     0.007238     0.006120
Rotational constants in MHz :   619.043971   216.985073   183.465324

                             ****ORCA TERMINATED NORMALLY****
TOTAL RUN TIME: 0 days 0 hours 0 minutes 32 seconds 602 msec
