                         Program Version 4.2.1 -  RELEASE  -
|  1> ! wB97X-D3 SP def2-SVP
|  2> %pal
|  3> nprocs 16
|  4> end
|  5>
|  6> * xyz 0 1
|  7> S 	 -47.3956 	 19.7488 	 80.8011
|  8> C 	 -47.2019 	 20.232 	 82.5076
|  9> C 	 -46.8341 	 19.1522 	 83.3058
| 10> C 	 -46.4631 	 17.9977 	 82.4867
| 11> C 	 -46.4977 	 18.2582 	 81.0936
| 12> H 	 -46.045 	 17.0578 	 82.8552
| 13> C 	 -46.8054 	 19.1216 	 84.8633
| 14> H 	 -47.6341 	 18.4702 	 85.0705
| 15> H 	 -47.1605 	 20.1069 	 85.1973
| 16> C 	 -45.5256 	 18.7908 	 85.7126
| 17> H 	 -45.2923 	 17.7467 	 85.5428
| 18> H 	 -44.6446 	 19.0753 	 85.1957
| 19> C 	 -45.601 	 19.2255 	 87.158
| 20> H 	 -45.777 	 20.3675 	 87.3472
| 21> H 	 -46.3327 	 18.6838 	 87.6479
| 22> H 	 -44.6603 	 18.8228 	 87.6645
| 23> S 	 -47.3064 	 16.8646 	 78.872
| 24> C 	 -46.174 	 15.9476 	 77.9699
| 25> C 	 -44.9423 	 15.9064 	 78.6126
| 26> C 	 -44.8923 	 16.8246 	 79.7401
| 27> C 	 -46.1263 	 17.3523 	 80.0779
| 28> H 	 -44.1144 	 15.3456 	 78.1282
| 29> C 	 -43.5784 	 17.2247 	 80.3525
| 30> H 	 -42.8698 	 16.4765 	 80.0154
| 31> H 	 -43.5858 	 17.1149 	 81.4552
| 32> C 	 -43.0293 	 18.6019 	 79.906
| 33> H 	 -43.6975 	 19.3302 	 80.3153
| 34> H 	 -43.1708 	 18.6624 	 78.7995
| 35> C 	 -41.596 	 18.9312 	 80.4206
| 36> H 	 -41.348 	 19.9823 	 80.3809
| 37> H 	 -40.9166 	 18.3668 	 79.7751
| 38> H 	 -41.5193 	 18.5602 	 81.4836
| 39> H 	 -47.5875 	 21.1115 	 82.9862
| 40> H 	 -46.4505 	 15.4764 	 76.9833
| 41> *
| 42>
| 43>                          ****END OF INPUT****

CARTESIAN COORDINATES (ANGSTROEM)
---------------------------------
  S    -47.395600   19.748800   80.801100
  C    -47.201900   20.232000   82.507600
  C    -46.834100   19.152200   83.305800
  C    -46.463100   17.997700   82.486700
  C    -46.497700   18.258200   81.093600
  H    -46.045000   17.057800   82.855200
  C    -46.805400   19.121600   84.863300
  H    -47.634100   18.470200   85.070500
  H    -47.160500   20.106900   85.197300
  C    -45.525600   18.790800   85.712600
  H    -45.292300   17.746700   85.542800
  H    -44.644600   19.075300   85.195700
  C    -45.601000   19.225500   87.158000
  H    -45.777000   20.367500   87.347200
  H    -46.332700   18.683800   87.647900
  H    -44.660300   18.822800   87.664500
  S    -47.306400   16.864600   78.872000
  C    -46.174000   15.947600   77.969900
  C    -44.942300   15.906400   78.612600
  C    -44.892300   16.824600   79.740100
  C    -46.126300   17.352300   80.077900
  H    -44.114400   15.345600   78.128200
  C    -43.578400   17.224700   80.352500
  H    -42.869800   16.476500   80.015400
  H    -43.585800   17.114900   81.455200
  C    -43.029300   18.601900   79.906000
  H    -43.697500   19.330200   80.315300
  H    -43.170800   18.662400   78.799500
  C    -41.596000   18.931200   80.420600
  H    -41.348000   19.982300   80.380900
  H    -40.916600   18.366800   79.775100
  H    -41.519300   18.560200   81.483600
  H    -47.587500   21.111500   82.986200
  H    -46.450500   15.476400   76.983300

 Total Charge           Charge          ....    0
 Multiplicity           Mult            ....    1
 Number of Electrons    NEL             ....  134
 Basis Dimension        Dim             ....  322

ORBITAL ENERGIES
----------------

  NO   OCC          E(Eh)            E(eV)
   0   2.0000     -88.968236     -2420.9488
   1   2.0000     -88.962517     -2420.7932
   2   2.0000     -10.331801      -281.1426
   3   2.0000     -10.321968      -280.8750
   4   2.0000     -10.321809      -280.8707
   5   2.0000     -10.316732      -280.7325
   6   2.0000     -10.310521      -280.5636
   7   2.0000     -10.305621      -280.4302
   8   2.0000     -10.301921      -280.3295
   9   2.0000     -10.299795      -280.2717
  10   2.0000     -10.298293      -280.2308
  11   2.0000     -10.291116      -280.0355
  12   2.0000     -10.288833      -279.9734
  13   2.0000     -10.288182      -279.9557
  14   2.0000     -10.283121      -279.8180
  15   2.0000     -10.281868      -279.7839
  16   2.0000      -8.081966      -219.9215
  17   2.0000      -8.078182      -219.8185
  18   2.0000      -6.040636      -164.3741
  19   2.0000      -6.036788      -164.2694
  20   2.0000      -6.036595      -164.2641
  21   2.0000      -6.032456      -164.1515
  22   2.0000      -6.032428      -164.1507
  23   2.0000      -6.029077      -164.0595
  24   2.0000      -1.006065       -27.3764
  25   2.0000      -0.977767       -26.6064
  26   2.0000      -0.907021       -24.6813
  27   2.0000      -0.904180       -24.6040
  28   2.0000      -0.873701       -23.7746
  29   2.0000      -0.848246       -23.0819
  30   2.0000      -0.842199       -22.9174
  31   2.0000      -0.809740       -22.0342
  32   2.0000      -0.780889       -21.2491
  33   2.0000      -0.770456       -20.9652
  34   2.0000      -0.716111       -19.4864
  35   2.0000      -0.704114       -19.1599
  36   2.0000      -0.689742       -18.7688
  37   2.0000      -0.660230       -17.9658
  38   2.0000      -0.636219       -17.3124
  39   2.0000      -0.613791       -16.7021
  40   2.0000      -0.592097       -16.1118
  41   2.0000      -0.564013       -15.3476
  42   2.0000      -0.558309       -15.1924
  43   2.0000      -0.554945       -15.1008
  44   2.0000      -0.526467       -14.3259
  45   2.0000      -0.516905       -14.0657
  46   2.0000      -0.513346       -13.9689
  47   2.0000      -0.510403       -13.8888
  48   2.0000      -0.505220       -13.7477
  49   2.0000      -0.502643       -13.6776
  50   2.0000      -0.491527       -13.3751
  51   2.0000      -0.485123       -13.2009
  52   2.0000      -0.475112       -12.9285
  53   2.0000      -0.466071       -12.6824
  54   2.0000      -0.456974       -12.4349
  55   2.0000      -0.444679       -12.1003
  56   2.0000      -0.442986       -12.0543
  57   2.0000      -0.434847       -11.8328
  58   2.0000      -0.431216       -11.7340
  59   2.0000      -0.428941       -11.6721
  60   2.0000      -0.422981       -11.5099
  61   2.0000      -0.409500       -11.1431
  62   2.0000      -0.406696       -11.0668
  63   2.0000      -0.341815        -9.3013
  64   2.0000      -0.329197        -8.9579
  65   2.0000      -0.327224        -8.9042
  66   2.0000      -0.293126        -7.9764
  67   0.0000       0.024390         0.6637
  68   0.0000       0.064798         1.7633
  69   0.0000       0.106149         2.8885
  70   0.0000       0.122984         3.3466
  71   0.0000       0.129776         3.5314

MULLIKEN ATOMIC CHARGES
-----------------------
   0 S :    0.109212
   1 C :   -0.097729
   2 C :   -0.113148
   3 C :    0.034634
   4 C :   -0.166386
   5 H :    0.022631
   6 C :    0.062146
   7 H :    0.039514
   8 H :    0.004607
   9 C :   -0.030438
  10 H :    0.011385
  11 H :    0.012435
  12 C :   -0.059688
  13 H :    0.062592
  14 H :    0.020527
  15 H :    0.042437
  16 S :    0.105094
  17 C :   -0.124423
  18 C :   -0.036552
  19 C :   -0.066747
  20 C :   -0.151093
  21 H :    0.037460
  22 C :    0.074815
  23 H :    0.003805
  24 H :    0.024686
  25 C :   -0.081166
  26 H :    0.030260
  27 H :    0.035161
  28 C :   -0.045046
  29 H :    0.042892
  30 H :    0.033507
  31 H :    0.038273
  32 H :    0.039806
  33 H :    0.084538
Sum of atomic charges:   -0.0000000

LOEWDIN ATOMIC CHARGES
----------------------
   0 S :    0.386163
   1 C :   -0.189955
   2 C :   -0.056725
   3 C :   -0.056005
   4 C :   -0.191666
   5 H :    0.030744
   6 C :   -0.032011
   7 H :    0.033357
   8 H :    0.025823
   9 C :   -0.050754
  10 H :    0.025829
  11 H :    0.022266
  12 C :   -0.068210
  13 H :    0.042050
  14 H :    0.014800
  15 H :    0.040773
  16 S :    0.413577
  17 C :   -0.200888
  18 C :   -0.082237
  19 C :   -0.052075
  20 C :   -0.207177
  21 H :    0.038986
  22 C :   -0.036179
  23 H :    0.024628
  24 H :    0.029271
  25 C :   -0.040247
  26 H :    0.020187
  27 H :    0.028213
  28 C :   -0.064735
  29 H :    0.026594
  30 H :    0.024730
  31 H :    0.032334
  32 H :    0.025433
  33 H :    0.043105

  Mayer bond orders larger than 0.100000
B(  0-S ,  1-C ) :   1.1183 B(  0-S ,  4-C ) :   1.1253 B(  1-C ,  2-C ) :   1.6422
B(  1-C , 32-H ) :   0.9627 B(  2-C ,  3-C ) :   1.2146 B(  2-C ,  6-C ) :   1.0168
B(  3-C ,  4-C ) :   1.5710 B(  3-C ,  5-H ) :   0.9888 B(  4-C , 20-C ) :   1.1008
B(  6-C ,  7-H ) :   0.9373 B(  6-C ,  8-H ) :   0.9444 B(  6-C ,  9-C ) :   1.0399
B(  9-C , 10-H ) :   0.9420 B(  9-C , 11-H ) :   0.9548 B(  9-C , 12-C ) :   1.0841
B( 12-C , 13-H ) :   0.9722 B( 12-C , 14-H ) :   0.9754 B( 12-C , 15-H ) :   0.9689
B( 16-S , 17-C ) :   1.1763 B( 16-S , 20-C ) :   1.1273 B( 17-C , 18-C ) :   1.5946
B( 17-C , 33-H ) :   0.9588 B( 18-C , 19-C ) :   1.2446 B( 18-C , 21-H ) :   0.9840
B( 19-C , 20-C ) :   1.5874 B( 19-C , 22-C ) :   1.0610 B( 22-C , 23-H ) :   0.9288
B( 22-C , 24-H ) :   0.9235 B( 22-C , 25-C ) :   1.0592 B( 25-C , 26-H ) :   0.9561
B( 25-C , 27-H ) :   0.9562 B( 25-C , 28-C ) :   1.0721 B( 28-C , 29-H ) :   0.9762
B( 28-C , 30-H ) :   0.9779 B( 28-C , 31-H ) :   0.9731

Dispersion correction           -0.014010540
FINAL SINGLE POINT ENERGY     -1339.862522711308

DIPOLE MOMENT
-------------
                                X             Y             Z
Electronic contribution:    -20.36700      -3.43649     -21.51160
Nuclear contribution   :     20.78009       3.27821      21.94828
                        -----------------------------------------
Total Dipole Moment    :      0.41309      -0.15829       0.43668
                        -----------------------------------------
Magnitude (a.u.)       :      0.62160
Magnitude (Debye)      :      1.57998

Rotational constants in cm-1:     0.018039     0.008149     0.006685
Rotational constants in MHz :   540.794408   244.309082   200.417907

                             ****ORCA TERMINATED NORMALLY****
TOTAL RUN TIME: 0 days 0 hours 0 minutes 27 seconds 860 msec
