                         Program Version 4.2.1 -  RELEASE  -
|  1> ! wB97X-D3 SP def2-SVP
|  2> %pal
|  3> nprocs 16
|  4> end
|  5>
|  6> * xyz 0 1
|  7> S 	 -1.28648 	 -22.7522 	 57.8529
|  8> C 	 -0.77239 	 -21.6807 	 59.134
|  9> C 	 0.0424083 	 -22.3006 	 60.0396
| 10> C 	 0.243891 	 -23.6491 	 59.6655
| 11> C 	 -0.366881 	 -24.0315 	 58.5017
| 12> H 	 0.875338 	 -24.3459 	 60.087
| 13> C 	 0.584239 	 -21.7466 	 61.2632
| 14> H 	 0.229874 	 -22.2518 	 62.1166
| 15> H 	 0.232308 	 -20.6887 	 61.4104
| 16> C 	 2.10412 	 -21.6529 	 61.4188
| 17> H 	 2.26429 	 -21.0817 	 62.4422
| 18> H 	 2.69045 	 -22.5994 	 61.6392
| 19> C 	 2.87219 	 -20.8309 	 60.3594
| 20> H 	 2.98442 	 -19.7867 	 60.6798
| 21> H 	 3.89141 	 -21.2788 	 60.2674
| 22> H 	 2.46282 	 -20.8721 	 59.3656
| 23> S 	 -2.09559 	 -26.1153 	 58.5584
| 24> C 	 -1.57809 	 -27.654 	 57.8612
| 25> C 	 -0.37754 	 -27.5973 	 57.1853
| 26> C 	 0.239846 	 -26.2958 	 57.3251
| 27> C 	 -0.596042 	 -25.4063 	 58.0257
| 28> H 	 0.0168917 	 -28.5314 	 56.7865
| 29> C 	 1.60828 	 -26.0204 	 56.7349
| 30> H 	 2.00096 	 -26.9918 	 56.8198
| 31> H 	 2.25985 	 -25.2991 	 57.3257
| 32> C 	 1.53107 	 -25.8267 	 55.2004
| 33> H 	 0.97022 	 -26.6471 	 54.7204
| 34> H 	 2.56871 	 -25.9403 	 54.8008
| 35> C 	 1.03091 	 -24.4533 	 54.8067
| 36> H 	 1.8261 	 -23.6466 	 55.0688
| 37> H 	 0.0534603 	 -24.2178 	 55.316
| 38> H 	 0.870383 	 -24.4945 	 53.7783
| 39> H 	 -1.16732 	 -20.7409 	 59.3568
| 40> H 	 -1.98095 	 -28.588 	 57.8947
| 41> *
| 42>
| 43>                          ****END OF INPUT****

CARTESIAN COORDINATES (ANGSTROEM)
---------------------------------
  S     -1.286480  -22.752200   57.852900
  C     -0.772390  -21.680700   59.134000
  C      0.042408  -22.300600   60.039600
  C      0.243891  -23.649100   59.665500
  C     -0.366881  -24.031500   58.501700
  H      0.875338  -24.345900   60.087000
  C      0.584239  -21.746600   61.263200
  H      0.229874  -22.251800   62.116600
  H      0.232308  -20.688700   61.410400
  C      2.104120  -21.652900   61.418800
  H      2.264290  -21.081700   62.442200
  H      2.690450  -22.599400   61.639200
  C      2.872190  -20.830900   60.359400
  H      2.984420  -19.786700   60.679800
  H      3.891410  -21.278800   60.267400
  H      2.462820  -20.872100   59.365600
  S     -2.095590  -26.115300   58.558400
  C     -1.578090  -27.654000   57.861200
  C     -0.377540  -27.597300   57.185300
  C      0.239846  -26.295800   57.325100
  C     -0.596042  -25.406300   58.025700
  H      0.016892  -28.531400   56.786500
  C      1.608280  -26.020400   56.734900
  H      2.000960  -26.991800   56.819800
  H      2.259850  -25.299100   57.325700
  C      1.531070  -25.826700   55.200400
  H      0.970220  -26.647100   54.720400
  H      2.568710  -25.940300   54.800800
  C      1.030910  -24.453300   54.806700
  H      1.826100  -23.646600   55.068800
  H      0.053460  -24.217800   55.316000
  H      0.870383  -24.494500   53.778300
  H     -1.167320  -20.740900   59.356800
  H     -1.980950  -28.588000   57.894700

 Total Charge           Charge          ....    0
 Multiplicity           Mult            ....    1
 Number of Electrons    NEL             ....  134
 Basis Dimension        Dim             ....  322

ORBITAL ENERGIES
----------------

  NO   OCC          E(Eh)            E(eV)
   0   2.0000     -88.968541     -2420.9571
   1   2.0000     -88.964740     -2420.8536
   2   2.0000     -10.325048      -280.9589
   3   2.0000     -10.320737      -280.8415
   4   2.0000     -10.310096      -280.5520
   5   2.0000     -10.307428      -280.4794
   6   2.0000     -10.305936      -280.4388
   7   2.0000     -10.299437      -280.2619
   8   2.0000     -10.294626      -280.1310
   9   2.0000     -10.293008      -280.0870
  10   2.0000     -10.290850      -280.0283
  11   2.0000     -10.289167      -279.9825
  12   2.0000     -10.287884      -279.9476
  13   2.0000     -10.281519      -279.7744
  14   2.0000     -10.276685      -279.6428
  15   2.0000     -10.274208      -279.5754
  16   2.0000      -8.082847      -219.9454
  17   2.0000      -8.080205      -219.8736
  18   2.0000      -6.041480      -164.3970
  19   2.0000      -6.038584      -164.3182
  20   2.0000      -6.037427      -164.2867
  21   2.0000      -6.034558      -164.2087
  22   2.0000      -6.033485      -164.1795
  23   2.0000      -6.031111      -164.1149
  24   2.0000      -1.011466       -27.5234
  25   2.0000      -0.984973       -26.8025
  26   2.0000      -0.916186       -24.9307
  27   2.0000      -0.908367       -24.7179
  28   2.0000      -0.868731       -23.6394
  29   2.0000      -0.847573       -23.0636
  30   2.0000      -0.845760       -23.0143
  31   2.0000      -0.818280       -22.2665
  32   2.0000      -0.788101       -21.4453
  33   2.0000      -0.773202       -21.0399
  34   2.0000      -0.706968       -19.2376
  35   2.0000      -0.691824       -18.8255
  36   2.0000      -0.685855       -18.6631
  37   2.0000      -0.658507       -17.9189
  38   2.0000      -0.646598       -17.5948
  39   2.0000      -0.621914       -16.9232
  40   2.0000      -0.591480       -16.0950
  41   2.0000      -0.572890       -15.5891
  42   2.0000      -0.556374       -15.1397
  43   2.0000      -0.550241       -14.9728
  44   2.0000      -0.539687       -14.6856
  45   2.0000      -0.534249       -14.5377
  46   2.0000      -0.516755       -14.0616
  47   2.0000      -0.512087       -13.9346
  48   2.0000      -0.502068       -13.6620
  49   2.0000      -0.495719       -13.4892
  50   2.0000      -0.492257       -13.3950
  51   2.0000      -0.473534       -12.8855
  52   2.0000      -0.468225       -12.7410
  53   2.0000      -0.462074       -12.5737
  54   2.0000      -0.456320       -12.4171
  55   2.0000      -0.448704       -12.2098
  56   2.0000      -0.442083       -12.0297
  57   2.0000      -0.435423       -11.8485
  58   2.0000      -0.433377       -11.7928
  59   2.0000      -0.424174       -11.5424
  60   2.0000      -0.423172       -11.5151
  61   2.0000      -0.410166       -11.1612
  62   2.0000      -0.404837       -11.0162
  63   2.0000      -0.340389        -9.2625
  64   2.0000      -0.327137        -8.9019
  65   2.0000      -0.322510        -8.7759
  66   2.0000      -0.305644        -8.3170
  67   0.0000       0.047448         1.2911
  68   0.0000       0.056493         1.5373
  69   0.0000       0.116497         3.1701
  70   0.0000       0.120713         3.2848
  71   0.0000       0.125059         3.4030

MULLIKEN ATOMIC CHARGES
-----------------------
   0 S :    0.115062
   1 C :   -0.089001
   2 C :   -0.071288
   3 C :    0.073128
   4 C :   -0.176701
   5 H :   -0.024352
   6 C :    0.116878
   7 H :    0.026254
   8 H :    0.015813
   9 C :   -0.161965
  10 H :    0.036975
  11 H :    0.041868
  12 C :   -0.053902
  13 H :    0.038804
  14 H :    0.033218
  15 H :    0.042468
  16 S :    0.132983
  17 C :   -0.038332
  18 C :   -0.066122
  19 C :   -0.040478
  20 C :   -0.182481
  21 H :    0.026608
  22 C :    0.102117
  23 H :    0.002600
  24 H :    0.049299
  25 C :   -0.104378
  26 H :    0.031466
  27 H :    0.030225
  28 C :   -0.036113
  29 H :    0.044998
  30 H :    0.036690
  31 H :    0.022290
  32 H :    0.016886
  33 H :    0.008486
Sum of atomic charges:   -0.0000000

LOEWDIN ATOMIC CHARGES
----------------------
   0 S :    0.429632
   1 C :   -0.188117
   2 C :   -0.066734
   3 C :   -0.049267
   4 C :   -0.213688
   5 H :    0.018266
   6 C :   -0.035885
   7 H :    0.032110
   8 H :    0.036840
   9 C :   -0.055110
  10 H :    0.035304
  11 H :    0.025237
  12 C :   -0.074499
  13 H :    0.027360
  14 H :    0.032864
  15 H :    0.023626
  16 S :    0.410156
  17 C :   -0.167750
  18 C :   -0.070932
  19 C :   -0.047423
  20 C :   -0.213875
  21 H :    0.034721
  22 C :   -0.034220
  23 H :    0.025675
  24 H :    0.040286
  25 C :   -0.042305
  26 H :    0.025850
  27 H :    0.025950
  28 C :   -0.068420
  29 H :    0.036732
  30 H :    0.025832
  31 H :    0.015297
  32 H :    0.015760
  33 H :    0.010727

  Mayer bond orders larger than 0.100000
B(  0-S ,  1-C ) :   1.1425 B(  0-S ,  4-C ) :   1.1675 B(  1-C ,  2-C ) :   1.6082
B(  1-C , 32-H ) :   0.9674 B(  2-C ,  3-C ) :   1.2189 B(  2-C ,  6-C ) :   1.0514
B(  3-C ,  4-C ) :   1.5948 B(  3-C ,  5-H ) :   1.0133 B(  4-C , 20-C ) :   0.9919
B(  6-C ,  7-H ) :   0.9252 B(  6-C ,  8-H ) :   0.9336 B(  6-C ,  9-C ) :   1.0670
B(  9-C , 10-H ) :   0.9585 B(  9-C , 11-H ) :   0.9636 B(  9-C , 12-C ) :   1.0561
B( 12-C , 13-H ) :   0.9788 B( 12-C , 14-H ) :   0.9764 B( 12-C , 15-H ) :   0.9790
B( 16-S , 17-C ) :   1.1382 B( 16-S , 20-C ) :   1.1406 B( 17-C , 18-C ) :   1.6691
B( 17-C , 33-H ) :   0.9690 B( 18-C , 19-C ) :   1.2127 B( 18-C , 21-H ) :   0.9790
B( 19-C , 20-C ) :   1.6158 B( 19-C , 22-C ) :   1.0338 B( 22-C , 23-H ) :   0.9150
B( 22-C , 24-H ) :   0.9424 B( 22-C , 25-C ) :   1.0755 B( 25-C , 26-H ) :   0.9533
B( 25-C , 27-H ) :   0.9526 B( 25-C , 28-C ) :   1.0803 B( 28-C , 29-H ) :   0.9736
B( 28-C , 30-H ) :   0.9718 B( 28-C , 31-H ) :   0.9718

Dispersion correction           -0.014930834
FINAL SINGLE POINT ENERGY     -1339.859383547112

DIPOLE MOMENT
-------------
                                X             Y             Z
Electronic contribution:    -21.67659      -8.11919       0.45548
Nuclear contribution   :     22.14762       7.91321      -0.24035
                        -----------------------------------------
Total Dipole Moment    :      0.47104      -0.20598       0.21513
                        -----------------------------------------
Magnitude (a.u.)       :      0.55730
Magnitude (Debye)      :      1.41655

Rotational constants in cm-1:     0.020119     0.008651     0.007596
Rotational constants in MHz :   603.156374   259.355545   227.709419

                             ****ORCA TERMINATED NORMALLY****
TOTAL RUN TIME: 0 days 0 hours 0 minutes 35 seconds 486 msec
