                         Program Version 4.2.1 -  RELEASE  -
|  1> ! wB97X-D3 SP def2-SVP
|  2> %pal
|  3> nprocs 16
|  4> end
|  5>
|  6> * xyz 0 1
|  7> S 	 -2.12279 	 13.3924 	 85.4846
|  8> C 	 -3.17718 	 12.9081 	 84.1359
|  9> C 	 -2.43905 	 12.4293 	 83.1117
| 10> C 	 -1.03577 	 12.3531 	 83.4057
| 11> C 	 -0.674682 	 12.7581 	 84.6566
| 12> H 	 -0.252338 	 12.1312 	 82.6947
| 13> C 	 -2.9556 	 12.1852 	 81.6865
| 14> H 	 -2.18758 	 12.404 	 80.9836
| 15> H 	 -3.63283 	 13.0252 	 81.4431
| 16> C 	 -3.6236 	 10.7967 	 81.584
| 17> H 	 -2.90916 	 10.0958 	 81.919
| 18> H 	 -4.58901 	 10.7139 	 82.1117
| 19> C 	 -3.91267 	 10.3835 	 80.163
| 20> H 	 -4.56072 	 11.1275 	 79.6507
| 21> H 	 -3.05942 	 10.4467 	 79.5236
| 22> H 	 -4.4134 	 9.35718 	 80.0662
| 23> S 	 0.681357 	 12.2955 	 86.9372
| 24> C 	 2.39577 	 12.6153 	 86.9137
| 25> C 	 2.87397 	 13.086 	 85.7495
| 26> C 	 1.88289 	 13.0646 	 84.7286
| 27> C 	 0.59981 	 12.8776 	 85.2312
| 28> H 	 3.90048 	 13.3043 	 85.5819
| 29> C 	 2.24745 	 13.4065 	 83.3028
| 30> H 	 3.08262 	 14.2361 	 83.4018
| 31> H 	 1.38641 	 13.812 	 82.8119
| 32> C 	 2.70766 	 12.1909 	 82.4429
| 33> H 	 2.03171 	 11.3395 	 82.4271
| 34> H 	 3.65888 	 11.8415 	 82.8215
| 35> C 	 2.76751 	 12.5663 	 80.9632
| 36> H 	 1.73987 	 12.7181 	 80.5894
| 37> H 	 3.27389 	 11.8984 	 80.2077
| 38> H 	 3.5029 	 13.4116 	 80.8985
| 39> H 	 -4.20396 	 13.1987 	 84.151
| 40> H 	 3.01296 	 12.4995 	 87.7813
| 41> *
| 42>
| 43>                          ****END OF INPUT****

CARTESIAN COORDINATES (ANGSTROEM)
---------------------------------
  S     -2.122790   13.392400   85.484600
  C     -3.177180   12.908100   84.135900
  C     -2.439050   12.429300   83.111700
  C     -1.035770   12.353100   83.405700
  C     -0.674682   12.758100   84.656600
  H     -0.252338   12.131200   82.694700
  C     -2.955600   12.185200   81.686500
  H     -2.187580   12.404000   80.983600
  H     -3.632830   13.025200   81.443100
  C     -3.623600   10.796700   81.584000
  H     -2.909160   10.095800   81.919000
  H     -4.589010   10.713900   82.111700
  C     -3.912670   10.383500   80.163000
  H     -4.560720   11.127500   79.650700
  H     -3.059420   10.446700   79.523600
  H     -4.413400    9.357180   80.066200
  S      0.681357   12.295500   86.937200
  C      2.395770   12.615300   86.913700
  C      2.873970   13.086000   85.749500
  C      1.882890   13.064600   84.728600
  C      0.599810   12.877600   85.231200
  H      3.900480   13.304300   85.581900
  C      2.247450   13.406500   83.302800
  H      3.082620   14.236100   83.401800
  H      1.386410   13.812000   82.811900
  C      2.707660   12.190900   82.442900
  H      2.031710   11.339500   82.427100
  H      3.658880   11.841500   82.821500
  C      2.767510   12.566300   80.963200
  H      1.739870   12.718100   80.589400
  H      3.273890   11.898400   80.207700
  H      3.502900   13.411600   80.898500
  H     -4.203960   13.198700   84.151000
  H      3.012960   12.499500   87.781300

 Total Charge           Charge          ....    0
 Multiplicity           Mult            ....    1
 Number of Electrons    NEL             ....  134
 Basis Dimension        Dim             ....  322

ORBITAL ENERGIES
----------------

  NO   OCC          E(Eh)            E(eV)
   0   2.0000     -88.964189     -2420.8387
   1   2.0000     -88.960231     -2420.7310
   2   2.0000     -10.326294      -280.9928
   3   2.0000     -10.325664      -280.9756
   4   2.0000     -10.313577      -280.6467
   5   2.0000     -10.312090      -280.6062
   6   2.0000     -10.305805      -280.4352
   7   2.0000     -10.304317      -280.3947
   8   2.0000     -10.300140      -280.2811
   9   2.0000     -10.294035      -280.1149
  10   2.0000     -10.292358      -280.0693
  11   2.0000     -10.291249      -280.0391
  12   2.0000     -10.289394      -279.9886
  13   2.0000     -10.288878      -279.9746
  14   2.0000     -10.284839      -279.8647
  15   2.0000     -10.279079      -279.7080
  16   2.0000      -8.078643      -219.8311
  17   2.0000      -8.074535      -219.7193
  18   2.0000      -6.037171      -164.2798
  19   2.0000      -6.033408      -164.1774
  20   2.0000      -6.033204      -164.1718
  21   2.0000      -6.029222      -164.0635
  22   2.0000      -6.029166      -164.0619
  23   2.0000      -6.025016      -163.9490
  24   2.0000      -1.007843       -27.4248
  25   2.0000      -0.983412       -26.7600
  26   2.0000      -0.913145       -24.8479
  27   2.0000      -0.910951       -24.7882
  28   2.0000      -0.878207       -23.8972
  29   2.0000      -0.855550       -23.2807
  30   2.0000      -0.843587       -22.9552
  31   2.0000      -0.817572       -22.2473
  32   2.0000      -0.781294       -21.2601
  33   2.0000      -0.768742       -20.9185
  34   2.0000      -0.710338       -19.3293
  35   2.0000      -0.702584       -19.1183
  36   2.0000      -0.696563       -18.9545
  37   2.0000      -0.669724       -18.2241
  38   2.0000      -0.645723       -17.5710
  39   2.0000      -0.619757       -16.8644
  40   2.0000      -0.598682       -16.2910
  41   2.0000      -0.576063       -15.6755
  42   2.0000      -0.567974       -15.4553
  43   2.0000      -0.560099       -15.2411
  44   2.0000      -0.532277       -14.4840
  45   2.0000      -0.526135       -14.3169
  46   2.0000      -0.520502       -14.1636
  47   2.0000      -0.517033       -14.0692
  48   2.0000      -0.510073       -13.8798
  49   2.0000      -0.498225       -13.5574
  50   2.0000      -0.492836       -13.4107
  51   2.0000      -0.482175       -13.1207
  52   2.0000      -0.465763       -12.6740
  53   2.0000      -0.460352       -12.5268
  54   2.0000      -0.457871       -12.4593
  55   2.0000      -0.452036       -12.3005
  56   2.0000      -0.441461       -12.0128
  57   2.0000      -0.437812       -11.9135
  58   2.0000      -0.436462       -11.8767
  59   2.0000      -0.422473       -11.4961
  60   2.0000      -0.418635       -11.3916
  61   2.0000      -0.416092       -11.3224
  62   2.0000      -0.413084       -11.2406
  63   2.0000      -0.356614        -9.7040
  64   2.0000      -0.333051        -9.0628
  65   2.0000      -0.328590        -8.9414
  66   2.0000      -0.287632        -7.8269
  67   0.0000       0.024012         0.6534
  68   0.0000       0.071124         1.9354
  69   0.0000       0.102591         2.7916
  70   0.0000       0.114974         3.1286
  71   0.0000       0.120757         3.2860

MULLIKEN ATOMIC CHARGES
-----------------------
   0 S :    0.080698
   1 C :   -0.119533
   2 C :   -0.065847
   3 C :    0.007357
   4 C :   -0.113110
   5 H :   -0.013516
   6 C :    0.055427
   7 H :    0.008444
   8 H :    0.025375
   9 C :   -0.031657
  10 H :    0.027405
  11 H :    0.042917
  12 C :   -0.064802
  13 H :    0.016707
  14 H :    0.014264
  15 H :    0.051358
  16 S :    0.092563
  17 C :   -0.063186
  18 C :   -0.005171
  19 C :   -0.040393
  20 C :   -0.124250
  21 H :    0.005606
  22 C :    0.005994
  23 H :    0.052206
  24 H :    0.020048
  25 C :   -0.047023
  26 H :    0.038496
  27 H :    0.022704
  28 C :   -0.087714
  29 H :    0.043108
  30 H :    0.041498
  31 H :    0.031393
  32 H :    0.045500
  33 H :    0.047135
Sum of atomic charges:    0.0000000

LOEWDIN ATOMIC CHARGES
----------------------
   0 S :    0.368960
   1 C :   -0.175448
   2 C :   -0.061692
   3 C :   -0.070042
   4 C :   -0.180175
   5 H :    0.026634
   6 C :   -0.027552
   7 H :    0.024051
   8 H :    0.032905
   9 C :   -0.036437
  10 H :    0.022924
  11 H :    0.032509
  12 C :   -0.075852
  13 H :    0.022795
  14 H :    0.016061
  15 H :    0.035502
  16 S :    0.384477
  17 C :   -0.168674
  18 C :   -0.070341
  19 C :   -0.047252
  20 C :   -0.181499
  21 H :    0.029058
  22 C :   -0.032074
  23 H :    0.046108
  24 H :    0.023516
  25 C :   -0.040851
  26 H :    0.024072
  27 H :    0.021507
  28 C :   -0.079245
  29 H :    0.026169
  30 H :    0.032014
  31 H :    0.028695
  32 H :    0.024634
  33 H :    0.024541

  Mayer bond orders larger than 0.100000
B(  0-S ,  1-C ) :   1.1155 B(  0-S ,  4-C ) :   1.1270 B(  1-C ,  2-C ) :   1.6407
B(  1-C , 32-H ) :   0.9748 B(  2-C ,  3-C ) :   1.2175 B(  2-C ,  6-C ) :   1.0105
B(  3-C ,  4-C ) :   1.5973 B(  3-C ,  5-H ) :   0.9965 B(  4-C , 20-C ) :   1.0762
B(  6-C ,  7-H ) :   0.9486 B(  6-C ,  8-H ) :   0.9399 B(  6-C ,  9-C ) :   1.0533
B(  9-C , 10-H ) :   0.9572 B(  9-C , 11-H ) :   0.9556 B(  9-C , 12-C ) :   1.0910
B( 12-C , 13-H ) :   0.9697 B( 12-C , 14-H ) :   0.9726 B( 12-C , 15-H ) :   0.9732
B( 16-S , 17-C ) :   1.1470 B( 16-S , 20-C ) :   1.1089 B( 17-C , 18-C ) :   1.6376
B( 17-C , 33-H ) :   0.9627 B( 18-C , 19-C ) :   1.2153 B( 18-C , 21-H ) :   0.9928
B( 19-C , 20-C ) :   1.6138 B( 19-C , 22-C ) :   1.0444 B( 22-C , 23-H ) :   0.9383
B( 22-C , 24-H ) :   0.9402 B( 22-C , 25-C ) :   1.0447 B( 25-C , 26-H ) :   0.9579
B( 25-C , 27-H ) :   0.9522 B( 25-C , 28-C ) :   1.0773 B( 28-C , 29-H ) :   0.9744
B( 28-C , 30-H ) :   0.9743 B( 28-C , 31-H ) :   0.9716

Dispersion correction           -0.013937979
FINAL SINGLE POINT ENERGY     -1339.869339483721

DIPOLE MOMENT
-------------
                                X             Y             Z
Electronic contribution:     -1.00587       6.84886      31.21870
Nuclear contribution   :      1.36698      -6.86409     -31.92637
                        -----------------------------------------
Total Dipole Moment    :      0.36110      -0.01523      -0.70767
                        -----------------------------------------
Magnitude (a.u.)       :      0.79462
Magnitude (Debye)      :      2.01976

Rotational constants in cm-1:     0.017642     0.008890     0.006396
Rotational constants in MHz :   528.907526   266.524879   191.741926

                             ****ORCA TERMINATED NORMALLY****
TOTAL RUN TIME: 0 days 0 hours 0 minutes 37 seconds 323 msec
