                         Program Version 4.2.1 -  RELEASE  -
|  1> ! wB97X-D3 SP def2-SVP
|  2> %pal
|  3> nprocs 16
|  4> end
|  5>
|  6> * xyz 0 1
|  7> S 	 34.7221 	 14.4402 	 72.5227
|  8> C 	 33.0511 	 14.5932 	 72.0249
|  9> C 	 32.7656 	 13.7101 	 70.9626
| 10> C 	 33.8906 	 12.8446 	 70.7359
| 11> C 	 34.941 	 13.0366 	 71.5679
| 12> H 	 33.9421 	 12.0979 	 69.9454
| 13> C 	 31.3542 	 13.4583 	 70.3587
| 14> H 	 30.6583 	 13.7856 	 71.1233
| 15> H 	 31.2509 	 12.3673 	 70.2055
| 16> C 	 31.1063 	 14.1526 	 68.997
| 17> H 	 30.9199 	 15.2302 	 69.1594
| 18> H 	 32.0098 	 14.2258 	 68.4798
| 19> C 	 29.8589 	 13.5166 	 68.3065
| 20> H 	 29.0014 	 13.5385 	 68.9365
| 21> H 	 29.5885 	 14.0189 	 67.4113
| 22> H 	 30.0201 	 12.4648 	 68.1116
| 23> S 	 37.6529 	 13.1617 	 71.1792
| 24> C 	 38.6805 	 11.7124 	 71.361
| 25> C 	 37.8271 	 10.62 	 71.4429
| 26> C 	 36.4266 	 10.8972 	 71.525
| 27> C 	 36.1599 	 12.2988 	 71.4972
| 28> H 	 38.1983 	 9.63962 	 71.4855
| 29> C 	 35.3644 	 9.8112 	 71.7221
| 30> H 	 34.5652 	 10.3224 	 72.3167
| 31> H 	 35.7574 	 8.9828 	 72.3904
| 32> C 	 34.8705 	 9.11763 	 70.4176
| 33> H 	 35.6316 	 9.00623 	 69.6549
| 34> H 	 34.1596 	 9.72172 	 69.8782
| 35> C 	 34.2559 	 7.73628 	 70.6237
| 36> H 	 34.3454 	 7.08297 	 69.6962
| 37> H 	 33.0998 	 7.68826 	 70.783
| 38> H 	 34.7519 	 7.24025 	 71.4713
| 39> H 	 32.2514 	 15.152 	 72.4579
| 40> H 	 39.6884 	 11.6735 	 70.8918
| 41> *
| 42>
| 43>                          ****END OF INPUT****

CARTESIAN COORDINATES (ANGSTROEM)
---------------------------------
  S     34.722100   14.440200   72.522700
  C     33.051100   14.593200   72.024900
  C     32.765600   13.710100   70.962600
  C     33.890600   12.844600   70.735900
  C     34.941000   13.036600   71.567900
  H     33.942100   12.097900   69.945400
  C     31.354200   13.458300   70.358700
  H     30.658300   13.785600   71.123300
  H     31.250900   12.367300   70.205500
  C     31.106300   14.152600   68.997000
  H     30.919900   15.230200   69.159400
  H     32.009800   14.225800   68.479800
  C     29.858900   13.516600   68.306500
  H     29.001400   13.538500   68.936500
  H     29.588500   14.018900   67.411300
  H     30.020100   12.464800   68.111600
  S     37.652900   13.161700   71.179200
  C     38.680500   11.712400   71.361000
  C     37.827100   10.620000   71.442900
  C     36.426600   10.897200   71.525000
  C     36.159900   12.298800   71.497200
  H     38.198300    9.639620   71.485500
  C     35.364400    9.811200   71.722100
  H     34.565200   10.322400   72.316700
  H     35.757400    8.982800   72.390400
  C     34.870500    9.117630   70.417600
  H     35.631600    9.006230   69.654900
  H     34.159600    9.721720   69.878200
  C     34.255900    7.736280   70.623700
  H     34.345400    7.082970   69.696200
  H     33.099800    7.688260   70.783000
  H     34.751900    7.240250   71.471300
  H     32.251400   15.152000   72.457900
  H     39.688400   11.673500   70.891800

 Total Charge           Charge          ....    0
 Multiplicity           Mult            ....    1
 Number of Electrons    NEL             ....  134
 Basis Dimension        Dim             ....  322

ORBITAL ENERGIES
----------------

  NO   OCC          E(Eh)            E(eV)
   0   2.0000     -88.970555     -2421.0119
   1   2.0000     -88.963762     -2420.8270
   2   2.0000     -10.331978      -281.1474
   3   2.0000     -10.323723      -280.9228
   4   2.0000     -10.320780      -280.8427
   5   2.0000     -10.316934      -280.7380
   6   2.0000     -10.308130      -280.4985
   7   2.0000     -10.305983      -280.4400
   8   2.0000     -10.303098      -280.3616
   9   2.0000     -10.299058      -280.2516
  10   2.0000     -10.294269      -280.1213
  11   2.0000     -10.293066      -280.0886
  12   2.0000     -10.291082      -280.0346
  13   2.0000     -10.287955      -279.9495
  14   2.0000     -10.286894      -279.9206
  15   2.0000     -10.276955      -279.6502
  16   2.0000      -8.085669      -220.0222
  17   2.0000      -8.077953      -219.8123
  18   2.0000      -6.044217      -164.4715
  19   2.0000      -6.040132      -164.3603
  20   2.0000      -6.036505      -164.2616
  21   2.0000      -6.036330      -164.2569
  22   2.0000      -6.032425      -164.1506
  23   2.0000      -6.028799      -164.0520
  24   2.0000      -1.011578       -27.5264
  25   2.0000      -0.980819       -26.6894
  26   2.0000      -0.909340       -24.7444
  27   2.0000      -0.902888       -24.5688
  28   2.0000      -0.873382       -23.7659
  29   2.0000      -0.851274       -23.1643
  30   2.0000      -0.844766       -22.9873
  31   2.0000      -0.814804       -22.1719
  32   2.0000      -0.781532       -21.2666
  33   2.0000      -0.766025       -20.8446
  34   2.0000      -0.712163       -19.3789
  35   2.0000      -0.705677       -19.2024
  36   2.0000      -0.696375       -18.9493
  37   2.0000      -0.662967       -18.0403
  38   2.0000      -0.642627       -17.4868
  39   2.0000      -0.620250       -16.8779
  40   2.0000      -0.591748       -16.1023
  41   2.0000      -0.569321       -15.4920
  42   2.0000      -0.561152       -15.2697
  43   2.0000      -0.555467       -15.1150
  44   2.0000      -0.529251       -14.4017
  45   2.0000      -0.523890       -14.2558
  46   2.0000      -0.519116       -14.1259
  47   2.0000      -0.509429       -13.8623
  48   2.0000      -0.505056       -13.7433
  49   2.0000      -0.503611       -13.7039
  50   2.0000      -0.495568       -13.4851
  51   2.0000      -0.476463       -12.9652
  52   2.0000      -0.470117       -12.7925
  53   2.0000      -0.463121       -12.6022
  54   2.0000      -0.456956       -12.4344
  55   2.0000      -0.451581       -12.2881
  56   2.0000      -0.446778       -12.1574
  57   2.0000      -0.443770       -12.0756
  58   2.0000      -0.436445       -11.8763
  59   2.0000      -0.424286       -11.5454
  60   2.0000      -0.420302       -11.4370
  61   2.0000      -0.415286       -11.3005
  62   2.0000      -0.409326       -11.1383
  63   2.0000      -0.350311        -9.5325
  64   2.0000      -0.331904        -9.0316
  65   2.0000      -0.328140        -8.9291
  66   2.0000      -0.292397        -7.9565
  67   0.0000       0.026098         0.7102
  68   0.0000       0.059963         1.6317
  69   0.0000       0.111485         3.0337
  70   0.0000       0.116914         3.1814
  71   0.0000       0.125637         3.4187

MULLIKEN ATOMIC CHARGES
-----------------------
   0 S :    0.133463
   1 C :   -0.101204
   2 C :   -0.102465
   3 C :    0.022747
   4 C :   -0.151364
   5 H :    0.012379
   6 C :    0.034047
   7 H :    0.027083
   8 H :    0.033574
   9 C :   -0.053245
  10 H :    0.023803
  11 H :    0.020582
  12 C :   -0.015518
  13 H :    0.020925
  14 H :    0.029955
  15 H :    0.026938
  16 S :    0.088389
  17 C :   -0.105171
  18 C :   -0.023605
  19 C :   -0.034828
  20 C :   -0.157538
  21 H :    0.003295
  22 C :    0.028374
  23 H :    0.052662
  24 H :    0.033997
  25 C :   -0.032237
  26 H :    0.026527
  27 H :    0.017454
  28 C :   -0.109725
  29 H :    0.041351
  30 H :    0.046202
  31 H :    0.035668
  32 H :    0.038729
  33 H :    0.088755
Sum of atomic charges:   -0.0000000

LOEWDIN ATOMIC CHARGES
----------------------
   0 S :    0.429016
   1 C :   -0.196773
   2 C :   -0.059646
   3 C :   -0.059733
   4 C :   -0.216665
   5 H :    0.029978
   6 C :   -0.026317
   7 H :    0.028981
   8 H :    0.031754
   9 C :   -0.038042
  10 H :    0.027689
  11 H :    0.016447
  12 C :   -0.056706
  13 H :    0.023333
  14 H :    0.022862
  15 H :    0.023655
  16 S :    0.391951
  17 C :   -0.198548
  18 C :   -0.059090
  19 C :   -0.062132
  20 C :   -0.188722
  21 H :    0.022227
  22 C :   -0.036142
  23 H :    0.040435
  24 H :    0.034661
  25 C :   -0.048890
  26 H :    0.026790
  27 H :    0.020860
  28 C :   -0.081103
  29 H :    0.032681
  30 H :    0.033465
  31 H :    0.022690
  32 H :    0.025764
  33 H :    0.043272

  Mayer bond orders larger than 0.100000
B(  0-S ,  1-C ) :   1.1418 B(  0-S ,  4-C ) :   1.1451 B(  1-C ,  2-C ) :   1.6078
B(  1-C , 32-H ) :   0.9678 B(  2-C ,  3-C ) :   1.2432 B(  2-C ,  6-C ) :   1.0145
B(  3-C ,  4-C ) :   1.5682 B(  3-C ,  5-H ) :   0.9940 B(  4-C , 20-C ) :   1.0537
B(  6-C ,  7-H ) :   0.9436 B(  6-C ,  8-H ) :   0.9570 B(  6-C ,  9-C ) :   1.0459
B(  9-C , 10-H ) :   0.9511 B(  9-C , 11-H ) :   0.9650 B(  9-C , 12-C ) :   1.0694
B( 12-C , 13-H ) :   0.9736 B( 12-C , 14-H ) :   0.9753 B( 12-C , 15-H ) :   0.9779
B( 16-S , 17-C ) :   1.1363 B( 16-S , 20-C ) :   1.1720 B( 17-C , 18-C ) :   1.5864
B( 17-C , 20-C ) :   0.1117 B( 17-C , 33-H ) :   0.9571 B( 18-C , 19-C ) :   1.2817
B( 18-C , 21-H ) :   0.9903 B( 19-C , 20-C ) :   1.5411 B( 19-C , 22-C ) :   1.0438
B( 22-C , 23-H ) :   0.9336 B( 22-C , 24-H ) :   0.9458 B( 22-C , 25-C ) :   1.0446
B( 25-C , 26-H ) :   0.9615 B( 25-C , 27-H ) :   0.9463 B( 25-C , 28-C ) :   1.0730
B( 28-C , 29-H ) :   0.9757 B( 28-C , 30-H ) :   0.9767 B( 28-C , 31-H ) :   0.9763

Dispersion correction           -0.013775785
FINAL SINGLE POINT ENERGY     -1339.867727693543

DIPOLE MOMENT
-------------
                                X             Y             Z
Electronic contribution:     23.24414      17.23128      13.14408
Nuclear contribution   :    -23.81228     -17.70311     -13.57191
                        -----------------------------------------
Total Dipole Moment    :     -0.56814      -0.47183      -0.42783
                        -----------------------------------------
Magnitude (a.u.)       :      0.85349
Magnitude (Debye)      :      2.16940

Rotational constants in cm-1:     0.016534     0.008745     0.006412
Rotational constants in MHz :   495.666068   262.153750   192.215365

                             ****ORCA TERMINATED NORMALLY****
TOTAL RUN TIME: 0 days 0 hours 0 minutes 28 seconds 2 msec
