                         Program Version 4.2.1 -  RELEASE  -
|  1> ! wB97X-D3 SP def2-SVP
|  2> %pal
|  3> nprocs 16
|  4> end
|  5>
|  6> * xyz 0 1
|  7> S 	 1.52031 	 -10.5147 	 53.9129
|  8> C 	 1.46739 	 -11.062 	 52.2715
|  9> C 	 2.06635 	 -12.2778 	 52.0743
| 10> C 	 2.7126 	 -12.7621 	 53.304
| 11> C 	 2.3914 	 -11.9554 	 54.3803
| 12> H 	 3.26076 	 -13.6132 	 53.5618
| 13> C 	 2.17892 	 -13.1083 	 50.8309
| 14> H 	 3.2773 	 -13.0532 	 50.6302
| 15> H 	 1.69719 	 -12.5041 	 50.0406
| 16> C 	 1.88934 	 -14.6207 	 50.9251
| 17> H 	 2.14212 	 -14.9732 	 49.9279
| 18> H 	 2.46629 	 -15.1673 	 51.6294
| 19> C 	 0.380488 	 -14.8343 	 51.1777
| 20> H 	 -0.157489 	 -14.4825 	 50.2989
| 21> H 	 0.125008 	 -15.9162 	 51.1278
| 22> H 	 0.0295128 	 -14.5353 	 52.1629
| 23> S 	 3.47025 	 -10.8459 	 56.6496
| 24> C 	 3.51393 	 -11.7582 	 58.1038
| 25> C 	 3.10783 	 -13.0383 	 57.9421
| 26> C 	 2.75189 	 -13.3067 	 56.6189
| 27> C 	 2.76073 	 -12.1756 	 55.8041
| 28> H 	 3.10196 	 -13.7799 	 58.6919
| 29> C 	 2.1555 	 -14.6679 	 56.289
| 30> H 	 2.34736 	 -15.438 	 57.0284
| 31> H 	 2.70186 	 -15.0286 	 55.474
| 32> C 	 0.635677 	 -14.7304 	 56.0782
| 33> H 	 0.378471 	 -14.2704 	 55.2005
| 34> H 	 0.0282589 	 -14.2645 	 56.8754
| 35> C 	 0.296087 	 -16.2318 	 56.0452
| 36> H 	 -0.741849 	 -16.3145 	 55.8094
| 37> H 	 0.652582 	 -16.8656 	 56.8523
| 38> H 	 0.815941 	 -16.7148 	 55.2048
| 39> H 	 1.29633 	 -10.4793 	 51.383
| 40> H 	 3.95865 	 -11.3808 	 59.0464
| 41> *
| 42>
| 43>                          ****END OF INPUT****

CARTESIAN COORDINATES (ANGSTROEM)
---------------------------------
  S      1.520310  -10.514700   53.912900
  C      1.467390  -11.062000   52.271500
  C      2.066350  -12.277800   52.074300
  C      2.712600  -12.762100   53.304000
  C      2.391400  -11.955400   54.380300
  H      3.260760  -13.613200   53.561800
  C      2.178920  -13.108300   50.830900
  H      3.277300  -13.053200   50.630200
  H      1.697190  -12.504100   50.040600
  C      1.889340  -14.620700   50.925100
  H      2.142120  -14.973200   49.927900
  H      2.466290  -15.167300   51.629400
  C      0.380488  -14.834300   51.177700
  H     -0.157489  -14.482500   50.298900
  H      0.125008  -15.916200   51.127800
  H      0.029513  -14.535300   52.162900
  S      3.470250  -10.845900   56.649600
  C      3.513930  -11.758200   58.103800
  C      3.107830  -13.038300   57.942100
  C      2.751890  -13.306700   56.618900
  C      2.760730  -12.175600   55.804100
  H      3.101960  -13.779900   58.691900
  C      2.155500  -14.667900   56.289000
  H      2.347360  -15.438000   57.028400
  H      2.701860  -15.028600   55.474000
  C      0.635677  -14.730400   56.078200
  H      0.378471  -14.270400   55.200500
  H      0.028259  -14.264500   56.875400
  C      0.296087  -16.231800   56.045200
  H     -0.741849  -16.314500   55.809400
  H      0.652582  -16.865600   56.852300
  H      0.815941  -16.714800   55.204800
  H      1.296330  -10.479300   51.383000
  H      3.958650  -11.380800   59.046400

 Total Charge           Charge          ....    0
 Multiplicity           Mult            ....    1
 Number of Electrons    NEL             ....  134
 Basis Dimension        Dim             ....  322

ORBITAL ENERGIES
----------------

  NO   OCC          E(Eh)            E(eV)
   0   2.0000     -88.965383     -2420.8711
   1   2.0000     -88.964863     -2420.8570
   2   2.0000     -10.329114      -281.0695
   3   2.0000     -10.324194      -280.9356
   4   2.0000     -10.312796      -280.6254
   5   2.0000     -10.306224      -280.4466
   6   2.0000     -10.301856      -280.3277
   7   2.0000     -10.297568      -280.2111
   8   2.0000     -10.295933      -280.1666
   9   2.0000     -10.291370      -280.0424
  10   2.0000     -10.289742      -279.9981
  11   2.0000     -10.284208      -279.8475
  12   2.0000     -10.283305      -279.8229
  13   2.0000     -10.279606      -279.7223
  14   2.0000     -10.278079      -279.6807
  15   2.0000     -10.274275      -279.5772
  16   2.0000      -8.081193      -219.9004
  17   2.0000      -8.079868      -219.8644
  18   2.0000      -6.039558      -164.3447
  19   2.0000      -6.038464      -164.3150
  20   2.0000      -6.035499      -164.2343
  21   2.0000      -6.034428      -164.2051
  22   2.0000      -6.032094      -164.1416
  23   2.0000      -6.030440      -164.0966
  24   2.0000      -1.011293       -27.5187
  25   2.0000      -0.987973       -26.8841
  26   2.0000      -0.913734       -24.8640
  27   2.0000      -0.912272       -24.8242
  28   2.0000      -0.869848       -23.6698
  29   2.0000      -0.854983       -23.2653
  30   2.0000      -0.845461       -23.0062
  31   2.0000      -0.815846       -22.2003
  32   2.0000      -0.781085       -21.2544
  33   2.0000      -0.771338       -20.9892
  34   2.0000      -0.713108       -19.4047
  35   2.0000      -0.706127       -19.2147
  36   2.0000      -0.690270       -18.7832
  37   2.0000      -0.665660       -18.1135
  38   2.0000      -0.641241       -17.4491
  39   2.0000      -0.618471       -16.8294
  40   2.0000      -0.601887       -16.3782
  41   2.0000      -0.570445       -15.5226
  42   2.0000      -0.564841       -15.3701
  43   2.0000      -0.548474       -14.9247
  44   2.0000      -0.544017       -14.8035
  45   2.0000      -0.528613       -14.3843
  46   2.0000      -0.519526       -14.1370
  47   2.0000      -0.509911       -13.8754
  48   2.0000      -0.500423       -13.6172
  49   2.0000      -0.497441       -13.5361
  50   2.0000      -0.491925       -13.3860
  51   2.0000      -0.484150       -13.1744
  52   2.0000      -0.469219       -12.7681
  53   2.0000      -0.462085       -12.5740
  54   2.0000      -0.460893       -12.5415
  55   2.0000      -0.453210       -12.3325
  56   2.0000      -0.446031       -12.1371
  57   2.0000      -0.435233       -11.8433
  58   2.0000      -0.433999       -11.8097
  59   2.0000      -0.429090       -11.6761
  60   2.0000      -0.421482       -11.4691
  61   2.0000      -0.419728       -11.4214
  62   2.0000      -0.411614       -11.2006
  63   2.0000      -0.347327        -9.4512
  64   2.0000      -0.333533        -9.0759
  65   2.0000      -0.323320        -8.7980
  66   2.0000      -0.292087        -7.9481
  67   0.0000       0.031718         0.8631
  68   0.0000       0.080603         2.1933
  69   0.0000       0.114743         3.1223
  70   0.0000       0.119747         3.2585
  71   0.0000       0.123498         3.3605

MULLIKEN ATOMIC CHARGES
-----------------------
   0 S :    0.110544
   1 C :   -0.100486
   2 C :   -0.111756
   3 C :    0.040110
   4 C :   -0.155376
   5 H :   -0.013500
   6 C :    0.048963
   7 H :    0.041680
   8 H :    0.019577
   9 C :   -0.035472
  10 H :    0.027874
  11 H :    0.029068
  12 C :   -0.060268
  13 H :    0.029888
  14 H :    0.021718
  15 H :    0.052923
  16 S :    0.118291
  17 C :   -0.089472
  18 C :   -0.012016
  19 C :   -0.026658
  20 C :   -0.165747
  21 H :   -0.003152
  22 C :    0.067333
  23 H :   -0.001588
  24 H :   -0.000077
  25 C :   -0.011037
  26 H :    0.015969
  27 H :    0.036848
  28 C :   -0.053467
  29 H :    0.029806
  30 H :    0.033293
  31 H :    0.011226
  32 H :    0.041361
  33 H :    0.063602
Sum of atomic charges:   -0.0000000

LOEWDIN ATOMIC CHARGES
----------------------
   0 S :    0.404757
   1 C :   -0.218520
   2 C :   -0.056731
   3 C :   -0.062720
   4 C :   -0.185489
   5 H :    0.020633
   6 C :   -0.039984
   7 H :    0.041431
   8 H :    0.030997
   9 C :   -0.031187
  10 H :    0.029306
  11 H :    0.019879
  12 C :   -0.069062
  13 H :    0.027313
  14 H :    0.025871
  15 H :    0.027065
  16 S :    0.432172
  17 C :   -0.194903
  18 C :   -0.068567
  19 C :   -0.055720
  20 C :   -0.211966
  21 H :    0.026169
  22 C :   -0.027802
  23 H :    0.026997
  24 H :    0.019725
  25 C :   -0.021776
  26 H :    0.013006
  27 H :    0.030229
  28 C :   -0.066791
  29 H :    0.022784
  30 H :    0.024395
  31 H :    0.024141
  32 H :    0.029425
  33 H :    0.034924

  Mayer bond orders larger than 0.100000
B(  0-S ,  1-C ) :   1.1125 B(  0-S ,  4-C ) :   1.1494 B(  1-C ,  2-C ) :   1.6674
B(  1-C , 32-H ) :   0.9550 B(  2-C ,  3-C ) :   1.1698 B(  2-C ,  6-C ) :   1.0235
B(  3-C ,  4-C ) :   1.6194 B(  3-C ,  5-H ) :   0.9998 B(  4-C , 20-C ) :   1.0153
B(  6-C ,  7-H ) :   0.9289 B(  6-C ,  8-H ) :   0.9423 B(  6-C ,  9-C ) :   1.0715
B(  9-C , 10-H ) :   0.9514 B(  9-C , 11-H ) :   0.9533 B(  9-C , 12-C ) :   1.0799
B( 12-C , 13-H ) :   0.9740 B( 12-C , 14-H ) :   0.9727 B( 12-C , 15-H ) :   0.9762
B( 16-S , 17-C ) :   1.1702 B( 16-S , 20-C ) :   1.1626 B( 17-C , 18-C ) :   1.5703
B( 17-C , 33-H ) :   0.9618 B( 18-C , 19-C ) :   1.2865 B( 18-C , 21-H ) :   1.0020
B( 19-C , 20-C ) :   1.5648 B( 19-C , 22-C ) :   1.0371 B( 22-C , 23-H ) :   0.9417
B( 22-C , 24-H ) :   0.9202 B( 22-C , 25-C ) :   1.0647 B( 25-C , 26-H ) :   0.9500
B( 25-C , 27-H ) :   0.9568 B( 25-C , 28-C ) :   1.0843 B( 28-C , 29-H ) :   0.9720
B( 28-C , 30-H ) :   0.9752 B( 28-C , 31-H ) :   0.9703

Dispersion correction           -0.015069301
FINAL SINGLE POINT ENERGY     -1339.867012285952

DIPOLE MOMENT
-------------
                                X             Y             Z
Electronic contribution:     10.01555      27.32685      11.03583
Nuclear contribution   :     -9.91456     -28.04466     -11.23123
                        -----------------------------------------
Total Dipole Moment    :      0.10099      -0.71781      -0.19540
                        -----------------------------------------
Magnitude (a.u.)       :      0.75075
Magnitude (Debye)      :      1.90826

Rotational constants in cm-1:     0.017791     0.010394     0.007330
Rotational constants in MHz :   533.367528   311.612927   219.734359

                             ****ORCA TERMINATED NORMALLY****
TOTAL RUN TIME: 0 days 0 hours 0 minutes 32 seconds 305 msec
