                         Program Version 4.2.1 -  RELEASE  -
|  1> ! wB97X-D3 SP def2-SVP
|  2> %pal
|  3> nprocs 16
|  4> end
|  5>
|  6> * xyz 0 1
|  7> S 	 -91.0439 	 40.5843 	 116.62
|  8> C 	 -90.0341 	 39.3168 	 117.244
|  9> C 	 -88.7456 	 39.7642 	 117.457
| 10> C 	 -88.5857 	 41.143 	 117.114
| 11> C 	 -89.7465 	 41.7428 	 116.632
| 12> H 	 -87.6435 	 41.6768 	 117.182
| 13> C 	 -87.5705 	 39.0331 	 117.994
| 14> H 	 -86.6091 	 39.5073 	 117.783
| 15> H 	 -87.4807 	 38.1669 	 117.361
| 16> C 	 -87.6432 	 38.5859 	 119.438
| 17> H 	 -88.1525 	 39.2079 	 120.168
| 18> H 	 -88.1843 	 37.63 	 119.513
| 19> C 	 -86.2248 	 38.2166 	 120.065
| 20> H 	 -85.5723 	 37.7249 	 119.309
| 21> H 	 -85.6025 	 38.9692 	 120.555
| 22> H 	 -86.3411 	 37.495 	 120.833
| 23> S 	 -90.5093 	 43.2195 	 114.402
| 24> C 	 -90.4655 	 44.9493 	 114.565
| 25> C 	 -89.9375 	 45.396 	 115.775
| 26> C 	 -89.7022 	 44.3143 	 116.691
| 27> C 	 -89.8749 	 43.0605 	 116.068
| 28> H 	 -89.8351 	 46.4185 	 116.014
| 29> C 	 -89.2783 	 44.4821 	 118.154
| 30> H 	 -88.4661 	 45.1984 	 118.178
| 31> H 	 -88.9478 	 43.5417 	 118.562
| 32> C 	 -90.395 	 45.0539 	 119.072
| 33> H 	 -91.364 	 44.4633 	 118.972
| 34> H 	 -90.5677 	 46.0765 	 118.725
| 35> C 	 -90.0375 	 45.0441 	 120.589
| 36> H 	 -89.011 	 45.3211 	 120.803
| 37> H 	 -90.2278 	 44.0742 	 121.078
| 38> H 	 -90.6506 	 45.8297 	 121.158
| 39> H 	 -90.3879 	 38.3092 	 117.352
| 40> H 	 -90.7708 	 45.6067 	 113.749
| 41> *
| 42>
| 43>                          ****END OF INPUT****

CARTESIAN COORDINATES (ANGSTROEM)
---------------------------------
  S    -91.043900   40.584300  116.620000
  C    -90.034100   39.316800  117.244000
  C    -88.745600   39.764200  117.457000
  C    -88.585700   41.143000  117.114000
  C    -89.746500   41.742800  116.632000
  H    -87.643500   41.676800  117.182000
  C    -87.570500   39.033100  117.994000
  H    -86.609100   39.507300  117.783000
  H    -87.480700   38.166900  117.361000
  C    -87.643200   38.585900  119.438000
  H    -88.152500   39.207900  120.168000
  H    -88.184300   37.630000  119.513000
  C    -86.224800   38.216600  120.065000
  H    -85.572300   37.724900  119.309000
  H    -85.602500   38.969200  120.555000
  H    -86.341100   37.495000  120.833000
  S    -90.509300   43.219500  114.402000
  C    -90.465500   44.949300  114.565000
  C    -89.937500   45.396000  115.775000
  C    -89.702200   44.314300  116.691000
  C    -89.874900   43.060500  116.068000
  H    -89.835100   46.418500  116.014000
  C    -89.278300   44.482100  118.154000
  H    -88.466100   45.198400  118.178000
  H    -88.947800   43.541700  118.562000
  C    -90.395000   45.053900  119.072000
  H    -91.364000   44.463300  118.972000
  H    -90.567700   46.076500  118.725000
  C    -90.037500   45.044100  120.589000
  H    -89.011000   45.321100  120.803000
  H    -90.227800   44.074200  121.078000
  H    -90.650600   45.829700  121.158000
  H    -90.387900   38.309200  117.352000
  H    -90.770800   45.606700  113.749000

 Total Charge           Charge          ....    0
 Multiplicity           Mult            ....    1
 Number of Electrons    NEL             ....  134
 Basis Dimension        Dim             ....  322

ORBITAL ENERGIES
----------------

  NO   OCC          E(Eh)            E(eV)
   0   2.0000     -88.967379     -2420.9254
   1   2.0000     -88.965097     -2420.8634
   2   2.0000     -10.326153      -280.9889
   3   2.0000     -10.324839      -280.9532
   4   2.0000     -10.320190      -280.8266
   5   2.0000     -10.311935      -280.6020
   6   2.0000     -10.307440      -280.4797
   7   2.0000     -10.298258      -280.2298
   8   2.0000     -10.294497      -280.1275
   9   2.0000     -10.292720      -280.0792
  10   2.0000     -10.291221      -280.0384
  11   2.0000     -10.291141      -280.0362
  12   2.0000     -10.290955      -280.0311
  13   2.0000     -10.288072      -279.9527
  14   2.0000     -10.284463      -279.8545
  15   2.0000     -10.279268      -279.7131
  16   2.0000      -8.081715      -219.9146
  17   2.0000      -8.080191      -219.8732
  18   2.0000      -6.040111      -164.3598
  19   2.0000      -6.038665      -164.3204
  20   2.0000      -6.036373      -164.2581
  21   2.0000      -6.034498      -164.2070
  22   2.0000      -6.032521      -164.1532
  23   2.0000      -6.031132      -164.1155
  24   2.0000      -1.004342       -27.3295
  25   2.0000      -0.980646       -26.6847
  26   2.0000      -0.911810       -24.8116
  27   2.0000      -0.901788       -24.5389
  28   2.0000      -0.866573       -23.5807
  29   2.0000      -0.848935       -23.1007
  30   2.0000      -0.844296       -22.9745
  31   2.0000      -0.809423       -22.0255
  32   2.0000      -0.783248       -21.3133
  33   2.0000      -0.769406       -20.9366
  34   2.0000      -0.708724       -19.2854
  35   2.0000      -0.700287       -19.0558
  36   2.0000      -0.691325       -18.8119
  37   2.0000      -0.660149       -17.9636
  38   2.0000      -0.644604       -17.5406
  39   2.0000      -0.618127       -16.8201
  40   2.0000      -0.594973       -16.1901
  41   2.0000      -0.569534       -15.4978
  42   2.0000      -0.563059       -15.3216
  43   2.0000      -0.552441       -15.0327
  44   2.0000      -0.526541       -14.3279
  45   2.0000      -0.522873       -14.2281
  46   2.0000      -0.512729       -13.9521
  47   2.0000      -0.506657       -13.7868
  48   2.0000      -0.500884       -13.6297
  49   2.0000      -0.496448       -13.5090
  50   2.0000      -0.493325       -13.4240
  51   2.0000      -0.479764       -13.0550
  52   2.0000      -0.469108       -12.7651
  53   2.0000      -0.465553       -12.6683
  54   2.0000      -0.454441       -12.3660
  55   2.0000      -0.450979       -12.2718
  56   2.0000      -0.446312       -12.1448
  57   2.0000      -0.441909       -12.0250
  58   2.0000      -0.429718       -11.6932
  59   2.0000      -0.426490       -11.6054
  60   2.0000      -0.423052       -11.5118
  61   2.0000      -0.416271       -11.3273
  62   2.0000      -0.408228       -11.1085
  63   2.0000      -0.340367        -9.2619
  64   2.0000      -0.333308        -9.0698
  65   2.0000      -0.327387        -8.9087
  66   2.0000      -0.291502        -7.9322
  67   0.0000       0.030674         0.8347
  68   0.0000       0.067393         1.8339
  69   0.0000       0.114532         3.1166
  70   0.0000       0.127190         3.4610
  71   0.0000       0.129365         3.5202

MULLIKEN ATOMIC CHARGES
-----------------------
   0 S :    0.116952
   1 C :   -0.128301
   2 C :   -0.078104
   3 C :    0.031891
   4 C :   -0.171606
   5 H :    0.015282
   6 C :    0.099716
   7 H :    0.020255
   8 H :    0.021762
   9 C :   -0.065238
  10 H :    0.036786
  11 H :    0.027241
  12 C :   -0.077270
  13 H :    0.026761
  14 H :    0.037590
  15 H :    0.018070
  16 S :    0.115786
  17 C :   -0.101540
  18 C :   -0.005572
  19 C :   -0.037922
  20 C :   -0.171653
  21 H :    0.004961
  22 C :    0.101728
  23 H :    0.023525
  24 H :    0.018013
  25 C :   -0.103942
  26 H :    0.050142
  27 H :    0.027595
  28 C :   -0.071776
  29 H :    0.024440
  30 H :    0.045546
  31 H :    0.041576
  32 H :    0.042688
  33 H :    0.064622
Sum of atomic charges:    0.0000000

LOEWDIN ATOMIC CHARGES
----------------------
   0 S :    0.419698
   1 C :   -0.200715
   2 C :   -0.063149
   3 C :   -0.059191
   4 C :   -0.204937
   5 H :    0.031809
   6 C :   -0.038703
   7 H :    0.031717
   8 H :    0.035814
   9 C :   -0.036451
  10 H :    0.025297
  11 H :    0.027561
  12 C :   -0.073253
  13 H :    0.026064
  14 H :    0.024242
  15 H :    0.019739
  16 S :    0.397920
  17 C :   -0.183689
  18 C :   -0.067715
  19 C :   -0.042430
  20 C :   -0.196906
  21 H :    0.024589
  22 C :   -0.027331
  23 H :    0.029354
  24 H :    0.025840
  25 C :   -0.042396
  26 H :    0.034817
  27 H :    0.019960
  28 C :   -0.076197
  29 H :    0.019468
  30 H :    0.028396
  31 H :    0.035490
  32 H :    0.025157
  33 H :    0.030134

  Mayer bond orders larger than 0.100000
B(  0-S ,  1-C ) :   1.1448 B(  0-S ,  4-C ) :   1.1637 B(  1-C ,  2-C ) :   1.5794
B(  1-C , 32-H ) :   0.9770 B(  2-C ,  3-C ) :   1.2679 B(  2-C ,  6-C ) :   1.0273
B(  3-C ,  4-C ) :   1.5411 B(  3-C ,  5-H ) :   0.9953 B(  4-C , 20-C ) :   1.0579
B(  6-C ,  7-H ) :   0.9498 B(  6-C ,  8-H ) :   0.9183 B(  6-C ,  9-C ) :   1.0543
B(  9-C , 10-H ) :   0.9663 B(  9-C , 11-H ) :   0.9557 B(  9-C , 12-C ) :   1.0687
B( 12-C , 13-H ) :   0.9758 B( 12-C , 14-H ) :   0.9791 B( 12-C , 15-H ) :   0.9771
B( 16-S , 17-C ) :   1.1632 B( 16-S , 20-C ) :   1.1322 B( 17-C , 18-C ) :   1.5998
B( 17-C , 33-H ) :   0.9647 B( 18-C , 19-C ) :   1.2387 B( 18-C , 21-H ) :   0.9951
B( 19-C , 20-C ) :   1.5895 B( 19-C , 22-C ) :   1.0486 B( 22-C , 23-H ) :   0.9302
B( 22-C , 24-H ) :   0.9322 B( 22-C , 25-C ) :   1.0603 B( 25-C , 26-H ) :   0.9585
B( 25-C , 27-H ) :   0.9587 B( 25-C , 28-C ) :   1.0758 B( 28-C , 29-H ) :   0.9743
B( 28-C , 30-H ) :   0.9771 B( 28-C , 31-H ) :   0.9758

Dispersion correction           -0.013556898
FINAL SINGLE POINT ENERGY     -1339.889694980276

DIPOLE MOMENT
-------------
                                X             Y             Z
Electronic contribution:    -14.57163       2.00819     -26.18124
Nuclear contribution   :     14.95151      -1.95009      26.59265
                        -----------------------------------------
Total Dipole Moment    :      0.37987       0.05810       0.41142
                        -----------------------------------------
Magnitude (a.u.)       :      0.56298
Magnitude (Debye)      :      1.43097

Rotational constants in cm-1:     0.017742     0.008196     0.006422
Rotational constants in MHz :   531.887856   245.703858   192.514460

                             ****ORCA TERMINATED NORMALLY****
TOTAL RUN TIME: 0 days 0 hours 0 minutes 32 seconds 614 msec
