                         Program Version 4.2.1 -  RELEASE  -
|  1> ! wB97X-D3 SP def2-SVP
|  2> %pal
|  3> nprocs 16
|  4> end
|  5>
|  6> * xyz 0 1
|  7> S 	 -20.1205 	 48.1701 	 66.2374
|  8> C 	 -19.6707 	 46.6288 	 66.8749
|  9> C 	 -20.5835 	 46.1353 	 67.8047
| 10> C 	 -21.6533 	 47.1043 	 67.9899
| 11> C 	 -21.4672 	 48.2848 	 67.3746
| 12> H 	 -22.4927 	 46.9317 	 68.6492
| 13> C 	 -20.5296 	 44.7414 	 68.5188
| 14> H 	 -20.1342 	 44.7386 	 69.5587
| 15> H 	 -19.7663 	 44.0921 	 68.1337
| 16> C 	 -21.8591 	 43.9579 	 68.5638
| 17> H 	 -21.775 	 43.1517 	 69.2456
| 18> H 	 -22.6764 	 44.5373 	 69.0525
| 19> C 	 -22.2923 	 43.3324 	 67.1913
| 20> H 	 -22.1244 	 44.0011 	 66.2913
| 21> H 	 -21.81 	 42.3869 	 67.0091
| 22> H 	 -23.3415 	 43.0756 	 67.229
| 23> S 	 -23.1182 	 49.9293 	 65.9114
| 24> C 	 -24.1641 	 51.0969 	 66.7109
| 25> C 	 -24.007 	 50.9742 	 68.0568
| 26> C 	 -22.9996 	 50.0122 	 68.4468
| 27> C 	 -22.4202 	 49.3667 	 67.3668
| 28> H 	 -24.6432 	 51.5496 	 68.7309
| 29> C 	 -22.7357 	 49.7594 	 69.9092
| 30> H 	 -22.4266 	 50.6995 	 70.3999
| 31> H 	 -21.839 	 49.1723 	 69.9913
| 32> C 	 -23.8021 	 49.0415 	 70.7301
| 33> H 	 -23.9221 	 48.0076 	 70.417
| 34> H 	 -24.7318 	 49.5379 	 70.5981
| 35> C 	 -23.3072 	 48.8503 	 72.1323
| 36> H 	 -23.9488 	 48.4187 	 72.894
| 37> H 	 -22.9524 	 49.7629 	 72.5164
| 38> H 	 -22.3631 	 48.3898 	 72.0326
| 39> H 	 -18.8476 	 46.0342 	 66.4934
| 40> H 	 -24.9889 	 51.6649 	 66.3016
| 41> *
| 42>
| 43>                          ****END OF INPUT****

CARTESIAN COORDINATES (ANGSTROEM)
---------------------------------
  S    -20.120500   48.170100   66.237400
  C    -19.670700   46.628800   66.874900
  C    -20.583500   46.135300   67.804700
  C    -21.653300   47.104300   67.989900
  C    -21.467200   48.284800   67.374600
  H    -22.492700   46.931700   68.649200
  C    -20.529600   44.741400   68.518800
  H    -20.134200   44.738600   69.558700
  H    -19.766300   44.092100   68.133700
  C    -21.859100   43.957900   68.563800
  H    -21.775000   43.151700   69.245600
  H    -22.676400   44.537300   69.052500
  C    -22.292300   43.332400   67.191300
  H    -22.124400   44.001100   66.291300
  H    -21.810000   42.386900   67.009100
  H    -23.341500   43.075600   67.229000
  S    -23.118200   49.929300   65.911400
  C    -24.164100   51.096900   66.710900
  C    -24.007000   50.974200   68.056800
  C    -22.999600   50.012200   68.446800
  C    -22.420200   49.366700   67.366800
  H    -24.643200   51.549600   68.730900
  C    -22.735700   49.759400   69.909200
  H    -22.426600   50.699500   70.399900
  H    -21.839000   49.172300   69.991300
  C    -23.802100   49.041500   70.730100
  H    -23.922100   48.007600   70.417000
  H    -24.731800   49.537900   70.598100
  C    -23.307200   48.850300   72.132300
  H    -23.948800   48.418700   72.894000
  H    -22.952400   49.762900   72.516400
  H    -22.363100   48.389800   72.032600
  H    -18.847600   46.034200   66.493400
  H    -24.988900   51.664900   66.301600

 Total Charge           Charge          ....    0
 Multiplicity           Mult            ....    1
 Number of Electrons    NEL             ....  134
 Basis Dimension        Dim             ....  322

ORBITAL ENERGIES
----------------

  NO   OCC          E(Eh)            E(eV)
   0   2.0000     -88.967283     -2420.9228
   1   2.0000     -88.963539     -2420.8210
   2   2.0000     -10.326674      -281.0031
   3   2.0000     -10.323976      -280.9297
   4   2.0000     -10.317280      -280.7475
   5   2.0000     -10.315276      -280.6929
   6   2.0000     -10.309939      -280.5477
   7   2.0000     -10.300572      -280.2928
   8   2.0000     -10.300287      -280.2851
   9   2.0000     -10.294556      -280.1291
  10   2.0000     -10.292443      -280.0716
  11   2.0000     -10.291244      -280.0390
  12   2.0000     -10.286531      -279.9107
  13   2.0000     -10.281048      -279.7616
  14   2.0000     -10.278974      -279.7051
  15   2.0000     -10.267136      -279.3830
  16   2.0000      -8.082247      -219.9291
  17   2.0000      -8.078926      -219.8387
  18   2.0000      -6.040755      -164.3773
  19   2.0000      -6.037555      -164.2902
  20   2.0000      -6.036815      -164.2701
  21   2.0000      -6.033214      -164.1721
  22   2.0000      -6.032905      -164.1637
  23   2.0000      -6.029629      -164.0746
  24   2.0000      -1.012126       -27.5413
  25   2.0000      -0.986941       -26.8560
  26   2.0000      -0.917962       -24.9790
  27   2.0000      -0.903960       -24.5980
  28   2.0000      -0.875852       -23.8331
  29   2.0000      -0.853875       -23.2351
  30   2.0000      -0.842539       -22.9267
  31   2.0000      -0.819231       -22.2924
  32   2.0000      -0.783276       -21.3140
  33   2.0000      -0.771743       -21.0002
  34   2.0000      -0.711686       -19.3660
  35   2.0000      -0.704536       -19.1714
  36   2.0000      -0.694621       -18.9016
  37   2.0000      -0.660351       -17.9691
  38   2.0000      -0.643924       -17.5221
  39   2.0000      -0.626806       -17.0563
  40   2.0000      -0.600379       -16.3371
  41   2.0000      -0.570120       -15.5138
  42   2.0000      -0.566823       -15.4240
  43   2.0000      -0.545510       -14.8441
  44   2.0000      -0.533808       -14.5257
  45   2.0000      -0.531440       -14.4612
  46   2.0000      -0.517067       -14.0701
  47   2.0000      -0.514588       -14.0027
  48   2.0000      -0.508280       -13.8310
  49   2.0000      -0.500286       -13.6135
  50   2.0000      -0.490444       -13.3457
  51   2.0000      -0.477631       -12.9970
  52   2.0000      -0.473650       -12.8887
  53   2.0000      -0.464743       -12.6463
  54   2.0000      -0.454925       -12.3791
  55   2.0000      -0.452741       -12.3197
  56   2.0000      -0.445878       -12.1330
  57   2.0000      -0.435848       -11.8600
  58   2.0000      -0.431719       -11.7477
  59   2.0000      -0.426432       -11.6038
  60   2.0000      -0.422025       -11.4839
  61   2.0000      -0.417832       -11.3698
  62   2.0000      -0.413306       -11.2466
  63   2.0000      -0.354938        -9.6584
  64   2.0000      -0.330335        -8.9889
  65   2.0000      -0.326829        -8.8935
  66   2.0000      -0.297277        -8.0893
  67   0.0000       0.034474         0.9381
  68   0.0000       0.072149         1.9633
  69   0.0000       0.112397         3.0585
  70   0.0000       0.123564         3.3623
  71   0.0000       0.128881         3.5070

MULLIKEN ATOMIC CHARGES
-----------------------
   0 S :    0.112534
   1 C :   -0.116791
   2 C :   -0.063808
   3 C :    0.026136
   4 C :   -0.149710
   5 H :    0.007317
   6 C :    0.071029
   7 H :    0.036406
   8 H :    0.004010
   9 C :   -0.084898
  10 H :    0.013984
  11 H :    0.032985
  12 C :   -0.059113
  13 H :    0.052488
  14 H :    0.026402
  15 H :    0.028145
  16 S :    0.102896
  17 C :   -0.087450
  18 C :   -0.037938
  19 C :   -0.041551
  20 C :   -0.125000
  21 H :    0.023383
  22 C :    0.020461
  23 H :    0.029303
  24 H :    0.008770
  25 C :   -0.036286
  26 H :    0.022775
  27 H :    0.019007
  28 C :    0.022065
  29 H :    0.043442
  30 H :   -0.010667
  31 H :    0.000413
  32 H :    0.050141
  33 H :    0.059120
Sum of atomic charges:   -0.0000000

LOEWDIN ATOMIC CHARGES
----------------------
   0 S :    0.404461
   1 C :   -0.195984
   2 C :   -0.060841
   3 C :   -0.051027
   4 C :   -0.190843
   5 H :    0.029530
   6 C :   -0.035944
   7 H :    0.037808
   8 H :    0.026166
   9 C :   -0.043693
  10 H :    0.020768
  11 H :    0.025208
  12 C :   -0.070383
  13 H :    0.034353
  14 H :    0.021656
  15 H :    0.024922
  16 S :    0.415239
  17 C :   -0.187472
  18 C :   -0.069345
  19 C :   -0.059337
  20 C :   -0.208603
  21 H :    0.032348
  22 C :   -0.035765
  23 H :    0.033888
  24 H :    0.024767
  25 C :   -0.032872
  26 H :    0.023506
  27 H :    0.015489
  28 C :   -0.061076
  29 H :    0.028689
  30 H :    0.015791
  31 H :    0.024011
  32 H :    0.029385
  33 H :    0.035200

  Mayer bond orders larger than 0.100000
B(  0-S ,  1-C ) :   1.1484 B(  0-S ,  4-C ) :   1.1232 B(  1-C ,  2-C ) :   1.6242
B(  1-C , 32-H ) :   0.9643 B(  2-C ,  3-C ) :   1.2249 B(  2-C ,  6-C ) :   1.0133
B(  3-C ,  4-C ) :   1.6035 B(  3-C ,  5-H ) :   0.9934 B(  4-C , 20-C ) :   1.0390
B(  6-C ,  7-H ) :   0.9394 B(  6-C ,  8-H ) :   0.9417 B(  6-C ,  9-C ) :   1.0794
B(  9-C , 10-H ) :   0.9503 B(  9-C , 11-H ) :   0.9588 B(  9-C , 12-C ) :   1.0648
B( 12-C , 13-H ) :   0.9805 B( 12-C , 14-H ) :   0.9767 B( 12-C , 15-H ) :   0.9750
B( 16-S , 17-C ) :   1.1408 B( 16-S , 20-C ) :   1.1440 B( 17-C , 18-C ) :   1.6277
B( 17-C , 33-H ) :   0.9659 B( 18-C , 19-C ) :   1.2366 B( 18-C , 21-H ) :   0.9870
B( 19-C , 20-C ) :   1.5990 B( 19-C , 22-C ) :   1.0526 B( 22-C , 23-H ) :   0.9337
B( 22-C , 24-H ) :   0.9245 B( 22-C , 25-C ) :   1.0657 B( 25-C , 26-H ) :   0.9506
B( 25-C , 27-H ) :   0.9556 B( 25-C , 28-C ) :   1.0776 B( 28-C , 29-H ) :   0.9728
B( 28-C , 30-H ) :   0.9626 B( 28-C , 31-H ) :   0.9619

Dispersion correction           -0.014298265
FINAL SINGLE POINT ENERGY     -1339.878518644588

DIPOLE MOMENT
-------------
                                X             Y             Z
Electronic contribution:      6.24604      17.46696     -21.97814
Nuclear contribution   :     -6.48981     -17.92862      22.58459
                        -----------------------------------------
Total Dipole Moment    :     -0.24377      -0.46166       0.60645
                        -----------------------------------------
Magnitude (a.u.)       :      0.80021
Magnitude (Debye)      :      2.03397

Rotational constants in cm-1:     0.016271     0.009610     0.007257
Rotational constants in MHz :   487.788780   288.107977   217.563780

                             ****ORCA TERMINATED NORMALLY****
TOTAL RUN TIME: 0 days 0 hours 0 minutes 33 seconds 502 msec
