                         Program Version 4.2.1 -  RELEASE  -
|  1> ! wB97X-D3 SP def2-SVP
|  2> %pal
|  3> nprocs 16
|  4> end
|  5>
|  6> * xyz 0 1
|  7> S 	 -2.58067 	 43.8302 	 34.9648
|  8> C 	 -2.62199 	 42.3765 	 35.9513
|  9> C 	 -3.84029 	 42.164 	 36.4851
| 10> C 	 -4.64113 	 43.3354 	 36.2925
| 11> C 	 -4.11718 	 44.3397 	 35.5316
| 12> H 	 -5.59789 	 43.4267 	 36.85
| 13> C 	 -4.19278 	 40.9754 	 37.3794
| 14> H 	 -3.43003 	 40.2052 	 37.2553
| 15> H 	 -5.12141 	 40.5976 	 37.0186
| 16> C 	 -4.36662 	 41.2933 	 38.9076
| 17> H 	 -3.48847 	 41.8928 	 39.1899
| 18> H 	 -5.2196 	 41.8013 	 39.2563
| 19> C 	 -4.50245 	 39.9895 	 39.6752
| 20> H 	 -5.36782 	 39.495 	 39.3151
| 21> H 	 -3.65497 	 39.349 	 39.6033
| 22> H 	 -4.64538 	 40.1398 	 40.7574
| 23> S 	 -3.82566 	 46.9711 	 36.2352
| 24> C 	 -5.1236 	 47.9902 	 35.8511
| 25> C 	 -6.19207 	 47.3748 	 35.2152
| 26> C 	 -5.95485 	 46.0043 	 34.8511
| 27> C 	 -4.69542 	 45.6755 	 35.3951
| 28> H 	 -7.1135 	 47.9327 	 35.0586
| 29> C 	 -6.98432 	 45.0693 	 34.1857
| 30> H 	 -8.03916 	 45.2001 	 34.4945
| 31> H 	 -6.81242 	 44.0657 	 34.5992
| 32> C 	 -7.0541 	 45.1546 	 32.6768
| 33> H 	 -7.86081 	 44.4996 	 32.3225
| 34> H 	 -6.16739 	 44.7703 	 32.3744
| 35> C 	 -7.19977 	 46.5188 	 32.0216
| 36> H 	 -7.21754 	 46.5289 	 30.9782
| 37> H 	 -6.39777 	 47.2659 	 32.3071
| 38> H 	 -8.08441 	 46.9128 	 32.4344
| 39> H 	 -1.75187 	 41.7293 	 36.0399
| 40> H 	 -5.21959 	 49.0021 	 36.2527
| 41> *
| 42>
| 43>                          ****END OF INPUT****

CARTESIAN COORDINATES (ANGSTROEM)
---------------------------------
  S     -2.580670   43.830200   34.964800
  C     -2.621990   42.376500   35.951300
  C     -3.840290   42.164000   36.485100
  C     -4.641130   43.335400   36.292500
  C     -4.117180   44.339700   35.531600
  H     -5.597890   43.426700   36.850000
  C     -4.192780   40.975400   37.379400
  H     -3.430030   40.205200   37.255300
  H     -5.121410   40.597600   37.018600
  C     -4.366620   41.293300   38.907600
  H     -3.488470   41.892800   39.189900
  H     -5.219600   41.801300   39.256300
  C     -4.502450   39.989500   39.675200
  H     -5.367820   39.495000   39.315100
  H     -3.654970   39.349000   39.603300
  H     -4.645380   40.139800   40.757400
  S     -3.825660   46.971100   36.235200
  C     -5.123600   47.990200   35.851100
  C     -6.192070   47.374800   35.215200
  C     -5.954850   46.004300   34.851100
  C     -4.695420   45.675500   35.395100
  H     -7.113500   47.932700   35.058600
  C     -6.984320   45.069300   34.185700
  H     -8.039160   45.200100   34.494500
  H     -6.812420   44.065700   34.599200
  C     -7.054100   45.154600   32.676800
  H     -7.860810   44.499600   32.322500
  H     -6.167390   44.770300   32.374400
  C     -7.199770   46.518800   32.021600
  H     -7.217540   46.528900   30.978200
  H     -6.397770   47.265900   32.307100
  H     -8.084410   46.912800   32.434400
  H     -1.751870   41.729300   36.039900
  H     -5.219590   49.002100   36.252700

 Total Charge           Charge          ....    0
 Multiplicity           Mult            ....    1
 Number of Electrons    NEL             ....  134
 Basis Dimension        Dim             ....  322

ORBITAL ENERGIES
----------------

  NO   OCC          E(Eh)            E(eV)
   0   2.0000     -88.970517     -2421.0108
   1   2.0000     -88.958948     -2420.6960
   2   2.0000     -10.328848      -281.0623
   3   2.0000     -10.320378      -280.8318
   4   2.0000     -10.312223      -280.6098
   5   2.0000     -10.310887      -280.5735
   6   2.0000     -10.309043      -280.5233
   7   2.0000     -10.296119      -280.1716
   8   2.0000     -10.295763      -280.1619
   9   2.0000     -10.295320      -280.1499
  10   2.0000     -10.293274      -280.0942
  11   2.0000     -10.289521      -279.9921
  12   2.0000     -10.284915      -279.8668
  13   2.0000     -10.273576      -279.5582
  14   2.0000     -10.272463      -279.5279
  15   2.0000     -10.268625      -279.4235
  16   2.0000      -8.085846      -220.0271
  17   2.0000      -8.074648      -219.7223
  18   2.0000      -6.044073      -164.4676
  19   2.0000      -6.040488      -164.3700
  20   2.0000      -6.036642      -164.2654
  21   2.0000      -6.033098      -164.1689
  22   2.0000      -6.029046      -164.0587
  23   2.0000      -6.025388      -163.9591
  24   2.0000      -1.009350       -27.4658
  25   2.0000      -0.987356       -26.8673
  26   2.0000      -0.913176       -24.8488
  27   2.0000      -0.911772       -24.8106
  28   2.0000      -0.870442       -23.6859
  29   2.0000      -0.853796       -23.2330
  30   2.0000      -0.843866       -22.9627
  31   2.0000      -0.809132       -22.0176
  32   2.0000      -0.789962       -21.4960
  33   2.0000      -0.774512       -21.0755
  34   2.0000      -0.708736       -19.2857
  35   2.0000      -0.701516       -19.0892
  36   2.0000      -0.687806       -18.7162
  37   2.0000      -0.655923       -17.8486
  38   2.0000      -0.638260       -17.3679
  39   2.0000      -0.620119       -16.8743
  40   2.0000      -0.600060       -16.3285
  41   2.0000      -0.575350       -15.6561
  42   2.0000      -0.564790       -15.3687
  43   2.0000      -0.556891       -15.1538
  44   2.0000      -0.546748       -14.8778
  45   2.0000      -0.523084       -14.2338
  46   2.0000      -0.512939       -13.9578
  47   2.0000      -0.509169       -13.8552
  48   2.0000      -0.500242       -13.6123
  49   2.0000      -0.494180       -13.4473
  50   2.0000      -0.487010       -13.2522
  51   2.0000      -0.475750       -12.9458
  52   2.0000      -0.474079       -12.9003
  53   2.0000      -0.463267       -12.6061
  54   2.0000      -0.459456       -12.5024
  55   2.0000      -0.452168       -12.3041
  56   2.0000      -0.448898       -12.2151
  57   2.0000      -0.444205       -12.0874
  58   2.0000      -0.435652       -11.8547
  59   2.0000      -0.424209       -11.5433
  60   2.0000      -0.422967       -11.5095
  61   2.0000      -0.418886       -11.3985
  62   2.0000      -0.405074       -11.0226
  63   2.0000      -0.337003        -9.1703
  64   2.0000      -0.333940        -9.0870
  65   2.0000      -0.326433        -8.8827
  66   2.0000      -0.298239        -8.1155
  67   0.0000       0.038524         1.0483
  68   0.0000       0.069269         1.8849
  69   0.0000       0.109994         2.9931
  70   0.0000       0.120186         3.2704
  71   0.0000       0.134859         3.6697

MULLIKEN ATOMIC CHARGES
-----------------------
   0 S :    0.099478
   1 C :   -0.154816
   2 C :   -0.061334
   3 C :    0.019181
   4 C :   -0.160313
   5 H :    0.018756
   6 C :    0.082669
   7 H :    0.020541
   8 H :    0.019537
   9 C :   -0.063058
  10 H :    0.034399
  11 H :    0.024153
  12 C :   -0.039898
  13 H :    0.019475
  14 H :    0.021363
  15 H :    0.032915
  16 S :    0.142647
  17 C :   -0.091527
  18 C :   -0.054626
  19 C :   -0.007413
  20 C :   -0.187746
  21 H :    0.019234
  22 C :    0.059554
  23 H :    0.023514
  24 H :    0.024144
  25 C :   -0.022478
  26 H :    0.029765
  27 H :    0.002497
  28 C :   -0.035043
  29 H :    0.028973
  30 H :    0.043382
  31 H :    0.005844
  32 H :    0.048373
  33 H :    0.057857
Sum of atomic charges:   -0.0000000

LOEWDIN ATOMIC CHARGES
----------------------
   0 S :    0.401672
   1 C :   -0.188010
   2 C :   -0.070591
   3 C :   -0.067069
   4 C :   -0.217635
   5 H :    0.032123
   6 C :   -0.020169
   7 H :    0.031580
   8 H :    0.026524
   9 C :   -0.036164
  10 H :    0.025766
  11 H :    0.020157
  12 C :   -0.059968
  13 H :    0.020494
  14 H :    0.016862
  15 H :    0.029040
  16 S :    0.432161
  17 C :   -0.210301
  18 C :   -0.071645
  19 C :   -0.042180
  20 C :   -0.190990
  21 H :    0.030228
  22 C :   -0.031781
  23 H :    0.031963
  24 H :    0.034964
  25 C :   -0.032371
  26 H :    0.028687
  27 H :    0.008835
  28 C :   -0.059101
  29 H :    0.020229
  30 H :    0.035407
  31 H :    0.014668
  32 H :    0.026681
  33 H :    0.029934

  Mayer bond orders larger than 0.100000
B(  0-S ,  1-C ) :   1.1384 B(  0-S ,  4-C ) :   1.1448 B(  1-C ,  2-C ) :   1.6176
B(  1-C , 32-H ) :   0.9684 B(  2-C ,  3-C ) :   1.2359 B(  2-C ,  6-C ) :   1.0334
B(  3-C ,  4-C ) :   1.5925 B(  3-C ,  5-H ) :   0.9857 B(  4-C , 20-C ) :   1.0172
B(  6-C ,  7-H ) :   0.9476 B(  6-C ,  8-H ) :   0.9284 B(  6-C ,  9-C ) :   1.0556
B(  9-C , 10-H ) :   0.9599 B(  9-C , 11-H ) :   0.9559 B(  9-C , 12-C ) :   1.0820
B( 12-C , 13-H ) :   0.9729 B( 12-C , 14-H ) :   0.9766 B( 12-C , 15-H ) :   0.9739
B( 16-S , 17-C ) :   1.1574 B( 16-S , 20-C ) :   1.1661 B( 17-C , 18-C ) :   1.6255
B( 17-C , 33-H ) :   0.9613 B( 18-C , 19-C ) :   1.2287 B( 18-C , 21-H ) :   0.9848
B( 19-C , 20-C ) :   1.5912 B( 19-C , 22-C ) :   1.0233 B( 22-C , 23-H ) :   0.9446
B( 22-C , 24-H ) :   0.9295 B( 22-C , 25-C ) :   1.0724 B( 25-C , 26-H ) :   0.9529
B( 25-C , 27-H ) :   0.9498 B( 25-C , 28-C ) :   1.0853 B( 28-C , 29-H ) :   0.9733
B( 28-C , 30-H ) :   0.9664 B( 28-C , 31-H ) :   0.9745

Dispersion correction           -0.014062747
FINAL SINGLE POINT ENERGY     -1339.867835902889

DIPOLE MOMENT
-------------
                                X             Y             Z
Electronic contribution:     15.85812      13.90672      -2.65108
Nuclear contribution   :    -16.38713     -14.19629       2.98977
                        -----------------------------------------
Total Dipole Moment    :     -0.52900      -0.28956       0.33869
                        -----------------------------------------
Magnitude (a.u.)       :      0.69167
Magnitude (Debye)      :      1.75808

Rotational constants in cm-1:     0.020588     0.007289     0.006811
Rotational constants in MHz :   617.201556   218.514559   204.176894

                             ****ORCA TERMINATED NORMALLY****
TOTAL RUN TIME: 0 days 0 hours 0 minutes 34 seconds 127 msec
