                         Program Version 4.2.1 -  RELEASE  -
|  1> ! wB97X-D3 SP def2-SVP
|  2> %pal
|  3> nprocs 16
|  4> end
|  5>
|  6> * xyz 0 1
|  7> S 	 8.63836 	 -26.0782 	 82.3996
|  8> C 	 7.33162 	 -25.141 	 83.0229
|  9> C 	 7.47839 	 -23.8282 	 82.6132
| 10> C 	 8.60282 	 -23.5759 	 81.734
| 11> C 	 9.2964 	 -24.7125 	 81.4446
| 12> H 	 8.88014 	 -22.5837 	 81.2769
| 13> C 	 6.51108 	 -22.7277 	 82.9756
| 14> H 	 5.54449 	 -23.2472 	 83.1295
| 15> H 	 6.40481 	 -22.0247 	 82.1141
| 16> C 	 6.79832 	 -22.0231 	 84.3098
| 17> H 	 6.82361 	 -22.7776 	 85.0163
| 18> H 	 7.82921 	 -21.732 	 84.2169
| 19> C 	 5.84109 	 -20.8584 	 84.73
| 20> H 	 6.22133 	 -20.4125 	 85.6665
| 21> H 	 5.54775 	 -20.019 	 84.183
| 22> H 	 4.9061 	 -21.3869 	 85.0192
| 23> S 	 10.3793 	 -25.7543 	 79.133
| 24> C 	 12.0283 	 -25.3583 	 78.7164
| 25> C 	 12.6216 	 -24.5292 	 79.6473
| 26> C 	 11.7729 	 -24.2734 	 80.7381
| 27> C 	 10.5048 	 -24.8446 	 80.6108
| 28> H 	 13.5361 	 -24.0627 	 79.4637
| 29> C 	 12.2015 	 -23.3189 	 81.8438
| 30> H 	 13.2362 	 -23.2748 	 81.9866
| 31> H 	 11.8217 	 -23.725 	 82.8995
| 32> C 	 11.6941 	 -21.8716 	 81.6792
| 33> H 	 10.6298 	 -21.7725 	 81.9488
| 34> H 	 11.6619 	 -21.4155 	 80.6847
| 35> C 	 12.4629 	 -20.8553 	 82.4729
| 36> H 	 13.368 	 -20.5202 	 81.9148
| 37> H 	 12.6884 	 -20.9902 	 83.5307
| 38> H 	 11.9122 	 -19.9213 	 82.6078
| 39> H 	 6.55505 	 -25.5255 	 83.6891
| 40> H 	 12.563 	 -25.5481 	 77.8159
| 41> *
| 42>
| 43>                          ****END OF INPUT****

CARTESIAN COORDINATES (ANGSTROEM)
---------------------------------
  S      8.638360  -26.078200   82.399600
  C      7.331620  -25.141000   83.022900
  C      7.478390  -23.828200   82.613200
  C      8.602820  -23.575900   81.734000
  C      9.296400  -24.712500   81.444600
  H      8.880140  -22.583700   81.276900
  C      6.511080  -22.727700   82.975600
  H      5.544490  -23.247200   83.129500
  H      6.404810  -22.024700   82.114100
  C      6.798320  -22.023100   84.309800
  H      6.823610  -22.777600   85.016300
  H      7.829210  -21.732000   84.216900
  C      5.841090  -20.858400   84.730000
  H      6.221330  -20.412500   85.666500
  H      5.547750  -20.019000   84.183000
  H      4.906100  -21.386900   85.019200
  S     10.379300  -25.754300   79.133000
  C     12.028300  -25.358300   78.716400
  C     12.621600  -24.529200   79.647300
  C     11.772900  -24.273400   80.738100
  C     10.504800  -24.844600   80.610800
  H     13.536100  -24.062700   79.463700
  C     12.201500  -23.318900   81.843800
  H     13.236200  -23.274800   81.986600
  H     11.821700  -23.725000   82.899500
  C     11.694100  -21.871600   81.679200
  H     10.629800  -21.772500   81.948800
  H     11.661900  -21.415500   80.684700
  C     12.462900  -20.855300   82.472900
  H     13.368000  -20.520200   81.914800
  H     12.688400  -20.990200   83.530700
  H     11.912200  -19.921300   82.607800
  H      6.555050  -25.525500   83.689100
  H     12.563000  -25.548100   77.815900

 Total Charge           Charge          ....    0
 Multiplicity           Mult            ....    1
 Number of Electrons    NEL             ....  134
 Basis Dimension        Dim             ....  322

ORBITAL ENERGIES
----------------

  NO   OCC          E(Eh)            E(eV)
   0   2.0000     -88.969074     -2420.9716
   1   2.0000     -88.963415     -2420.8176
   2   2.0000     -10.331671      -281.1391
   3   2.0000     -10.326098      -280.9874
   4   2.0000     -10.316232      -280.7189
   5   2.0000     -10.314954      -280.6842
   6   2.0000     -10.303008      -280.3591
   7   2.0000     -10.301250      -280.3113
   8   2.0000     -10.300167      -280.2818
   9   2.0000     -10.297937      -280.2211
  10   2.0000     -10.290988      -280.0320
  11   2.0000     -10.287198      -279.9289
  12   2.0000     -10.286877      -279.9202
  13   2.0000     -10.283259      -279.8217
  14   2.0000     -10.281303      -279.7685
  15   2.0000     -10.276578      -279.6399
  16   2.0000      -8.083770      -219.9706
  17   2.0000      -8.078082      -219.8158
  18   2.0000      -6.042205      -164.4168
  19   2.0000      -6.038215      -164.3082
  20   2.0000      -6.036634      -164.2652
  21   2.0000      -6.034674      -164.2118
  22   2.0000      -6.032554      -164.1541
  23   2.0000      -6.028827      -164.0527
  24   2.0000      -1.006227       -27.3808
  25   2.0000      -0.985967       -26.8295
  26   2.0000      -0.908422       -24.7194
  27   2.0000      -0.907946       -24.7065
  28   2.0000      -0.870378       -23.6842
  29   2.0000      -0.854826       -23.2610
  30   2.0000      -0.844981       -22.9931
  31   2.0000      -0.819021       -22.2867
  32   2.0000      -0.781294       -21.2601
  33   2.0000      -0.769030       -20.9264
  34   2.0000      -0.707877       -19.2623
  35   2.0000      -0.704929       -19.1821
  36   2.0000      -0.694749       -18.9051
  37   2.0000      -0.665898       -18.1200
  38   2.0000      -0.643100       -17.4996
  39   2.0000      -0.618010       -16.8169
  40   2.0000      -0.598433       -16.2842
  41   2.0000      -0.568307       -15.4644
  42   2.0000      -0.563231       -15.3263
  43   2.0000      -0.557167       -15.1613
  44   2.0000      -0.526400       -14.3241
  45   2.0000      -0.520627       -14.1670
  46   2.0000      -0.515903       -14.0384
  47   2.0000      -0.511392       -13.9157
  48   2.0000      -0.508514       -13.8374
  49   2.0000      -0.505215       -13.7476
  50   2.0000      -0.493693       -13.4341
  51   2.0000      -0.475984       -12.9522
  52   2.0000      -0.473216       -12.8769
  53   2.0000      -0.465817       -12.6755
  54   2.0000      -0.457703       -12.4547
  55   2.0000      -0.454516       -12.3680
  56   2.0000      -0.445536       -12.1237
  57   2.0000      -0.435760       -11.8576
  58   2.0000      -0.431358       -11.7379
  59   2.0000      -0.426320       -11.6008
  60   2.0000      -0.416122       -11.3233
  61   2.0000      -0.412334       -11.2202
  62   2.0000      -0.404333       -11.0025
  63   2.0000      -0.344032        -9.3616
  64   2.0000      -0.332458        -9.0466
  65   2.0000      -0.324290        -8.8244
  66   2.0000      -0.302378        -8.2281
  67   0.0000       0.037166         1.0113
  68   0.0000       0.060158         1.6370
  69   0.0000       0.120542         3.2801
  70   0.0000       0.121682         3.3111
  71   0.0000       0.127240         3.4624

MULLIKEN ATOMIC CHARGES
-----------------------
   0 S :    0.107037
   1 C :   -0.116468
   2 C :   -0.112458
   3 C :    0.037010
   4 C :   -0.155256
   5 H :    0.045613
   6 C :    0.031568
   7 H :    0.015895
   8 H :    0.034018
   9 C :   -0.016835
  10 H :    0.002133
  11 H :    0.012766
  12 C :   -0.034592
  13 H :    0.030619
  14 H :    0.029857
  15 H :    0.026602
  16 S :    0.128054
  17 C :   -0.070641
  18 C :   -0.029464
  19 C :    0.001712
  20 C :   -0.192625
  21 H :   -0.001008
  22 C :    0.076376
  23 H :    0.006656
  24 H :    0.050454
  25 C :   -0.064786
  26 H :    0.020526
  27 H :    0.027317
  28 C :   -0.070530
  29 H :    0.034625
  30 H :    0.027724
  31 H :    0.015443
  32 H :    0.058838
  33 H :    0.043821
Sum of atomic charges:    0.0000000

LOEWDIN ATOMIC CHARGES
----------------------
   0 S :    0.396487
   1 C :   -0.203813
   2 C :   -0.069345
   3 C :   -0.061808
   4 C :   -0.186315
   5 H :    0.043414
   6 C :   -0.036979
   7 H :    0.027897
   8 H :    0.030941
   9 C :   -0.031388
  10 H :    0.015911
  11 H :    0.017994
  12 C :   -0.067939
  13 H :    0.031992
  14 H :    0.018077
  15 H :    0.030539
  16 S :    0.425752
  17 C :   -0.181298
  18 C :   -0.063985
  19 C :   -0.051291
  20 C :   -0.211510
  21 H :    0.024073
  22 C :   -0.029436
  23 H :    0.019115
  24 H :    0.049798
  25 C :   -0.050295
  26 H :    0.022599
  27 H :    0.029229
  28 C :   -0.079146
  29 H :    0.027588
  30 H :    0.023753
  31 H :    0.028009
  32 H :    0.035298
  33 H :    0.026080

  Mayer bond orders larger than 0.100000
B(  0-S ,  1-C ) :   1.1369 B(  0-S ,  4-C ) :   1.1445 B(  1-C ,  2-C ) :   1.6135
B(  1-C , 32-H ) :   0.9678 B(  2-C ,  3-C ) :   1.2231 B(  2-C ,  6-C ) :   1.0312
B(  3-C ,  4-C ) :   1.6084 B(  3-C ,  5-H ) :   0.9757 B(  4-C , 20-C ) :   1.0101
B(  6-C ,  7-H ) :   0.9400 B(  6-C ,  8-H ) :   0.9467 B(  6-C ,  9-C ) :   1.0572
B(  9-C , 10-H ) :   0.9516 B(  9-C , 11-H ) :   0.9575 B(  9-C , 12-C ) :   1.0636
B( 12-C , 13-H ) :   0.9741 B( 12-C , 14-H ) :   0.9832 B( 12-C , 15-H ) :   0.9746
B( 16-S , 17-C ) :   1.1662 B( 16-S , 20-C ) :   1.1566 B( 17-C , 18-C ) :   1.5955
B( 17-C , 20-C ) :   0.1015 B( 17-C , 33-H ) :   0.9666 B( 18-C , 19-C ) :   1.2670
B( 18-C , 21-H ) :   0.9968 B( 19-C , 20-C ) :   1.5774 B( 19-C , 22-C ) :   1.0528
B( 22-C , 23-H ) :   0.9443 B( 22-C , 24-H ) :   0.9256 B( 22-C , 25-C ) :   1.0455
B( 25-C , 26-H ) :   0.9471 B( 25-C , 27-H ) :   0.9565 B( 25-C , 28-C ) :   1.0914
B( 28-C , 29-H ) :   0.9752 B( 28-C , 30-H ) :   0.9721 B( 28-C , 31-H ) :   0.9675

Dispersion correction           -0.014383671
FINAL SINGLE POINT ENERGY     -1339.866533780859

DIPOLE MOMENT
-------------
                                X             Y             Z
Electronic contribution:      2.59101     -28.14807     -16.11281
Nuclear contribution   :     -2.52812      28.88092      16.28481
                        -----------------------------------------
Total Dipole Moment    :      0.06289       0.73285       0.17201
                        -----------------------------------------
Magnitude (a.u.)       :      0.75539
Magnitude (Debye)      :      1.92004

Rotational constants in cm-1:     0.018410     0.008736     0.006497
Rotational constants in MHz :   551.912303   261.885172   194.766935

                             ****ORCA TERMINATED NORMALLY****
TOTAL RUN TIME: 0 days 0 hours 0 minutes 33 seconds 942 msec
