                         Program Version 4.2.1 -  RELEASE  -
|  1> ! wB97X-D3 SP def2-SVP
|  2> %pal
|  3> nprocs 16
|  4> end
|  5>
|  6> * xyz 0 1
|  7> S 	 34.8286 	 24.1961 	 46.9135
|  8> C 	 35.2064 	 25.2435 	 48.2763
|  9> C 	 36.0234 	 24.5825 	 49.2129
| 10> C 	 36.361 	 23.3073 	 48.736
| 11> C 	 35.7768 	 22.8678 	 47.56
| 12> H 	 36.9742 	 22.5627 	 49.2061
| 13> C 	 36.442 	 25.1314 	 50.5112
| 14> H 	 37.253 	 25.8636 	 50.4169
| 15> H 	 36.7964 	 24.2596 	 51.1008
| 16> C 	 35.2921 	 25.7514 	 51.3177
| 17> H 	 34.9664 	 26.5861 	 50.7603
| 18> H 	 34.4816 	 24.9749 	 51.3582
| 19> C 	 35.7041 	 26.1451 	 52.7244
| 20> H 	 36.1028 	 27.1864 	 52.7869
| 21> H 	 34.7416 	 26.3939 	 53.1923
| 22> H 	 36.1973 	 25.4097 	 53.4503
| 23> S 	 37.1081 	 22.2708 	 45.2502
| 24> C 	 37.4527 	 20.5372 	 44.9739
| 25> C 	 36.9905 	 19.7144 	 45.9866
| 26> C 	 36.2796 	 20.4468 	 47.0148
| 27> C 	 36.1808 	 21.7816 	 46.731
| 28> H 	 37.3555 	 18.6938 	 45.8884
| 29> C 	 35.5066 	 19.8606 	 48.1284
| 30> H 	 34.7507 	 19.1512 	 47.7346
| 31> H 	 34.845 	 20.5965 	 48.63
| 32> C 	 36.3092 	 19.1149 	 49.1954
| 33> H 	 37.2436 	 19.6801 	 49.4312
| 34> H 	 36.6281 	 18.0537 	 48.8451
| 35> C 	 35.4746 	 18.9998 	 50.5173
| 36> H 	 36.0193 	 18.6527 	 51.4098
| 37> H 	 34.5359 	 18.3194 	 50.4135
| 38> H 	 35.0888 	 19.9388 	 50.8131
| 39> H 	 34.6314 	 26.1187 	 48.506
| 40> H 	 37.8979 	 20.1709 	 44.074
| 41> *
| 42>
| 43>                          ****END OF INPUT****

CARTESIAN COORDINATES (ANGSTROEM)
---------------------------------
  S     34.828600   24.196100   46.913500
  C     35.206400   25.243500   48.276300
  C     36.023400   24.582500   49.212900
  C     36.361000   23.307300   48.736000
  C     35.776800   22.867800   47.560000
  H     36.974200   22.562700   49.206100
  C     36.442000   25.131400   50.511200
  H     37.253000   25.863600   50.416900
  H     36.796400   24.259600   51.100800
  C     35.292100   25.751400   51.317700
  H     34.966400   26.586100   50.760300
  H     34.481600   24.974900   51.358200
  C     35.704100   26.145100   52.724400
  H     36.102800   27.186400   52.786900
  H     34.741600   26.393900   53.192300
  H     36.197300   25.409700   53.450300
  S     37.108100   22.270800   45.250200
  C     37.452700   20.537200   44.973900
  C     36.990500   19.714400   45.986600
  C     36.279600   20.446800   47.014800
  C     36.180800   21.781600   46.731000
  H     37.355500   18.693800   45.888400
  C     35.506600   19.860600   48.128400
  H     34.750700   19.151200   47.734600
  H     34.845000   20.596500   48.630000
  C     36.309200   19.114900   49.195400
  H     37.243600   19.680100   49.431200
  H     36.628100   18.053700   48.845100
  C     35.474600   18.999800   50.517300
  H     36.019300   18.652700   51.409800
  H     34.535900   18.319400   50.413500
  H     35.088800   19.938800   50.813100
  H     34.631400   26.118700   48.506000
  H     37.897900   20.170900   44.074000

 Total Charge           Charge          ....    0
 Multiplicity           Mult            ....    1
 Number of Electrons    NEL             ....  134
 Basis Dimension        Dim             ....  322

ORBITAL ENERGIES
----------------

  NO   OCC          E(Eh)            E(eV)
   0   2.0000     -88.964707     -2420.8528
   1   2.0000     -88.962004     -2420.7792
   2   2.0000     -10.325279      -280.9651
   3   2.0000     -10.323980      -280.9298
   4   2.0000     -10.319241      -280.8008
   5   2.0000     -10.315515      -280.6994
   6   2.0000     -10.305632      -280.4305
   7   2.0000     -10.300242      -280.2838
   8   2.0000     -10.300215      -280.2831
   9   2.0000     -10.298761      -280.2435
  10   2.0000     -10.291629      -280.0495
  11   2.0000     -10.291022      -280.0329
  12   2.0000     -10.290750      -280.0255
  13   2.0000     -10.289933      -280.0033
  14   2.0000     -10.288282      -279.9584
  15   2.0000     -10.285424      -279.8806
  16   2.0000      -8.079111      -219.8438
  17   2.0000      -8.075625      -219.7489
  18   2.0000      -6.037520      -164.2893
  19   2.0000      -6.034197      -164.1989
  20   2.0000      -6.033495      -164.1798
  21   2.0000      -6.030540      -164.0993
  22   2.0000      -6.030170      -164.0893
  23   2.0000      -6.026102      -163.9786
  24   2.0000      -1.005466       -27.3601
  25   2.0000      -0.978546       -26.6276
  26   2.0000      -0.918614       -24.9968
  27   2.0000      -0.906739       -24.6736
  28   2.0000      -0.871443       -23.7132
  29   2.0000      -0.852361       -23.1939
  30   2.0000      -0.843815       -22.9614
  31   2.0000      -0.814546       -22.1649
  32   2.0000      -0.781794       -21.2737
  33   2.0000      -0.768625       -20.9153
  34   2.0000      -0.709794       -19.3145
  35   2.0000      -0.700118       -19.0512
  36   2.0000      -0.694881       -18.9087
  37   2.0000      -0.658227       -17.9113
  38   2.0000      -0.643867       -17.5205
  39   2.0000      -0.613698       -16.6996
  40   2.0000      -0.597735       -16.2652
  41   2.0000      -0.577343       -15.7103
  42   2.0000      -0.569935       -15.5087
  43   2.0000      -0.559190       -15.2163
  44   2.0000      -0.528586       -14.3836
  45   2.0000      -0.522012       -14.2047
  46   2.0000      -0.514060       -13.9883
  47   2.0000      -0.510765       -13.8986
  48   2.0000      -0.502922       -13.6852
  49   2.0000      -0.498617       -13.5680
  50   2.0000      -0.489311       -13.3148
  51   2.0000      -0.475610       -12.9420
  52   2.0000      -0.472318       -12.8524
  53   2.0000      -0.465113       -12.6564
  54   2.0000      -0.456090       -12.4109
  55   2.0000      -0.445799       -12.1308
  56   2.0000      -0.440213       -11.9788
  57   2.0000      -0.434671       -11.8280
  58   2.0000      -0.429597       -11.6899
  59   2.0000      -0.428832       -11.6691
  60   2.0000      -0.420099       -11.4315
  61   2.0000      -0.415347       -11.3022
  62   2.0000      -0.412624       -11.2281
  63   2.0000      -0.343578        -9.3492
  64   2.0000      -0.330714        -8.9992
  65   2.0000      -0.326578        -8.8866
  66   2.0000      -0.294350        -8.0097
  67   0.0000       0.027651         0.7524
  68   0.0000       0.058866         1.6018
  69   0.0000       0.108984         2.9656
  70   0.0000       0.119122         3.2415
  71   0.0000       0.123985         3.3738

MULLIKEN ATOMIC CHARGES
-----------------------
   0 S :    0.099209
   1 C :   -0.118994
   2 C :   -0.080297
   3 C :    0.051328
   4 C :   -0.197335
   5 H :   -0.003423
   6 C :    0.080849
   7 H :    0.045939
   8 H :    0.019624
   9 C :   -0.109267
  10 H :    0.023925
  11 H :    0.042381
  12 C :   -0.059833
  13 H :    0.034013
  14 H :    0.021525
  15 H :    0.059598
  16 S :    0.090405
  17 C :   -0.096463
  18 C :   -0.026431
  19 C :    0.007827
  20 C :   -0.124772
  21 H :    0.029431
  22 C :    0.024435
  23 H :    0.039490
  24 H :    0.033646
  25 C :   -0.106231
  26 H :    0.041125
  27 H :    0.047942
  28 C :   -0.072270
  29 H :    0.038341
  30 H :    0.039772
  31 H :    0.019782
  32 H :    0.053357
  33 H :    0.051371
Sum of atomic charges:   -0.0000000

LOEWDIN ATOMIC CHARGES
----------------------
   0 S :    0.405140
   1 C :   -0.191121
   2 C :   -0.065975
   3 C :   -0.053799
   4 C :   -0.205158
   5 H :    0.027087
   6 C :   -0.036232
   7 H :    0.035771
   8 H :    0.032128
   9 C :   -0.037999
  10 H :    0.018117
  11 H :    0.030991
  12 C :   -0.086289
  13 H :    0.032646
  14 H :    0.030869
  15 H :    0.038274
  16 S :    0.356698
  17 C :   -0.159924
  18 C :   -0.070668
  19 C :   -0.053616
  20 C :   -0.175644
  21 H :    0.037953
  22 C :   -0.041938
  23 H :    0.039273
  24 H :    0.034995
  25 C :   -0.046639
  26 H :    0.025372
  27 H :    0.032113
  28 C :   -0.074701
  29 H :    0.027157
  30 H :    0.034105
  31 H :    0.015205
  32 H :    0.022470
  33 H :    0.023338

  Mayer bond orders larger than 0.100000
B(  0-S ,  1-C ) :   1.1630 B(  0-S ,  4-C ) :   1.1505 B(  1-C ,  2-C ) :   1.5462
B(  1-C ,  4-C ) :   0.1095 B(  1-C , 32-H ) :   0.9675 B(  2-C ,  3-C ) :   1.2847
B(  2-C ,  6-C ) :   1.0263 B(  3-C ,  4-C ) :   1.5466 B(  3-C ,  5-H ) :   0.9931
B(  4-C , 20-C ) :   1.0389 B(  6-C ,  7-H ) :   0.9293 B(  6-C ,  8-H ) :   0.9433
B(  6-C ,  9-C ) :   1.0645 B(  9-C , 10-H ) :   0.9472 B(  9-C , 11-H ) :   0.9636
B(  9-C , 12-C ) :   1.0958 B( 12-C , 13-H ) :   0.9664 B( 12-C , 14-H ) :   0.9665
B( 12-C , 15-H ) :   0.9723 B( 16-S , 17-C ) :   1.1312 B( 16-S , 20-C ) :   1.1043
B( 17-C , 18-C ) :   1.6720 B( 17-C , 33-H ) :   0.9664 B( 18-C , 19-C ) :   1.1580
B( 18-C , 21-H ) :   0.9910 B( 19-C , 20-C ) :   1.6464 B( 19-C , 22-C ) :   1.0593
B( 22-C , 23-H ) :   0.9295 B( 22-C , 24-H ) :   0.9440 B( 22-C , 25-C ) :   1.0361
B( 25-C , 26-H ) :   0.9614 B( 25-C , 27-H ) :   0.9526 B( 25-C , 28-C ) :   1.0747
B( 28-C , 29-H ) :   0.9764 B( 28-C , 30-H ) :   0.9741 B( 28-C , 31-H ) :   0.9758

Dispersion correction           -0.013903039
FINAL SINGLE POINT ENERGY     -1339.867034819749

DIPOLE MOMENT
-------------
                                X             Y             Z
Electronic contribution:      2.00664       3.88552     -30.12631
Nuclear contribution   :     -1.96620      -4.05754      30.81401
                        -----------------------------------------
Total Dipole Moment    :      0.04044      -0.17202       0.68770
                        -----------------------------------------
Magnitude (a.u.)       :      0.71004
Magnitude (Debye)      :      1.80479

Rotational constants in cm-1:     0.018367     0.008485     0.006354
Rotational constants in MHz :   550.619277   254.367849   190.480310

                             ****ORCA TERMINATED NORMALLY****
TOTAL RUN TIME: 0 days 0 hours 0 minutes 34 seconds 446 msec
