                         Program Version 4.2.1 -  RELEASE  -
|  1> ! wB97X-D3 SP def2-SVP
|  2> %pal
|  3> nprocs 16
|  4> end
|  5>
|  6> * xyz 0 1
|  7> S 	 -92.6646 	 50.3311 	 124.047
|  8> C 	 -91.7269 	 50.3467 	 122.529
|  9> C 	 -92.4183 	 50.9485 	 121.453
| 10> C 	 -93.7431 	 51.328 	 121.877
| 11> C 	 -93.9634 	 51.2256 	 123.275
| 12> H 	 -94.5812 	 51.7516 	 121.277
| 13> C 	 -91.9969 	 51.0107 	 120.039
| 14> H 	 -91.779 	 51.9919 	 119.642
| 15> H 	 -92.7323 	 50.6384 	 119.406
| 16> C 	 -90.7807 	 50.1035 	 119.749
| 17> H 	 -89.9713 	 50.5393 	 120.434
| 18> H 	 -90.9284 	 49.0929 	 120.044
| 19> C 	 -90.3889 	 50.0962 	 118.19
| 20> H 	 -90.0774 	 50.9856 	 117.795
| 21> H 	 -89.5824 	 49.3657 	 118.09
| 22> H 	 -91.1033 	 49.5976 	 117.641
| 23> S 	 -95.2645 	 53.2066 	 124.549
| 24> C 	 -97.0169 	 53.0742 	 124.832
| 25> C 	 -97.4185 	 51.741 	 124.735
| 26> C 	 -96.4218 	 50.8911 	 124.213
| 27> C 	 -95.2333 	 51.5767 	 124.001
| 28> H 	 -98.4201 	 51.618 	 124.988
| 29> C 	 -96.6806 	 49.3933 	 123.742
| 30> H 	 -95.7818 	 48.8441 	 123.916
| 31> H 	 -96.9005 	 49.3392 	 122.689
| 32> C 	 -97.7762 	 48.714 	 124.605
| 33> H 	 -98.6035 	 49.1083 	 124.084
| 34> H 	 -97.8081 	 49.0325 	 125.698
| 35> C 	 -97.792 	 47.1946 	 124.53
| 36> H 	 -98.7437 	 46.9041 	 124.88
| 37> H 	 -97.1577 	 46.8046 	 125.333
| 38> H 	 -97.6928 	 46.7429 	 123.56
| 39> H 	 -90.7726 	 49.9212 	 122.345
| 40> H 	 -97.5718 	 53.8938 	 125.283
| 41> *
| 42>
| 43>                          ****END OF INPUT****

CARTESIAN COORDINATES (ANGSTROEM)
---------------------------------
  S    -92.664600   50.331100  124.047000
  C    -91.726900   50.346700  122.529000
  C    -92.418300   50.948500  121.453000
  C    -93.743100   51.328000  121.877000
  C    -93.963400   51.225600  123.275000
  H    -94.581200   51.751600  121.277000
  C    -91.996900   51.010700  120.039000
  H    -91.779000   51.991900  119.642000
  H    -92.732300   50.638400  119.406000
  C    -90.780700   50.103500  119.749000
  H    -89.971300   50.539300  120.434000
  H    -90.928400   49.092900  120.044000
  C    -90.388900   50.096200  118.190000
  H    -90.077400   50.985600  117.795000
  H    -89.582400   49.365700  118.090000
  H    -91.103300   49.597600  117.641000
  S    -95.264500   53.206600  124.549000
  C    -97.016900   53.074200  124.832000
  C    -97.418500   51.741000  124.735000
  C    -96.421800   50.891100  124.213000
  C    -95.233300   51.576700  124.001000
  H    -98.420100   51.618000  124.988000
  C    -96.680600   49.393300  123.742000
  H    -95.781800   48.844100  123.916000
  H    -96.900500   49.339200  122.689000
  C    -97.776200   48.714000  124.605000
  H    -98.603500   49.108300  124.084000
  H    -97.808100   49.032500  125.698000
  C    -97.792000   47.194600  124.530000
  H    -98.743700   46.904100  124.880000
  H    -97.157700   46.804600  125.333000
  H    -97.692800   46.742900  123.560000
  H    -90.772600   49.921200  122.345000
  H    -97.571800   53.893800  125.283000

 Total Charge           Charge          ....    0
 Multiplicity           Mult            ....    1
 Number of Electrons    NEL             ....  134
 Basis Dimension        Dim             ....  322

ORBITAL ENERGIES
----------------

  NO   OCC          E(Eh)            E(eV)
   0   2.0000     -88.969449     -2420.9818
   1   2.0000     -88.962509     -2420.7929
   2   2.0000     -10.331717      -281.1403
   3   2.0000     -10.324248      -280.9371
   4   2.0000     -10.317340      -280.7491
   5   2.0000     -10.315803      -280.7073
   6   2.0000     -10.307049      -280.4691
   7   2.0000     -10.304270      -280.3934
   8   2.0000     -10.299344      -280.2594
   9   2.0000     -10.294341      -280.1233
  10   2.0000     -10.291347      -280.0418
  11   2.0000     -10.290023      -280.0058
  12   2.0000     -10.284483      -279.8550
  13   2.0000     -10.284470      -279.8547
  14   2.0000     -10.272471      -279.5281
  15   2.0000     -10.271946      -279.5139
  16   2.0000      -8.082843      -219.9453
  17   2.0000      -8.077491      -219.7997
  18   2.0000      -6.041396      -164.3948
  19   2.0000      -6.037532      -164.2896
  20   2.0000      -6.035800      -164.2425
  21   2.0000      -6.033648      -164.1839
  22   2.0000      -6.031960      -164.1380
  23   2.0000      -6.028444      -164.0423
  24   2.0000      -0.999530       -27.1986
  25   2.0000      -0.976682       -26.5769
  26   2.0000      -0.912074       -24.8188
  27   2.0000      -0.904578       -24.6148
  28   2.0000      -0.860481       -23.4149
  29   2.0000      -0.847886       -23.0722
  30   2.0000      -0.843797       -22.9609
  31   2.0000      -0.810305       -22.0495
  32   2.0000      -0.786395       -21.3989
  33   2.0000      -0.773973       -21.0609
  34   2.0000      -0.716833       -19.5060
  35   2.0000      -0.696810       -18.9612
  36   2.0000      -0.687384       -18.7047
  37   2.0000      -0.652579       -17.7576
  38   2.0000      -0.637401       -17.3446
  39   2.0000      -0.608314       -16.5531
  40   2.0000      -0.593979       -16.1630
  41   2.0000      -0.576148       -15.6778
  42   2.0000      -0.573707       -15.6114
  43   2.0000      -0.568641       -15.4735
  44   2.0000      -0.527402       -14.3513
  45   2.0000      -0.523023       -14.2322
  46   2.0000      -0.516526       -14.0554
  47   2.0000      -0.511821       -13.9274
  48   2.0000      -0.501491       -13.6463
  49   2.0000      -0.492384       -13.3985
  50   2.0000      -0.489516       -13.3204
  51   2.0000      -0.477649       -12.9975
  52   2.0000      -0.473991       -12.8979
  53   2.0000      -0.462261       -12.5788
  54   2.0000      -0.457772       -12.4566
  55   2.0000      -0.446092       -12.1388
  56   2.0000      -0.444095       -12.0844
  57   2.0000      -0.442282       -12.0351
  58   2.0000      -0.439228       -11.9520
  59   2.0000      -0.430371       -11.7110
  60   2.0000      -0.419990       -11.4285
  61   2.0000      -0.409130       -11.1330
  62   2.0000      -0.400550       -10.8995
  63   2.0000      -0.337074        -9.1722
  64   2.0000      -0.328077        -8.9274
  65   2.0000      -0.314031        -8.5452
  66   2.0000      -0.308829        -8.4037
  67   0.0000       0.043691         1.1889
  68   0.0000       0.051937         1.4133
  69   0.0000       0.110425         3.0048
  70   0.0000       0.120285         3.2731
  71   0.0000       0.129986         3.5371

MULLIKEN ATOMIC CHARGES
-----------------------
   0 S :    0.123139
   1 C :   -0.106348
   2 C :   -0.087047
   3 C :    0.029410
   4 C :   -0.172925
   5 H :    0.032524
   6 C :    0.126652
   7 H :    0.034776
   8 H :    0.008479
   9 C :   -0.185103
  10 H :    0.045764
  11 H :    0.033362
  12 C :    0.026806
  13 H :    0.023998
  14 H :    0.018382
  15 H :    0.013320
  16 S :    0.113911
  17 C :   -0.118418
  18 C :   -0.041530
  19 C :    0.001457
  20 C :   -0.204907
  21 H :    0.003486
  22 C :    0.120794
  23 H :    0.011714
  24 H :    0.040258
  25 C :   -0.143911
  26 H :    0.020477
  27 H :    0.049451
  28 C :    0.012465
  29 H :    0.006953
  30 H :    0.034012
  31 H :    0.033165
  32 H :    0.033231
  33 H :    0.062203
Sum of atomic charges:    0.0000000

LOEWDIN ATOMIC CHARGES
----------------------
   0 S :    0.399338
   1 C :   -0.189810
   2 C :   -0.058076
   3 C :   -0.059225
   4 C :   -0.205789
   5 H :    0.039199
   6 C :   -0.032378
   7 H :    0.034802
   8 H :    0.024645
   9 C :   -0.035217
  10 H :    0.027419
  11 H :    0.017171
  12 C :   -0.049324
  13 H :    0.012696
  14 H :    0.031960
  15 H :    0.017066
  16 S :    0.414919
  17 C :   -0.178285
  18 C :   -0.068059
  19 C :   -0.054263
  20 C :   -0.213578
  21 H :    0.024123
  22 C :   -0.017137
  23 H :    0.020540
  24 H :    0.031059
  25 C :   -0.046867
  26 H :    0.015471
  27 H :    0.035663
  28 C :   -0.062591
  29 H :    0.022315
  30 H :    0.031253
  31 H :    0.025208
  32 H :    0.018668
  33 H :    0.027084

  Mayer bond orders larger than 0.100000
B(  0-S ,  1-C ) :   1.1352 B(  0-S ,  4-C ) :   1.1494 B(  1-C ,  2-C ) :   1.6140
B(  1-C ,  4-C ) :   0.1003 B(  1-C , 32-H ) :   0.9591 B(  2-C ,  3-C ) :   1.2373
B(  2-C ,  6-C ) :   1.0284 B(  3-C ,  4-C ) :   1.5961 B(  3-C ,  5-H ) :   0.9842
B(  4-C , 20-C ) :   0.9825 B(  6-C ,  7-H ) :   0.9251 B(  6-C ,  8-H ) :   0.9347
B(  6-C ,  9-C ) :   1.0728 B(  9-C , 10-H ) :   0.9515 B(  9-C , 11-H ) :   0.9593
B(  9-C , 12-C ) :   1.0782 B( 12-C , 13-H ) :   0.9794 B( 12-C , 14-H ) :   0.9703
B( 12-C , 15-H ) :   0.9716 B( 16-S , 17-C ) :   1.1595 B( 16-S , 20-C ) :   1.1820
B( 17-C , 18-C ) :   1.5998 B( 17-C , 20-C ) :   0.1075 B( 17-C , 33-H ) :   0.9659
B( 18-C , 19-C ) :   1.2261 B( 18-C , 21-H ) :   1.0046 B( 19-C , 20-C ) :   1.6032
B( 19-C , 22-C ) :   1.0166 B( 22-C , 23-H ) :   0.9374 B( 22-C , 24-H ) :   0.9407
B( 22-C , 25-C ) :   1.0499 B( 25-C , 26-H ) :   0.9544 B( 25-C , 27-H ) :   0.9612
B( 25-C , 28-C ) :   1.0948 B( 28-C , 29-H ) :   0.9656 B( 28-C , 30-H ) :   0.9715
B( 28-C , 31-H ) :   0.9717

Dispersion correction           -0.013357341
FINAL SINGLE POINT ENERGY     -1339.842966500562

DIPOLE MOMENT
-------------
                                X             Y             Z
Electronic contribution:      1.01563      16.88631      16.44321
Nuclear contribution   :     -1.36030     -17.22726     -16.96000
                        -----------------------------------------
Total Dipole Moment    :     -0.34467      -0.34094      -0.51679
                        -----------------------------------------
Magnitude (a.u.)       :      0.70860
Magnitude (Debye)      :      1.80111

Rotational constants in cm-1:     0.019857     0.006906     0.005892
Rotational constants in MHz :   595.288892   207.038348   176.643509

                             ****ORCA TERMINATED NORMALLY****
TOTAL RUN TIME: 0 days 0 hours 0 minutes 31 seconds 311 msec
