                         Program Version 4.2.1 -  RELEASE  -
|  1> ! wB97X-D3 SP def2-SVP
|  2> %pal
|  3> nprocs 16
|  4> end
|  5>
|  6> * xyz 0 1
|  7> S 	 36.7132 	 6.0899 	 85.5833
|  8> C 	 36.767 	 6.0863 	 83.8349
|  9> C 	 37.8686 	 6.73179 	 83.4148
| 10> C 	 38.4838 	 7.47225 	 84.4691
| 11> C 	 37.9655 	 7.28883 	 85.7101
| 12> H 	 39.2012 	 8.28562 	 84.3389
| 13> C 	 38.4237 	 6.75226 	 82.0316
| 14> H 	 39.3701 	 7.3602 	 81.9377
| 15> H 	 37.6734 	 7.06131 	 81.263
| 16> C 	 38.8398 	 5.33492 	 81.4377
| 17> H 	 37.8888 	 4.76941 	 81.4133
| 18> H 	 39.2519 	 5.37015 	 80.4404
| 19> C 	 39.8836 	 4.6824 	 82.3923
| 20> H 	 40.3056 	 3.69375 	 82.1642
| 21> H 	 40.6282 	 5.40812 	 82.6777
| 22> H 	 39.3908 	 4.52053 	 83.3439
| 23> S 	 38.5138 	 6.85408 	 88.4312
| 24> C 	 39.215 	 8.18481 	 89.2632
| 25> C 	 39.2937 	 9.30262 	 88.4848
| 26> C 	 38.7465 	 9.17173 	 87.2125
| 27> C 	 38.3194 	 7.88762 	 87.0049
| 28> H 	 39.7821 	 10.2206 	 88.8608
| 29> C 	 38.5914 	 10.2734 	 86.2032
| 30> H 	 39.3135 	 10.0848 	 85.4673
| 31> H 	 39.0607 	 11.1283 	 86.6915
| 32> C 	 37.1169 	 10.4796 	 85.6902
| 33> H 	 36.6072 	 10.9012 	 86.5597
| 34> H 	 36.5781 	 9.57089 	 85.5934
| 35> C 	 36.935 	 11.3395 	 84.4462
| 36> H 	 35.9427 	 11.7546 	 84.2852
| 37> H 	 37.32 	 10.8664 	 83.6004
| 38> H 	 37.5646 	 12.2198 	 84.5697
| 39> H 	 36.1787 	 5.4007 	 83.3428
| 40> H 	 39.4825 	 8.10849 	 90.3084
| 41> *
| 42>
| 43>                          ****END OF INPUT****

CARTESIAN COORDINATES (ANGSTROEM)
---------------------------------
  S     36.713200    6.089900   85.583300
  C     36.767000    6.086300   83.834900
  C     37.868600    6.731790   83.414800
  C     38.483800    7.472250   84.469100
  C     37.965500    7.288830   85.710100
  H     39.201200    8.285620   84.338900
  C     38.423700    6.752260   82.031600
  H     39.370100    7.360200   81.937700
  H     37.673400    7.061310   81.263000
  C     38.839800    5.334920   81.437700
  H     37.888800    4.769410   81.413300
  H     39.251900    5.370150   80.440400
  C     39.883600    4.682400   82.392300
  H     40.305600    3.693750   82.164200
  H     40.628200    5.408120   82.677700
  H     39.390800    4.520530   83.343900
  S     38.513800    6.854080   88.431200
  C     39.215000    8.184810   89.263200
  C     39.293700    9.302620   88.484800
  C     38.746500    9.171730   87.212500
  C     38.319400    7.887620   87.004900
  H     39.782100   10.220600   88.860800
  C     38.591400   10.273400   86.203200
  H     39.313500   10.084800   85.467300
  H     39.060700   11.128300   86.691500
  C     37.116900   10.479600   85.690200
  H     36.607200   10.901200   86.559700
  H     36.578100    9.570890   85.593400
  C     36.935000   11.339500   84.446200
  H     35.942700   11.754600   84.285200
  H     37.320000   10.866400   83.600400
  H     37.564600   12.219800   84.569700
  H     36.178700    5.400700   83.342800
  H     39.482500    8.108490   90.308400

 Total Charge           Charge          ....    0
 Multiplicity           Mult            ....    1
 Number of Electrons    NEL             ....  134
 Basis Dimension        Dim             ....  322

ORBITAL ENERGIES
----------------

  NO   OCC          E(Eh)            E(eV)
   0   2.0000     -88.968085     -2420.9447
   1   2.0000     -88.958715     -2420.6897
   2   2.0000     -10.326700      -281.0038
   3   2.0000     -10.324029      -280.9311
   4   2.0000     -10.314997      -280.6854
   5   2.0000     -10.307058      -280.4693
   6   2.0000     -10.300556      -280.2924
   7   2.0000     -10.300137      -280.2810
   8   2.0000     -10.297066      -280.1974
   9   2.0000     -10.292009      -280.0598
  10   2.0000     -10.291893      -280.0566
  11   2.0000     -10.291801      -280.0541
  12   2.0000     -10.290232      -280.0115
  13   2.0000     -10.283914      -279.8395
  14   2.0000     -10.271113      -279.4912
  15   2.0000     -10.270739      -279.4810
  16   2.0000      -8.083211      -219.9554
  17   2.0000      -8.074364      -219.7146
  18   2.0000      -6.041609      -164.4005
  19   2.0000      -6.037736      -164.2952
  20   2.0000      -6.034007      -164.1937
  21   2.0000      -6.032849      -164.1622
  22   2.0000      -6.028748      -164.0506
  23   2.0000      -6.025108      -163.9515
  24   2.0000      -1.014837       -27.6151
  25   2.0000      -0.994639       -27.0655
  26   2.0000      -0.911029       -24.7904
  27   2.0000      -0.907868       -24.7043
  28   2.0000      -0.868030       -23.6203
  29   2.0000      -0.858774       -23.3684
  30   2.0000      -0.842196       -22.9173
  31   2.0000      -0.816355       -22.2141
  32   2.0000      -0.787385       -21.4258
  33   2.0000      -0.773337       -21.0436
  34   2.0000      -0.716130       -19.4869
  35   2.0000      -0.705329       -19.1930
  36   2.0000      -0.695485       -18.9251
  37   2.0000      -0.664835       -18.0911
  38   2.0000      -0.647301       -17.6140
  39   2.0000      -0.614991       -16.7348
  40   2.0000      -0.597484       -16.2584
  41   2.0000      -0.573547       -15.6070
  42   2.0000      -0.560865       -15.2619
  43   2.0000      -0.547665       -14.9027
  44   2.0000      -0.540560       -14.7094
  45   2.0000      -0.529614       -14.4115
  46   2.0000      -0.521121       -14.1804
  47   2.0000      -0.515433       -14.0256
  48   2.0000      -0.506074       -13.7710
  49   2.0000      -0.497129       -13.5276
  50   2.0000      -0.494140       -13.4462
  51   2.0000      -0.480485       -13.0746
  52   2.0000      -0.476748       -12.9730
  53   2.0000      -0.465802       -12.6751
  54   2.0000      -0.456126       -12.4118
  55   2.0000      -0.448889       -12.2149
  56   2.0000      -0.437684       -11.9100
  57   2.0000      -0.436703       -11.8833
  58   2.0000      -0.432780       -11.7766
  59   2.0000      -0.426930       -11.6174
  60   2.0000      -0.423323       -11.5192
  61   2.0000      -0.415422       -11.3042
  62   2.0000      -0.411828       -11.2064
  63   2.0000      -0.351949        -9.5770
  64   2.0000      -0.337549        -9.1852
  65   2.0000      -0.327087        -8.9005
  66   2.0000      -0.291947        -7.9443
  67   0.0000       0.026939         0.7330
  68   0.0000       0.072790         1.9807
  69   0.0000       0.106953         2.9103
  70   0.0000       0.123813         3.3691
  71   0.0000       0.133650         3.6368

MULLIKEN ATOMIC CHARGES
-----------------------
   0 S :    0.076424
   1 C :   -0.095795
   2 C :   -0.048448
   3 C :    0.019127
   4 C :   -0.160454
   5 H :    0.003190
   6 C :    0.011535
   7 H :    0.038044
   8 H :    0.048891
   9 C :   -0.092420
  10 H :    0.030409
  11 H :    0.038358
  12 C :   -0.045984
  13 H :    0.040419
  14 H :    0.019572
  15 H :    0.027918
  16 S :    0.117062
  17 C :   -0.090068
  18 C :   -0.047309
  19 C :   -0.069053
  20 C :   -0.138128
  21 H :    0.021667
  22 C :    0.129777
  23 H :    0.008169
  24 H :    0.001289
  25 C :   -0.059131
  26 H :    0.024422
  27 H :    0.041442
  28 C :   -0.002515
  29 H :    0.037987
  30 H :    0.019976
  31 H :    0.012564
  32 H :    0.023362
  33 H :    0.057700
Sum of atomic charges:    0.0000000

LOEWDIN ATOMIC CHARGES
----------------------
   0 S :    0.395486
   1 C :   -0.173030
   2 C :   -0.067510
   3 C :   -0.070458
   4 C :   -0.186839
   5 H :    0.029587
   6 C :   -0.036297
   7 H :    0.033227
   8 H :    0.039502
   9 C :   -0.035592
  10 H :    0.020470
  11 H :    0.021197
  12 C :   -0.075558
  13 H :    0.026322
  14 H :    0.022221
  15 H :    0.026891
  16 S :    0.411290
  17 C :   -0.188735
  18 C :   -0.077371
  19 C :   -0.056781
  20 C :   -0.193199
  21 H :    0.036050
  22 C :   -0.024863
  23 H :    0.020106
  24 H :    0.030990
  25 C :   -0.033131
  26 H :    0.029033
  27 H :    0.023343
  28 C :   -0.058577
  29 H :    0.030761
  30 H :    0.017596
  31 H :    0.024569
  32 H :    0.010024
  33 H :    0.029276

  Mayer bond orders larger than 0.100000
B(  0-S ,  1-C ) :   1.1323 B(  0-S ,  4-C ) :   1.1435 B(  1-C ,  2-C ) :   1.6085
B(  1-C , 32-H ) :   0.9851 B(  2-C ,  3-C ) :   1.2230 B(  2-C ,  6-C ) :   1.0224
B(  3-C ,  4-C ) :   1.6031 B(  3-C ,  5-H ) :   0.9921 B(  4-C , 20-C ) :   1.0222
B(  6-C ,  7-H ) :   0.9500 B(  6-C ,  8-H ) :   0.9417 B(  6-C ,  9-C ) :   1.0587
B(  9-C , 10-H ) :   0.9601 B(  9-C , 11-H ) :   0.9630 B(  9-C , 12-C ) :   1.0622
B( 12-C , 13-H ) :   0.9770 B( 12-C , 14-H ) :   0.9754 B( 12-C , 15-H ) :   0.9687
B( 16-S , 17-C ) :   1.1633 B( 16-S , 20-C ) :   1.1465 B( 17-C , 18-C ) :   1.5887
B( 17-C , 20-C ) :   0.1014 B( 17-C , 33-H ) :   0.9675 B( 18-C , 19-C ) :   1.2743
B( 18-C , 21-H ) :   0.9862 B( 19-C , 20-C ) :   1.5861 B( 19-C , 22-C ) :   1.0252
B( 22-C , 23-H ) :   0.9224 B( 22-C , 24-H ) :   0.9161 B( 22-C , 25-C ) :   1.0335
B( 25-C , 26-H ) :   0.9503 B( 25-C , 27-H ) :   0.9640 B( 25-C , 28-C ) :   1.0840
B( 28-C , 29-H ) :   0.9730 B( 28-C , 30-H ) :   0.9751 B( 28-C , 31-H ) :   0.9711

Dispersion correction           -0.015486982
FINAL SINGLE POINT ENERGY     -1339.874759705193

DIPOLE MOMENT
-------------
                                X             Y             Z
Electronic contribution:     -4.40584      -9.44053      21.19079
Nuclear contribution   :      4.65909       9.86160     -21.49266
                        -----------------------------------------
Total Dipole Moment    :      0.25325       0.42107      -0.30187
                        -----------------------------------------
Magnitude (a.u.)       :      0.57668
Magnitude (Debye)      :      1.46580

Rotational constants in cm-1:     0.019193     0.009392     0.007599
Rotational constants in MHz :   575.400799   281.561559   227.824751

                             ****ORCA TERMINATED NORMALLY****
TOTAL RUN TIME: 0 days 0 hours 0 minutes 32 seconds 309 msec
