                         Program Version 4.2.1 -  RELEASE  -
|  1> ! wB97X-D3 SP def2-SVP
|  2> %pal
|  3> nprocs 16
|  4> end
|  5>
|  6> * xyz 0 1
|  7> S 	 64.0205 	 -2.79815 	 90.8286
|  8> C 	 62.7178 	 -3.09997 	 92.032
|  9> C 	 63.2212 	 -3.42136 	 93.2805
| 10> C 	 64.6116 	 -3.13196 	 93.3653
| 11> C 	 65.1686 	 -2.80629 	 92.156
| 12> H 	 65.3373 	 -3.13723 	 94.202
| 13> C 	 62.4941 	 -3.71669 	 94.5423
| 14> H 	 61.791 	 -2.85737 	 94.6293
| 15> H 	 63.1674 	 -3.64523 	 95.4439
| 16> C 	 61.7431 	 -5.10161 	 94.5749
| 17> H 	 61.23 	 -5.01689 	 95.4695
| 18> H 	 60.9865 	 -5.18709 	 93.7676
| 19> C 	 62.6729 	 -6.24709 	 94.6729
| 20> H 	 63.116 	 -6.55699 	 93.736
| 21> H 	 63.55 	 -6.02394 	 95.2736
| 22> H 	 62.2984 	 -7.12355 	 95.232
| 23> S 	 67.0771 	 -3.08387 	 90.2435
| 24> C 	 68.7822 	 -2.78996 	 90.6033
| 25> C 	 68.8678 	 -2.15053 	 91.7536
| 26> C 	 67.6451 	 -1.99296 	 92.456
| 27> C 	 66.5026 	 -2.43444 	 91.7788
| 28> H 	 69.8554 	 -1.93371 	 92.0635
| 29> C 	 67.5779 	 -1.22768 	 93.7705
| 30> H 	 67.7058 	 -2.0027 	 94.5454
| 31> H 	 66.5477 	 -0.918675 	 93.9285
| 32> C 	 68.5048 	 -0.0247423 	 93.8627
| 33> H 	 68.6027 	 0.627178 	 93.023
| 34> H 	 69.4183 	 -0.435319 	 94.1268
| 35> C 	 68.2097 	 0.813478 	 95.1415
| 36> H 	 68.6992 	 0.477603 	 96.0588
| 37> H 	 67.1126 	 0.880453 	 95.2166
| 38> H 	 68.5162 	 1.85313 	 95.0316
| 39> H 	 61.6487 	 -3.23127 	 91.8435
| 40> H 	 69.6586 	 -2.94537 	 89.9258
| 41> *
| 42>
| 43>                          ****END OF INPUT****

CARTESIAN COORDINATES (ANGSTROEM)
---------------------------------
  S     64.020500   -2.798150   90.828600
  C     62.717800   -3.099970   92.032000
  C     63.221200   -3.421360   93.280500
  C     64.611600   -3.131960   93.365300
  C     65.168600   -2.806290   92.156000
  H     65.337300   -3.137230   94.202000
  C     62.494100   -3.716690   94.542300
  H     61.791000   -2.857370   94.629300
  H     63.167400   -3.645230   95.443900
  C     61.743100   -5.101610   94.574900
  H     61.230000   -5.016890   95.469500
  H     60.986500   -5.187090   93.767600
  C     62.672900   -6.247090   94.672900
  H     63.116000   -6.556990   93.736000
  H     63.550000   -6.023940   95.273600
  H     62.298400   -7.123550   95.232000
  S     67.077100   -3.083870   90.243500
  C     68.782200   -2.789960   90.603300
  C     68.867800   -2.150530   91.753600
  C     67.645100   -1.992960   92.456000
  C     66.502600   -2.434440   91.778800
  H     69.855400   -1.933710   92.063500
  C     67.577900   -1.227680   93.770500
  H     67.705800   -2.002700   94.545400
  H     66.547700   -0.918675   93.928500
  C     68.504800   -0.024742   93.862700
  H     68.602700    0.627178   93.023000
  H     69.418300   -0.435319   94.126800
  C     68.209700    0.813478   95.141500
  H     68.699200    0.477603   96.058800
  H     67.112600    0.880453   95.216600
  H     68.516200    1.853130   95.031600
  H     61.648700   -3.231270   91.843500
  H     69.658600   -2.945370   89.925800

 Total Charge           Charge          ....    0
 Multiplicity           Mult            ....    1
 Number of Electrons    NEL             ....  134
 Basis Dimension        Dim             ....  322

ORBITAL ENERGIES
----------------

  NO   OCC          E(Eh)            E(eV)
   0   2.0000     -88.966494     -2420.9014
   1   2.0000     -88.956546     -2420.6307
   2   2.0000     -10.328149      -281.0432
   3   2.0000     -10.325540      -280.9722
   4   2.0000     -10.316477      -280.7256
   5   2.0000     -10.315690      -280.7042
   6   2.0000     -10.302735      -280.3517
   7   2.0000     -10.300932      -280.3026
   8   2.0000     -10.298820      -280.2451
   9   2.0000     -10.294479      -280.1270
  10   2.0000     -10.290837      -280.0279
  11   2.0000     -10.284445      -279.8540
  12   2.0000     -10.283795      -279.8363
  13   2.0000     -10.280261      -279.7401
  14   2.0000     -10.278706      -279.6978
  15   2.0000     -10.272604      -279.5318
  16   2.0000      -8.080513      -219.8819
  17   2.0000      -8.071556      -219.6382
  18   2.0000      -6.039221      -164.3355
  19   2.0000      -6.035293      -164.2287
  20   2.0000      -6.030926      -164.1098
  21   2.0000      -6.030250      -164.0915
  22   2.0000      -6.026001      -163.9758
  23   2.0000      -6.022091      -163.8694
  24   2.0000      -1.009398       -27.4671
  25   2.0000      -0.984176       -26.7808
  26   2.0000      -0.916846       -24.9487
  27   2.0000      -0.910619       -24.7792
  28   2.0000      -0.877621       -23.8813
  29   2.0000      -0.852619       -23.2010
  30   2.0000      -0.842136       -22.9157
  31   2.0000      -0.819832       -22.3088
  32   2.0000      -0.781427       -21.2637
  33   2.0000      -0.768302       -20.9066
  34   2.0000      -0.711949       -19.3731
  35   2.0000      -0.709034       -19.2938
  36   2.0000      -0.702719       -19.1220
  37   2.0000      -0.654234       -17.8026
  38   2.0000      -0.634536       -17.2666
  39   2.0000      -0.611285       -16.6339
  40   2.0000      -0.594232       -16.1699
  41   2.0000      -0.579295       -15.7634
  42   2.0000      -0.575316       -15.6551
  43   2.0000      -0.551149       -14.9975
  44   2.0000      -0.548116       -14.9150
  45   2.0000      -0.527403       -14.3514
  46   2.0000      -0.514767       -14.0075
  47   2.0000      -0.510007       -13.8780
  48   2.0000      -0.504220       -13.7205
  49   2.0000      -0.497695       -13.5430
  50   2.0000      -0.489619       -13.3232
  51   2.0000      -0.480223       -13.0675
  52   2.0000      -0.474035       -12.8992
  53   2.0000      -0.462560       -12.5869
  54   2.0000      -0.461719       -12.5640
  55   2.0000      -0.448185       -12.1957
  56   2.0000      -0.441909       -12.0249
  57   2.0000      -0.439133       -11.9494
  58   2.0000      -0.434325       -11.8186
  59   2.0000      -0.426737       -11.6121
  60   2.0000      -0.415353       -11.3023
  61   2.0000      -0.414886       -11.2896
  62   2.0000      -0.402860       -10.9624
  63   2.0000      -0.359258        -9.7759
  64   2.0000      -0.334338        -9.0978
  65   2.0000      -0.323546        -8.8041
  66   2.0000      -0.283039        -7.7019
  67   0.0000       0.021274         0.5789
  68   0.0000       0.074059         2.0153
  69   0.0000       0.094401         2.5688
  70   0.0000       0.125349         3.4109
  71   0.0000       0.140962         3.8358

MULLIKEN ATOMIC CHARGES
-----------------------
   0 S :    0.097884
   1 C :   -0.109310
   2 C :   -0.051279
   3 C :   -0.013288
   4 C :   -0.117782
   5 H :    0.016628
   6 C :   -0.022234
   7 H :    0.047043
   8 H :    0.036128
   9 C :   -0.013752
  10 H :    0.009033
  11 H :    0.036202
  12 C :   -0.044750
  13 H :    0.039371
  14 H :    0.009601
  15 H :    0.034473
  16 S :    0.056112
  17 C :   -0.088678
  18 C :   -0.018238
  19 C :   -0.085841
  20 C :   -0.086434
  21 H :    0.001757
  22 C :    0.035115
  23 H :    0.038580
  24 H :    0.019245
  25 C :   -0.022853
  26 H :    0.041314
  27 H :    0.012917
  28 C :   -0.066775
  29 H :    0.039404
  30 H :    0.026357
  31 H :    0.026040
  32 H :    0.045650
  33 H :    0.072359
Sum of atomic charges:    0.0000000

LOEWDIN ATOMIC CHARGES
----------------------
   0 S :    0.383260
   1 C :   -0.187431
   2 C :   -0.063484
   3 C :   -0.071266
   4 C :   -0.177554
   5 H :    0.038116
   6 C :   -0.033740
   7 H :    0.039471
   8 H :    0.034582
   9 C :   -0.035623
  10 H :    0.017205
  11 H :    0.028058
  12 C :   -0.071288
  13 H :    0.027830
  14 H :    0.024640
  15 H :    0.031254
  16 S :    0.375526
  17 C :   -0.175521
  18 C :   -0.079379
  19 C :   -0.058476
  20 C :   -0.195698
  21 H :    0.028534
  22 C :   -0.034629
  23 H :    0.034621
  24 H :    0.023980
  25 C :   -0.033608
  26 H :    0.027430
  27 H :    0.018327
  28 C :   -0.064442
  29 H :    0.025510
  30 H :    0.023837
  31 H :    0.025637
  32 H :    0.028988
  33 H :    0.045332

  Mayer bond orders larger than 0.100000
B(  0-S ,  1-C ) :   1.1160 B(  0-S ,  4-C ) :   1.1253 B(  1-C ,  2-C ) :   1.6447
B(  1-C , 32-H ) :   0.9622 B(  2-C ,  3-C ) :   1.1905 B(  2-C ,  6-C ) :   1.0083
B(  3-C ,  4-C ) :   1.6270 B(  3-C ,  5-H ) :   0.9821 B(  4-C , 20-C ) :   1.0381
B(  6-C ,  7-H ) :   0.9413 B(  6-C ,  8-H ) :   0.9504 B(  6-C ,  9-C ) :   1.0738
B(  9-C , 10-H ) :   0.9494 B(  9-C , 11-H ) :   0.9573 B(  9-C , 12-C ) :   1.0773
B( 12-C , 13-H ) :   0.9733 B( 12-C , 14-H ) :   0.9689 B( 12-C , 15-H ) :   0.9727
B( 16-S , 17-C ) :   1.1403 B( 16-S , 20-C ) :   1.1095 B( 17-C , 18-C ) :   1.6398
B( 17-C , 33-H ) :   0.9553 B( 18-C , 19-C ) :   1.2250 B( 18-C , 21-H ) :   1.0001
B( 19-C , 20-C ) :   1.6136 B( 19-C , 22-C ) :   1.0247 B( 22-C , 23-H ) :   0.9244
B( 22-C , 24-H ) :   0.9476 B( 22-C , 25-C ) :   1.0673 B( 25-C , 26-H ) :   0.9659
B( 25-C , 27-H ) :   0.9416 B( 25-C , 28-C ) :   1.0799 B( 28-C , 29-H ) :   0.9798
B( 28-C , 30-H ) :   0.9772 B( 28-C , 31-H ) :   0.9748

Dispersion correction           -0.013667100
FINAL SINGLE POINT ENERGY     -1339.852367875869

DIPOLE MOMENT
-------------
                                X             Y             Z
Electronic contribution:      1.60624      -1.83577     -25.35117
Nuclear contribution   :     -1.39053       1.91323      26.14228
                        -----------------------------------------
Total Dipole Moment    :      0.21571       0.07747       0.79111
                        -----------------------------------------
Magnitude (a.u.)       :      0.82364
Magnitude (Debye)      :      2.09352

Rotational constants in cm-1:     0.018562     0.008077     0.006500
Rotational constants in MHz :   556.475465   242.135584   194.866109

                             ****ORCA TERMINATED NORMALLY****
TOTAL RUN TIME: 0 days 0 hours 0 minutes 29 seconds 358 msec
