                         Program Version 4.2.1 -  RELEASE  -
|  1> ! wB97X-D3 SP def2-SVP
|  2> %pal
|  3> nprocs 16
|  4> end
|  5>
|  6> * xyz 0 1
|  7> S 	 -39.4335 	 29.9224 	 75.4778
|  8> C 	 -40.1987 	 31.5078 	 75.445
|  9> C 	 -40.1713 	 32.1088 	 76.6847
| 10> C 	 -39.6329 	 31.2381 	 77.6912
| 11> C 	 -39.1772 	 30.0121 	 77.2534
| 12> H 	 -39.4984 	 31.4822 	 78.779
| 13> C 	 -40.6642 	 33.589 	 76.947
| 14> H 	 -41.218 	 33.8827 	 76.0901
| 15> H 	 -39.8029 	 34.2828 	 77.0042
| 16> C 	 -41.7369 	 33.7879 	 77.9456
| 17> H 	 -42.5558 	 33.235 	 77.4852
| 18> H 	 -41.4432 	 33.385 	 78.8788
| 19> C 	 -42.0403 	 35.3063 	 78.1239
| 20> H 	 -41.8889 	 35.8849 	 77.2228
| 21> H 	 -43.1401 	 35.437 	 78.307
| 22> H 	 -41.3251 	 35.8239 	 78.8072
| 23> S 	 -36.6076 	 29.2029 	 77.5195
| 24> C 	 -36.1503 	 28.2091 	 78.8923
| 25> C 	 -37.2458 	 27.7787 	 79.5528
| 26> C 	 -38.4523 	 28.401 	 79.1992
| 27> C 	 -38.2651 	 29.1658 	 78.0018
| 28> H 	 -37.0971 	 27.0639 	 80.3558
| 29> C 	 -39.7148 	 28.0623 	 79.9529
| 30> H 	 -39.7985 	 26.9843 	 79.8546
| 31> H 	 -40.503 	 28.5507 	 79.3755
| 32> C 	 -39.6585 	 28.5757 	 81.4285
| 33> H 	 -39.0277 	 27.8822 	 82.0542
| 34> H 	 -40.689 	 28.4644 	 81.8479
| 35> C 	 -39.0288 	 29.9686 	 81.5789
| 36> H 	 -38.097 	 30.1871 	 81.0514
| 37> H 	 -38.7589 	 30.2534 	 82.5977
| 38> H 	 -39.6719 	 30.801 	 81.2668
| 39> H 	 -40.4691 	 32.0354 	 74.616
| 40> H 	 -35.176 	 27.7305 	 78.9852
| 41> *
| 42>
| 43>                          ****END OF INPUT****

CARTESIAN COORDINATES (ANGSTROEM)
---------------------------------
  S    -39.433500   29.922400   75.477800
  C    -40.198700   31.507800   75.445000
  C    -40.171300   32.108800   76.684700
  C    -39.632900   31.238100   77.691200
  C    -39.177200   30.012100   77.253400
  H    -39.498400   31.482200   78.779000
  C    -40.664200   33.589000   76.947000
  H    -41.218000   33.882700   76.090100
  H    -39.802900   34.282800   77.004200
  C    -41.736900   33.787900   77.945600
  H    -42.555800   33.235000   77.485200
  H    -41.443200   33.385000   78.878800
  C    -42.040300   35.306300   78.123900
  H    -41.888900   35.884900   77.222800
  H    -43.140100   35.437000   78.307000
  H    -41.325100   35.823900   78.807200
  S    -36.607600   29.202900   77.519500
  C    -36.150300   28.209100   78.892300
  C    -37.245800   27.778700   79.552800
  C    -38.452300   28.401000   79.199200
  C    -38.265100   29.165800   78.001800
  H    -37.097100   27.063900   80.355800
  C    -39.714800   28.062300   79.952900
  H    -39.798500   26.984300   79.854600
  H    -40.503000   28.550700   79.375500
  C    -39.658500   28.575700   81.428500
  H    -39.027700   27.882200   82.054200
  H    -40.689000   28.464400   81.847900
  C    -39.028800   29.968600   81.578900
  H    -38.097000   30.187100   81.051400
  H    -38.758900   30.253400   82.597700
  H    -39.671900   30.801000   81.266800
  H    -40.469100   32.035400   74.616000
  H    -35.176000   27.730500   78.985200

 Total Charge           Charge          ....    0
 Multiplicity           Mult            ....    1
 Number of Electrons    NEL             ....  134
 Basis Dimension        Dim             ....  322

ORBITAL ENERGIES
----------------

  NO   OCC          E(Eh)            E(eV)
   0   2.0000     -88.966080     -2420.8901
   1   2.0000     -88.964231     -2420.8398
   2   2.0000     -10.330023      -281.0942
   3   2.0000     -10.327596      -281.0282
   4   2.0000     -10.311032      -280.5775
   5   2.0000     -10.310885      -280.5734
   6   2.0000     -10.304237      -280.3926
   7   2.0000     -10.302064      -280.3334
   8   2.0000     -10.300281      -280.2849
   9   2.0000     -10.298272      -280.2302
  10   2.0000     -10.292997      -280.0867
  11   2.0000     -10.290353      -280.0147
  12   2.0000     -10.286253      -279.9032
  13   2.0000     -10.285912      -279.8939
  14   2.0000     -10.282848      -279.8105
  15   2.0000     -10.277998      -279.6785
  16   2.0000      -8.079885      -219.8648
  17   2.0000      -8.079319      -219.8494
  18   2.0000      -6.038515      -164.3163
  19   2.0000      -6.037782      -164.2964
  20   2.0000      -6.034533      -164.2080
  21   2.0000      -6.033758      -164.1869
  22   2.0000      -6.030539      -164.0993
  23   2.0000      -6.030116      -164.0878
  24   2.0000      -1.005332       -27.3565
  25   2.0000      -0.981729       -26.7142
  26   2.0000      -0.917243       -24.9594
  27   2.0000      -0.907319       -24.6894
  28   2.0000      -0.873564       -23.7709
  29   2.0000      -0.844318       -22.9751
  30   2.0000      -0.839588       -22.8464
  31   2.0000      -0.815328       -22.1862
  32   2.0000      -0.782429       -21.2910
  33   2.0000      -0.773249       -21.0412
  34   2.0000      -0.713125       -19.4051
  35   2.0000      -0.698081       -18.9958
  36   2.0000      -0.694188       -18.8898
  37   2.0000      -0.654458       -17.8087
  38   2.0000      -0.643870       -17.5206
  39   2.0000      -0.616515       -16.7762
  40   2.0000      -0.590980       -16.0814
  41   2.0000      -0.577599       -15.7173
  42   2.0000      -0.565176       -15.3792
  43   2.0000      -0.554185       -15.0801
  44   2.0000      -0.539059       -14.6685
  45   2.0000      -0.519951       -14.1486
  46   2.0000      -0.516176       -14.0459
  47   2.0000      -0.510145       -13.8818
  48   2.0000      -0.500023       -13.6063
  49   2.0000      -0.495250       -13.4764
  50   2.0000      -0.490235       -13.3400
  51   2.0000      -0.481071       -13.0906
  52   2.0000      -0.465317       -12.6619
  53   2.0000      -0.460897       -12.5416
  54   2.0000      -0.459930       -12.5153
  55   2.0000      -0.450582       -12.2609
  56   2.0000      -0.440715       -11.9925
  57   2.0000      -0.438107       -11.9215
  58   2.0000      -0.435735       -11.8569
  59   2.0000      -0.422354       -11.4928
  60   2.0000      -0.420878       -11.4527
  61   2.0000      -0.413821       -11.2606
  62   2.0000      -0.411907       -11.2086
  63   2.0000      -0.346536        -9.4297
  64   2.0000      -0.329248        -8.9593
  65   2.0000      -0.325961        -8.8699
  66   2.0000      -0.297204        -8.0873
  67   0.0000       0.033617         0.9148
  68   0.0000       0.061844         1.6829
  69   0.0000       0.117189         3.1889
  70   0.0000       0.122934         3.3452
  71   0.0000       0.132330         3.6009

MULLIKEN ATOMIC CHARGES
-----------------------
   0 S :    0.096541
   1 C :   -0.067730
   2 C :   -0.100161
   3 C :    0.030926
   4 C :   -0.166500
   5 H :    0.026572
   6 C :    0.050836
   7 H :   -0.002135
   8 H :    0.044977
   9 C :   -0.045087
  10 H :    0.033699
  11 H :    0.024240
  12 C :   -0.065170
  13 H :    0.014067
  14 H :    0.046758
  15 H :    0.044806
  16 S :    0.115740
  17 C :   -0.101426
  18 C :   -0.028645
  19 C :   -0.089501
  20 C :   -0.168622
  21 H :    0.018175
  22 C :    0.110132
  23 H :    0.043785
  24 H :    0.027162
  25 C :   -0.090005
  26 H :    0.036242
  27 H :    0.046354
  28 C :   -0.062657
  29 H :    0.049552
  30 H :    0.025154
  31 H :    0.029439
  32 H :    0.011617
  33 H :    0.060864
Sum of atomic charges:    0.0000000

LOEWDIN ATOMIC CHARGES
----------------------
   0 S :    0.380161
   1 C :   -0.174002
   2 C :   -0.062946
   3 C :   -0.060272
   4 C :   -0.193967
   5 H :    0.038172
   6 C :   -0.032291
   7 H :    0.023575
   8 H :    0.030565
   9 C :   -0.036982
  10 H :    0.030454
  11 H :    0.014157
  12 C :   -0.071297
  13 H :    0.019761
  14 H :    0.035533
  15 H :    0.033919
  16 S :    0.419505
  17 C :   -0.191197
  18 C :   -0.072380
  19 C :   -0.056718
  20 C :   -0.210688
  21 H :    0.032054
  22 C :   -0.028705
  23 H :    0.037179
  24 H :    0.031478
  25 C :   -0.042459
  26 H :    0.027734
  27 H :    0.032695
  28 C :   -0.078012
  29 H :    0.032320
  30 H :    0.027523
  31 H :    0.023058
  32 H :    0.010673
  33 H :    0.031398

  Mayer bond orders larger than 0.100000
B(  0-S ,  1-C ) :   1.1341 B(  0-S ,  4-C ) :   1.1267 B(  1-C ,  2-C ) :   1.6364
B(  1-C , 32-H ) :   0.9724 B(  2-C ,  3-C ) :   1.2346 B(  2-C ,  6-C ) :   1.0051
B(  3-C ,  4-C ) :   1.5959 B(  3-C ,  5-H ) :   0.9807 B(  4-C , 20-C ) :   1.0311
B(  6-C ,  7-H ) :   0.9458 B(  6-C ,  8-H ) :   0.9463 B(  6-C ,  9-C ) :   1.0494
B(  9-C , 10-H ) :   0.9612 B(  9-C , 11-H ) :   0.9610 B(  9-C , 12-C ) :   1.0729
B( 12-C , 13-H ) :   0.9730 B( 12-C , 14-H ) :   0.9754 B( 12-C , 15-H ) :   0.9745
B( 16-S , 17-C ) :   1.1483 B( 16-S , 20-C ) :   1.1722 B( 17-C , 18-C ) :   1.6216
B( 17-C , 20-C ) :   0.1024 B( 17-C , 33-H ) :   0.9613 B( 18-C , 19-C ) :   1.2479
B( 18-C , 21-H ) :   0.9870 B( 19-C , 20-C ) :   1.5523 B( 19-C , 22-C ) :   1.0375
B( 22-C , 23-H ) :   0.9431 B( 22-C , 24-H ) :   0.9298 B( 22-C , 25-C ) :   1.0525
B( 25-C , 26-H ) :   0.9559 B( 25-C , 27-H ) :   0.9597 B( 25-C , 28-C ) :   1.0741
B( 28-C , 29-H ) :   0.9652 B( 28-C , 30-H ) :   0.9716 B( 28-C , 31-H ) :   0.9717

Dispersion correction           -0.014728310
FINAL SINGLE POINT ENERGY     -1339.863767889539

DIPOLE MOMENT
-------------
                                X             Y             Z
Electronic contribution:     14.96079     -15.74899     -18.59257
Nuclear contribution   :    -15.13108      16.02440      19.06355
                        -----------------------------------------
Total Dipole Moment    :     -0.17029       0.27541       0.47098
                        -----------------------------------------
Magnitude (a.u.)       :      0.57155
Magnitude (Debye)      :      1.45277

Rotational constants in cm-1:     0.018621     0.008625     0.006713
Rotational constants in MHz :   558.256710   258.583724   201.255872

                             ****ORCA TERMINATED NORMALLY****
TOTAL RUN TIME: 0 days 0 hours 0 minutes 30 seconds 551 msec
