                         Program Version 4.2.1 -  RELEASE  -
|  1> ! wB97X-D3 SP def2-SVP
|  2> %pal
|  3> nprocs 16
|  4> end
|  5>
|  6> * xyz 0 1
|  7> S 	 -37.9318 	 69.2757 	 144.486
|  8> C 	 -38.8614 	 69.6594 	 143.075
|  9> C 	 -38.4826 	 70.9102 	 142.661
| 10> C 	 -37.3203 	 71.4262 	 143.302
| 11> C 	 -36.9108 	 70.7448 	 144.393
| 12> H 	 -36.7011 	 72.3352 	 143.115
| 13> C 	 -39.0987 	 71.4999 	 141.419
| 14> H 	 -38.7461 	 72.5262 	 141.246
| 15> H 	 -40.1508 	 71.4559 	 141.398
| 16> C 	 -38.7689 	 70.7802 	 140.085
| 17> H 	 -39.2703 	 69.8166 	 139.964
| 18> H 	 -39.1427 	 71.3464 	 139.314
| 19> C 	 -37.2825 	 70.3022 	 139.904
| 20> H 	 -36.5293 	 71.1012 	 139.907
| 21> H 	 -37.1291 	 69.5963 	 140.713
| 22> H 	 -37.1551 	 69.7984 	 138.941
| 23> S 	 -36.1236 	 72.1165 	 146.624
| 24> C 	 -34.4963 	 72.0141 	 147.203
| 25> C 	 -33.7497 	 71.1937 	 146.383
| 26> C 	 -34.5212 	 70.4764 	 145.414
| 27> C 	 -35.7824 	 70.9993 	 145.302
| 28> H 	 -32.6708 	 70.938 	 146.615
| 29> C 	 -33.8385 	 69.4456 	 144.5
| 30> H 	 -34.4548 	 68.7225 	 143.93
| 31> H 	 -33.3463 	 68.7475 	 145.244
| 32> C 	 -32.6109 	 69.9657 	 143.708
| 33> H 	 -31.9601 	 69.1748 	 143.314
| 34> H 	 -31.9327 	 70.6481 	 144.247
| 35> C 	 -33.0117 	 70.8733 	 142.517
| 36> H 	 -33.4425 	 71.832 	 142.862
| 37> H 	 -33.5789 	 70.2304 	 141.786
| 38> H 	 -32.0615 	 71.1965 	 141.997
| 39> H 	 -39.6468 	 69.0663 	 142.629
| 40> H 	 -34.0737 	 72.3497 	 148.143
| 41> *
| 42>
| 43>                          ****END OF INPUT****

CARTESIAN COORDINATES (ANGSTROEM)
---------------------------------
  S    -37.931800   69.275700  144.486000
  C    -38.861400   69.659400  143.075000
  C    -38.482600   70.910200  142.661000
  C    -37.320300   71.426200  143.302000
  C    -36.910800   70.744800  144.393000
  H    -36.701100   72.335200  143.115000
  C    -39.098700   71.499900  141.419000
  H    -38.746100   72.526200  141.246000
  H    -40.150800   71.455900  141.398000
  C    -38.768900   70.780200  140.085000
  H    -39.270300   69.816600  139.964000
  H    -39.142700   71.346400  139.314000
  C    -37.282500   70.302200  139.904000
  H    -36.529300   71.101200  139.907000
  H    -37.129100   69.596300  140.713000
  H    -37.155100   69.798400  138.941000
  S    -36.123600   72.116500  146.624000
  C    -34.496300   72.014100  147.203000
  C    -33.749700   71.193700  146.383000
  C    -34.521200   70.476400  145.414000
  C    -35.782400   70.999300  145.302000
  H    -32.670800   70.938000  146.615000
  C    -33.838500   69.445600  144.500000
  H    -34.454800   68.722500  143.930000
  H    -33.346300   68.747500  145.244000
  C    -32.610900   69.965700  143.708000
  H    -31.960100   69.174800  143.314000
  H    -31.932700   70.648100  144.247000
  C    -33.011700   70.873300  142.517000
  H    -33.442500   71.832000  142.862000
  H    -33.578900   70.230400  141.786000
  H    -32.061500   71.196500  141.997000
  H    -39.646800   69.066300  142.629000
  H    -34.073700   72.349700  148.143000

 Total Charge           Charge          ....    0
 Multiplicity           Mult            ....    1
 Number of Electrons    NEL             ....  134
 Basis Dimension        Dim             ....  322

ORBITAL ENERGIES
----------------

  NO   OCC          E(Eh)            E(eV)
   0   2.0000     -88.967053     -2420.9166
   1   2.0000     -88.960564     -2420.7400
   2   2.0000     -10.329222      -281.0724
   3   2.0000     -10.328782      -281.0604
   4   2.0000     -10.319324      -280.8031
   5   2.0000     -10.313811      -280.6531
   6   2.0000     -10.310610      -280.5660
   7   2.0000     -10.303278      -280.3664
   8   2.0000     -10.299022      -280.2506
   9   2.0000     -10.298994      -280.2499
  10   2.0000     -10.295359      -280.1510
  11   2.0000     -10.290938      -280.0307
  12   2.0000     -10.286112      -279.8993
  13   2.0000     -10.281637      -279.7776
  14   2.0000     -10.279087      -279.7082
  15   2.0000     -10.273602      -279.5589
  16   2.0000      -8.081918      -219.9202
  17   2.0000      -8.075035      -219.7329
  18   2.0000      -6.040458      -164.3692
  19   2.0000      -6.036358      -164.2576
  20   2.0000      -6.033537      -164.1809
  21   2.0000      -6.032652      -164.1568
  22   2.0000      -6.029437      -164.0693
  23   2.0000      -6.025923      -163.9737
  24   2.0000      -1.008950       -27.4549
  25   2.0000      -0.989668       -26.9302
  26   2.0000      -0.907898       -24.7052
  27   2.0000      -0.904376       -24.6093
  28   2.0000      -0.870196       -23.6792
  29   2.0000      -0.847153       -23.0522
  30   2.0000      -0.839399       -22.8412
  31   2.0000      -0.817992       -22.2587
  32   2.0000      -0.781674       -21.2704
  33   2.0000      -0.773344       -21.0438
  34   2.0000      -0.703884       -19.1537
  35   2.0000      -0.698723       -19.0132
  36   2.0000      -0.688030       -18.7223
  37   2.0000      -0.658839       -17.9279
  38   2.0000      -0.642992       -17.4967
  39   2.0000      -0.611938       -16.6517
  40   2.0000      -0.599193       -16.3049
  41   2.0000      -0.575176       -15.6513
  42   2.0000      -0.548196       -14.9172
  43   2.0000      -0.545800       -14.8520
  44   2.0000      -0.542059       -14.7502
  45   2.0000      -0.536281       -14.5930
  46   2.0000      -0.519295       -14.1307
  47   2.0000      -0.517671       -14.0866
  48   2.0000      -0.503835       -13.7101
  49   2.0000      -0.493061       -13.4169
  50   2.0000      -0.487940       -13.2775
  51   2.0000      -0.479231       -13.0405
  52   2.0000      -0.468232       -12.7412
  53   2.0000      -0.465477       -12.6663
  54   2.0000      -0.461899       -12.5689
  55   2.0000      -0.444685       -12.1005
  56   2.0000      -0.438204       -11.9241
  57   2.0000      -0.429171       -11.6783
  58   2.0000      -0.428614       -11.6632
  59   2.0000      -0.419857       -11.4249
  60   2.0000      -0.416580       -11.3357
  61   2.0000      -0.409053       -11.1309
  62   2.0000      -0.406310       -11.0563
  63   2.0000      -0.339291        -9.2326
  64   2.0000      -0.331961        -9.0331
  65   2.0000      -0.321652        -8.7526
  66   2.0000      -0.311589        -8.4788
  67   0.0000       0.042941         1.1685
  68   0.0000       0.054164         1.4739
  69   0.0000       0.112128         3.0512
  70   0.0000       0.122031         3.3206
  71   0.0000       0.130923         3.5626

MULLIKEN ATOMIC CHARGES
-----------------------
   0 S :    0.099215
   1 C :   -0.118329
   2 C :   -0.089987
   3 C :    0.039826
   4 C :   -0.163604
   5 H :    0.028915
   6 C :    0.104775
   7 H :    0.025713
   8 H :    0.020497
   9 C :   -0.085078
  10 H :    0.015192
  11 H :    0.011506
  12 C :   -0.062750
  13 H :    0.029840
  14 H :    0.044940
  15 H :    0.031373
  16 S :    0.121295
  17 C :   -0.077477
  18 C :   -0.076082
  19 C :    0.005207
  20 C :   -0.202645
  21 H :    0.043107
  22 C :    0.060396
  23 H :    0.041094
  24 H :    0.034056
  25 C :   -0.096252
  26 H :    0.034809
  27 H :    0.028824
  28 C :   -0.088568
  29 H :    0.047009
  30 H :    0.045323
  31 H :    0.030743
  32 H :    0.056484
  33 H :    0.060633
Sum of atomic charges:    0.0000000

LOEWDIN ATOMIC CHARGES
----------------------
   0 S :    0.389838
   1 C :   -0.191519
   2 C :   -0.073100
   3 C :   -0.063909
   4 C :   -0.188825
   5 H :    0.043950
   6 C :   -0.028488
   7 H :    0.032218
   8 H :    0.027715
   9 C :   -0.033943
  10 H :    0.020492
  11 H :    0.009609
  12 C :   -0.066956
  13 H :    0.019632
  14 H :    0.026192
  15 H :    0.025513
  16 S :    0.415617
  17 C :   -0.191358
  18 C :   -0.080669
  19 C :   -0.049941
  20 C :   -0.201264
  21 H :    0.039778
  22 C :   -0.036760
  23 H :    0.035573
  24 H :    0.042049
  25 C :   -0.047793
  26 H :    0.026114
  27 H :    0.024705
  28 C :   -0.076191
  29 H :    0.026914
  30 H :    0.028218
  31 H :    0.027174
  32 H :    0.033927
  33 H :    0.035490

  Mayer bond orders larger than 0.100000
B(  0-S ,  1-C ) :   1.1476 B(  0-S ,  4-C ) :   1.1255 B(  1-C ,  2-C ) :   1.5893
B(  1-C , 32-H ) :   0.9771 B(  2-C ,  3-C ) :   1.2116 B(  2-C ,  6-C ) :   1.0471
B(  3-C ,  4-C ) :   1.6382 B(  3-C ,  5-H ) :   0.9833 B(  4-C , 20-C ) :   1.0058
B(  6-C ,  7-H ) :   0.9427 B(  6-C ,  8-H ) :   0.9361 B(  6-C ,  9-C ) :   1.0692
B(  9-C , 10-H ) :   0.9551 B(  9-C , 11-H ) :   0.9599 B(  9-C , 12-C ) :   1.0710
B( 12-C , 13-H ) :   0.9798 B( 12-C , 14-H ) :   0.9713 B( 12-C , 15-H ) :   0.9759
B( 16-S , 17-C ) :   1.1559 B( 16-S , 20-C ) :   1.1429 B( 17-C , 18-C ) :   1.6211
B( 17-C , 33-H ) :   0.9658 B( 18-C , 19-C ) :   1.2360 B( 18-C , 21-H ) :   0.9705
B( 19-C , 20-C ) :   1.6099 B( 19-C , 22-C ) :   1.0382 B( 22-C , 23-H ) :   0.9473
B( 22-C , 24-H ) :   0.9233 B( 22-C , 25-C ) :   1.0639 B( 25-C , 26-H ) :   0.9568
B( 25-C , 27-H ) :   0.9576 B( 25-C , 28-C ) :   1.0723 B( 28-C , 29-H ) :   0.9761
B( 28-C , 30-H ) :   0.9756 B( 28-C , 31-H ) :   0.9736

Dispersion correction           -0.015418064
FINAL SINGLE POINT ENERGY     -1339.866420460586

DIPOLE MOMENT
-------------
                                X             Y             Z
Electronic contribution:     -9.94055       1.80583      24.66265
Nuclear contribution   :     10.31110      -1.87471     -25.02346
                        -----------------------------------------
Total Dipole Moment    :      0.37055      -0.06888      -0.36081
                        -----------------------------------------
Magnitude (a.u.)       :      0.52176
Magnitude (Debye)      :      1.32620

Rotational constants in cm-1:     0.019808     0.009171     0.007430
Rotational constants in MHz :   593.824108   274.951101   222.738231

                             ****ORCA TERMINATED NORMALLY****
TOTAL RUN TIME: 0 days 0 hours 0 minutes 34 seconds 902 msec
