                         Program Version 4.2.1 -  RELEASE  -
|  1> ! wB97X-D3 SP def2-SVP
|  2> %pal
|  3> nprocs 16
|  4> end
|  5>
|  6> * xyz 0 1
|  7> S 	 -68.1439 	 38.2274 	 115.195
|  8> C 	 -67.9116 	 36.7032 	 116.026
|  9> C 	 -69.0779 	 35.9636 	 115.979
| 10> C 	 -70.0148 	 36.4591 	 115.021
| 11> C 	 -69.6862 	 37.7108 	 114.568
| 12> H 	 -70.8875 	 35.967 	 114.716
| 13> C 	 -69.367 	 34.8208 	 116.872
| 14> H 	 -68.4454 	 34.3039 	 117.154
| 15> H 	 -69.8202 	 34.1308 	 116.164
| 16> C 	 -70.2849 	 35.1141 	 118.052
| 17> H 	 -69.956 	 35.871 	 118.636
| 18> H 	 -71.293 	 35.3487 	 117.786
| 19> C 	 -70.5129 	 33.9154 	 118.989
| 20> H 	 -69.5926 	 33.9138 	 119.494
| 21> H 	 -71.2005 	 34.2106 	 119.754
| 22> H 	 -70.6397 	 33.0891 	 118.374
| 23> S 	 -71.4958 	 39.7042 	 114.136
| 24> C 	 -72.3082 	 39.7567 	 112.578
| 25> C 	 -71.6394 	 38.9842 	 111.647
| 26> C 	 -70.5458 	 38.2044 	 112.182
| 27> C 	 -70.3896 	 38.4524 	 113.537
| 28> H 	 -71.9805 	 38.986 	 110.617
| 29> C 	 -69.622 	 37.3487 	 111.263
| 30> H 	 -70.2334 	 36.9201 	 110.513
| 31> H 	 -69.2285 	 36.481 	 111.806
| 32> C 	 -68.5351 	 38.2058 	 110.585
| 33> H 	 -68.9655 	 39.093 	 110.174
| 34> H 	 -68.2896 	 37.8267 	 109.666
| 35> C 	 -67.4616 	 38.517 	 111.653
| 36> H 	 -67.1829 	 37.7157 	 112.261
| 37> H 	 -67.7221 	 39.3766 	 112.255
| 38> H 	 -66.503 	 38.6352 	 111.134
| 39> H 	 -67.102 	 36.5791 	 116.752
| 40> H 	 -73.1294 	 40.354 	 112.246
| 41> *
| 42>
| 43>                          ****END OF INPUT****

CARTESIAN COORDINATES (ANGSTROEM)
---------------------------------
  S    -68.143900   38.227400  115.195000
  C    -67.911600   36.703200  116.026000
  C    -69.077900   35.963600  115.979000
  C    -70.014800   36.459100  115.021000
  C    -69.686200   37.710800  114.568000
  H    -70.887500   35.967000  114.716000
  C    -69.367000   34.820800  116.872000
  H    -68.445400   34.303900  117.154000
  H    -69.820200   34.130800  116.164000
  C    -70.284900   35.114100  118.052000
  H    -69.956000   35.871000  118.636000
  H    -71.293000   35.348700  117.786000
  C    -70.512900   33.915400  118.989000
  H    -69.592600   33.913800  119.494000
  H    -71.200500   34.210600  119.754000
  H    -70.639700   33.089100  118.374000
  S    -71.495800   39.704200  114.136000
  C    -72.308200   39.756700  112.578000
  C    -71.639400   38.984200  111.647000
  C    -70.545800   38.204400  112.182000
  C    -70.389600   38.452400  113.537000
  H    -71.980500   38.986000  110.617000
  C    -69.622000   37.348700  111.263000
  H    -70.233400   36.920100  110.513000
  H    -69.228500   36.481000  111.806000
  C    -68.535100   38.205800  110.585000
  H    -68.965500   39.093000  110.174000
  H    -68.289600   37.826700  109.666000
  C    -67.461600   38.517000  111.653000
  H    -67.182900   37.715700  112.261000
  H    -67.722100   39.376600  112.255000
  H    -66.503000   38.635200  111.134000
  H    -67.102000   36.579100  116.752000
  H    -73.129400   40.354000  112.246000

 Total Charge           Charge          ....    0
 Multiplicity           Mult            ....    1
 Number of Electrons    NEL             ....  134
 Basis Dimension        Dim             ....  322

ORBITAL ENERGIES
----------------

  NO   OCC          E(Eh)            E(eV)
   0   2.0000     -88.963603     -2420.8227
   1   2.0000     -88.961900     -2420.7764
   2   2.0000     -10.324587      -280.9463
   3   2.0000     -10.323602      -280.9195
   4   2.0000     -10.315547      -280.7003
   5   2.0000     -10.311673      -280.5949
   6   2.0000     -10.306624      -280.4575
   7   2.0000     -10.297472      -280.2085
   8   2.0000     -10.292783      -280.0809
   9   2.0000     -10.289049      -279.9792
  10   2.0000     -10.288720      -279.9703
  11   2.0000     -10.288601      -279.9671
  12   2.0000     -10.275326      -279.6058
  13   2.0000     -10.271969      -279.5145
  14   2.0000     -10.264819      -279.3199
  15   2.0000     -10.264361      -279.3075
  16   2.0000      -8.077923      -219.8115
  17   2.0000      -8.076674      -219.7775
  18   2.0000      -6.036518      -164.2620
  19   2.0000      -6.035164      -164.2252
  20   2.0000      -6.032538      -164.1537
  21   2.0000      -6.031120      -164.1151
  22   2.0000      -6.028561      -164.0455
  23   2.0000      -6.027494      -164.0165
  24   2.0000      -1.004854       -27.3435
  25   2.0000      -0.980696       -26.6861
  26   2.0000      -0.918145       -24.9840
  27   2.0000      -0.904893       -24.6234
  28   2.0000      -0.871243       -23.7077
  29   2.0000      -0.853560       -23.2265
  30   2.0000      -0.840824       -22.8800
  31   2.0000      -0.814482       -22.1632
  32   2.0000      -0.783279       -21.3141
  33   2.0000      -0.770392       -20.9634
  34   2.0000      -0.714034       -19.4298
  35   2.0000      -0.706242       -19.2178
  36   2.0000      -0.696335       -18.9482
  37   2.0000      -0.656222       -17.8567
  38   2.0000      -0.646328       -17.5875
  39   2.0000      -0.620520       -16.8852
  40   2.0000      -0.591849       -16.1050
  41   2.0000      -0.579542       -15.7701
  42   2.0000      -0.560365       -15.2483
  43   2.0000      -0.552272       -15.0281
  44   2.0000      -0.540588       -14.7101
  45   2.0000      -0.530287       -14.4299
  46   2.0000      -0.521191       -14.1823
  47   2.0000      -0.510824       -13.9002
  48   2.0000      -0.508625       -13.8404
  49   2.0000      -0.498549       -13.5662
  50   2.0000      -0.491827       -13.3833
  51   2.0000      -0.476989       -12.9795
  52   2.0000      -0.470382       -12.7997
  53   2.0000      -0.459838       -12.5128
  54   2.0000      -0.456828       -12.4309
  55   2.0000      -0.452224       -12.3056
  56   2.0000      -0.445963       -12.1353
  57   2.0000      -0.441957       -12.0263
  58   2.0000      -0.433760       -11.8032
  59   2.0000      -0.415904       -11.3173
  60   2.0000      -0.414386       -11.2760
  61   2.0000      -0.411369       -11.1939
  62   2.0000      -0.407837       -11.0978
  63   2.0000      -0.335095        -9.1184
  64   2.0000      -0.325179        -8.8486
  65   2.0000      -0.322355        -8.7717
  66   2.0000      -0.305647        -8.3171
  67   0.0000       0.046739         1.2718
  68   0.0000       0.053029         1.4430
  69   0.0000       0.114693         3.1210
  70   0.0000       0.119536         3.2527
  71   0.0000       0.127942         3.4815

MULLIKEN ATOMIC CHARGES
-----------------------
   0 S :    0.100528
   1 C :   -0.120998
   2 C :   -0.110033
   3 C :    0.076501
   4 C :   -0.151928
   5 H :   -0.007066
   6 C :    0.068700
   7 H :    0.015355
   8 H :    0.016601
   9 C :   -0.032656
  10 H :   -0.001028
  11 H :    0.015619
  12 C :    0.008838
  13 H :    0.005006
  14 H :    0.032061
  15 H :    0.025093
  16 S :    0.105650
  17 C :   -0.073911
  18 C :   -0.056709
  19 C :   -0.022294
  20 C :   -0.193455
  21 H :    0.018896
  22 C :    0.080697
  23 H :   -0.001050
  24 H :    0.033805
  25 C :   -0.000232
  26 H :    0.004116
  27 H :   -0.005428
  28 C :   -0.018589
  29 H :    0.016543
  30 H :    0.050846
  31 H :    0.018938
  32 H :    0.055053
  33 H :    0.046532
Sum of atomic charges:    0.0000000

LOEWDIN ATOMIC CHARGES
----------------------
   0 S :    0.412555
   1 C :   -0.202285
   2 C :   -0.061330
   3 C :   -0.047011
   4 C :   -0.199177
   5 H :    0.025503
   6 C :   -0.034914
   7 H :    0.029913
   8 H :    0.032056
   9 C :   -0.025090
  10 H :    0.008584
  11 H :    0.020695
  12 C :   -0.046362
  13 H :    0.017995
  14 H :    0.028504
  15 H :    0.016740
  16 S :    0.391624
  17 C :   -0.182013
  18 C :   -0.072979
  19 C :   -0.044917
  20 C :   -0.200105
  21 H :    0.029863
  22 C :   -0.020567
  23 H :    0.019923
  24 H :    0.031517
  25 C :   -0.032956
  26 H :    0.025477
  27 H :    0.012545
  28 C :   -0.060690
  29 H :    0.014095
  30 H :    0.026863
  31 H :    0.029052
  32 H :    0.028598
  33 H :    0.028295

  Mayer bond orders larger than 0.100000
B(  0-S ,  1-C ) :   1.1344 B(  0-S ,  4-C ) :   1.1612 B(  1-C ,  2-C ) :   1.6138
B(  1-C , 32-H ) :   0.9674 B(  2-C ,  3-C ) :   1.2224 B(  2-C ,  6-C ) :   1.0353
B(  3-C ,  4-C ) :   1.5896 B(  3-C ,  5-H ) :   1.0079 B(  4-C , 20-C ) :   0.9887
B(  6-C ,  7-H ) :   0.9402 B(  6-C ,  8-H ) :   0.9254 B(  6-C ,  9-C ) :   1.0653
B(  9-C , 10-H ) :   0.9585 B(  9-C , 11-H ) :   0.9536 B(  9-C , 12-C ) :   1.0789
B( 12-C , 13-H ) :   0.9784 B( 12-C , 14-H ) :   0.9729 B( 12-C , 15-H ) :   0.9775
B( 16-S , 17-C ) :   1.1410 B( 16-S , 20-C ) :   1.1337 B( 17-C , 18-C ) :   1.6432
B( 17-C , 33-H ) :   0.9676 B( 18-C , 19-C ) :   1.2177 B( 18-C , 21-H ) :   0.9840
B( 19-C , 20-C ) :   1.6316 B( 19-C , 22-C ) :   1.0376 B( 22-C , 23-H ) :   0.9252
B( 22-C , 24-H ) :   0.9438 B( 22-C , 25-C ) :   1.0810 B( 25-C , 26-H ) :   0.9458
B( 25-C , 27-H ) :   0.9544 B( 25-C , 28-C ) :   1.0565 B( 28-C , 29-H ) :   0.9767
B( 28-C , 30-H ) :   0.9756 B( 28-C , 31-H ) :   0.9700

Dispersion correction           -0.015283479
FINAL SINGLE POINT ENERGY     -1339.847138898153

DIPOLE MOMENT
-------------
                                X             Y             Z
Electronic contribution:     -4.00882      16.13618      -1.42749
Nuclear contribution   :      3.89379     -16.59038       1.24087
                        -----------------------------------------
Total Dipole Moment    :     -0.11504      -0.45420      -0.18662
                        -----------------------------------------
Magnitude (a.u.)       :      0.50434
Magnitude (Debye)      :      1.28193

Rotational constants in cm-1:     0.021920     0.008055     0.007002
Rotational constants in MHz :   657.153513   241.491480   209.903255

                             ****ORCA TERMINATED NORMALLY****
TOTAL RUN TIME: 0 days 0 hours 0 minutes 30 seconds 780 msec
