                         Program Version 4.2.1 -  RELEASE  -
|  1> ! wB97X-D3 SP def2-SVP
|  2> %pal
|  3> nprocs 16
|  4> end
|  5>
|  6> * xyz 0 1
|  7> S 	 54.5407 	 4.72685 	 84.1051
|  8> C 	 53.9636 	 3.84464 	 82.7163
|  9> C 	 52.7635 	 3.28315 	 83.0476
| 10> C 	 52.2874 	 3.58027 	 84.3944
| 11> C 	 53.244 	 4.26341 	 85.1136
| 12> H 	 51.4293 	 3.17535 	 84.8521
| 13> C 	 51.9325 	 2.5147 	 82.034
| 14> H 	 51.8546 	 3.1055 	 81.0581
| 15> H 	 50.8564 	 2.55281 	 82.2975
| 16> C 	 52.2362 	 1.04826 	 81.7873
| 17> H 	 53.2491 	 0.899667 	 81.3531
| 18> H 	 52.2269 	 0.559107 	 82.7924
| 19> C 	 51.1668 	 0.419933 	 80.8863
| 20> H 	 50.1447 	 0.744283 	 81.0766
| 21> H 	 51.4563 	 0.603667 	 79.8252
| 22> H 	 51.2681 	 -0.600507 	 81.1855
| 23> S 	 53.5492 	 6.34536 	 86.9688
| 24> C 	 53.501 	 5.94286 	 88.6432
| 25> C 	 53.0705 	 4.63402 	 88.8666
| 26> C 	 52.8915 	 3.95074 	 87.6138
| 27> C 	 53.1753 	 4.67514 	 86.5141
| 28> H 	 52.8538 	 4.32739 	 89.8552
| 29> C 	 52.3716 	 2.52797 	 87.6555
| 30> H 	 51.4081 	 2.4992 	 87.0143
| 31> H 	 52.1427 	 2.21206 	 88.6462
| 32> C 	 53.2858 	 1.40524 	 87.0843
| 33> H 	 54.2923 	 1.41335 	 87.4981
| 34> H 	 53.3735 	 1.53605 	 86.0118
| 35> C 	 52.7948 	 0.00170421 	 87.3721
| 36> H 	 52.7775 	 -0.191666 	 88.4319
| 37> H 	 53.2996 	 -0.756766 	 86.799
| 38> H 	 51.8061 	 -0.164997 	 86.9322
| 39> H 	 54.3212 	 3.91542 	 81.6597
| 40> H 	 53.5353 	 6.68854 	 89.3952
| 41> *
| 42>
| 43>                          ****END OF INPUT****

CARTESIAN COORDINATES (ANGSTROEM)
---------------------------------
  S     54.540700    4.726850   84.105100
  C     53.963600    3.844640   82.716300
  C     52.763500    3.283150   83.047600
  C     52.287400    3.580270   84.394400
  C     53.244000    4.263410   85.113600
  H     51.429300    3.175350   84.852100
  C     51.932500    2.514700   82.034000
  H     51.854600    3.105500   81.058100
  H     50.856400    2.552810   82.297500
  C     52.236200    1.048260   81.787300
  H     53.249100    0.899667   81.353100
  H     52.226900    0.559107   82.792400
  C     51.166800    0.419933   80.886300
  H     50.144700    0.744283   81.076600
  H     51.456300    0.603667   79.825200
  H     51.268100   -0.600507   81.185500
  S     53.549200    6.345360   86.968800
  C     53.501000    5.942860   88.643200
  C     53.070500    4.634020   88.866600
  C     52.891500    3.950740   87.613800
  C     53.175300    4.675140   86.514100
  H     52.853800    4.327390   89.855200
  C     52.371600    2.527970   87.655500
  H     51.408100    2.499200   87.014300
  H     52.142700    2.212060   88.646200
  C     53.285800    1.405240   87.084300
  H     54.292300    1.413350   87.498100
  H     53.373500    1.536050   86.011800
  C     52.794800    0.001704   87.372100
  H     52.777500   -0.191666   88.431900
  H     53.299600   -0.756766   86.799000
  H     51.806100   -0.164997   86.932200
  H     54.321200    3.915420   81.659700
  H     53.535300    6.688540   89.395200

 Total Charge           Charge          ....    0
 Multiplicity           Mult            ....    1
 Number of Electrons    NEL             ....  134
 Basis Dimension        Dim             ....  322

ORBITAL ENERGIES
----------------

  NO   OCC          E(Eh)            E(eV)
   0   2.0000     -88.966539     -2420.9026
   1   2.0000     -88.964658     -2420.8514
   2   2.0000     -10.328798      -281.0609
   3   2.0000     -10.324753      -280.9508
   4   2.0000     -10.316438      -280.7245
   5   2.0000     -10.313663      -280.6490
   6   2.0000     -10.302685      -280.3503
   7   2.0000     -10.300975      -280.3038
   8   2.0000     -10.296341      -280.1777
   9   2.0000     -10.294857      -280.1373
  10   2.0000     -10.292847      -280.0826
  11   2.0000     -10.292604      -280.0760
  12   2.0000     -10.289774      -279.9990
  13   2.0000     -10.279481      -279.7189
  14   2.0000     -10.279225      -279.7119
  15   2.0000     -10.272042      -279.5165
  16   2.0000      -8.081531      -219.9096
  17   2.0000      -8.080237      -219.8744
  18   2.0000      -6.040021      -164.3573
  19   2.0000      -6.038768      -164.3232
  20   2.0000      -6.036014      -164.2483
  21   2.0000      -6.034476      -164.2064
  22   2.0000      -6.032284      -164.1468
  23   2.0000      -6.031038      -164.1129
  24   2.0000      -1.012566       -27.5533
  25   2.0000      -0.989243       -26.9187
  26   2.0000      -0.912120       -24.8200
  27   2.0000      -0.907323       -24.6895
  28   2.0000      -0.872961       -23.7545
  29   2.0000      -0.856080       -23.2951
  30   2.0000      -0.845592       -23.0097
  31   2.0000      -0.817600       -22.2480
  32   2.0000      -0.781608       -21.2686
  33   2.0000      -0.771526       -20.9943
  34   2.0000      -0.706171       -19.2159
  35   2.0000      -0.694419       -18.8961
  36   2.0000      -0.688974       -18.7479
  37   2.0000      -0.670248       -18.2384
  38   2.0000      -0.642555       -17.4848
  39   2.0000      -0.618291       -16.8245
  40   2.0000      -0.595542       -16.2055
  41   2.0000      -0.575711       -15.6659
  42   2.0000      -0.571327       -15.5466
  43   2.0000      -0.561448       -15.2778
  44   2.0000      -0.529721       -14.4145
  45   2.0000      -0.524639       -14.2762
  46   2.0000      -0.516055       -14.0426
  47   2.0000      -0.512492       -13.9456
  48   2.0000      -0.505510       -13.7556
  49   2.0000      -0.502485       -13.6733
  50   2.0000      -0.492781       -13.4092
  51   2.0000      -0.488755       -13.2997
  52   2.0000      -0.475908       -12.9501
  53   2.0000      -0.462335       -12.5808
  54   2.0000      -0.458953       -12.4887
  55   2.0000      -0.451951       -12.2982
  56   2.0000      -0.445432       -12.1208
  57   2.0000      -0.437367       -11.9014
  58   2.0000      -0.425148       -11.5689
  59   2.0000      -0.420404       -11.4398
  60   2.0000      -0.415129       -11.2962
  61   2.0000      -0.412739       -11.2312
  62   2.0000      -0.409231       -11.1357
  63   2.0000      -0.349524        -9.5110
  64   2.0000      -0.332196        -9.0395
  65   2.0000      -0.328324        -8.9342
  66   2.0000      -0.297595        -8.0980
  67   0.0000       0.029404         0.8001
  68   0.0000       0.073161         1.9908
  69   0.0000       0.110128         2.9967
  70   0.0000       0.119106         3.2410
  71   0.0000       0.125799         3.4232

MULLIKEN ATOMIC CHARGES
-----------------------
   0 S :    0.113844
   1 C :   -0.126777
   2 C :   -0.081058
   3 C :    0.054329
   4 C :   -0.145549
   5 H :   -0.008279
   6 C :   -0.002493
   7 H :    0.030515
   8 H :    0.011178
   9 C :   -0.086369
  10 H :    0.035634
  11 H :    0.030416
  12 C :   -0.037048
  13 H :    0.032982
  14 H :    0.046854
  15 H :    0.033485
  16 S :    0.111909
  17 C :   -0.080776
  18 C :   -0.024691
  19 C :   -0.006209
  20 C :   -0.147906
  21 H :    0.008726
  22 C :    0.048916
  23 H :    0.042158
  24 H :    0.001644
  25 C :   -0.079375
  26 H :    0.030409
  27 H :    0.037282
  28 C :   -0.031271
  29 H :    0.033992
  30 H :    0.025828
  31 H :    0.009220
  32 H :    0.070256
  33 H :    0.048222
Sum of atomic charges:    0.0000000

LOEWDIN ATOMIC CHARGES
----------------------
   0 S :    0.429062
   1 C :   -0.212336
   2 C :   -0.065904
   3 C :   -0.062509
   4 C :   -0.197801
   5 H :    0.021815
   6 C :   -0.051309
   7 H :    0.033222
   8 H :    0.027291
   9 C :   -0.043661
  10 H :    0.026505
  11 H :    0.024959
  12 C :   -0.064044
  13 H :    0.023701
  14 H :    0.032618
  15 H :    0.027496
  16 S :    0.408567
  17 C :   -0.178361
  18 C :   -0.064382
  19 C :   -0.053256
  20 C :   -0.196940
  21 H :    0.027086
  22 C :   -0.028767
  23 H :    0.039153
  24 H :    0.021216
  25 C :   -0.041894
  26 H :    0.025087
  27 H :    0.022595
  28 C :   -0.066842
  29 H :    0.022011
  30 H :    0.027494
  31 H :    0.022055
  32 H :    0.045177
  33 H :    0.020896

  Mayer bond orders larger than 0.100000
B(  0-S ,  1-C ) :   1.1258 B(  0-S ,  4-C ) :   1.1769 B(  1-C ,  2-C ) :   1.6168
B(  1-C , 32-H ) :   0.9650 B(  2-C ,  3-C ) :   1.2422 B(  2-C ,  6-C ) :   1.0188
B(  3-C ,  4-C ) :   1.5471 B(  3-C ,  5-H ) :   1.0021 B(  4-C , 20-C ) :   1.0323
B(  6-C ,  7-H ) :   0.9433 B(  6-C ,  8-H ) :   0.9440 B(  6-C ,  9-C ) :   1.0636
B(  9-C , 10-H ) :   0.9530 B(  9-C , 11-H ) :   0.9581 B(  9-C , 12-C ) :   1.0680
B( 12-C , 13-H ) :   0.9750 B( 12-C , 14-H ) :   0.9763 B( 12-C , 15-H ) :   0.9769
B( 16-S , 17-C ) :   1.1759 B( 16-S , 20-C ) :   1.1218 B( 17-C , 18-C ) :   1.5956
B( 17-C , 33-H ) :   0.9682 B( 18-C , 19-C ) :   1.2322 B( 18-C , 21-H ) :   1.0012
B( 19-C , 20-C ) :   1.6286 B( 19-C , 22-C ) :   1.0419 B( 22-C , 23-H ) :   0.9328
B( 22-C , 24-H ) :   0.9364 B( 22-C , 25-C ) :   1.0602 B( 25-C , 26-H ) :   0.9551
B( 25-C , 27-H ) :   0.9503 B( 25-C , 28-C ) :   1.1001 B( 28-C , 29-H ) :   0.9749
B( 28-C , 30-H ) :   0.9693 B( 28-C , 31-H ) :   0.9674

Dispersion correction           -0.014330197
FINAL SINGLE POINT ENERGY     -1339.880385474814

DIPOLE MOMENT
-------------
                                X             Y             Z
Electronic contribution:     11.65765      29.36344       8.27326
Nuclear contribution   :    -12.07510     -29.84790      -8.24128
                        -----------------------------------------
Total Dipole Moment    :     -0.41746      -0.48445       0.03198
                        -----------------------------------------
Magnitude (a.u.)       :      0.64030
Magnitude (Debye)      :      1.62752

Rotational constants in cm-1:     0.019938     0.008661     0.006581
Rotational constants in MHz :   597.738763   259.664971   197.304763

                             ****ORCA TERMINATED NORMALLY****
TOTAL RUN TIME: 0 days 0 hours 0 minutes 29 seconds 716 msec
