                         Program Version 4.2.1 -  RELEASE  -
|  1> ! wB97X-D3 SP def2-SVP
|  2> %pal
|  3> nprocs 16
|  4> end
|  5>
|  6> * xyz 0 1
|  7> S 	 -91.2406 	 59.8666 	 126.281
|  8> C 	 -90.524 	 59.0253 	 127.627
|  9> C 	 -90.338 	 57.6678 	 127.367
| 10> C 	 -90.5091 	 57.4247 	 125.941
| 11> C 	 -91.081 	 58.4676 	 125.237
| 12> H 	 -90.3055 	 56.4806 	 125.421
| 13> C 	 -89.9844 	 56.5874 	 128.366
| 14> H 	 -90.9184 	 56.0002 	 128.259
| 15> H 	 -89.8109 	 57.0596 	 129.35
| 16> C 	 -88.6939 	 55.8128 	 128
| 17> H 	 -88.8878 	 55.2745 	 127.091
| 18> H 	 -87.7994 	 56.4334 	 127.739
| 19> C 	 -88.354 	 54.6337 	 129.059
| 20> H 	 -89.3001 	 54.0779 	 129.316
| 21> H 	 -87.5727 	 53.9592 	 128.695
| 22> H 	 -88.0797 	 55.0345 	 129.99
| 23> S 	 -90.8555 	 59.515 	 122.668
| 24> C 	 -91.7697 	 58.6816 	 121.389
| 25> C 	 -92.2953 	 57.488 	 121.835
| 26> C 	 -92.2575 	 57.3996 	 123.287
| 27> C 	 -91.5724 	 58.4398 	 123.86
| 28> H 	 -92.8498 	 56.7867 	 121.152
| 29> C 	 -93.0857 	 56.2412 	 123.912
| 30> H 	 -94.1546 	 56.327 	 123.647
| 31> H 	 -93.1437 	 56.3819 	 124.983
| 32> C 	 -92.6545 	 54.8295 	 123.534
| 33> H 	 -91.609 	 54.6976 	 123.807
| 34> H 	 -92.7047 	 54.7472 	 122.497
| 35> C 	 -93.4986 	 53.8375 	 124.264
| 36> H 	 -93.3421 	 53.8208 	 125.341
| 37> H 	 -93.298 	 52.8241 	 123.953
| 38> H 	 -94.5171 	 54.0836 	 124.247
| 39> H 	 -90.3731 	 59.5397 	 128.584
| 40> H 	 -91.7603 	 59.1999 	 120.383
| 41> *
| 42>
| 43>                          ****END OF INPUT****

CARTESIAN COORDINATES (ANGSTROEM)
---------------------------------
  S    -91.240600   59.866600  126.281000
  C    -90.524000   59.025300  127.627000
  C    -90.338000   57.667800  127.367000
  C    -90.509100   57.424700  125.941000
  C    -91.081000   58.467600  125.237000
  H    -90.305500   56.480600  125.421000
  C    -89.984400   56.587400  128.366000
  H    -90.918400   56.000200  128.259000
  H    -89.810900   57.059600  129.350000
  C    -88.693900   55.812800  128.000000
  H    -88.887800   55.274500  127.091000
  H    -87.799400   56.433400  127.739000
  C    -88.354000   54.633700  129.059000
  H    -89.300100   54.077900  129.316000
  H    -87.572700   53.959200  128.695000
  H    -88.079700   55.034500  129.990000
  S    -90.855500   59.515000  122.668000
  C    -91.769700   58.681600  121.389000
  C    -92.295300   57.488000  121.835000
  C    -92.257500   57.399600  123.287000
  C    -91.572400   58.439800  123.860000
  H    -92.849800   56.786700  121.152000
  C    -93.085700   56.241200  123.912000
  H    -94.154600   56.327000  123.647000
  H    -93.143700   56.381900  124.983000
  C    -92.654500   54.829500  123.534000
  H    -91.609000   54.697600  123.807000
  H    -92.704700   54.747200  122.497000
  C    -93.498600   53.837500  124.264000
  H    -93.342100   53.820800  125.341000
  H    -93.298000   52.824100  123.953000
  H    -94.517100   54.083600  124.247000
  H    -90.373100   59.539700  128.584000
  H    -91.760300   59.199900  120.383000

 Total Charge           Charge          ....    0
 Multiplicity           Mult            ....    1
 Number of Electrons    NEL             ....  134
 Basis Dimension        Dim             ....  322

ORBITAL ENERGIES
----------------

  NO   OCC          E(Eh)            E(eV)
   0   2.0000     -88.962358     -2420.7888
   1   2.0000     -88.960700     -2420.7437
   2   2.0000     -10.327847      -281.0350
   3   2.0000     -10.325887      -280.9817
   4   2.0000     -10.325250      -280.9643
   5   2.0000     -10.314158      -280.6625
   6   2.0000     -10.307503      -280.4814
   7   2.0000     -10.304711      -280.4054
   8   2.0000     -10.303176      -280.3637
   9   2.0000     -10.301634      -280.3217
  10   2.0000     -10.295811      -280.1633
  11   2.0000     -10.295773      -280.1622
  12   2.0000     -10.293078      -280.0889
  13   2.0000     -10.284501      -279.8555
  14   2.0000     -10.281333      -279.7693
  15   2.0000     -10.272205      -279.5209
  16   2.0000      -8.077160      -219.7907
  17   2.0000      -8.075764      -219.7527
  18   2.0000      -6.035758      -164.2413
  19   2.0000      -6.034197      -164.1988
  20   2.0000      -6.031820      -164.1342
  21   2.0000      -6.030257      -164.0916
  22   2.0000      -6.027666      -164.0211
  23   2.0000      -6.026564      -163.9912
  24   2.0000      -1.002580       -27.2816
  25   2.0000      -0.980003       -26.6672
  26   2.0000      -0.916574       -24.9412
  27   2.0000      -0.905700       -24.6453
  28   2.0000      -0.865235       -23.5442
  29   2.0000      -0.851254       -23.1638
  30   2.0000      -0.839777       -22.8515
  31   2.0000      -0.809906       -22.0387
  32   2.0000      -0.781982       -21.2788
  33   2.0000      -0.770656       -20.9706
  34   2.0000      -0.711673       -19.3656
  35   2.0000      -0.705842       -19.2069
  36   2.0000      -0.687856       -18.7175
  37   2.0000      -0.658197       -17.9105
  38   2.0000      -0.638954       -17.3868
  39   2.0000      -0.616674       -16.7805
  40   2.0000      -0.599746       -16.3199
  41   2.0000      -0.569970       -15.5097
  42   2.0000      -0.563066       -15.3218
  43   2.0000      -0.555539       -15.1170
  44   2.0000      -0.533241       -14.5102
  45   2.0000      -0.526837       -14.3360
  46   2.0000      -0.511709       -13.9243
  47   2.0000      -0.506670       -13.7872
  48   2.0000      -0.504201       -13.7200
  49   2.0000      -0.497252       -13.5309
  50   2.0000      -0.489961       -13.3325
  51   2.0000      -0.476155       -12.9568
  52   2.0000      -0.472602       -12.8601
  53   2.0000      -0.464946       -12.6518
  54   2.0000      -0.457058       -12.4372
  55   2.0000      -0.451012       -12.2727
  56   2.0000      -0.444254       -12.0888
  57   2.0000      -0.439966       -11.9721
  58   2.0000      -0.438434       -11.9304
  59   2.0000      -0.422736       -11.5032
  60   2.0000      -0.420802       -11.4506
  61   2.0000      -0.419975       -11.4281
  62   2.0000      -0.414431       -11.2772
  63   2.0000      -0.341371        -9.2892
  64   2.0000      -0.327660        -8.9161
  65   2.0000      -0.324722        -8.8361
  66   2.0000      -0.298160        -8.1133
  67   0.0000       0.031490         0.8569
  68   0.0000       0.074264         2.0208
  69   0.0000       0.107408         2.9227
  70   0.0000       0.114239         3.1086
  71   0.0000       0.121541         3.3073

MULLIKEN ATOMIC CHARGES
-----------------------
   0 S :    0.103116
   1 C :   -0.131890
   2 C :   -0.108287
   3 C :    0.015215
   4 C :   -0.167050
   5 H :    0.018105
   6 C :    0.076283
   7 H :    0.055371
   8 H :    0.029937
   9 C :   -0.112927
  10 H :    0.025730
  11 H :    0.050790
  12 C :   -0.048245
  13 H :    0.031266
  14 H :    0.046957
  15 H :    0.019995
  16 S :    0.089968
  17 C :   -0.124570
  18 C :   -0.034188
  19 C :   -0.027561
  20 C :   -0.124360
  21 H :    0.048403
  22 C :    0.017712
  23 H :    0.031584
  24 H :    0.017914
  25 C :   -0.034706
  26 H :    0.023270
  27 H :    0.013572
  28 C :   -0.001286
  29 H :    0.015925
  30 H :    0.031271
  31 H :    0.009217
  32 H :    0.056406
  33 H :    0.087064
Sum of atomic charges:   -0.0000000

LOEWDIN ATOMIC CHARGES
----------------------
   0 S :    0.399313
   1 C :   -0.204903
   2 C :   -0.063565
   3 C :   -0.064489
   4 C :   -0.196777
   5 H :    0.031455
   6 C :   -0.032048
   7 H :    0.045672
   8 H :    0.033047
   9 C :   -0.042549
  10 H :    0.017940
  11 H :    0.033179
  12 C :   -0.066370
  13 H :    0.031325
  14 H :    0.028636
  15 H :    0.013193
  16 S :    0.381294
  17 C :   -0.172039
  18 C :   -0.076122
  19 C :   -0.049268
  20 C :   -0.203731
  21 H :    0.041149
  22 C :   -0.030224
  23 H :    0.033173
  24 H :    0.024700
  25 C :   -0.032951
  26 H :    0.024369
  27 H :    0.014198
  28 C :   -0.058968
  29 H :    0.027696
  30 H :    0.026557
  31 H :    0.018083
  32 H :    0.029344
  33 H :    0.039682

  Mayer bond orders larger than 0.100000
B(  0-S ,  1-C ) :   1.1408 B(  0-S ,  4-C ) :   1.1494 B(  1-C ,  2-C ) :   1.6131
B(  1-C , 32-H ) :   0.9678 B(  2-C ,  3-C ) :   1.2160 B(  2-C ,  6-C ) :   1.0149
B(  3-C ,  4-C ) :   1.6007 B(  3-C ,  5-H ) :   0.9881 B(  4-C , 20-C ) :   1.0171
B(  6-C ,  7-H ) :   0.9322 B(  6-C ,  8-H ) :   0.9462 B(  6-C ,  9-C ) :   1.0594
B(  9-C , 10-H ) :   0.9541 B(  9-C , 11-H ) :   0.9623 B(  9-C , 12-C ) :   1.0681
B( 12-C , 13-H ) :   0.9744 B( 12-C , 14-H ) :   0.9783 B( 12-C , 15-H ) :   0.9796
B( 16-S , 17-C ) :   1.1465 B( 16-S , 20-C ) :   1.1269 B( 17-C , 18-C ) :   1.6219
B( 17-C , 33-H ) :   0.9628 B( 18-C , 19-C ) :   1.2037 B( 18-C , 21-H ) :   0.9803
B( 19-C , 20-C ) :   1.6401 B( 19-C , 22-C ) :   1.0265 B( 22-C , 23-H ) :   0.9405
B( 22-C , 24-H ) :   0.9420 B( 22-C , 25-C ) :   1.0594 B( 25-C , 26-H ) :   0.9500
B( 25-C , 27-H ) :   0.9516 B( 25-C , 28-C ) :   1.0946 B( 28-C , 29-H ) :   0.9685
B( 28-C , 30-H ) :   0.9709 B( 28-C , 31-H ) :   0.9684

Dispersion correction           -0.014015441
FINAL SINGLE POINT ENERGY     -1339.873224074926

DIPOLE MOMENT
-------------
                                X             Y             Z
Electronic contribution:     -0.33938      30.04490     -11.81293
Nuclear contribution   :      0.21070     -30.82596      11.90815
                        -----------------------------------------
Total Dipole Moment    :     -0.12868      -0.78106       0.09522
                        -----------------------------------------
Magnitude (a.u.)       :      0.79730
Magnitude (Debye)      :      2.02657

Rotational constants in cm-1:     0.016039     0.009111     0.006609
Rotational constants in MHz :   480.830220   273.152881   198.129491

                             ****ORCA TERMINATED NORMALLY****
TOTAL RUN TIME: 0 days 0 hours 0 minutes 34 seconds 504 msec
