                         Program Version 4.2.1 -  RELEASE  -
|  1> ! wB97X-D3 SP def2-SVP
|  2> %pal
|  3> nprocs 16
|  4> end
|  5>
|  6> * xyz 0 1
|  7> S 	 -104.485 	 43.7197 	 126.778
|  8> C 	 -103.316 	 42.4155 	 127.215
|  9> C 	 -102.07 	 42.9196 	 127.396
| 10> C 	 -101.967 	 44.2743 	 127.151
| 11> C 	 -103.133 	 44.9062 	 126.802
| 12> H 	 -101.044 	 44.8362 	 127.198
| 13> C 	 -100.855 	 42.1243 	 127.911
| 14> H 	 -100.279 	 42.8427 	 128.505
| 15> H 	 -100.119 	 41.7752 	 127.134
| 16> C 	 -101.122 	 40.9527 	 128.875
| 17> H 	 -101.781 	 40.218 	 128.41
| 18> H 	 -100.172 	 40.4644 	 129.071
| 19> C 	 -101.792 	 41.4266 	 130.18
| 20> H 	 -101.087 	 42.1288 	 130.6
| 21> H 	 -102.785 	 41.8383 	 130.149
| 22> H 	 -101.769 	 40.5854 	 130.864
| 23> S 	 -103.743 	 47.536 	 127.428
| 24> C 	 -103.467 	 48.6755 	 126.183
| 25> C 	 -102.838 	 48.2177 	 125.072
| 26> C 	 -102.566 	 46.8438 	 125.146
| 27> C 	 -103.178 	 46.27 	 126.293
| 28> H 	 -102.609 	 48.9081 	 124.261
| 29> C 	 -101.694 	 46.1649 	 124.08
| 30> H 	 -101.008 	 45.5084 	 124.612
| 31> H 	 -101.228 	 46.9628 	 123.527
| 32> C 	 -102.589 	 45.4717 	 123.135
| 33> H 	 -103.423 	 46.0802 	 122.681
| 34> H 	 -103.018 	 44.6158 	 123.698
| 35> C 	 -101.812 	 44.7382 	 122.025
| 36> H 	 -101.092 	 43.973 	 122.414
| 37> H 	 -101.401 	 45.3612 	 121.226
| 38> H 	 -102.415 	 44.0497 	 121.517
| 39> H 	 -103.603 	 41.5334 	 127.706
| 40> H 	 -103.793 	 49.6811 	 126.224
| 41> *
| 42>
| 43>                          ****END OF INPUT****

CARTESIAN COORDINATES (ANGSTROEM)
---------------------------------
  S    -104.485000   43.719700  126.778000
  C    -103.316000   42.415500  127.215000
  C    -102.070000   42.919600  127.396000
  C    -101.967000   44.274300  127.151000
  C    -103.133000   44.906200  126.802000
  H    -101.044000   44.836200  127.198000
  C    -100.855000   42.124300  127.911000
  H    -100.279000   42.842700  128.505000
  H    -100.119000   41.775200  127.134000
  C    -101.122000   40.952700  128.875000
  H    -101.781000   40.218000  128.410000
  H    -100.172000   40.464400  129.071000
  C    -101.792000   41.426600  130.180000
  H    -101.087000   42.128800  130.600000
  H    -102.785000   41.838300  130.149000
  H    -101.769000   40.585400  130.864000
  S    -103.743000   47.536000  127.428000
  C    -103.467000   48.675500  126.183000
  C    -102.838000   48.217700  125.072000
  C    -102.566000   46.843800  125.146000
  C    -103.178000   46.270000  126.293000
  H    -102.609000   48.908100  124.261000
  C    -101.694000   46.164900  124.080000
  H    -101.008000   45.508400  124.612000
  H    -101.228000   46.962800  123.527000
  C    -102.589000   45.471700  123.135000
  H    -103.423000   46.080200  122.681000
  H    -103.018000   44.615800  123.698000
  C    -101.812000   44.738200  122.025000
  H    -101.092000   43.973000  122.414000
  H    -101.401000   45.361200  121.226000
  H    -102.415000   44.049700  121.517000
  H    -103.603000   41.533400  127.706000
  H    -103.793000   49.681100  126.224000

 Total Charge           Charge          ....    0
 Multiplicity           Mult            ....    1
 Number of Electrons    NEL             ....  134
 Basis Dimension        Dim             ....  322

ORBITAL ENERGIES
----------------

  NO   OCC          E(Eh)            E(eV)
   0   2.0000     -88.966017     -2420.8884
   1   2.0000     -88.965998     -2420.8879
   2   2.0000     -10.329217      -281.0723
   3   2.0000     -10.325765      -280.9783
   4   2.0000     -10.310513      -280.5633
   5   2.0000     -10.307688      -280.4864
   6   2.0000     -10.305268      -280.4206
   7   2.0000     -10.297338      -280.2048
   8   2.0000     -10.296835      -280.1911
   9   2.0000     -10.289201      -279.9834
  10   2.0000     -10.288628      -279.9678
  11   2.0000     -10.288078      -279.9528
  12   2.0000     -10.286661      -279.9143
  13   2.0000     -10.285083      -279.8713
  14   2.0000     -10.274292      -279.5777
  15   2.0000     -10.270857      -279.4842
  16   2.0000      -8.080967      -219.8943
  17   2.0000      -8.079056      -219.8423
  18   2.0000      -6.039264      -164.3367
  19   2.0000      -6.037762      -164.2959
  20   2.0000      -6.035664      -164.2388
  21   2.0000      -6.033821      -164.1886
  22   2.0000      -6.031726      -164.1316
  23   2.0000      -6.029672      -164.0757
  24   2.0000      -1.003926       -27.3182
  25   2.0000      -0.984886       -26.8001
  26   2.0000      -0.916615       -24.9424
  27   2.0000      -0.909856       -24.7584
  28   2.0000      -0.867349       -23.6018
  29   2.0000      -0.851013       -23.1572
  30   2.0000      -0.847365       -23.0580
  31   2.0000      -0.810393       -22.0519
  32   2.0000      -0.786051       -21.3895
  33   2.0000      -0.775067       -21.0906
  34   2.0000      -0.711429       -19.3590
  35   2.0000      -0.700621       -19.0649
  36   2.0000      -0.686456       -18.6794
  37   2.0000      -0.658181       -17.9100
  38   2.0000      -0.638242       -17.3674
  39   2.0000      -0.613648       -16.6982
  40   2.0000      -0.596469       -16.2307
  41   2.0000      -0.579175       -15.7602
  42   2.0000      -0.573562       -15.6074
  43   2.0000      -0.550953       -14.9922
  44   2.0000      -0.537909       -14.6372
  45   2.0000      -0.521499       -14.1907
  46   2.0000      -0.514774       -14.0077
  47   2.0000      -0.508845       -13.8464
  48   2.0000      -0.504863       -13.7380
  49   2.0000      -0.493348       -13.4247
  50   2.0000      -0.492248       -13.3948
  51   2.0000      -0.482570       -13.1314
  52   2.0000      -0.474558       -12.9134
  53   2.0000      -0.469425       -12.7737
  54   2.0000      -0.456947       -12.4342
  55   2.0000      -0.446963       -12.1625
  56   2.0000      -0.441005       -12.0004
  57   2.0000      -0.431651       -11.7458
  58   2.0000      -0.429013       -11.6740
  59   2.0000      -0.427105       -11.6221
  60   2.0000      -0.418988       -11.4013
  61   2.0000      -0.418129       -11.3779
  62   2.0000      -0.410931       -11.1820
  63   2.0000      -0.338111        -9.2005
  64   2.0000      -0.333019        -9.0619
  65   2.0000      -0.321297        -8.7429
  66   2.0000      -0.305129        -8.3030
  67   0.0000       0.031519         0.8577
  68   0.0000       0.056063         1.5255
  69   0.0000       0.108879         2.9628
  70   0.0000       0.113519         3.0890
  71   0.0000       0.127290         3.4637

MULLIKEN ATOMIC CHARGES
-----------------------
   0 S :    0.090294
   1 C :   -0.103701
   2 C :   -0.070372
   3 C :    0.034320
   4 C :   -0.155830
   5 H :    0.014000
   6 C :    0.045555
   7 H :    0.015982
   8 H :    0.051652
   9 C :   -0.091986
  10 H :    0.030108
  11 H :    0.029472
  12 C :   -0.041498
  13 H :    0.019550
  14 H :    0.048660
  15 H :    0.027444
  16 S :    0.116545
  17 C :   -0.058466
  18 C :   -0.052402
  19 C :   -0.037878
  20 C :   -0.204862
  21 H :    0.020078
  22 C :    0.164997
  23 H :    0.026567
  24 H :    0.009050
  25 C :   -0.125679
  26 H :    0.047360
  27 H :    0.037701
  28 C :   -0.025864
  29 H :    0.025547
  30 H :    0.032160
  31 H :    0.007427
  32 H :    0.039115
  33 H :    0.034955
Sum of atomic charges:    0.0000000

LOEWDIN ATOMIC CHARGES
----------------------
   0 S :    0.363754
   1 C :   -0.174133
   2 C :   -0.065722
   3 C :   -0.059134
   4 C :   -0.184003
   5 H :    0.032905
   6 C :   -0.034049
   7 H :    0.026796
   8 H :    0.038562
   9 C :   -0.041695
  10 H :    0.018442
  11 H :    0.027989
  12 C :   -0.063298
  13 H :    0.023515
  14 H :    0.025259
  15 H :    0.026158
  16 S :    0.409854
  17 C :   -0.182891
  18 C :   -0.081088
  19 C :   -0.033482
  20 C :   -0.202662
  21 H :    0.035416
  22 C :   -0.021507
  23 H :    0.033459
  24 H :    0.027806
  25 C :   -0.045551
  26 H :    0.033993
  27 H :    0.031802
  28 C :   -0.075733
  29 H :    0.032048
  30 H :    0.021809
  31 H :    0.018136
  32 H :    0.017528
  33 H :    0.019718

  Mayer bond orders larger than 0.100000
B(  0-S ,  1-C ) :   1.1205 B(  0-S ,  4-C ) :   1.1282 B(  1-C ,  2-C ) :   1.6388
B(  1-C ,  4-C ) :   0.1018 B(  1-C , 32-H ) :   0.9572 B(  2-C ,  3-C ) :   1.2531
B(  2-C ,  6-C ) :   0.9876 B(  3-C ,  4-C ) :   1.5864 B(  3-C ,  5-H ) :   0.9955
B(  4-C , 20-C ) :   1.0284 B(  6-C ,  7-H ) :   0.9488 B(  6-C ,  8-H ) :   0.9381
B(  6-C ,  9-C ) :   1.0834 B(  9-C , 10-H ) :   0.9526 B(  9-C , 11-H ) :   0.9516
B(  9-C , 12-C ) :   1.0770 B( 12-C , 13-H ) :   0.9739 B( 12-C , 14-H ) :   0.9761
B( 12-C , 15-H ) :   0.9736 B( 16-S , 17-C ) :   1.1686 B( 16-S , 20-C ) :   1.1427
B( 17-C , 18-C ) :   1.6242 B( 17-C , 20-C ) :   0.1015 B( 17-C , 33-H ) :   0.9623
B( 18-C , 19-C ) :   1.2532 B( 18-C , 21-H ) :   0.9870 B( 19-C , 20-C ) :   1.5773
B( 19-C , 22-C ) :   1.0278 B( 22-C , 23-H ) :   0.9233 B( 22-C , 24-H ) :   0.9269
B( 22-C , 25-C ) :   1.0822 B( 25-C , 26-H ) :   0.9550 B( 25-C , 27-H ) :   0.9511
B( 25-C , 28-C ) :   1.0912 B( 28-C , 29-H ) :   0.9678 B( 28-C , 30-H ) :   0.9736
B( 28-C , 31-H ) :   0.9688

Dispersion correction           -0.014769489
FINAL SINGLE POINT ENERGY     -1339.863705048540

DIPOLE MOMENT
-------------
                                X             Y             Z
Electronic contribution:    -15.10963      15.17324       5.94726
Nuclear contribution   :     15.71968     -15.25211      -6.04883
                        -----------------------------------------
Total Dipole Moment    :      0.61005      -0.07886      -0.10157
                        -----------------------------------------
Magnitude (a.u.)       :      0.62345
Magnitude (Debye)      :      1.58469

Rotational constants in cm-1:     0.019364     0.008464     0.006937
Rotational constants in MHz :   580.521639   253.734221   207.960258

                             ****ORCA TERMINATED NORMALLY****
TOTAL RUN TIME: 0 days 0 hours 0 minutes 34 seconds 368 msec
