                         Program Version 4.2.1 -  RELEASE  -
|  1> ! wB97X-D3 SP def2-SVP
|  2> %pal
|  3> nprocs 16
|  4> end
|  5>
|  6> * xyz 0 1
|  7> S 	 -1.02914 	 -14.2589 	 71.2357
|  8> C 	 -1.67643 	 -15.6716 	 72.0736
|  9> C 	 -2.92566 	 -15.3518 	 72.6452
| 10> C 	 -3.27681 	 -14.0029 	 72.46
| 11> C 	 -2.41166 	 -13.2593 	 71.7509
| 12> H 	 -4.13754 	 -13.5718 	 72.8753
| 13> C 	 -3.89603 	 -16.3091 	 73.3139
| 14> H 	 -4.28475 	 -15.8427 	 74.2247
| 15> H 	 -3.23489 	 -17.1824 	 73.5145
| 16> C 	 -5.04401 	 -16.6688 	 72.4029
| 17> H 	 -5.54879 	 -15.7383 	 72.2937
| 18> H 	 -4.74183 	 -17.0365 	 71.3968
| 19> C 	 -5.93906 	 -17.6672 	 73.0292
| 20> H 	 -5.34343 	 -18.5154 	 73.3458
| 21> H 	 -6.54002 	 -17.3386 	 73.8477
| 22> H 	 -6.67393 	 -18.044 	 72.3328
| 23> S 	 -1.36142 	 -10.9493 	 72.6677
| 24> C 	 -1.92858 	 -9.39732 	 72.1856
| 25> C 	 -2.86157 	 -9.5874 	 71.1625
| 26> C 	 -3.14704 	 -10.916 	 70.7927
| 27> C 	 -2.43882 	 -11.7749 	 71.62
| 28> H 	 -3.39721 	 -8.77512 	 70.7614
| 29> C 	 -4.08998 	 -11.2564 	 69.658
| 30> H 	 -4.64286 	 -10.316 	 69.4886
| 31> H 	 -4.82746 	 -11.9831 	 69.9644
| 32> C 	 -3.33863 	 -11.7818 	 68.3978
| 33> H 	 -2.77567 	 -12.6636 	 68.6857
| 34> H 	 -2.55015 	 -11.0547 	 68.1089
| 35> C 	 -4.17112 	 -12.1265 	 67.1254
| 36> H 	 -4.81662 	 -11.338 	 66.8322
| 37> H 	 -4.78914 	 -13.056 	 67.3519
| 38> H 	 -3.47662 	 -12.3739 	 66.2278
| 39> H 	 -1.36526 	 -16.7191 	 71.9598
| 40> H 	 -1.69976 	 -8.47562 	 72.6704
| 41> *
| 42>
| 43>                          ****END OF INPUT****

CARTESIAN COORDINATES (ANGSTROEM)
---------------------------------
  S     -1.029140  -14.258900   71.235700
  C     -1.676430  -15.671600   72.073600
  C     -2.925660  -15.351800   72.645200
  C     -3.276810  -14.002900   72.460000
  C     -2.411660  -13.259300   71.750900
  H     -4.137540  -13.571800   72.875300
  C     -3.896030  -16.309100   73.313900
  H     -4.284750  -15.842700   74.224700
  H     -3.234890  -17.182400   73.514500
  C     -5.044010  -16.668800   72.402900
  H     -5.548790  -15.738300   72.293700
  H     -4.741830  -17.036500   71.396800
  C     -5.939060  -17.667200   73.029200
  H     -5.343430  -18.515400   73.345800
  H     -6.540020  -17.338600   73.847700
  H     -6.673930  -18.044000   72.332800
  S     -1.361420  -10.949300   72.667700
  C     -1.928580   -9.397320   72.185600
  C     -2.861570   -9.587400   71.162500
  C     -3.147040  -10.916000   70.792700
  C     -2.438820  -11.774900   71.620000
  H     -3.397210   -8.775120   70.761400
  C     -4.089980  -11.256400   69.658000
  H     -4.642860  -10.316000   69.488600
  H     -4.827460  -11.983100   69.964400
  C     -3.338630  -11.781800   68.397800
  H     -2.775670  -12.663600   68.685700
  H     -2.550150  -11.054700   68.108900
  C     -4.171120  -12.126500   67.125400
  H     -4.816620  -11.338000   66.832200
  H     -4.789140  -13.056000   67.351900
  H     -3.476620  -12.373900   66.227800
  H     -1.365260  -16.719100   71.959800
  H     -1.699760   -8.475620   72.670400

 Total Charge           Charge          ....    0
 Multiplicity           Mult            ....    1
 Number of Electrons    NEL             ....  134
 Basis Dimension        Dim             ....  322

ORBITAL ENERGIES
----------------

  NO   OCC          E(Eh)            E(eV)
   0   2.0000     -88.966939     -2420.9135
   1   2.0000     -88.964772     -2420.8545
   2   2.0000     -10.328675      -281.0575
   3   2.0000     -10.324490      -280.9437
   4   2.0000     -10.318810      -280.7891
   5   2.0000     -10.314156      -280.6625
   6   2.0000     -10.300699      -280.2963
   7   2.0000     -10.298347      -280.2323
   8   2.0000     -10.295057      -280.1427
   9   2.0000     -10.292738      -280.0796
  10   2.0000     -10.288019      -279.9512
  11   2.0000     -10.287440      -279.9355
  12   2.0000     -10.286967      -279.9226
  13   2.0000     -10.283376      -279.8249
  14   2.0000     -10.281982      -279.7870
  15   2.0000     -10.270097      -279.4636
  16   2.0000      -8.080597      -219.8842
  17   2.0000      -8.080540      -219.8827
  18   2.0000      -6.039226      -164.3357
  19   2.0000      -6.038845      -164.3253
  20   2.0000      -6.035206      -164.2263
  21   2.0000      -6.034680      -164.2120
  22   2.0000      -6.031677      -164.1303
  23   2.0000      -6.031324      -164.1207
  24   2.0000      -1.009878       -27.4802
  25   2.0000      -0.986463       -26.8430
  26   2.0000      -0.920919       -25.0595
  27   2.0000      -0.903646       -24.5895
  28   2.0000      -0.867650       -23.6100
  29   2.0000      -0.851743       -23.1771
  30   2.0000      -0.848574       -23.0909
  31   2.0000      -0.815660       -22.1952
  32   2.0000      -0.780820       -21.2472
  33   2.0000      -0.770341       -20.9620
  34   2.0000      -0.704346       -19.1662
  35   2.0000      -0.696976       -18.9657
  36   2.0000      -0.691142       -18.8069
  37   2.0000      -0.667383       -18.1604
  38   2.0000      -0.641341       -17.4518
  39   2.0000      -0.624323       -16.9887
  40   2.0000      -0.597362       -16.2551
  41   2.0000      -0.580526       -15.7969
  42   2.0000      -0.562858       -15.3162
  43   2.0000      -0.556185       -15.1346
  44   2.0000      -0.528365       -14.3775
  45   2.0000      -0.519454       -14.1351
  46   2.0000      -0.517927       -14.0935
  47   2.0000      -0.513444       -13.9715
  48   2.0000      -0.506165       -13.7735
  49   2.0000      -0.500709       -13.6250
  50   2.0000      -0.495259       -13.4767
  51   2.0000      -0.482187       -13.1210
  52   2.0000      -0.468727       -12.7547
  53   2.0000      -0.462398       -12.5825
  54   2.0000      -0.458300       -12.4710
  55   2.0000      -0.447492       -12.1769
  56   2.0000      -0.444534       -12.0964
  57   2.0000      -0.434605       -11.8262
  58   2.0000      -0.432316       -11.7639
  59   2.0000      -0.423510       -11.5243
  60   2.0000      -0.422072       -11.4852
  61   2.0000      -0.419008       -11.4018
  62   2.0000      -0.414867       -11.2891
  63   2.0000      -0.342398        -9.3171
  64   2.0000      -0.330649        -8.9974
  65   2.0000      -0.322374        -8.7722
  66   2.0000      -0.304868        -8.2959
  67   0.0000       0.044898         1.2217
  68   0.0000       0.051860         1.4112
  69   0.0000       0.119145         3.2421
  70   0.0000       0.130280         3.5451
  71   0.0000       0.131911         3.5895

MULLIKEN ATOMIC CHARGES
-----------------------
   0 S :    0.106133
   1 C :   -0.122293
   2 C :   -0.111826
   3 C :    0.068350
   4 C :   -0.153103
   5 H :   -0.009592
   6 C :    0.057109
   7 H :    0.033480
   8 H :    0.019781
   9 C :   -0.060000
  10 H :    0.012792
  11 H :    0.034505
  12 C :   -0.007660
  13 H :    0.020975
  14 H :    0.021366
  15 H :    0.024617
  16 S :    0.130344
  17 C :   -0.085802
  18 C :   -0.036981
  19 C :   -0.024339
  20 C :   -0.204624
  21 H :   -0.003829
  22 C :    0.121540
  23 H :    0.014269
  24 H :    0.023274
  25 C :   -0.095997
  26 H :    0.029933
  27 H :    0.032123
  28 C :   -0.067508
  29 H :    0.029881
  30 H :    0.041015
  31 H :    0.051923
  32 H :    0.057564
  33 H :    0.052579
Sum of atomic charges:   -0.0000000

LOEWDIN ATOMIC CHARGES
----------------------
   0 S :    0.386478
   1 C :   -0.203333
   2 C :   -0.061545
   3 C :   -0.058701
   4 C :   -0.187005
   5 H :    0.024616
   6 C :   -0.028946
   7 H :    0.033736
   8 H :    0.029617
   9 C :   -0.040807
  10 H :    0.019325
  11 H :    0.031119
  12 C :   -0.063451
  13 H :    0.024532
  14 H :    0.021671
  15 H :    0.026360
  16 S :    0.447403
  17 C :   -0.197368
  18 C :   -0.067635
  19 C :   -0.058487
  20 C :   -0.210194
  21 H :    0.019943
  22 C :   -0.026606
  23 H :    0.030482
  24 H :    0.029501
  25 C :   -0.044534
  26 H :    0.022825
  27 H :    0.026564
  28 C :   -0.073369
  29 H :    0.015603
  30 H :    0.030944
  31 H :    0.039738
  32 H :    0.034266
  33 H :    0.027259

  Mayer bond orders larger than 0.100000
B(  0-S ,  1-C ) :   1.1354 B(  0-S ,  4-C ) :   1.1376 B(  1-C ,  2-C ) :   1.6115
B(  1-C , 32-H ) :   0.9599 B(  2-C ,  3-C ) :   1.2420 B(  2-C ,  6-C ) :   1.0290
B(  3-C ,  4-C ) :   1.6082 B(  3-C ,  5-H ) :   0.9987 B(  4-C , 20-C ) :   0.9777
B(  6-C ,  7-H ) :   0.9379 B(  6-C ,  8-H ) :   0.9364 B(  6-C ,  9-C ) :   1.0709
B(  9-C , 10-H ) :   0.9486 B(  9-C , 11-H ) :   0.9525 B(  9-C , 12-C ) :   1.1014
B( 12-C , 13-H ) :   0.9704 B( 12-C , 14-H ) :   0.9698 B( 12-C , 15-H ) :   0.9700
B( 16-S , 17-C ) :   1.1727 B( 16-S , 20-C ) :   1.1953 B( 17-C , 18-C ) :   1.5574
B( 17-C , 20-C ) :   0.1071 B( 17-C , 33-H ) :   0.9760 B( 18-C , 19-C ) :   1.2938
B( 18-C , 21-H ) :   0.9897 B( 19-C , 20-C ) :   1.5567 B( 19-C , 22-C ) :   1.0439
B( 22-C , 23-H ) :   0.9279 B( 22-C , 24-H ) :   0.9284 B( 22-C , 25-C ) :   1.0550
B( 25-C , 26-H ) :   0.9566 B( 25-C , 27-H ) :   0.9566 B( 25-C , 28-C ) :   1.0792
B( 28-C , 29-H ) :   0.9770 B( 28-C , 30-H ) :   0.9747 B( 28-C , 31-H ) :   0.9741

Dispersion correction           -0.013920576
FINAL SINGLE POINT ENERGY     -1339.885834757691

DIPOLE MOMENT
-------------
                                X             Y             Z
Electronic contribution:     21.20194      12.53940       9.69818
Nuclear contribution   :    -21.87299     -12.63353      -9.72676
                        -----------------------------------------
Total Dipole Moment    :     -0.67105      -0.09413      -0.02858
                        -----------------------------------------
Magnitude (a.u.)       :      0.67822
Magnitude (Debye)      :      1.72390

Rotational constants in cm-1:     0.017506     0.008293     0.006985
Rotational constants in MHz :   524.814146   248.619325   209.403188

                             ****ORCA TERMINATED NORMALLY****
TOTAL RUN TIME: 0 days 0 hours 0 minutes 32 seconds 175 msec
