                         Program Version 4.2.1 -  RELEASE  -
|  1> ! wB97X-D3 SP def2-SVP
|  2> %pal
|  3> nprocs 16
|  4> end
|  5>
|  6> * xyz 0 1
|  7> S 	 28.4088 	 32.1659 	 58.0853
|  8> C 	 27.1364 	 30.8915 	 58.174
|  9> C 	 25.92 	 31.3198 	 58.6588
| 10> C 	 25.9966 	 32.7294 	 58.9962
| 11> C 	 27.1663 	 33.3204 	 58.573
| 12> H 	 25.2277 	 33.4073 	 59.4212
| 13> C 	 24.6326 	 30.4922 	 58.7729
| 14> H 	 24.9977 	 29.5484 	 59.2522
| 15> H 	 24.2482 	 30.1967 	 57.8419
| 16> C 	 23.5333 	 30.9089 	 59.7181
| 17> H 	 23.9783 	 31.1311 	 60.7165
| 18> H 	 23.1495 	 31.9213 	 59.5581
| 19> C 	 22.4067 	 29.9127 	 59.9994
| 20> H 	 21.6619 	 29.8132 	 59.2169
| 21> H 	 22.8345 	 28.8924 	 60.1304
| 22> H 	 21.9595 	 30.3557 	 60.9069
| 23> S 	 28.7475 	 35.3068 	 59.6202
| 24> C 	 28.5505 	 36.883 	 59.0221
| 25> C 	 27.6805 	 36.9317 	 57.9498
| 26> C 	 27.0194 	 35.6663 	 57.6685
| 27> C 	 27.4977 	 34.735 	 58.5498
| 28> H 	 27.501 	 37.9204 	 57.5316
| 29> C 	 25.9326 	 35.5466 	 56.6022
| 30> H 	 25.425 	 34.5955 	 56.8094
| 31> H 	 26.3868 	 35.2481 	 55.6195
| 32> C 	 25.0331 	 36.7609 	 56.3401
| 33> H 	 24.4436 	 36.6191 	 55.414
| 34> H 	 25.6359 	 37.6257 	 56.1699
| 35> C 	 24.1694 	 37.1361 	 57.5661
| 36> H 	 23.3711 	 36.3926 	 57.7036
| 37> H 	 23.6689 	 38.1326 	 57.5738
| 38> H 	 24.7893 	 37.1196 	 58.4228
| 39> H 	 27.3006 	 29.853 	 57.8943
| 40> H 	 28.9354 	 37.7751 	 59.5044
| 41> *
| 42>
| 43>                          ****END OF INPUT****

CARTESIAN COORDINATES (ANGSTROEM)
---------------------------------
  S     28.408800   32.165900   58.085300
  C     27.136400   30.891500   58.174000
  C     25.920000   31.319800   58.658800
  C     25.996600   32.729400   58.996200
  C     27.166300   33.320400   58.573000
  H     25.227700   33.407300   59.421200
  C     24.632600   30.492200   58.772900
  H     24.997700   29.548400   59.252200
  H     24.248200   30.196700   57.841900
  C     23.533300   30.908900   59.718100
  H     23.978300   31.131100   60.716500
  H     23.149500   31.921300   59.558100
  C     22.406700   29.912700   59.999400
  H     21.661900   29.813200   59.216900
  H     22.834500   28.892400   60.130400
  H     21.959500   30.355700   60.906900
  S     28.747500   35.306800   59.620200
  C     28.550500   36.883000   59.022100
  C     27.680500   36.931700   57.949800
  C     27.019400   35.666300   57.668500
  C     27.497700   34.735000   58.549800
  H     27.501000   37.920400   57.531600
  C     25.932600   35.546600   56.602200
  H     25.425000   34.595500   56.809400
  H     26.386800   35.248100   55.619500
  C     25.033100   36.760900   56.340100
  H     24.443600   36.619100   55.414000
  H     25.635900   37.625700   56.169900
  C     24.169400   37.136100   57.566100
  H     23.371100   36.392600   57.703600
  H     23.668900   38.132600   57.573800
  H     24.789300   37.119600   58.422800
  H     27.300600   29.853000   57.894300
  H     28.935400   37.775100   59.504400

 Total Charge           Charge          ....    0
 Multiplicity           Mult            ....    1
 Number of Electrons    NEL             ....  134
 Basis Dimension        Dim             ....  322

ORBITAL ENERGIES
----------------

  NO   OCC          E(Eh)            E(eV)
   0   2.0000     -88.965733     -2420.8807
   1   2.0000     -88.965411     -2420.8719
   2   2.0000     -10.325097      -280.9602
   3   2.0000     -10.320288      -280.8293
   4   2.0000     -10.314567      -280.6736
   5   2.0000     -10.311866      -280.6002
   6   2.0000     -10.307193      -280.4730
   7   2.0000     -10.307111      -280.4707
   8   2.0000     -10.297069      -280.1975
   9   2.0000     -10.296779      -280.1896
  10   2.0000     -10.293678      -280.1052
  11   2.0000     -10.293008      -280.0870
  12   2.0000     -10.289971      -280.0043
  13   2.0000     -10.288814      -279.9729
  14   2.0000     -10.285727      -279.8889
  15   2.0000     -10.274896      -279.5941
  16   2.0000      -8.081435      -219.9070
  17   2.0000      -8.079558      -219.8560
  18   2.0000      -6.039846      -164.3526
  19   2.0000      -6.038135      -164.3060
  20   2.0000      -6.035794      -164.2423
  21   2.0000      -6.034457      -164.2059
  22   2.0000      -6.032198      -164.1444
  23   2.0000      -6.030038      -164.0857
  24   2.0000      -1.008555       -27.4442
  25   2.0000      -0.979677       -26.6584
  26   2.0000      -0.913074       -24.8460
  27   2.0000      -0.909035       -24.7361
  28   2.0000      -0.870031       -23.6747
  29   2.0000      -0.849757       -23.1231
  30   2.0000      -0.841334       -22.8939
  31   2.0000      -0.812731       -22.1155
  32   2.0000      -0.786945       -21.4139
  33   2.0000      -0.775226       -21.0950
  34   2.0000      -0.710104       -19.3229
  35   2.0000      -0.701394       -19.0859
  36   2.0000      -0.687773       -18.7153
  37   2.0000      -0.652810       -17.7639
  38   2.0000      -0.642159       -17.4740
  39   2.0000      -0.614447       -16.7199
  40   2.0000      -0.600891       -16.3511
  41   2.0000      -0.566778       -15.4228
  42   2.0000      -0.562814       -15.3149
  43   2.0000      -0.547266       -14.8919
  44   2.0000      -0.537847       -14.6356
  45   2.0000      -0.530152       -14.4262
  46   2.0000      -0.519249       -14.1295
  47   2.0000      -0.507323       -13.8050
  48   2.0000      -0.500088       -13.6081
  49   2.0000      -0.491344       -13.3701
  50   2.0000      -0.489168       -13.3109
  51   2.0000      -0.482661       -13.1339
  52   2.0000      -0.470352       -12.7989
  53   2.0000      -0.459759       -12.5107
  54   2.0000      -0.455409       -12.3923
  55   2.0000      -0.450538       -12.2598
  56   2.0000      -0.447142       -12.1674
  57   2.0000      -0.439636       -11.9631
  58   2.0000      -0.434588       -11.8257
  59   2.0000      -0.427409       -11.6304
  60   2.0000      -0.427249       -11.6260
  61   2.0000      -0.415952       -11.3186
  62   2.0000      -0.408547       -11.1171
  63   2.0000      -0.334298        -9.0967
  64   2.0000      -0.331936        -9.0324
  65   2.0000      -0.328274        -8.9328
  66   2.0000      -0.298446        -8.1211
  67   0.0000       0.043558         1.1853
  68   0.0000       0.057956         1.5771
  69   0.0000       0.108032         2.9397
  70   0.0000       0.125007         3.4016
  71   0.0000       0.131781         3.5859

MULLIKEN ATOMIC CHARGES
-----------------------
   0 S :    0.108469
   1 C :   -0.129676
   2 C :   -0.069014
   3 C :    0.024587
   4 C :   -0.179210
   5 H :    0.028478
   6 C :    0.097829
   7 H :    0.025153
   8 H :    0.031504
   9 C :   -0.121795
  10 H :    0.021921
  11 H :    0.021277
  12 C :   -0.034806
  13 H :    0.035794
  14 H :    0.034162
  15 H :    0.044613
  16 S :    0.128801
  17 C :   -0.096396
  18 C :   -0.056735
  19 C :   -0.014833
  20 C :   -0.207443
  21 H :    0.019009
  22 C :    0.083705
  23 H :    0.019501
  24 H :    0.042456
  25 C :   -0.052435
  26 H :    0.037389
  27 H :    0.024270
  28 C :   -0.057838
  29 H :    0.026729
  30 H :    0.038130
  31 H :    0.028034
  32 H :    0.039880
  33 H :    0.058489
Sum of atomic charges:   -0.0000000

LOEWDIN ATOMIC CHARGES
----------------------
   0 S :    0.373650
   1 C :   -0.183325
   2 C :   -0.056407
   3 C :   -0.068213
   4 C :   -0.184884
   5 H :    0.038868
   6 C :   -0.033076
   7 H :    0.040420
   8 H :    0.024884
   9 C :   -0.055764
  10 H :    0.028227
  11 H :    0.019189
  12 C :   -0.060741
  13 H :    0.021230
  14 H :    0.028831
  15 H :    0.036820
  16 S :    0.428021
  17 C :   -0.202060
  18 C :   -0.075971
  19 C :   -0.047424
  20 C :   -0.213930
  21 H :    0.029257
  22 C :   -0.036938
  23 H :    0.032533
  24 H :    0.044197
  25 C :   -0.038642
  26 H :    0.030843
  27 H :    0.019717
  28 C :   -0.068426
  29 H :    0.023922
  30 H :    0.029546
  31 H :    0.019475
  32 H :    0.025178
  33 H :    0.030992

  Mayer bond orders larger than 0.100000
B(  0-S ,  1-C ) :   1.1121 B(  0-S ,  4-C ) :   1.1349 B(  1-C ,  2-C ) :   1.6764
B(  1-C , 32-H ) :   0.9679 B(  2-C ,  3-C ) :   1.1864 B(  2-C ,  6-C ) :   0.9981
B(  3-C ,  4-C ) :   1.6378 B(  3-C ,  5-H ) :   0.9846 B(  4-C , 20-C ) :   1.0098
B(  6-C ,  7-H ) :   0.9348 B(  6-C ,  8-H ) :   0.9432 B(  6-C ,  9-C ) :   1.0752
B(  9-C , 10-H ) :   0.9560 B(  9-C , 11-H ) :   0.9422 B(  9-C , 12-C ) :   1.0786
B( 12-C , 13-H ) :   0.9764 B( 12-C , 14-H ) :   0.9732 B( 12-C , 15-H ) :   0.9745
B( 16-S , 17-C ) :   1.1584 B( 16-S , 20-C ) :   1.1532 B( 17-C , 18-C ) :   1.6356
B( 17-C , 33-H ) :   0.9641 B( 18-C , 19-C ) :   1.2032 B( 18-C , 21-H ) :   0.9859
B( 19-C , 20-C ) :   1.6205 B( 19-C , 22-C ) :   1.0353 B( 22-C , 23-H ) :   0.9282
B( 22-C , 24-H ) :   0.9236 B( 22-C , 25-C ) :   1.0694 B( 25-C , 26-H ) :   0.9542
B( 25-C , 27-H ) :   0.9509 B( 25-C , 28-C ) :   1.0689 B( 28-C , 29-H ) :   0.9765
B( 28-C , 30-H ) :   0.9764 B( 28-C , 31-H ) :   0.9751

Dispersion correction           -0.014168417
FINAL SINGLE POINT ENERGY     -1339.875350926504

DIPOLE MOMENT
-------------
                                X             Y             Z
Electronic contribution:     29.11080       1.47008       2.36892
Nuclear contribution   :    -29.76129      -1.36210      -2.47935
                        -----------------------------------------
Total Dipole Moment    :     -0.65050       0.10798      -0.11042
                        -----------------------------------------
Magnitude (a.u.)       :      0.66858
Magnitude (Debye)      :      1.69939

Rotational constants in cm-1:     0.017705     0.008485     0.006642
Rotational constants in MHz :   530.784524   254.359317   199.120423

                             ****ORCA TERMINATED NORMALLY****
TOTAL RUN TIME: 0 days 0 hours 0 minutes 32 seconds 358 msec
