                         Program Version 4.2.1 -  RELEASE  -
|  1> ! wB97X-D3 SP def2-SVP
|  2> %pal
|  3> nprocs 16
|  4> end
|  5>
|  6> * xyz 0 1
|  7> S 	 -4.08691 	 61.3755 	 45.6771
|  8> C 	 -4.85626 	 60.4195 	 46.919
|  9> C 	 -3.93641 	 59.3752 	 47.2863
| 10> C 	 -2.7457 	 59.3778 	 46.5413
| 11> C 	 -2.64539 	 60.4206 	 45.6035
| 12> H 	 -1.98529 	 58.6546 	 46.5305
| 13> C 	 -4.3184 	 58.1817 	 48.1463
| 14> H 	 -3.84952 	 57.2328 	 47.7256
| 15> H 	 -5.37826 	 58.1315 	 47.9817
| 16> C 	 -4.1057 	 58.3126 	 49.6342
| 17> H 	 -3.19909 	 58.7715 	 49.9325
| 18> H 	 -4.94213 	 58.8426 	 50.0595
| 19> C 	 -4.26621 	 57.0091 	 50.4419
| 20> H 	 -3.67499 	 56.2522 	 50.1037
| 21> H 	 -3.87527 	 57.1513 	 51.5001
| 22> H 	 -5.29566 	 56.5542 	 50.357
| 23> S 	 -2.76405 	 60.5744 	 42.8666
| 24> C 	 -1.22259 	 60.2893 	 41.9786
| 25> C 	 -0.151966 	 60.5961 	 42.8493
| 26> C 	 -0.455495 	 60.7171 	 44.1992
| 27> C 	 -1.84098 	 60.5419 	 44.384
| 28> H 	 0.882446 	 60.6048 	 42.5375
| 29> C 	 0.62731 	 60.747 	 45.292
| 30> H 	 0.397834 	 61.5487 	 45.948
| 31> H 	 1.61884 	 61.008 	 44.8636
| 32> C 	 0.924268 	 59.4244 	 46.0182
| 33> H 	 1.54233 	 58.8455 	 45.3286
| 34> H 	 0.0621036 	 58.7986 	 46.1172
| 35> C 	 1.6534 	 59.59 	 47.377
| 36> H 	 2.02957 	 58.5933 	 47.7138
| 37> H 	 1.03412 	 59.9718 	 48.2245
| 38> H 	 2.35892 	 60.364 	 47.2173
| 39> H 	 -5.7522 	 60.701 	 47.4922
| 40> H 	 -1.13771 	 60.1546 	 40.9221
| 41> *
| 42>
| 43>                          ****END OF INPUT****

CARTESIAN COORDINATES (ANGSTROEM)
---------------------------------
  S     -4.086910   61.375500   45.677100
  C     -4.856260   60.419500   46.919000
  C     -3.936410   59.375200   47.286300
  C     -2.745700   59.377800   46.541300
  C     -2.645390   60.420600   45.603500
  H     -1.985290   58.654600   46.530500
  C     -4.318400   58.181700   48.146300
  H     -3.849520   57.232800   47.725600
  H     -5.378260   58.131500   47.981700
  C     -4.105700   58.312600   49.634200
  H     -3.199090   58.771500   49.932500
  H     -4.942130   58.842600   50.059500
  C     -4.266210   57.009100   50.441900
  H     -3.674990   56.252200   50.103700
  H     -3.875270   57.151300   51.500100
  H     -5.295660   56.554200   50.357000
  S     -2.764050   60.574400   42.866600
  C     -1.222590   60.289300   41.978600
  C     -0.151966   60.596100   42.849300
  C     -0.455495   60.717100   44.199200
  C     -1.840980   60.541900   44.384000
  H      0.882446   60.604800   42.537500
  C      0.627310   60.747000   45.292000
  H      0.397834   61.548700   45.948000
  H      1.618840   61.008000   44.863600
  C      0.924268   59.424400   46.018200
  H      1.542330   58.845500   45.328600
  H      0.062104   58.798600   46.117200
  C      1.653400   59.590000   47.377000
  H      2.029570   58.593300   47.713800
  H      1.034120   59.971800   48.224500
  H      2.358920   60.364000   47.217300
  H     -5.752200   60.701000   47.492200
  H     -1.137710   60.154600   40.922100

 Total Charge           Charge          ....    0
 Multiplicity           Mult            ....    1
 Number of Electrons    NEL             ....  134
 Basis Dimension        Dim             ....  322

ORBITAL ENERGIES
----------------

  NO   OCC          E(Eh)            E(eV)
   0   2.0000     -88.969902     -2420.9941
   1   2.0000     -88.967178     -2420.9200
   2   2.0000     -10.333153      -281.1794
   3   2.0000     -10.329589      -281.0824
   4   2.0000     -10.321965      -280.8750
   5   2.0000     -10.320751      -280.8419
   6   2.0000     -10.305470      -280.4261
   7   2.0000     -10.304438      -280.3980
   8   2.0000     -10.295769      -280.1621
   9   2.0000     -10.295039      -280.1423
  10   2.0000     -10.292553      -280.0746
  11   2.0000     -10.292265      -280.0668
  12   2.0000     -10.287169      -279.9281
  13   2.0000     -10.284021      -279.8424
  14   2.0000     -10.279479      -279.7189
  15   2.0000     -10.277307      -279.6597
  16   2.0000      -8.083166      -219.9541
  17   2.0000      -8.081944      -219.9209
  18   2.0000      -6.041727      -164.4037
  19   2.0000      -6.040332      -164.3658
  20   2.0000      -6.038072      -164.3043
  21   2.0000      -6.036070      -164.2498
  22   2.0000      -6.033733      -164.1862
  23   2.0000      -6.033201      -164.1718
  24   2.0000      -1.005136       -27.3511
  25   2.0000      -0.979323       -26.6487
  26   2.0000      -0.913465       -24.8566
  27   2.0000      -0.907353       -24.6903
  28   2.0000      -0.866143       -23.5689
  29   2.0000      -0.851009       -23.1571
  30   2.0000      -0.848497       -23.0888
  31   2.0000      -0.811337       -22.0776
  32   2.0000      -0.782810       -21.3014
  33   2.0000      -0.768368       -20.9083
  34   2.0000      -0.707526       -19.2528
  35   2.0000      -0.702218       -19.1083
  36   2.0000      -0.695672       -18.9302
  37   2.0000      -0.663729       -18.0610
  38   2.0000      -0.646172       -17.5832
  39   2.0000      -0.617642       -16.8069
  40   2.0000      -0.599131       -16.3032
  41   2.0000      -0.567386       -15.4394
  42   2.0000      -0.561078       -15.2677
  43   2.0000      -0.559561       -15.2264
  44   2.0000      -0.530836       -14.4448
  45   2.0000      -0.527716       -14.3599
  46   2.0000      -0.517308       -14.0767
  47   2.0000      -0.516152       -14.0452
  48   2.0000      -0.506388       -13.7795
  49   2.0000      -0.496977       -13.5234
  50   2.0000      -0.490979       -13.3602
  51   2.0000      -0.483055       -13.1446
  52   2.0000      -0.466028       -12.6813
  53   2.0000      -0.463677       -12.6173
  54   2.0000      -0.461009       -12.5447
  55   2.0000      -0.448120       -12.1940
  56   2.0000      -0.441615       -12.0169
  57   2.0000      -0.436785       -11.8855
  58   2.0000      -0.430863       -11.7244
  59   2.0000      -0.429014       -11.6741
  60   2.0000      -0.418213       -11.3801
  61   2.0000      -0.414974       -11.2920
  62   2.0000      -0.410748       -11.1770
  63   2.0000      -0.345208        -9.3936
  64   2.0000      -0.334836        -9.1114
  65   2.0000      -0.328313        -8.9338
  66   2.0000      -0.284706        -7.7473
  67   0.0000       0.020322         0.5530
  68   0.0000       0.051033         1.3887
  69   0.0000       0.105568         2.8727
  70   0.0000       0.118412         3.2222
  71   0.0000       0.133788         3.6406

MULLIKEN ATOMIC CHARGES
-----------------------
   0 S :    0.100156
   1 C :   -0.126468
   2 C :   -0.090855
   3 C :    0.058573
   4 C :   -0.149308
   5 H :   -0.012185
   6 C :    0.040234
   7 H :    0.039429
   8 H :    0.019650
   9 C :   -0.040605
  10 H :    0.025540
  11 H :    0.025786
  12 C :   -0.061624
  13 H :   -0.001505
  14 H :    0.043409
  15 H :    0.035327
  16 S :    0.114192
  17 C :   -0.090866
  18 C :   -0.029355
  19 C :   -0.015820
  20 C :   -0.182344
  21 H :    0.011785
  22 C :    0.078590
  23 H :    0.027809
  24 H :    0.021563
  25 C :   -0.054288
  26 H :    0.021596
  27 H :    0.007943
  28 C :   -0.049955
  29 H :    0.045505
  30 H :    0.040577
  31 H :    0.024765
  32 H :    0.069448
  33 H :    0.053302
Sum of atomic charges:    0.0000000

LOEWDIN ATOMIC CHARGES
----------------------
   0 S :    0.426868
   1 C :   -0.215330
   2 C :   -0.059320
   3 C :   -0.058296
   4 C :   -0.201898
   5 H :    0.019372
   6 C :   -0.034927
   7 H :    0.036792
   8 H :    0.031432
   9 C :   -0.041129
  10 H :    0.019062
  11 H :    0.027165
  12 C :   -0.068335
  13 H :    0.003101
  14 H :    0.037469
  15 H :    0.031011
  16 S :    0.385951
  17 C :   -0.173851
  18 C :   -0.063158
  19 C :   -0.058765
  20 C :   -0.185296
  21 H :    0.027756
  22 C :   -0.026680
  23 H :    0.026856
  24 H :    0.034297
  25 C :   -0.038032
  26 H :    0.025251
  27 H :    0.012735
  28 C :   -0.063782
  29 H :    0.033419
  30 H :    0.030828
  31 H :    0.018899
  32 H :    0.036618
  33 H :    0.023918

  Mayer bond orders larger than 0.100000
B(  0-S ,  1-C ) :   1.1629 B(  0-S ,  4-C ) :   1.1818 B(  1-C ,  2-C ) :   1.5320
B(  1-C ,  4-C ) :   0.1166 B(  1-C , 32-H ) :   0.9657 B(  2-C ,  3-C ) :   1.3090
B(  2-C ,  6-C ) :   1.0193 B(  3-C ,  4-C ) :   1.5109 B(  3-C ,  5-H ) :   0.9970
B(  4-C , 20-C ) :   1.0359 B(  6-C ,  7-H ) :   0.9542 B(  6-C ,  8-H ) :   0.9390
B(  6-C ,  9-C ) :   1.0621 B(  9-C , 10-H ) :   0.9621 B(  9-C , 11-H ) :   0.9557
B(  9-C , 12-C ) :   1.0783 B( 12-C , 13-H ) :   0.9737 B( 12-C , 14-H ) :   0.9733
B( 12-C , 15-H ) :   0.9744 B( 16-S , 17-C ) :   1.1352 B( 16-S , 20-C ) :   1.1551
B( 17-C , 18-C ) :   1.5765 B( 17-C , 20-C ) :   0.1185 B( 17-C , 33-H ) :   0.9756
B( 18-C , 19-C ) :   1.2857 B( 18-C , 21-H ) :   0.9812 B( 19-C , 20-C ) :   1.5514
B( 19-C , 22-C ) :   1.0461 B( 22-C , 23-H ) :   0.9332 B( 22-C , 24-H ) :   0.9354
B( 22-C , 25-C ) :   1.0502 B( 25-C , 26-H ) :   0.9504 B( 25-C , 27-H ) :   0.9628
B( 25-C , 28-C ) :   1.0721 B( 28-C , 29-H ) :   0.9736 B( 28-C , 30-H ) :   0.9760
B( 28-C , 31-H ) :   0.9755

Dispersion correction           -0.013798852
FINAL SINGLE POINT ENERGY     -1339.846590123039

DIPOLE MOMENT
-------------
                                X             Y             Z
Electronic contribution:    -11.26421      15.35687     -24.72183
Nuclear contribution   :     11.64284     -15.73381      25.02407
                        -----------------------------------------
Total Dipole Moment    :      0.37863      -0.37694       0.30224
                        -----------------------------------------
Magnitude (a.u.)       :      0.61384
Magnitude (Debye)      :      1.56026

Rotational constants in cm-1:     0.018103     0.008618     0.006436
Rotational constants in MHz :   542.704300   258.362416   192.943589

                             ****ORCA TERMINATED NORMALLY****
TOTAL RUN TIME: 0 days 0 hours 0 minutes 31 seconds 582 msec
