                         Program Version 4.2.1 -  RELEASE  -
|  1> ! wB97X-D3 SP def2-SVP
|  2> %pal
|  3> nprocs 16
|  4> end
|  5>
|  6> * xyz 0 1
|  7> S 	 -46.0165 	 57.9183 	 96.6176
|  8> C 	 -46.0675 	 58.6194 	 98.2561
|  9> C 	 -46.1822 	 57.5991 	 99.2277
| 10> C 	 -46.0244 	 56.297 	 98.6252
| 11> C 	 -45.9664 	 56.3117 	 97.2415
| 12> H 	 -46.2318 	 55.4304 	 99.2142
| 13> C 	 -46.4057 	 57.8668 	 100.718
| 14> H 	 -46.6975 	 58.8927 	 100.96
| 15> H 	 -45.457 	 57.6947 	 101.188
| 16> C 	 -47.3886 	 56.8639 	 101.216
| 17> H 	 -48.2921 	 56.5868 	 100.603
| 18> H 	 -46.7946 	 55.9894 	 101.376
| 19> C 	 -48.0557 	 57.1945 	 102.587
| 20> H 	 -48.5767 	 56.3466 	 103.056
| 21> H 	 -47.342 	 57.5183 	 103.458
| 22> H 	 -48.6573 	 58.0551 	 102.437
| 23> S 	 -47.5282 	 55.0855 	 95.309
| 24> C 	 -47.1541 	 53.4409 	 94.8467
| 25> C 	 -45.9704 	 53.0111 	 95.3958
| 26> C 	 -45.3091 	 53.9935 	 96.2506
| 27> C 	 -46.0568 	 55.1988 	 96.2952
| 28> H 	 -45.5785 	 52.0341 	 95.2226
| 29> C 	 -44.1455 	 53.694 	 97.0666
| 30> H 	 -44.378 	 52.8253 	 97.658
| 31> H 	 -43.8986 	 54.5483 	 97.7135
| 32> C 	 -42.9548 	 53.3362 	 96.2974
| 33> H 	 -43.0666 	 52.5153 	 95.5331
| 34> H 	 -42.305 	 52.8483 	 97.037
| 35> C 	 -42.3285 	 54.6453 	 95.6902
| 36> H 	 -42.2221 	 55.4194 	 96.5101
| 37> H 	 -43.0094 	 55.0608 	 94.9733
| 38> H 	 -41.3006 	 54.5707 	 95.3678
| 39> H 	 -46.3018 	 59.6221 	 98.4904
| 40> H 	 -47.8362 	 52.8195 	 94.2814
| 41> *
| 42>
| 43>                          ****END OF INPUT****

CARTESIAN COORDINATES (ANGSTROEM)
---------------------------------
  S    -46.016500   57.918300   96.617600
  C    -46.067500   58.619400   98.256100
  C    -46.182200   57.599100   99.227700
  C    -46.024400   56.297000   98.625200
  C    -45.966400   56.311700   97.241500
  H    -46.231800   55.430400   99.214200
  C    -46.405700   57.866800  100.718000
  H    -46.697500   58.892700  100.960000
  H    -45.457000   57.694700  101.188000
  C    -47.388600   56.863900  101.216000
  H    -48.292100   56.586800  100.603000
  H    -46.794600   55.989400  101.376000
  C    -48.055700   57.194500  102.587000
  H    -48.576700   56.346600  103.056000
  H    -47.342000   57.518300  103.458000
  H    -48.657300   58.055100  102.437000
  S    -47.528200   55.085500   95.309000
  C    -47.154100   53.440900   94.846700
  C    -45.970400   53.011100   95.395800
  C    -45.309100   53.993500   96.250600
  C    -46.056800   55.198800   96.295200
  H    -45.578500   52.034100   95.222600
  C    -44.145500   53.694000   97.066600
  H    -44.378000   52.825300   97.658000
  H    -43.898600   54.548300   97.713500
  C    -42.954800   53.336200   96.297400
  H    -43.066600   52.515300   95.533100
  H    -42.305000   52.848300   97.037000
  C    -42.328500   54.645300   95.690200
  H    -42.222100   55.419400   96.510100
  H    -43.009400   55.060800   94.973300
  H    -41.300600   54.570700   95.367800
  H    -46.301800   59.622100   98.490400
  H    -47.836200   52.819500   94.281400

 Total Charge           Charge          ....    0
 Multiplicity           Mult            ....    1
 Number of Electrons    NEL             ....  134
 Basis Dimension        Dim             ....  322

ORBITAL ENERGIES
----------------

  NO   OCC          E(Eh)            E(eV)
   0   2.0000     -88.965091     -2420.8632
   1   2.0000     -88.964614     -2420.8502
   2   2.0000     -10.330433      -281.1054
   3   2.0000     -10.328203      -281.0447
   4   2.0000     -10.319952      -280.8202
   5   2.0000     -10.311697      -280.5956
   6   2.0000     -10.306137      -280.4442
   7   2.0000     -10.304806      -280.4080
   8   2.0000     -10.295364      -280.1511
   9   2.0000     -10.294642      -280.1315
  10   2.0000     -10.293729      -280.1066
  11   2.0000     -10.288772      -279.9717
  12   2.0000     -10.286927      -279.9215
  13   2.0000     -10.285026      -279.8698
  14   2.0000     -10.281113      -279.7633
  15   2.0000     -10.275493      -279.6104
  16   2.0000      -8.079706      -219.8600
  17   2.0000      -8.079111      -219.8438
  18   2.0000      -6.038235      -164.3087
  19   2.0000      -6.037698      -164.2941
  20   2.0000      -6.034195      -164.1988
  21   2.0000      -6.033612      -164.1829
  22   2.0000      -6.030486      -164.0979
  23   2.0000      -6.029826      -164.0799
  24   2.0000      -1.002419       -27.2772
  25   2.0000      -0.978832       -26.6354
  26   2.0000      -0.923393       -25.1268
  27   2.0000      -0.918686       -24.9987
  28   2.0000      -0.865681       -23.5564
  29   2.0000      -0.844309       -22.9748
  30   2.0000      -0.839333       -22.8394
  31   2.0000      -0.812430       -22.1073
  32   2.0000      -0.784449       -21.3459
  33   2.0000      -0.772927       -21.0324
  34   2.0000      -0.710877       -19.3439
  35   2.0000      -0.698532       -19.0080
  36   2.0000      -0.688465       -18.7341
  37   2.0000      -0.653377       -17.7793
  38   2.0000      -0.640879       -17.4392
  39   2.0000      -0.622519       -16.9396
  40   2.0000      -0.603892       -16.4327
  41   2.0000      -0.576966       -15.7001
  42   2.0000      -0.567221       -15.4349
  43   2.0000      -0.561241       -15.2721
  44   2.0000      -0.538428       -14.6514
  45   2.0000      -0.522932       -14.2297
  46   2.0000      -0.514563       -14.0020
  47   2.0000      -0.509803       -13.8724
  48   2.0000      -0.504561       -13.7298
  49   2.0000      -0.497117       -13.5272
  50   2.0000      -0.494570       -13.4579
  51   2.0000      -0.480014       -13.0619
  52   2.0000      -0.469365       -12.7721
  53   2.0000      -0.460214       -12.5231
  54   2.0000      -0.454472       -12.3668
  55   2.0000      -0.448763       -12.2115
  56   2.0000      -0.446023       -12.1369
  57   2.0000      -0.432091       -11.7578
  58   2.0000      -0.430433       -11.7127
  59   2.0000      -0.426168       -11.5966
  60   2.0000      -0.421289       -11.4639
  61   2.0000      -0.412457       -11.2235
  62   2.0000      -0.410827       -11.1792
  63   2.0000      -0.342830        -9.3289
  64   2.0000      -0.329242        -8.9591
  65   2.0000      -0.324449        -8.8287
  66   2.0000      -0.293657        -7.9908
  67   0.0000       0.032538         0.8854
  68   0.0000       0.064774         1.7626
  69   0.0000       0.114748         3.1224
  70   0.0000       0.116470         3.1693
  71   0.0000       0.124187         3.3793

MULLIKEN ATOMIC CHARGES
-----------------------
   0 S :    0.103525
   1 C :   -0.096316
   2 C :   -0.152232
   3 C :    0.059443
   4 C :   -0.168552
   5 H :    0.009113
   6 C :    0.132894
   7 H :    0.018241
   8 H :    0.038370
   9 C :   -0.135520
  10 H :    0.059540
  11 H :    0.031185
  12 C :   -0.076689
  13 H :    0.044184
  14 H :    0.025971
  15 H :    0.031608
  16 S :    0.103706
  17 C :   -0.088362
  18 C :   -0.016464
  19 C :   -0.048734
  20 C :   -0.140684
  21 H :    0.008633
  22 C :    0.085052
  23 H :    0.025778
  24 H :    0.031805
  25 C :   -0.094519
  26 H :    0.036352
  27 H :    0.020893
  28 C :   -0.049770
  29 H :    0.024627
  30 H :    0.046976
  31 H :    0.034856
  32 H :    0.034716
  33 H :    0.060374
Sum of atomic charges:   -0.0000000

LOEWDIN ATOMIC CHARGES
----------------------
   0 S :    0.407485
   1 C :   -0.196307
   2 C :   -0.047571
   3 C :   -0.068317
   4 C :   -0.199131
   5 H :    0.027018
   6 C :   -0.024075
   7 H :    0.027726
   8 H :    0.037245
   9 C :   -0.049025
  10 H :    0.037741
  11 H :    0.020807
  12 C :   -0.074307
  13 H :    0.028636
  14 H :    0.028977
  15 H :    0.016975
  16 S :    0.394885
  17 C :   -0.178925
  18 C :   -0.066288
  19 C :   -0.044399
  20 C :   -0.204939
  21 H :    0.025384
  22 C :   -0.040795
  23 H :    0.034607
  24 H :    0.037131
  25 C :   -0.043942
  26 H :    0.026248
  27 H :    0.023760
  28 C :   -0.065313
  29 H :    0.031053
  30 H :    0.026302
  31 H :    0.022971
  32 H :    0.017748
  33 H :    0.030634

  Mayer bond orders larger than 0.100000
B(  0-S ,  1-C ) :   1.1274 B(  0-S ,  4-C ) :   1.1725 B(  1-C ,  2-C ) :   1.6199
B(  1-C , 32-H ) :   0.9706 B(  2-C ,  3-C ) :   1.2494 B(  2-C ,  6-C ) :   1.0178
B(  3-C ,  4-C ) :   1.5615 B(  3-C ,  5-H ) :   0.9891 B(  4-C , 20-C ) :   1.0156
B(  6-C ,  7-H ) :   0.9526 B(  6-C ,  8-H ) :   0.9281 B(  6-C ,  9-C ) :   1.0478
B(  9-C , 10-H ) :   0.9661 B(  9-C , 11-H ) :   0.9462 B(  9-C , 12-C ) :   1.0807
B( 12-C , 13-H ) :   0.9760 B( 12-C , 14-H ) :   0.9719 B( 12-C , 15-H ) :   0.9781
B( 16-S , 17-C ) :   1.1516 B( 16-S , 20-C ) :   1.1314 B( 17-C , 18-C ) :   1.6162
B( 17-C , 33-H ) :   0.9686 B( 18-C , 19-C ) :   1.2200 B( 18-C , 21-H ) :   0.9922
B( 19-C , 20-C ) :   1.5823 B( 19-C , 22-C ) :   1.0738 B( 22-C , 23-H ) :   0.9174
B( 22-C , 24-H ) :   0.9271 B( 22-C , 25-C ) :   1.0822 B( 25-C , 26-H ) :   0.9556
B( 25-C , 27-H ) :   0.9514 B( 25-C , 28-C ) :   1.0552 B( 28-C , 29-H ) :   0.9722
B( 28-C , 30-H ) :   0.9777 B( 28-C , 31-H ) :   0.9766

Dispersion correction           -0.014266799
FINAL SINGLE POINT ENERGY     -1339.869019355648

DIPOLE MOMENT
-------------
                                X             Y             Z
Electronic contribution:     -8.89297       4.97746     -19.75681
Nuclear contribution   :      8.90347      -5.43425      20.38354
                        -----------------------------------------
Total Dipole Moment    :      0.01050      -0.45679       0.62673
                        -----------------------------------------
Magnitude (a.u.)       :      0.77560
Magnitude (Debye)      :      1.97142

Rotational constants in cm-1:     0.019331     0.007767     0.007376
Rotational constants in MHz :   579.539729   232.857959   221.126215

                             ****ORCA TERMINATED NORMALLY****
TOTAL RUN TIME: 0 days 0 hours 0 minutes 30 seconds 147 msec
