                         Program Version 4.2.1 -  RELEASE  -
|  1> ! wB97X-D3 SP def2-SVP
|  2> %pal
|  3> nprocs 16
|  4> end
|  5>
|  6> * xyz 0 1
|  7> S 	 -34.9004 	 58.8141 	 109.51
|  8> C 	 -33.5876 	 59.9733 	 109.355
|  9> C 	 -32.6414 	 59.7537 	 110.319
| 10> C 	 -32.8618 	 58.4643 	 110.975
| 11> C 	 -33.9485 	 57.781 	 110.569
| 12> H 	 -32.213 	 58.1884 	 111.771
| 13> C 	 -31.5251 	 60.7421 	 110.691
| 14> H 	 -31.9028 	 61.7545 	 110.356
| 15> H 	 -30.8196 	 60.5294 	 109.967
| 16> C 	 -30.9846 	 60.7681 	 112.15
| 17> H 	 -30.4407 	 59.8697 	 112.483
| 18> H 	 -30.2425 	 61.6693 	 112.259
| 19> C 	 -32.1188 	 61.0813 	 113.22
| 20> H 	 -32.9222 	 61.7703 	 112.794
| 21> H 	 -32.5925 	 60.1596 	 113.485
| 22> H 	 -31.5406 	 61.5057 	 114.031
| 23> S 	 -35.633 	 56.7742 	 112.475
| 24> C 	 -35.3326 	 55.1775 	 113.153
| 25> C 	 -34.377 	 54.5179 	 112.41
| 26> C 	 -33.8208 	 55.2912 	 111.354
| 27> C 	 -34.429 	 56.5401 	 111.155
| 28> H 	 -34.1399 	 53.5931 	 112.783
| 29> C 	 -32.5706 	 54.8669 	 110.646
| 30> H 	 -32.1392 	 53.9034 	 110.95
| 31> H 	 -31.8507 	 55.6323 	 110.906
| 32> C 	 -32.5755 	 54.9944 	 109.061
| 33> H 	 -31.5154 	 55.0393 	 108.738
| 34> H 	 -32.8448 	 55.975 	 108.767
| 35> C 	 -33.2679 	 53.8021 	 108.346
| 36> H 	 -34.2557 	 53.5486 	 108.697
| 37> H 	 -32.7396 	 52.8843 	 108.589
| 38> H 	 -33.178 	 53.949 	 107.203
| 39> H 	 -33.655 	 60.8013 	 108.678
| 40> H 	 -35.8434 	 54.618 	 113.924
| 41> *
| 42>
| 43>                          ****END OF INPUT****

CARTESIAN COORDINATES (ANGSTROEM)
---------------------------------
  S    -34.900400   58.814100  109.510000
  C    -33.587600   59.973300  109.355000
  C    -32.641400   59.753700  110.319000
  C    -32.861800   58.464300  110.975000
  C    -33.948500   57.781000  110.569000
  H    -32.213000   58.188400  111.771000
  C    -31.525100   60.742100  110.691000
  H    -31.902800   61.754500  110.356000
  H    -30.819600   60.529400  109.967000
  C    -30.984600   60.768100  112.150000
  H    -30.440700   59.869700  112.483000
  H    -30.242500   61.669300  112.259000
  C    -32.118800   61.081300  113.220000
  H    -32.922200   61.770300  112.794000
  H    -32.592500   60.159600  113.485000
  H    -31.540600   61.505700  114.031000
  S    -35.633000   56.774200  112.475000
  C    -35.332600   55.177500  113.153000
  C    -34.377000   54.517900  112.410000
  C    -33.820800   55.291200  111.354000
  C    -34.429000   56.540100  111.155000
  H    -34.139900   53.593100  112.783000
  C    -32.570600   54.866900  110.646000
  H    -32.139200   53.903400  110.950000
  H    -31.850700   55.632300  110.906000
  C    -32.575500   54.994400  109.061000
  H    -31.515400   55.039300  108.738000
  H    -32.844800   55.975000  108.767000
  C    -33.267900   53.802100  108.346000
  H    -34.255700   53.548600  108.697000
  H    -32.739600   52.884300  108.589000
  H    -33.178000   53.949000  107.203000
  H    -33.655000   60.801300  108.678000
  H    -35.843400   54.618000  113.924000

 Total Charge           Charge          ....    0
 Multiplicity           Mult            ....    1
 Number of Electrons    NEL             ....  134
 Basis Dimension        Dim             ....  322

ORBITAL ENERGIES
----------------

  NO   OCC          E(Eh)            E(eV)
   0   2.0000     -88.963301     -2420.8145
   1   2.0000     -88.961236     -2420.7583
   2   2.0000     -10.329167      -281.0709
   3   2.0000     -10.328490      -281.0525
   4   2.0000     -10.318522      -280.7813
   5   2.0000     -10.313155      -280.6352
   6   2.0000     -10.309217      -280.5280
   7   2.0000     -10.306338      -280.4497
   8   2.0000     -10.303863      -280.3824
   9   2.0000     -10.296965      -280.1947
  10   2.0000     -10.292455      -280.0719
  11   2.0000     -10.291617      -280.0491
  12   2.0000     -10.286679      -279.9148
  13   2.0000     -10.284820      -279.8642
  14   2.0000     -10.282700      -279.8065
  15   2.0000     -10.279078      -279.7079
  16   2.0000      -8.077075      -219.7884
  17   2.0000      -8.076128      -219.7626
  18   2.0000      -6.035782      -164.2420
  19   2.0000      -6.034773      -164.2145
  20   2.0000      -6.031566      -164.1272
  21   2.0000      -6.030730      -164.1045
  22   2.0000      -6.027802      -164.0248
  23   2.0000      -6.026606      -163.9923
  24   2.0000      -1.005253       -27.3543
  25   2.0000      -0.981309       -26.7028
  26   2.0000      -0.905121       -24.6296
  27   2.0000      -0.899463       -24.4756
  28   2.0000      -0.872058       -23.7299
  29   2.0000      -0.842826       -22.9345
  30   2.0000      -0.839403       -22.8413
  31   2.0000      -0.819693       -22.3050
  32   2.0000      -0.782776       -21.3004
  33   2.0000      -0.769961       -20.9517
  34   2.0000      -0.715394       -19.4669
  35   2.0000      -0.695947       -18.9377
  36   2.0000      -0.688217       -18.7273
  37   2.0000      -0.660090       -17.9620
  38   2.0000      -0.642384       -17.4802
  39   2.0000      -0.627346       -17.0709
  40   2.0000      -0.587673       -15.9914
  41   2.0000      -0.568510       -15.4699
  42   2.0000      -0.556658       -15.1474
  43   2.0000      -0.544128       -14.8065
  44   2.0000      -0.541313       -14.7299
  45   2.0000      -0.534859       -14.5542
  46   2.0000      -0.514961       -14.0128
  47   2.0000      -0.511366       -13.9150
  48   2.0000      -0.506324       -13.7778
  49   2.0000      -0.494335       -13.4516
  50   2.0000      -0.487598       -13.2682
  51   2.0000      -0.481421       -13.1001
  52   2.0000      -0.473381       -12.8813
  53   2.0000      -0.462735       -12.5917
  54   2.0000      -0.457773       -12.4566
  55   2.0000      -0.444901       -12.1064
  56   2.0000      -0.437169       -11.8960
  57   2.0000      -0.434720       -11.8293
  58   2.0000      -0.428462       -11.6590
  59   2.0000      -0.423164       -11.5149
  60   2.0000      -0.420803       -11.4506
  61   2.0000      -0.412689       -11.2298
  62   2.0000      -0.408626       -11.1193
  63   2.0000      -0.342269        -9.3136
  64   2.0000      -0.324625        -8.8335
  65   2.0000      -0.321624        -8.7518
  66   2.0000      -0.301711        -8.2100
  67   0.0000       0.033479         0.9110
  68   0.0000       0.053313         1.4507
  69   0.0000       0.108512         2.9528
  70   0.0000       0.120457         3.2778
  71   0.0000       0.131530         3.5791

MULLIKEN ATOMIC CHARGES
-----------------------
   0 S :    0.098036
   1 C :   -0.131951
   2 C :   -0.108919
   3 C :    0.044760
   4 C :   -0.151481
   5 H :    0.003796
   6 C :    0.102255
   7 H :    0.028893
   8 H :    0.025047
   9 C :   -0.139479
  10 H :    0.046991
  11 H :    0.049491
  12 C :   -0.060977
  13 H :    0.052037
  14 H :    0.038677
  15 H :    0.041390
  16 S :    0.092343
  17 C :   -0.083745
  18 C :   -0.022429
  19 C :   -0.011318
  20 C :   -0.127582
  21 H :   -0.017568
  22 C :    0.048398
  23 H :    0.022926
  24 H :    0.025610
  25 C :   -0.058715
  26 H :    0.016559
  27 H :    0.024033
  28 C :   -0.045409
  29 H :    0.035155
  30 H :    0.014681
  31 H :    0.051565
  32 H :    0.042530
  33 H :    0.054400
Sum of atomic charges:    0.0000000

LOEWDIN ATOMIC CHARGES
----------------------
   0 S :    0.389763
   1 C :   -0.187667
   2 C :   -0.059427
   3 C :   -0.056890
   4 C :   -0.199751
   5 H :    0.024737
   6 C :   -0.035753
   7 H :    0.038341
   8 H :    0.024639
   9 C :   -0.048896
  10 H :    0.024742
  11 H :    0.037503
  12 C :   -0.065786
  13 H :    0.036468
  14 H :    0.020144
  15 H :    0.026954
  16 S :    0.386187
  17 C :   -0.174564
  18 C :   -0.070581
  19 C :   -0.044897
  20 C :   -0.191342
  21 H :    0.017803
  22 C :   -0.033031
  23 H :    0.029229
  24 H :    0.036081
  25 C :   -0.035714
  26 H :    0.026605
  27 H :    0.017589
  28 C :   -0.072126
  29 H :    0.023146
  30 H :    0.021383
  31 H :    0.038182
  32 H :    0.023293
  33 H :    0.033632

  Mayer bond orders larger than 0.100000
B(  0-S ,  1-C ) :   1.1327 B(  0-S ,  4-C ) :   1.1291 B(  1-C ,  2-C ) :   1.6327
B(  1-C , 32-H ) :   0.9753 B(  2-C ,  3-C ) :   1.2271 B(  2-C ,  6-C ) :   0.9878
B(  3-C ,  4-C ) :   1.5880 B(  3-C ,  5-H ) :   0.9991 B(  4-C , 20-C ) :   1.0128
B(  6-C ,  7-H ) :   0.9453 B(  6-C ,  8-H ) :   0.9344 B(  6-C ,  9-C ) :   1.0666
B(  9-C , 10-H ) :   0.9540 B(  9-C , 11-H ) :   0.9632 B(  9-C , 12-C ) :   1.0545
B( 12-C , 13-H ) :   0.9783 B( 12-C , 14-H ) :   0.9775 B( 12-C , 15-H ) :   0.9791
B( 16-S , 17-C ) :   1.1627 B( 16-S , 20-C ) :   1.1243 B( 17-C , 18-C ) :   1.6202
B( 17-C , 20-C ) :   0.1021 B( 17-C , 33-H ) :   0.9608 B( 18-C , 19-C ) :   1.2272
B( 18-C , 21-H ) :   1.0097 B( 19-C , 20-C ) :   1.5848 B( 19-C , 22-C ) :   1.0492
B( 22-C , 23-H ) :   0.9478 B( 22-C , 24-H ) :   0.9191 B( 22-C , 25-C ) :   1.0806
B( 25-C , 26-H ) :   0.9530 B( 25-C , 27-H ) :   0.9557 B( 25-C , 28-C ) :   1.0609
B( 28-C , 29-H ) :   0.9796 B( 28-C , 30-H ) :   0.9723 B( 28-C , 31-H ) :   0.9750

Dispersion correction           -0.015083034
FINAL SINGLE POINT ENERGY     -1339.849922628690

DIPOLE MOMENT
-------------
                                X             Y             Z
Electronic contribution:    -18.72885      -0.03862       1.18145
Nuclear contribution   :     19.52348       0.06179      -0.89539
                        -----------------------------------------
Total Dipole Moment    :      0.79464       0.02317       0.28606
                        -----------------------------------------
Magnitude (a.u.)       :      0.84488
Magnitude (Debye)      :      2.14751

Rotational constants in cm-1:     0.017988     0.009094     0.008048
Rotational constants in MHz :   539.281625   272.628216   241.278690

                             ****ORCA TERMINATED NORMALLY****
TOTAL RUN TIME: 0 days 0 hours 0 minutes 30 seconds 696 msec
