                         Program Version 4.2.1 -  RELEASE  -
|  1> ! wB97X-D3 SP def2-SVP
|  2> %pal
|  3> nprocs 16
|  4> end
|  5>
|  6> * xyz 0 1
|  7> S 	 -48.1542 	 32.8856 	 98.6216
|  8> C 	 -47.2988 	 33.7287 	 97.3229
|  9> C 	 -46.623 	 34.8872 	 97.6913
| 10> C 	 -46.7629 	 35.0722 	 99.1429
| 11> C 	 -47.5869 	 34.0603 	 99.7632
| 12> H 	 -46.2798 	 35.8608 	 99.5628
| 13> C 	 -45.8458 	 35.8734 	 96.7727
| 14> H 	 -45.0531 	 35.3124 	 96.301
| 15> H 	 -45.4362 	 36.6141 	 97.3918
| 16> C 	 -46.7048 	 36.614 	 95.7664
| 17> H 	 -46.0679 	 37.2212 	 95.0535
| 18> H 	 -47.155 	 35.9693 	 95.0677
| 19> C 	 -47.9892 	 37.3569 	 96.3508
| 20> H 	 -47.8333 	 38.3708 	 96.7334
| 21> H 	 -48.5381 	 37.6491 	 95.4398
| 22> H 	 -48.7039 	 36.7817 	 96.9911
| 23> S 	 -49.5253 	 34.575 	 101.667
| 24> C 	 -49.0767 	 34.5345 	 103.4
| 25> C 	 -47.7993 	 34.0397 	 103.566
| 26> C 	 -47.0784 	 33.8418 	 102.306
| 27> C 	 -47.9147 	 34.0929 	 101.175
| 28> H 	 -47.5016 	 33.89 	 104.584
| 29> C 	 -45.6478 	 33.2768 	 102.211
| 30> H 	 -44.8404 	 33.9869 	 102.401
| 31> H 	 -45.3051 	 33.0937 	 101.163
| 32> C 	 -45.529 	 31.876 	 102.912
| 33> H 	 -45.7121 	 31.9992 	 104.002
| 34> H 	 -44.4727 	 31.5194 	 102.81
| 35> C 	 -46.472 	 30.8251 	 102.351
| 36> H 	 -46.4679 	 29.8338 	 102.789
| 37> H 	 -46.3203 	 30.761 	 101.272
| 38> H 	 -47.4753 	 31.2243 	 102.494
| 39> H 	 -47.2779 	 33.3284 	 96.3218
| 40> H 	 -49.6524 	 34.7871 	 104.264
| 41> *
| 42>
| 43>                          ****END OF INPUT****

CARTESIAN COORDINATES (ANGSTROEM)
---------------------------------
  S    -48.154200   32.885600   98.621600
  C    -47.298800   33.728700   97.322900
  C    -46.623000   34.887200   97.691300
  C    -46.762900   35.072200   99.142900
  C    -47.586900   34.060300   99.763200
  H    -46.279800   35.860800   99.562800
  C    -45.845800   35.873400   96.772700
  H    -45.053100   35.312400   96.301000
  H    -45.436200   36.614100   97.391800
  C    -46.704800   36.614000   95.766400
  H    -46.067900   37.221200   95.053500
  H    -47.155000   35.969300   95.067700
  C    -47.989200   37.356900   96.350800
  H    -47.833300   38.370800   96.733400
  H    -48.538100   37.649100   95.439800
  H    -48.703900   36.781700   96.991100
  S    -49.525300   34.575000  101.667000
  C    -49.076700   34.534500  103.400000
  C    -47.799300   34.039700  103.566000
  C    -47.078400   33.841800  102.306000
  C    -47.914700   34.092900  101.175000
  H    -47.501600   33.890000  104.584000
  C    -45.647800   33.276800  102.211000
  H    -44.840400   33.986900  102.401000
  H    -45.305100   33.093700  101.163000
  C    -45.529000   31.876000  102.912000
  H    -45.712100   31.999200  104.002000
  H    -44.472700   31.519400  102.810000
  C    -46.472000   30.825100  102.351000
  H    -46.467900   29.833800  102.789000
  H    -46.320300   30.761000  101.272000
  H    -47.475300   31.224300  102.494000
  H    -47.277900   33.328400   96.321800
  H    -49.652400   34.787100  104.264000

 Total Charge           Charge          ....    0
 Multiplicity           Mult            ....    1
 Number of Electrons    NEL             ....  134
 Basis Dimension        Dim             ....  322

ORBITAL ENERGIES
----------------

  NO   OCC          E(Eh)            E(eV)
   0   2.0000     -88.974150     -2421.1097
   1   2.0000     -88.965770     -2420.8817
   2   2.0000     -10.334061      -281.2041
   3   2.0000     -10.329677      -281.0848
   4   2.0000     -10.318056      -280.7686
   5   2.0000     -10.315954      -280.7114
   6   2.0000     -10.313655      -280.6488
   7   2.0000     -10.306982      -280.4672
   8   2.0000     -10.297342      -280.2049
   9   2.0000     -10.296880      -280.1924
  10   2.0000     -10.294992      -280.1410
  11   2.0000     -10.293975      -280.1133
  12   2.0000     -10.293180      -280.0917
  13   2.0000     -10.289393      -279.9886
  14   2.0000     -10.283431      -279.8264
  15   2.0000     -10.267903      -279.4038
  16   2.0000      -8.088323      -220.0945
  17   2.0000      -8.079673      -219.8591
  18   2.0000      -6.046810      -164.5421
  19   2.0000      -6.042887      -164.4353
  20   2.0000      -6.039183      -164.3345
  21   2.0000      -6.038314      -164.3109
  22   2.0000      -6.034256      -164.2005
  23   2.0000      -6.030376      -164.0949
  24   2.0000      -0.996605       -27.1190
  25   2.0000      -0.973021       -26.4772
  26   2.0000      -0.909203       -24.7407
  27   2.0000      -0.898757       -24.4564
  28   2.0000      -0.865038       -23.5389
  29   2.0000      -0.844499       -22.9800
  30   2.0000      -0.836610       -22.7653
  31   2.0000      -0.807570       -21.9751
  32   2.0000      -0.787186       -21.4204
  33   2.0000      -0.769300       -20.9337
  34   2.0000      -0.706825       -19.2337
  35   2.0000      -0.702869       -19.1260
  36   2.0000      -0.688045       -18.7227
  37   2.0000      -0.651123       -17.7180
  38   2.0000      -0.640410       -17.4264
  39   2.0000      -0.614597       -16.7240
  40   2.0000      -0.595984       -16.2175
  41   2.0000      -0.571503       -15.5514
  42   2.0000      -0.554378       -15.0854
  43   2.0000      -0.546557       -14.8726
  44   2.0000      -0.539379       -14.6773
  45   2.0000      -0.531793       -14.4708
  46   2.0000      -0.514217       -13.9926
  47   2.0000      -0.507960       -13.8223
  48   2.0000      -0.497995       -13.5511
  49   2.0000      -0.489082       -13.3086
  50   2.0000      -0.479359       -13.0440
  51   2.0000      -0.470742       -12.8096
  52   2.0000      -0.466693       -12.6994
  53   2.0000      -0.461928       -12.5697
  54   2.0000      -0.458624       -12.4798
  55   2.0000      -0.449114       -12.2210
  56   2.0000      -0.442445       -12.0395
  57   2.0000      -0.435888       -11.8611
  58   2.0000      -0.433452       -11.7948
  59   2.0000      -0.428688       -11.6652
  60   2.0000      -0.413842       -11.2612
  61   2.0000      -0.412293       -11.2191
  62   2.0000      -0.404270       -11.0007
  63   2.0000      -0.337859        -9.1936
  64   2.0000      -0.333722        -9.0810
  65   2.0000      -0.320606        -8.7241
  66   2.0000      -0.298483        -8.1221
  67   0.0000       0.036598         0.9959
  68   0.0000       0.055154         1.5008
  69   0.0000       0.112411         3.0589
  70   0.0000       0.116027         3.1573
  71   0.0000       0.123752         3.3675

MULLIKEN ATOMIC CHARGES
-----------------------
   0 S :    0.135905
   1 C :   -0.136556
   2 C :   -0.132520
   3 C :    0.088655
   4 C :   -0.171373
   5 H :   -0.028781
   6 C :    0.154445
   7 H :    0.036869
   8 H :    0.004880
   9 C :   -0.083714
  10 H :    0.034410
  11 H :    0.014114
  12 C :   -0.085996
  13 H :    0.031164
  14 H :    0.023101
  15 H :    0.069722
  16 S :    0.109559
  17 C :   -0.093499
  18 C :   -0.035501
  19 C :   -0.017709
  20 C :   -0.161507
  21 H :    0.019273
  22 C :    0.051393
  23 H :    0.034246
  24 H :    0.023950
  25 C :   -0.108082
  26 H :    0.033655
  27 H :    0.033684
  28 C :   -0.035427
  29 H :    0.038541
  30 H :    0.025133
  31 H :    0.034817
  32 H :    0.043629
  33 H :    0.049517
Sum of atomic charges:   -0.0000000

LOEWDIN ATOMIC CHARGES
----------------------
   0 S :    0.419369
   1 C :   -0.194475
   2 C :   -0.055105
   3 C :   -0.035538
   4 C :   -0.211698
   5 H :    0.011168
   6 C :   -0.022759
   7 H :    0.034673
   8 H :    0.023343
   9 C :   -0.042348
  10 H :    0.033813
  11 H :    0.015213
  12 C :   -0.077879
  13 H :    0.022774
  14 H :    0.029826
  15 H :    0.038230
  16 S :    0.390788
  17 C :   -0.175060
  18 C :   -0.068579
  19 C :   -0.049645
  20 C :   -0.204680
  21 H :    0.030584
  22 C :   -0.043243
  23 H :    0.033251
  24 H :    0.035286
  25 C :   -0.043523
  26 H :    0.019992
  27 H :    0.025286
  28 C :   -0.067815
  29 H :    0.026333
  30 H :    0.024643
  31 H :    0.027058
  32 H :    0.021845
  33 H :    0.028872

  Mayer bond orders larger than 0.100000
B(  0-S ,  1-C ) :   1.1449 B(  0-S ,  4-C ) :   1.1640 B(  1-C ,  2-C ) :   1.6081
B(  1-C , 32-H ) :   0.9671 B(  2-C ,  3-C ) :   1.2625 B(  2-C ,  6-C ) :   1.0042
B(  3-C ,  4-C ) :   1.5314 B(  3-C ,  5-H ) :   1.0037 B(  4-C , 20-C ) :   1.0442
B(  6-C ,  7-H ) :   0.9375 B(  6-C ,  8-H ) :   0.9375 B(  6-C ,  9-C ) :   1.0757
B(  9-C , 10-H ) :   0.9552 B(  9-C , 11-H ) :   0.9603 B(  9-C , 12-C ) :   1.0586
B( 12-C , 13-H ) :   0.9778 B( 12-C , 14-H ) :   0.9736 B( 12-C , 15-H ) :   0.9729
B( 16-S , 17-C ) :   1.1348 B( 16-S , 20-C ) :   1.1443 B( 17-C , 18-C ) :   1.6521
B( 17-C , 33-H ) :   0.9674 B( 18-C , 19-C ) :   1.2032 B( 18-C , 21-H ) :   0.9906
B( 19-C , 20-C ) :   1.5898 B( 19-C , 22-C ) :   1.0388 B( 22-C , 23-H ) :   0.9403
B( 22-C , 24-H ) :   0.9334 B( 22-C , 25-C ) :   1.0566 B( 25-C , 26-H ) :   0.9593
B( 25-C , 27-H ) :   0.9580 B( 25-C , 28-C ) :   1.0683 B( 28-C , 29-H ) :   0.9745
B( 28-C , 30-H ) :   0.9732 B( 28-C , 31-H ) :   0.9708

Dispersion correction           -0.015313687
FINAL SINGLE POINT ENERGY     -1339.861308204606

DIPOLE MOMENT
-------------
                                X             Y             Z
Electronic contribution:    -12.97596      -3.08463       5.71267
Nuclear contribution   :     13.44177       3.28432      -5.88426
                        -----------------------------------------
Total Dipole Moment    :      0.46581       0.19968      -0.17159
                        -----------------------------------------
Magnitude (a.u.)       :      0.53507
Magnitude (Debye)      :      1.36003

Rotational constants in cm-1:     0.022497     0.007907     0.007047
Rotational constants in MHz :   674.456065   237.057145   211.267628

                             ****ORCA TERMINATED NORMALLY****
TOTAL RUN TIME: 0 days 0 hours 0 minutes 30 seconds 271 msec
