                         Program Version 4.2.1 -  RELEASE  -
|  1> ! wB97X-D3 SP def2-SVP
|  2> %pal
|  3> nprocs 16
|  4> end
|  5>
|  6> * xyz 0 1
|  7> S 	 -71.706 	 43.9982 	 135.073
|  8> C 	 -72.5045 	 43.504 	 133.612
|  9> C 	 -71.9824 	 42.2852 	 133.219
| 10> C 	 -70.9996 	 41.8095 	 134.108
| 11> C 	 -70.6922 	 42.6295 	 135.181
| 12> H 	 -70.4603 	 40.8727 	 134.042
| 13> C 	 -72.4528 	 41.4999 	 132.034
| 14> H 	 -71.8575 	 40.5528 	 131.799
| 15> H 	 -72.1658 	 42.0742 	 131.188
| 16> C 	 -73.9467 	 41.2826 	 132.05
| 17> H 	 -74.1706 	 40.8472 	 133.019
| 18> H 	 -74.4444 	 42.2799 	 131.941
| 19> C 	 -74.5735 	 40.2756 	 131.017
| 20> H 	 -75.6077 	 40.1359 	 131.153
| 21> H 	 -74.4645 	 40.7467 	 129.98
| 22> H 	 -74.097 	 39.3187 	 131.032
| 23> S 	 -70.3848 	 42.6496 	 137.896
| 24> C 	 -68.7655 	 42.5441 	 138.516
| 25> C 	 -67.7906 	 42.5812 	 137.528
| 26> C 	 -68.2988 	 42.5336 	 136.212
| 27> C 	 -69.7155 	 42.5103 	 136.194
| 28> H 	 -66.7199 	 42.5798 	 137.669
| 29> C 	 -67.5135 	 42.5643 	 134.95
| 30> H 	 -68.1959 	 42.1618 	 134.281
| 31> H 	 -66.6984 	 41.8787 	 135.084
| 32> C 	 -67.1457 	 43.9811 	 134.587
| 33> H 	 -66.7585 	 44.593 	 135.419
| 34> H 	 -68.0979 	 44.4756 	 134.42
| 35> C 	 -66.3936 	 44.1676 	 133.25
| 36> H 	 -65.5151 	 43.4654 	 133.352
| 37> H 	 -66.0494 	 45.2296 	 133.139
| 38> H 	 -67.0403 	 43.9004 	 132.425
| 39> H 	 -73.3736 	 43.9367 	 133.076
| 40> H 	 -68.6001 	 42.3975 	 139.565
| 41> *
| 42>
| 43>                          ****END OF INPUT****

CARTESIAN COORDINATES (ANGSTROEM)
---------------------------------
  S    -71.706000   43.998200  135.073000
  C    -72.504500   43.504000  133.612000
  C    -71.982400   42.285200  133.219000
  C    -70.999600   41.809500  134.108000
  C    -70.692200   42.629500  135.181000
  H    -70.460300   40.872700  134.042000
  C    -72.452800   41.499900  132.034000
  H    -71.857500   40.552800  131.799000
  H    -72.165800   42.074200  131.188000
  C    -73.946700   41.282600  132.050000
  H    -74.170600   40.847200  133.019000
  H    -74.444400   42.279900  131.941000
  C    -74.573500   40.275600  131.017000
  H    -75.607700   40.135900  131.153000
  H    -74.464500   40.746700  129.980000
  H    -74.097000   39.318700  131.032000
  S    -70.384800   42.649600  137.896000
  C    -68.765500   42.544100  138.516000
  C    -67.790600   42.581200  137.528000
  C    -68.298800   42.533600  136.212000
  C    -69.715500   42.510300  136.194000
  H    -66.719900   42.579800  137.669000
  C    -67.513500   42.564300  134.950000
  H    -68.195900   42.161800  134.281000
  H    -66.698400   41.878700  135.084000
  C    -67.145700   43.981100  134.587000
  H    -66.758500   44.593000  135.419000
  H    -68.097900   44.475600  134.420000
  C    -66.393600   44.167600  133.250000
  H    -65.515100   43.465400  133.352000
  H    -66.049400   45.229600  133.139000
  H    -67.040300   43.900400  132.425000
  H    -73.373600   43.936700  133.076000
  H    -68.600100   42.397500  139.565000

 Total Charge           Charge          ....    0
 Multiplicity           Mult            ....    1
 Number of Electrons    NEL             ....  134
 Basis Dimension        Dim             ....  322

ORBITAL ENERGIES
----------------

  NO   OCC          E(Eh)            E(eV)
   0   2.0000     -88.965592     -2420.8768
   1   2.0000     -88.964740     -2420.8536
   2   2.0000     -10.328662      -281.0572
   3   2.0000     -10.322178      -280.8807
   4   2.0000     -10.320985      -280.8483
   5   2.0000     -10.313354      -280.6406
   6   2.0000     -10.305829      -280.4359
   7   2.0000     -10.297106      -280.1985
   8   2.0000     -10.294940      -280.1396
   9   2.0000     -10.290748      -280.0255
  10   2.0000     -10.290453      -280.0175
  11   2.0000     -10.288489      -279.9640
  12   2.0000     -10.283860      -279.8381
  13   2.0000     -10.282437      -279.7993
  14   2.0000     -10.282318      -279.7961
  15   2.0000     -10.280885      -279.7571
  16   2.0000      -8.080130      -219.8715
  17   2.0000      -8.079638      -219.8581
  18   2.0000      -6.038617      -164.3191
  19   2.0000      -6.038048      -164.3037
  20   2.0000      -6.034329      -164.2024
  21   2.0000      -6.034242      -164.2001
  22   2.0000      -6.031130      -164.1154
  23   2.0000      -6.030455      -164.0970
  24   2.0000      -1.011945       -27.5364
  25   2.0000      -0.984056       -26.7775
  26   2.0000      -0.916995       -24.9527
  27   2.0000      -0.915474       -24.9113
  28   2.0000      -0.870346       -23.6833
  29   2.0000      -0.852434       -23.1959
  30   2.0000      -0.844652       -22.9842
  31   2.0000      -0.812864       -22.1191
  32   2.0000      -0.787885       -21.4394
  33   2.0000      -0.770340       -20.9620
  34   2.0000      -0.707460       -19.2510
  35   2.0000      -0.702008       -19.1026
  36   2.0000      -0.695916       -18.9368
  37   2.0000      -0.665814       -18.1177
  38   2.0000      -0.641584       -17.4584
  39   2.0000      -0.615403       -16.7460
  40   2.0000      -0.598808       -16.2944
  41   2.0000      -0.572312       -15.5734
  42   2.0000      -0.569045       -15.4845
  43   2.0000      -0.559737       -15.2312
  44   2.0000      -0.530196       -14.4274
  45   2.0000      -0.522634       -14.2216
  46   2.0000      -0.520607       -14.1664
  47   2.0000      -0.516256       -14.0480
  48   2.0000      -0.508556       -13.8385
  49   2.0000      -0.504426       -13.7261
  50   2.0000      -0.492792       -13.4096
  51   2.0000      -0.480718       -13.0810
  52   2.0000      -0.471935       -12.8420
  53   2.0000      -0.464280       -12.6337
  54   2.0000      -0.456642       -12.4259
  55   2.0000      -0.452029       -12.3003
  56   2.0000      -0.448509       -12.2046
  57   2.0000      -0.436094       -11.8667
  58   2.0000      -0.430911       -11.7257
  59   2.0000      -0.426821       -11.6144
  60   2.0000      -0.416598       -11.3362
  61   2.0000      -0.412038       -11.2121
  62   2.0000      -0.408068       -11.1041
  63   2.0000      -0.339968        -9.2510
  64   2.0000      -0.335754        -9.1363
  65   2.0000      -0.329053        -8.9540
  66   2.0000      -0.290451        -7.9036
  67   0.0000       0.029329         0.7981
  68   0.0000       0.057624         1.5680
  69   0.0000       0.111559         3.0357
  70   0.0000       0.125917         3.4264
  71   0.0000       0.135183         3.6785

MULLIKEN ATOMIC CHARGES
-----------------------
   0 S :    0.127937
   1 C :   -0.134267
   2 C :   -0.088531
   3 C :    0.037639
   4 C :   -0.172680
   5 H :    0.005000
   6 C :    0.087175
   7 H :    0.024836
   8 H :    0.019942
   9 C :   -0.117812
  10 H :    0.036828
  11 H :    0.036777
  12 C :   -0.037027
  13 H :    0.031181
  14 H :    0.031251
  15 H :    0.031794
  16 S :    0.093624
  17 C :   -0.073068
  18 C :   -0.023589
  19 C :   -0.072781
  20 C :   -0.193527
  21 H :    0.011202
  22 C :    0.192672
  23 H :   -0.014309
  24 H :    0.016117
  25 C :   -0.110526
  26 H :    0.031476
  27 H :    0.020183
  28 C :   -0.036097
  29 H :    0.033878
  30 H :    0.047077
  31 H :    0.039781
  32 H :    0.058945
  33 H :    0.058898
Sum of atomic charges:   -0.0000000

LOEWDIN ATOMIC CHARGES
----------------------
   0 S :    0.439182
   1 C :   -0.215428
   2 C :   -0.065696
   3 C :   -0.071584
   4 C :   -0.221673
   5 H :    0.028886
   6 C :   -0.040892
   7 H :    0.036490
   8 H :    0.027585
   9 C :   -0.041639
  10 H :    0.024848
  11 H :    0.026592
  12 C :   -0.063179
  13 H :    0.020741
  14 H :    0.030677
  15 H :    0.021299
  16 S :    0.381588
  17 C :   -0.173539
  18 C :   -0.074285
  19 C :   -0.034111
  20 C :   -0.183674
  21 H :    0.030974
  22 C :   -0.023114
  23 H :    0.024322
  24 H :    0.026560
  25 C :   -0.048234
  26 H :    0.026104
  27 H :    0.026573
  28 C :   -0.065775
  29 H :    0.027518
  30 H :    0.033725
  31 H :    0.024970
  32 H :    0.038852
  33 H :    0.025337

  Mayer bond orders larger than 0.100000
B(  0-S ,  1-C ) :   1.1481 B(  0-S ,  4-C ) :   1.1706 B(  1-C ,  2-C ) :   1.5673
B(  1-C ,  4-C ) :   0.1069 B(  1-C , 32-H ) :   0.9670 B(  2-C ,  3-C ) :   1.2797
B(  2-C ,  6-C ) :   1.0166 B(  3-C ,  4-C ) :   1.5345 B(  3-C ,  5-H ) :   0.9990
B(  4-C , 20-C ) :   1.0572 B(  6-C ,  7-H ) :   0.9462 B(  6-C ,  8-H ) :   0.9243
B(  6-C ,  9-C ) :   1.0564 B(  9-C , 10-H ) :   0.9639 B(  9-C , 11-H ) :   0.9514
B(  9-C , 12-C ) :   1.0854 B( 12-C , 13-H ) :   0.9760 B( 12-C , 14-H ) :   0.9752
B( 12-C , 15-H ) :   0.9757 B( 16-S , 17-C ) :   1.1704 B( 16-S , 20-C ) :   1.1254
B( 17-C , 18-C ) :   1.5667 B( 17-C , 20-C ) :   0.1150 B( 17-C , 33-H ) :   0.9710
B( 18-C , 19-C ) :   1.2687 B( 18-C , 21-H ) :   0.9892 B( 19-C , 20-C ) :   1.5654
B( 19-C , 22-C ) :   1.0363 B( 22-C , 23-H ) :   0.9086 B( 22-C , 24-H ) :   0.9170
B( 22-C , 25-C ) :   1.0617 B( 25-C , 26-H ) :   0.9609 B( 25-C , 27-H ) :   0.9474
B( 25-C , 28-C ) :   1.0757 B( 28-C , 29-H ) :   0.9769 B( 28-C , 30-H ) :   0.9736
B( 28-C , 31-H ) :   0.9755

Dispersion correction           -0.014051249
FINAL SINGLE POINT ENERGY     -1339.872670809257

DIPOLE MOMENT
-------------
                                X             Y             Z
Electronic contribution:     -2.82371       5.78885      23.85936
Nuclear contribution   :      3.04764      -6.01984     -24.25886
                        -----------------------------------------
Total Dipole Moment    :      0.22393      -0.23099      -0.39949
                        -----------------------------------------
Magnitude (a.u.)       :      0.51293
Magnitude (Debye)      :      1.30376

Rotational constants in cm-1:     0.020477     0.007689     0.006416
Rotational constants in MHz :   613.888348   230.518048   192.349416

                             ****ORCA TERMINATED NORMALLY****
TOTAL RUN TIME: 0 days 0 hours 0 minutes 34 seconds 433 msec
