                         Program Version 4.2.1 -  RELEASE  -
|  1> ! wB97X-D3 SP def2-SVP
|  2> %pal
|  3> nprocs 16
|  4> end
|  5>
|  6> * xyz 0 1
|  7> S 	 47.3178 	 16.0851 	 77.3515
|  8> C 	 46.7498 	 17.5185 	 78.0797
|  9> C 	 47.6309 	 17.9604 	 79.0816
| 10> C 	 48.7572 	 17.0981 	 79.1435
| 11> C 	 48.5928 	 15.9216 	 78.5186
| 12> H 	 49.6539 	 17.2249 	 79.7353
| 13> C 	 47.3557 	 19.1188 	 79.964
| 14> H 	 46.6274 	 19.8556 	 79.5218
| 15> H 	 48.3312 	 19.6494 	 80.0294
| 16> C 	 46.748 	 18.7257 	 81.2678
| 17> H 	 47.4105 	 17.9398 	 81.643
| 18> H 	 46.8193 	 19.5778 	 81.9397
| 19> C 	 45.3625 	 18.0715 	 81.1859
| 20> H 	 44.5836 	 18.729 	 80.7829
| 21> H 	 45.4517 	 17.2111 	 80.5043
| 22> H 	 44.9519 	 17.644 	 82.0679
| 23> S 	 49.7538 	 13.9173 	 79.873
| 24> C 	 50.8721 	 12.8706 	 78.9779
| 25> C 	 51.151 	 13.3646 	 77.742
| 26> C 	 50.453 	 14.5949 	 77.4465
| 27> C 	 49.5611 	 14.8658 	 78.4682
| 28> H 	 51.8951 	 12.9801 	 77.0408
| 29> C 	 50.7029 	 15.3757 	 76.1196
| 30> H 	 50.0692 	 16.208 	 76.2982
| 31> H 	 50.3759 	 14.7634 	 75.2236
| 32> C 	 52.1315 	 15.8226 	 75.7089
| 33> H 	 52.0357 	 16.2154 	 74.7014
| 34> H 	 52.8059 	 14.9035 	 75.5993
| 35> C 	 52.8805 	 16.9885 	 76.5141
| 36> H 	 53.7783 	 17.1237 	 75.9148
| 37> H 	 53.1484 	 16.6885 	 77.4977
| 38> H 	 52.4327 	 17.9581 	 76.4567
| 39> H 	 45.8239 	 18.0472 	 77.8645
| 40> H 	 51.289 	 11.9975 	 79.4331
| 41> *
| 42>
| 43>                          ****END OF INPUT****

CARTESIAN COORDINATES (ANGSTROEM)
---------------------------------
  S     47.317800   16.085100   77.351500
  C     46.749800   17.518500   78.079700
  C     47.630900   17.960400   79.081600
  C     48.757200   17.098100   79.143500
  C     48.592800   15.921600   78.518600
  H     49.653900   17.224900   79.735300
  C     47.355700   19.118800   79.964000
  H     46.627400   19.855600   79.521800
  H     48.331200   19.649400   80.029400
  C     46.748000   18.725700   81.267800
  H     47.410500   17.939800   81.643000
  H     46.819300   19.577800   81.939700
  C     45.362500   18.071500   81.185900
  H     44.583600   18.729000   80.782900
  H     45.451700   17.211100   80.504300
  H     44.951900   17.644000   82.067900
  S     49.753800   13.917300   79.873000
  C     50.872100   12.870600   78.977900
  C     51.151000   13.364600   77.742000
  C     50.453000   14.594900   77.446500
  C     49.561100   14.865800   78.468200
  H     51.895100   12.980100   77.040800
  C     50.702900   15.375700   76.119600
  H     50.069200   16.208000   76.298200
  H     50.375900   14.763400   75.223600
  C     52.131500   15.822600   75.708900
  H     52.035700   16.215400   74.701400
  H     52.805900   14.903500   75.599300
  C     52.880500   16.988500   76.514100
  H     53.778300   17.123700   75.914800
  H     53.148400   16.688500   77.497700
  H     52.432700   17.958100   76.456700
  H     45.823900   18.047200   77.864500
  H     51.289000   11.997500   79.433100

 Total Charge           Charge          ....    0
 Multiplicity           Mult            ....    1
 Number of Electrons    NEL             ....  134
 Basis Dimension        Dim             ....  322

ORBITAL ENERGIES
----------------

  NO   OCC          E(Eh)            E(eV)
   0   2.0000     -88.965521     -2420.8749
   1   2.0000     -88.963446     -2420.8185
   2   2.0000     -10.318615      -280.7838
   3   2.0000     -10.316595      -280.7288
   4   2.0000     -10.314486      -280.6714
   5   2.0000     -10.309910      -280.5469
   6   2.0000     -10.301160      -280.3088
   7   2.0000     -10.299344      -280.2594
   8   2.0000     -10.296529      -280.1828
   9   2.0000     -10.295727      -280.1610
  10   2.0000     -10.292436      -280.0714
  11   2.0000     -10.291667      -280.0505
  12   2.0000     -10.288070      -279.9526
  13   2.0000     -10.282561      -279.8027
  14   2.0000     -10.276171      -279.6288
  15   2.0000     -10.273148      -279.5466
  16   2.0000      -8.080940      -219.8935
  17   2.0000      -8.078961      -219.8397
  18   2.0000      -6.039404      -164.3405
  19   2.0000      -6.037284      -164.2828
  20   2.0000      -6.035493      -164.2341
  21   2.0000      -6.033398      -164.1771
  22   2.0000      -6.031568      -164.1273
  23   2.0000      -6.029824      -164.0799
  24   2.0000      -1.015870       -27.6432
  25   2.0000      -0.989230       -26.9183
  26   2.0000      -0.919694       -25.0262
  27   2.0000      -0.896204       -24.3870
  28   2.0000      -0.873108       -23.7585
  29   2.0000      -0.848606       -23.0917
  30   2.0000      -0.844073       -22.9684
  31   2.0000      -0.814590       -22.1661
  32   2.0000      -0.786856       -21.4114
  33   2.0000      -0.774701       -21.0807
  34   2.0000      -0.707254       -19.2454
  35   2.0000      -0.698219       -18.9995
  36   2.0000      -0.688342       -18.7307
  37   2.0000      -0.661302       -17.9949
  38   2.0000      -0.641712       -17.4619
  39   2.0000      -0.618943       -16.8423
  40   2.0000      -0.593598       -16.1526
  41   2.0000      -0.572655       -15.5827
  42   2.0000      -0.550028       -14.9670
  43   2.0000      -0.546390       -14.8680
  44   2.0000      -0.543463       -14.7884
  45   2.0000      -0.541056       -14.7229
  46   2.0000      -0.515610       -14.0305
  47   2.0000      -0.512860       -13.9556
  48   2.0000      -0.500477       -13.6187
  49   2.0000      -0.491912       -13.3856
  50   2.0000      -0.487806       -13.2739
  51   2.0000      -0.477314       -12.9884
  52   2.0000      -0.472619       -12.8606
  53   2.0000      -0.465207       -12.6589
  54   2.0000      -0.460587       -12.5332
  55   2.0000      -0.452300       -12.3077
  56   2.0000      -0.450568       -12.2606
  57   2.0000      -0.439761       -11.9665
  58   2.0000      -0.429772       -11.6947
  59   2.0000      -0.425572       -11.5804
  60   2.0000      -0.417021       -11.3477
  61   2.0000      -0.411009       -11.1841
  62   2.0000      -0.406084       -11.0501
  63   2.0000      -0.341486        -9.2923
  64   2.0000      -0.334384        -9.0990
  65   2.0000      -0.318717        -8.6727
  66   2.0000      -0.299565        -8.1516
  67   0.0000       0.042726         1.1626
  68   0.0000       0.062019         1.6876
  69   0.0000       0.102650         2.7933
  70   0.0000       0.118890         3.2352
  71   0.0000       0.133860         3.6425

MULLIKEN ATOMIC CHARGES
-----------------------
   0 S :    0.120597
   1 C :   -0.106114
   2 C :   -0.109492
   3 C :    0.033766
   4 C :   -0.183598
   5 H :    0.012442
   6 C :    0.048435
   7 H :    0.022481
   8 H :    0.036272
   9 C :   -0.038256
  10 H :    0.021410
  11 H :    0.031278
  12 C :   -0.053988
  13 H :    0.023179
  14 H :    0.040580
  15 H :    0.029196
  16 S :    0.115435
  17 C :   -0.085655
  18 C :   -0.010933
  19 C :   -0.038776
  20 C :   -0.197159
  21 H :    0.019705
  22 C :    0.087641
  23 H :    0.016339
  24 H :    0.049841
  25 C :   -0.121438
  26 H :    0.032146
  27 H :    0.037111
  28 C :   -0.027869
  29 H :    0.024448
  30 H :    0.040744
  31 H :    0.033419
  32 H :    0.047961
  33 H :    0.048852
Sum of atomic charges:   -0.0000000

LOEWDIN ATOMIC CHARGES
----------------------
   0 S :    0.431313
   1 C :   -0.210170
   2 C :   -0.067106
   3 C :   -0.060732
   4 C :   -0.207460
   5 H :    0.031084
   6 C :   -0.040183
   7 H :    0.031203
   8 H :    0.038098
   9 C :   -0.041226
  10 H :    0.025685
  11 H :    0.022928
  12 C :   -0.067397
  13 H :    0.021806
  14 H :    0.031911
  15 H :    0.023501
  16 S :    0.415168
  17 C :   -0.174507
  18 C :   -0.065530
  19 C :   -0.058486
  20 C :   -0.216346
  21 H :    0.032594
  22 C :   -0.036159
  23 H :    0.020004
  24 H :    0.043954
  25 C :   -0.043149
  26 H :    0.026385
  27 H :    0.027981
  28 C :   -0.061657
  29 H :    0.029292
  30 H :    0.020815
  31 H :    0.023971
  32 H :    0.029645
  33 H :    0.022770

  Mayer bond orders larger than 0.100000
B(  0-S ,  1-C ) :   1.1571 B(  0-S ,  4-C ) :   1.1441 B(  1-C ,  2-C ) :   1.5804
B(  1-C , 32-H ) :   0.9673 B(  2-C ,  3-C ) :   1.2398 B(  2-C ,  6-C ) :   1.0381
B(  3-C ,  4-C ) :   1.5970 B(  3-C ,  5-H ) :   0.9925 B(  4-C , 20-C ) :   1.0017
B(  6-C ,  7-H ) :   0.9391 B(  6-C ,  8-H ) :   0.9333 B(  6-C ,  9-C ) :   1.0695
B(  9-C , 10-H ) :   0.9522 B(  9-C , 11-H ) :   0.9554 B(  9-C , 12-C ) :   1.0723
B( 12-C , 13-H ) :   0.9750 B( 12-C , 14-H ) :   0.9693 B( 12-C , 15-H ) :   0.9732
B( 16-S , 17-C ) :   1.1307 B( 16-S , 20-C ) :   1.1592 B( 17-C , 18-C ) :   1.6233
B( 17-C , 33-H ) :   0.9746 B( 18-C , 19-C ) :   1.2216 B( 18-C , 21-H ) :   0.9863
B( 19-C , 20-C ) :   1.6150 B( 19-C , 22-C ) :   1.0273 B( 22-C , 23-H ) :   0.9265
B( 22-C , 24-H ) :   0.9372 B( 22-C , 25-C ) :   1.0739 B( 25-C , 26-H ) :   0.9546
B( 25-C , 27-H ) :   0.9557 B( 25-C , 28-C ) :   1.0685 B( 28-C , 29-H ) :   0.9727
B( 28-C , 30-H ) :   0.9806 B( 28-C , 31-H ) :   0.9761

Dispersion correction           -0.014879741
FINAL SINGLE POINT ENERGY     -1339.868703405460

DIPOLE MOMENT
-------------
                                X             Y             Z
Electronic contribution:     -4.08844     -15.11793       0.41072
Nuclear contribution   :      4.41988      15.44411      -0.50821
                        -----------------------------------------
Total Dipole Moment    :      0.33144       0.32618      -0.09750
                        -----------------------------------------
Magnitude (a.u.)       :      0.47513
Magnitude (Debye)      :      1.20769

Rotational constants in cm-1:     0.021179     0.008348     0.007284
Rotational constants in MHz :   634.939285   250.272651   218.360399

                             ****ORCA TERMINATED NORMALLY****
TOTAL RUN TIME: 0 days 0 hours 0 minutes 29 seconds 193 msec
