                         Program Version 4.2.1 -  RELEASE  -
|  1> ! wB97X-D3 SP def2-SVP
|  2> %pal
|  3> nprocs 16
|  4> end
|  5>
|  6> * xyz 0 1
|  7> S 	 14.0355 	 -13.1485 	 80.0694
|  8> C 	 15.0513 	 -12.6761 	 78.6519
|  9> C 	 14.7523 	 -13.479 	 77.6385
| 10> C 	 13.6631 	 -14.4116 	 77.8564
| 11> C 	 13.0556 	 -14.2785 	 79.1041
| 12> H 	 13.3618 	 -15.238 	 77.2525
| 13> C 	 15.468 	 -13.5454 	 76.2875
| 14> H 	 15.301 	 -14.5374 	 75.8828
| 15> H 	 16.504 	 -13.3537 	 76.4559
| 16> C 	 14.9458 	 -12.6233 	 75.1988
| 17> H 	 13.817 	 -12.5174 	 75.2538
| 18> H 	 15.2699 	 -11.6259 	 75.4678
| 19> C 	 15.4743 	 -12.9985 	 73.7271
| 20> H 	 16.5472 	 -12.9259 	 73.6124
| 21> H 	 15.086 	 -13.971 	 73.5368
| 22> H 	 14.9663 	 -12.3272 	 73.0291
| 23> S 	 12.355 	 -15.7701 	 81.3506
| 24> C 	 10.7911 	 -16.425 	 81.5139
| 25> C 	 10.1655 	 -16.4355 	 80.3169
| 26> C 	 10.8142 	 -15.6368 	 79.3227
| 27> C 	 12.0016 	 -15.1187 	 79.7059
| 28> H 	 9.22242 	 -16.991 	 80.076
| 29> C 	 10.2305 	 -15.4289 	 77.8937
| 30> H 	 10.767 	 -14.517 	 77.5628
| 31> H 	 9.15277 	 -15.1941 	 78.0508
| 32> C 	 10.5527 	 -16.4665 	 76.8318
| 33> H 	 10.0984 	 -17.4283 	 77.1027
| 34> H 	 11.6052 	 -16.6633 	 76.8349
| 35> C 	 10.1984 	 -16.0153 	 75.4506
| 36> H 	 9.10366 	 -15.9684 	 75.3035
| 37> H 	 10.5421 	 -16.7842 	 74.7916
| 38> H 	 10.502 	 -15.0564 	 75.2376
| 39> H 	 15.9381 	 -12.0061 	 78.7261
| 40> H 	 10.3666 	 -16.8475 	 82.4331
| 41> *
| 42>
| 43>                          ****END OF INPUT****

CARTESIAN COORDINATES (ANGSTROEM)
---------------------------------
  S     14.035500  -13.148500   80.069400
  C     15.051300  -12.676100   78.651900
  C     14.752300  -13.479000   77.638500
  C     13.663100  -14.411600   77.856400
  C     13.055600  -14.278500   79.104100
  H     13.361800  -15.238000   77.252500
  C     15.468000  -13.545400   76.287500
  H     15.301000  -14.537400   75.882800
  H     16.504000  -13.353700   76.455900
  C     14.945800  -12.623300   75.198800
  H     13.817000  -12.517400   75.253800
  H     15.269900  -11.625900   75.467800
  C     15.474300  -12.998500   73.727100
  H     16.547200  -12.925900   73.612400
  H     15.086000  -13.971000   73.536800
  H     14.966300  -12.327200   73.029100
  S     12.355000  -15.770100   81.350600
  C     10.791100  -16.425000   81.513900
  C     10.165500  -16.435500   80.316900
  C     10.814200  -15.636800   79.322700
  C     12.001600  -15.118700   79.705900
  H      9.222420  -16.991000   80.076000
  C     10.230500  -15.428900   77.893700
  H     10.767000  -14.517000   77.562800
  H      9.152770  -15.194100   78.050800
  C     10.552700  -16.466500   76.831800
  H     10.098400  -17.428300   77.102700
  H     11.605200  -16.663300   76.834900
  C     10.198400  -16.015300   75.450600
  H      9.103660  -15.968400   75.303500
  H     10.542100  -16.784200   74.791600
  H     10.502000  -15.056400   75.237600
  H     15.938100  -12.006100   78.726100
  H     10.366600  -16.847500   82.433100

 Total Charge           Charge          ....    0
 Multiplicity           Mult            ....    1
 Number of Electrons    NEL             ....  134
 Basis Dimension        Dim             ....  322

ORBITAL ENERGIES
----------------

  NO   OCC          E(Eh)            E(eV)
   0   2.0000     -88.963256     -2420.8133
   1   2.0000     -88.959166     -2420.7020
   2   2.0000     -10.339219      -281.3444
   3   2.0000     -10.329223      -281.0724
   4   2.0000     -10.319875      -280.8181
   5   2.0000     -10.315661      -280.7034
   6   2.0000     -10.301823      -280.3268
   7   2.0000     -10.301683      -280.3230
   8   2.0000     -10.298273      -280.2303
   9   2.0000     -10.294811      -280.1360
  10   2.0000     -10.293186      -280.0918
  11   2.0000     -10.292159      -280.0639
  12   2.0000     -10.288270      -279.9581
  13   2.0000     -10.284559      -279.8571
  14   2.0000     -10.283656      -279.8325
  15   2.0000     -10.271129      -279.4916
  16   2.0000      -8.076904      -219.7837
  17   2.0000      -8.074614      -219.7214
  18   2.0000      -6.035706      -164.2399
  19   2.0000      -6.033175      -164.1710
  20   2.0000      -6.031610      -164.1285
  21   2.0000      -6.029142      -164.0613
  22   2.0000      -6.027319      -164.0117
  23   2.0000      -6.025113      -163.9517
  24   2.0000      -1.007154       -27.4061
  25   2.0000      -0.985795       -26.8248
  26   2.0000      -0.915051       -24.8998
  27   2.0000      -0.908814       -24.7301
  28   2.0000      -0.871666       -23.7192
  29   2.0000      -0.854308       -23.2469
  30   2.0000      -0.837662       -22.7939
  31   2.0000      -0.816570       -22.2200
  32   2.0000      -0.783246       -21.3132
  33   2.0000      -0.777402       -21.1542
  34   2.0000      -0.707546       -19.2533
  35   2.0000      -0.700635       -19.0652
  36   2.0000      -0.697979       -18.9930
  37   2.0000      -0.662463       -18.0265
  38   2.0000      -0.642445       -17.4818
  39   2.0000      -0.616141       -16.7660
  40   2.0000      -0.596396       -16.2288
  41   2.0000      -0.570929       -15.5358
  42   2.0000      -0.568313       -15.4646
  43   2.0000      -0.558773       -15.2050
  44   2.0000      -0.537631       -14.6297
  45   2.0000      -0.521656       -14.1950
  46   2.0000      -0.518227       -14.1017
  47   2.0000      -0.515463       -14.0265
  48   2.0000      -0.511742       -13.9252
  49   2.0000      -0.502104       -13.6629
  50   2.0000      -0.489849       -13.3295
  51   2.0000      -0.486654       -13.2425
  52   2.0000      -0.477378       -12.9901
  53   2.0000      -0.467588       -12.7237
  54   2.0000      -0.463798       -12.6206
  55   2.0000      -0.449763       -12.2387
  56   2.0000      -0.441635       -12.0175
  57   2.0000      -0.438430       -11.9303
  58   2.0000      -0.434061       -11.8114
  59   2.0000      -0.420894       -11.4531
  60   2.0000      -0.419485       -11.4148
  61   2.0000      -0.410229       -11.1629
  62   2.0000      -0.407570       -11.0905
  63   2.0000      -0.353264        -9.6128
  64   2.0000      -0.329385        -8.9630
  65   2.0000      -0.326399        -8.8818
  66   2.0000      -0.299802        -8.1580
  67   0.0000       0.022607         0.6152
  68   0.0000       0.076605         2.0845
  69   0.0000       0.102317         2.7842
  70   0.0000       0.120813         3.2875
  71   0.0000       0.133233         3.6255

MULLIKEN ATOMIC CHARGES
-----------------------
   0 S :    0.080685
   1 C :   -0.140463
   2 C :   -0.065452
   3 C :    0.029355
   4 C :   -0.122604
   5 H :    0.001121
   6 C :    0.093830
   7 H :    0.010435
   8 H :    0.020073
   9 C :   -0.106862
  10 H :    0.037544
  11 H :    0.015635
  12 C :   -0.034011
  13 H :    0.044028
  14 H :    0.027202
  15 H :    0.037611
  16 S :    0.086122
  17 C :   -0.083821
  18 C :   -0.036909
  19 C :   -0.067683
  20 C :   -0.144646
  21 H :    0.031621
  22 C :    0.027849
  23 H :    0.023142
  24 H :    0.037503
  25 C :   -0.045716
  26 H :    0.020572
  27 H :    0.014879
  28 C :    0.007186
  29 H :    0.021253
  30 H :    0.032269
  31 H :    0.011732
  32 H :    0.068399
  33 H :    0.068121
Sum of atomic charges:   -0.0000000

LOEWDIN ATOMIC CHARGES
----------------------
   0 S :    0.364662
   1 C :   -0.179750
   2 C :   -0.064790
   3 C :   -0.060253
   4 C :   -0.175277
   5 H :    0.025843
   6 C :   -0.028468
   7 H :    0.026123
   8 H :    0.025250
   9 C :   -0.043086
  10 H :    0.029583
  11 H :    0.015817
  12 C :   -0.057877
  13 H :    0.026159
  14 H :    0.019714
  15 H :    0.030131
  16 S :    0.390861
  17 C :   -0.190354
  18 C :   -0.085662
  19 C :   -0.060265
  20 C :   -0.180136
  21 H :    0.038384
  22 C :   -0.032313
  23 H :    0.031639
  24 H :    0.032889
  25 C :   -0.040061
  26 H :    0.024089
  27 H :    0.018764
  28 C :   -0.053438
  29 H :    0.028603
  30 H :    0.028168
  31 H :    0.013883
  32 H :    0.042965
  33 H :    0.038205

  Mayer bond orders larger than 0.100000
B(  0-S ,  1-C ) :   1.0979 B(  0-S ,  4-C ) :   1.1389 B(  1-C ,  2-C ) :   1.6658
B(  1-C , 32-H ) :   0.9654 B(  2-C ,  3-C ) :   1.2023 B(  2-C ,  6-C ) :   1.0208
B(  3-C ,  4-C ) :   1.5819 B(  3-C ,  5-H ) :   0.9961 B(  4-C , 20-C ) :   1.0407
B(  6-C ,  7-H ) :   0.9422 B(  6-C ,  8-H ) :   0.9390 B(  6-C ,  9-C ) :   1.0604
B(  9-C , 10-H ) :   0.9588 B(  9-C , 11-H ) :   0.9546 B(  9-C , 12-C ) :   1.0668
B( 12-C , 13-H ) :   0.9783 B( 12-C , 14-H ) :   0.9778 B( 12-C , 15-H ) :   0.9761
B( 16-S , 17-C ) :   1.1595 B( 16-S , 20-C ) :   1.1110 B( 17-C , 18-C ) :   1.6023
B( 17-C , 33-H ) :   0.9654 B( 18-C , 19-C ) :   1.2395 B( 18-C , 21-H ) :   0.9829
B( 19-C , 20-C ) :   1.6513 B( 19-C , 22-C ) :   1.0312 B( 22-C , 23-H ) :   0.9315
B( 22-C , 24-H ) :   0.9377 B( 22-C , 25-C ) :   1.0711 B( 25-C , 26-H ) :   0.9454
B( 25-C , 27-H ) :   0.9487 B( 25-C , 28-C ) :   1.0920 B( 28-C , 29-H ) :   0.9706
B( 28-C , 30-H ) :   0.9713 B( 28-C , 31-H ) :   0.9719

Dispersion correction           -0.013935774
FINAL SINGLE POINT ENERGY     -1339.869618370586

DIPOLE MOMENT
-------------
                                X             Y             Z
Electronic contribution:      1.97375       0.44018      32.93903
Nuclear contribution   :     -2.04017      -0.69841     -33.65761
                        -----------------------------------------
Total Dipole Moment    :     -0.06641      -0.25823      -0.71858
                        -----------------------------------------
Magnitude (a.u.)       :      0.76645
Magnitude (Debye)      :      1.94817

Rotational constants in cm-1:     0.017935     0.009019     0.006272
Rotational constants in MHz :   537.692097   270.393176   188.016311

                             ****ORCA TERMINATED NORMALLY****
TOTAL RUN TIME: 0 days 0 hours 0 minutes 29 seconds 625 msec
