                         Program Version 4.2.1 -  RELEASE  -
|  1> ! wB97X-D3 SP def2-SVP
|  2> %pal
|  3> nprocs 16
|  4> end
|  5>
|  6> * xyz 0 1
|  7> S 	 -50.23 	 64.1931 	 131.542
|  8> C 	 -50.1537 	 63.2475 	 130.086
|  9> C 	 -51.0068 	 62.1801 	 130.086
| 10> C 	 -51.6399 	 62.0133 	 131.366
| 11> C 	 -51.4904 	 63.1261 	 132.202
| 12> H 	 -52.2814 	 61.2026 	 131.657
| 13> C 	 -51.2016 	 61.2657 	 128.901
| 14> H 	 -51.1379 	 61.8359 	 127.994
| 15> H 	 -52.2076 	 60.8694 	 128.927
| 16> C 	 -50.1605 	 60.1646 	 128.696
| 17> H 	 -49.1061 	 60.5463 	 128.708
| 18> H 	 -50.3298 	 59.5498 	 129.627
| 19> C 	 -50.4427 	 59.3516 	 127.455
| 20> H 	 -51.3881 	 58.8355 	 127.44
| 21> H 	 -50.3744 	 59.8451 	 126.536
| 22> H 	 -49.7303 	 58.5216 	 127.446
| 23> S 	 -50.9291 	 64.1233 	 134.73
| 24> C 	 -52.1465 	 64.0109 	 135.978
| 25> C 	 -53.333 	 63.5057 	 135.493
| 26> C 	 -53.2615 	 63.1289 	 134.052
| 27> C 	 -51.9785 	 63.381 	 133.493
| 28> H 	 -54.2474 	 63.2348 	 136.088
| 29> C 	 -54.5058 	 62.6132 	 133.442
| 30> H 	 -55.0153 	 61.7348 	 134.044
| 31> H 	 -54.3139 	 61.9883 	 132.533
| 32> C 	 -55.5804 	 63.6405 	 133.065
| 33> H 	 -56.1017 	 63.8777 	 134.035
| 34> H 	 -56.3434 	 63.2896 	 132.329
| 35> C 	 -55.0319 	 64.9436 	 132.33
| 36> H 	 -54.1733 	 65.455 	 132.81
| 37> H 	 -55.8582 	 65.634 	 132.158
| 38> H 	 -54.7116 	 64.6239 	 131.334
| 39> H 	 -49.5549 	 63.5763 	 129.269
| 40> H 	 -52.1087 	 64.4115 	 136.969
| 41> *
| 42>
| 43>                          ****END OF INPUT****

CARTESIAN COORDINATES (ANGSTROEM)
---------------------------------
  S    -50.230000   64.193100  131.542000
  C    -50.153700   63.247500  130.086000
  C    -51.006800   62.180100  130.086000
  C    -51.639900   62.013300  131.366000
  C    -51.490400   63.126100  132.202000
  H    -52.281400   61.202600  131.657000
  C    -51.201600   61.265700  128.901000
  H    -51.137900   61.835900  127.994000
  H    -52.207600   60.869400  128.927000
  C    -50.160500   60.164600  128.696000
  H    -49.106100   60.546300  128.708000
  H    -50.329800   59.549800  129.627000
  C    -50.442700   59.351600  127.455000
  H    -51.388100   58.835500  127.440000
  H    -50.374400   59.845100  126.536000
  H    -49.730300   58.521600  127.446000
  S    -50.929100   64.123300  134.730000
  C    -52.146500   64.010900  135.978000
  C    -53.333000   63.505700  135.493000
  C    -53.261500   63.128900  134.052000
  C    -51.978500   63.381000  133.493000
  H    -54.247400   63.234800  136.088000
  C    -54.505800   62.613200  133.442000
  H    -55.015300   61.734800  134.044000
  H    -54.313900   61.988300  132.533000
  C    -55.580400   63.640500  133.065000
  H    -56.101700   63.877700  134.035000
  H    -56.343400   63.289600  132.329000
  C    -55.031900   64.943600  132.330000
  H    -54.173300   65.455000  132.810000
  H    -55.858200   65.634000  132.158000
  H    -54.711600   64.623900  131.334000
  H    -49.554900   63.576300  129.269000
  H    -52.108700   64.411500  136.969000

 Total Charge           Charge          ....    0
 Multiplicity           Mult            ....    1
 Number of Electrons    NEL             ....  134
 Basis Dimension        Dim             ....  322

ORBITAL ENERGIES
----------------

  NO   OCC          E(Eh)            E(eV)
   0   2.0000     -88.968302     -2420.9506
   1   2.0000     -88.964227     -2420.8397
   2   2.0000     -10.332930      -281.1733
   3   2.0000     -10.330685      -281.1122
   4   2.0000     -10.319612      -280.8109
   5   2.0000     -10.310980      -280.5760
   6   2.0000     -10.310484      -280.5625
   7   2.0000     -10.301774      -280.3255
   8   2.0000     -10.301046      -280.3057
   9   2.0000     -10.301020      -280.3050
  10   2.0000     -10.298694      -280.2417
  11   2.0000     -10.295702      -280.1603
  12   2.0000     -10.292602      -280.0759
  13   2.0000     -10.287327      -279.9324
  14   2.0000     -10.276055      -279.6257
  15   2.0000     -10.273310      -279.5510
  16   2.0000      -8.082437      -219.9343
  17   2.0000      -8.079154      -219.8450
  18   2.0000      -6.041264      -164.3911
  19   2.0000      -6.037645      -164.2927
  20   2.0000      -6.036952      -164.2738
  21   2.0000      -6.033700      -164.1853
  22   2.0000      -6.032966      -164.1653
  23   2.0000      -6.029863      -164.0809
  24   2.0000      -1.004837       -27.3430
  25   2.0000      -0.978903       -26.6373
  26   2.0000      -0.915704       -24.9176
  27   2.0000      -0.903033       -24.5728
  28   2.0000      -0.875861       -23.8334
  29   2.0000      -0.850735       -23.1497
  30   2.0000      -0.836446       -22.7608
  31   2.0000      -0.814700       -22.1691
  32   2.0000      -0.783486       -21.3197
  33   2.0000      -0.771033       -20.9809
  34   2.0000      -0.711444       -19.3594
  35   2.0000      -0.700069       -19.0499
  36   2.0000      -0.687098       -18.6969
  37   2.0000      -0.659416       -17.9436
  38   2.0000      -0.642613       -17.4864
  39   2.0000      -0.620938       -16.8966
  40   2.0000      -0.595119       -16.1940
  41   2.0000      -0.571539       -15.5524
  42   2.0000      -0.559646       -15.2287
  43   2.0000      -0.547093       -14.8872
  44   2.0000      -0.537211       -14.6183
  45   2.0000      -0.525075       -14.2880
  46   2.0000      -0.514848       -14.0097
  47   2.0000      -0.511019       -13.9055
  48   2.0000      -0.509613       -13.8673
  49   2.0000      -0.500679       -13.6242
  50   2.0000      -0.493698       -13.4342
  51   2.0000      -0.474360       -12.9080
  52   2.0000      -0.471438       -12.8285
  53   2.0000      -0.463682       -12.6174
  54   2.0000      -0.456728       -12.4282
  55   2.0000      -0.447789       -12.1850
  56   2.0000      -0.444934       -12.1073
  57   2.0000      -0.437454       -11.9037
  58   2.0000      -0.430692       -11.7197
  59   2.0000      -0.425817       -11.5871
  60   2.0000      -0.417890       -11.3714
  61   2.0000      -0.411471       -11.1967
  62   2.0000      -0.399403       -10.8683
  63   2.0000      -0.358020        -9.7422
  64   2.0000      -0.331075        -9.0090
  65   2.0000      -0.327071        -8.9001
  66   2.0000      -0.283470        -7.7136
  67   0.0000       0.017750         0.4830
  68   0.0000       0.074954         2.0396
  69   0.0000       0.099578         2.7096
  70   0.0000       0.108389         2.9494
  71   0.0000       0.137407         3.7390

MULLIKEN ATOMIC CHARGES
-----------------------
   0 S :    0.091662
   1 C :   -0.106840
   2 C :   -0.074881
   3 C :    0.030563
   4 C :   -0.155089
   5 H :    0.013921
   6 C :    0.074358
   7 H :    0.009036
   8 H :    0.017902
   9 C :   -0.095253
  10 H :    0.042334
  11 H :    0.030354
  12 C :   -0.009942
  13 H :    0.019786
  14 H :    0.021933
  15 H :    0.029069
  16 S :    0.105076
  17 C :   -0.069702
  18 C :   -0.048889
  19 C :   -0.041176
  20 C :   -0.122109
  21 H :    0.045506
  22 C :   -0.000858
  23 H :    0.047626
  24 H :    0.011399
  25 C :   -0.093486
  26 H :    0.035043
  27 H :    0.041064
  28 C :   -0.071021
  29 H :    0.059662
  30 H :    0.035677
  31 H :    0.029409
  32 H :    0.040284
  33 H :    0.057582
Sum of atomic charges:    0.0000000

LOEWDIN ATOMIC CHARGES
----------------------
   0 S :    0.392825
   1 C :   -0.186816
   2 C :   -0.062797
   3 C :   -0.053336
   4 C :   -0.180060
   5 H :    0.027737
   6 C :   -0.034384
   7 H :    0.025437
   8 H :    0.028344
   9 C :   -0.041892
  10 H :    0.030430
  11 H :    0.029368
  12 C :   -0.064409
  13 H :    0.025208
  14 H :    0.017337
  15 H :    0.031203
  16 S :    0.391998
  17 C :   -0.185559
  18 C :   -0.071628
  19 C :   -0.052807
  20 C :   -0.193271
  21 H :    0.040877
  22 C :   -0.059804
  23 H :    0.045022
  24 H :    0.027618
  25 C :   -0.044160
  26 H :    0.022191
  27 H :    0.031566
  28 C :   -0.069598
  29 H :    0.029932
  30 H :    0.025501
  31 H :    0.024948
  32 H :    0.021588
  33 H :    0.031392

  Mayer bond orders larger than 0.100000
B(  0-S ,  1-C ) :   1.1401 B(  0-S ,  4-C ) :   1.1308 B(  1-C ,  2-C ) :   1.6134
B(  1-C , 32-H ) :   0.9714 B(  2-C ,  3-C ) :   1.2320 B(  2-C ,  6-C ) :   1.0284
B(  3-C ,  4-C ) :   1.5662 B(  3-C ,  5-H ) :   0.9868 B(  4-C , 20-C ) :   1.1254
B(  6-C ,  7-H ) :   0.9369 B(  6-C ,  8-H ) :   0.9401 B(  6-C ,  9-C ) :   1.0609
B(  9-C , 10-H ) :   0.9560 B(  9-C , 11-H ) :   0.9541 B(  9-C , 12-C ) :   1.0860
B( 12-C , 13-H ) :   0.9701 B( 12-C , 14-H ) :   0.9741 B( 12-C , 15-H ) :   0.9703
B( 16-S , 17-C ) :   1.1359 B( 16-S , 20-C ) :   1.1125 B( 17-C , 18-C ) :   1.6286
B( 17-C , 33-H ) :   0.9662 B( 18-C , 19-C ) :   1.2218 B( 18-C , 21-H ) :   0.9766
B( 19-C , 20-C ) :   1.5720 B( 19-C , 22-C ) :   1.0629 B( 22-C , 23-H ) :   0.9377
B( 22-C , 24-H ) :   0.9295 B( 22-C , 25-C ) :   1.0560 B( 25-C , 26-H ) :   0.9580
B( 25-C , 27-H ) :   0.9586 B( 25-C , 28-C ) :   1.0659 B( 28-C , 29-H ) :   0.9741
B( 28-C , 30-H ) :   0.9763 B( 28-C , 31-H ) :   0.9769

Dispersion correction           -0.014416778
FINAL SINGLE POINT ENERGY     -1339.876173910468

DIPOLE MOMENT
-------------
                                X             Y             Z
Electronic contribution:     13.88086      13.27564      17.54100
Nuclear contribution   :    -14.33005     -13.70561     -17.87774
                        -----------------------------------------
Total Dipole Moment    :     -0.44919      -0.42997      -0.33674
                        -----------------------------------------
Magnitude (a.u.)       :      0.70714
Magnitude (Debye)      :      1.79740

Rotational constants in cm-1:     0.021793     0.007615     0.006564
Rotational constants in MHz :   653.336177   228.279040   196.792014

                             ****ORCA TERMINATED NORMALLY****
TOTAL RUN TIME: 0 days 0 hours 0 minutes 34 seconds 663 msec
