                         Program Version 4.2.1 -  RELEASE  -
|  1> ! wB97X-D3 SP def2-SVP
|  2> %pal
|  3> nprocs 16
|  4> end
|  5>
|  6> * xyz 0 1
|  7> S 	 -16.9138 	 41.0169 	 55.8256
|  8> C 	 -15.7558 	 40.5743 	 54.5457
|  9> C 	 -16.1825 	 41.0683 	 53.3064
| 10> C 	 -17.4669 	 41.6087 	 53.4249
| 11> C 	 -17.9725 	 41.662 	 54.6595
| 12> H 	 -18.0342 	 42.07 	 52.668
| 13> C 	 -15.3501 	 41.1642 	 52.0003
| 14> H 	 -15.913 	 40.4531 	 51.3168
| 15> H 	 -14.4157 	 40.7354 	 52.2346
| 16> C 	 -15.2474 	 42.5861 	 51.3941
| 17> H 	 -14.6045 	 42.5323 	 50.4844
| 18> H 	 -16.1913 	 43.0399 	 50.9991
| 19> C 	 -14.5699 	 43.5258 	 52.4303
| 20> H 	 -13.5321 	 43.1378 	 52.5979
| 21> H 	 -14.3456 	 44.4886 	 51.9455
| 22> H 	 -15.1016 	 43.6714 	 53.3724
| 23> S 	 -19.0992 	 43.4078 	 56.3955
| 24> C 	 -20.8906 	 43.5847 	 56.2618
| 25> C 	 -21.4674 	 42.6348 	 55.4767
| 26> C 	 -20.5032 	 41.9066 	 54.7344
| 27> C 	 -19.2193 	 42.1993 	 55.107
| 28> H 	 -22.5031 	 42.6491 	 55.4245
| 29> C 	 -20.8916 	 40.7794 	 53.7781
| 30> H 	 -20.0392 	 40.179 	 53.5295
| 31> H 	 -21.2468 	 41.1615 	 52.8324
| 32> C 	 -21.8821 	 39.7414 	 54.3904
| 33> H 	 -22.7743 	 40.3061 	 54.6858
| 34> H 	 -21.4373 	 39.3861 	 55.3084
| 35> C 	 -22.2538 	 38.6526 	 53.3457
| 36> H 	 -21.3513 	 38.068 	 53.044
| 37> H 	 -22.8078 	 39.1059 	 52.455
| 38> H 	 -22.9389 	 37.9994 	 53.7508
| 39> H 	 -14.7681 	 40.2908 	 54.6685
| 40> H 	 -21.4462 	 44.4011 	 56.7445
| 41> *
| 42>
| 43>                          ****END OF INPUT****

CARTESIAN COORDINATES (ANGSTROEM)
---------------------------------
  S    -16.913800   41.016900   55.825600
  C    -15.755800   40.574300   54.545700
  C    -16.182500   41.068300   53.306400
  C    -17.466900   41.608700   53.424900
  C    -17.972500   41.662000   54.659500
  H    -18.034200   42.070000   52.668000
  C    -15.350100   41.164200   52.000300
  H    -15.913000   40.453100   51.316800
  H    -14.415700   40.735400   52.234600
  C    -15.247400   42.586100   51.394100
  H    -14.604500   42.532300   50.484400
  H    -16.191300   43.039900   50.999100
  C    -14.569900   43.525800   52.430300
  H    -13.532100   43.137800   52.597900
  H    -14.345600   44.488600   51.945500
  H    -15.101600   43.671400   53.372400
  S    -19.099200   43.407800   56.395500
  C    -20.890600   43.584700   56.261800
  C    -21.467400   42.634800   55.476700
  C    -20.503200   41.906600   54.734400
  C    -19.219300   42.199300   55.107000
  H    -22.503100   42.649100   55.424500
  C    -20.891600   40.779400   53.778100
  H    -20.039200   40.179000   53.529500
  H    -21.246800   41.161500   52.832400
  C    -21.882100   39.741400   54.390400
  H    -22.774300   40.306100   54.685800
  H    -21.437300   39.386100   55.308400
  C    -22.253800   38.652600   53.345700
  H    -21.351300   38.068000   53.044000
  H    -22.807800   39.105900   52.455000
  H    -22.938900   37.999400   53.750800
  H    -14.768100   40.290800   54.668500
  H    -21.446200   44.401100   56.744500

 Total Charge           Charge          ....    0
 Multiplicity           Mult            ....    1
 Number of Electrons    NEL             ....  134
 Basis Dimension        Dim             ....  322

ORBITAL ENERGIES
----------------

  NO   OCC          E(Eh)            E(eV)
   0   2.0000     -88.965209     -2420.8664
   1   2.0000     -88.963333     -2420.8154
   2   2.0000     -10.322000      -280.8759
   3   2.0000     -10.320007      -280.8217
   4   2.0000     -10.315119      -280.6887
   5   2.0000     -10.306564      -280.4559
   6   2.0000     -10.302131      -280.3352
   7   2.0000     -10.299380      -280.2604
   8   2.0000     -10.298801      -280.2446
   9   2.0000     -10.298013      -280.2232
  10   2.0000     -10.289627      -279.9950
  11   2.0000     -10.287340      -279.9328
  12   2.0000     -10.285986      -279.8959
  13   2.0000     -10.282335      -279.7966
  14   2.0000     -10.279973      -279.7323
  15   2.0000     -10.277411      -279.6626
  16   2.0000      -8.079155      -219.8450
  17   2.0000      -8.078528      -219.8279
  18   2.0000      -6.037665      -164.2932
  19   2.0000      -6.037009      -164.2754
  20   2.0000      -6.034036      -164.1945
  21   2.0000      -6.033043      -164.1674
  22   2.0000      -6.029696      -164.0764
  23   2.0000      -6.029206      -164.0630
  24   2.0000      -1.013008       -27.5654
  25   2.0000      -0.983591       -26.7649
  26   2.0000      -0.909068       -24.7370
  27   2.0000      -0.903058       -24.5735
  28   2.0000      -0.870870       -23.6976
  29   2.0000      -0.849603       -23.1189
  30   2.0000      -0.842022       -22.9126
  31   2.0000      -0.816723       -22.2242
  32   2.0000      -0.782120       -21.2826
  33   2.0000      -0.770706       -20.9720
  34   2.0000      -0.709015       -19.2933
  35   2.0000      -0.698967       -19.0198
  36   2.0000      -0.695112       -18.9150
  37   2.0000      -0.660773       -17.9806
  38   2.0000      -0.644459       -17.5366
  39   2.0000      -0.623035       -16.9536
  40   2.0000      -0.598061       -16.2741
  41   2.0000      -0.567884       -15.4529
  42   2.0000      -0.561123       -15.2689
  43   2.0000      -0.549242       -14.9456
  44   2.0000      -0.540886       -14.7183
  45   2.0000      -0.520680       -14.1684
  46   2.0000      -0.516887       -14.0652
  47   2.0000      -0.514843       -14.0096
  48   2.0000      -0.498362       -13.5611
  49   2.0000      -0.497444       -13.5361
  50   2.0000      -0.483420       -13.1545
  51   2.0000      -0.473992       -12.8980
  52   2.0000      -0.468690       -12.7537
  53   2.0000      -0.461900       -12.5689
  54   2.0000      -0.459284       -12.4977
  55   2.0000      -0.453499       -12.3403
  56   2.0000      -0.446122       -12.1396
  57   2.0000      -0.435006       -11.8371
  58   2.0000      -0.430302       -11.7091
  59   2.0000      -0.427913       -11.6441
  60   2.0000      -0.423955       -11.5364
  61   2.0000      -0.416485       -11.3331
  62   2.0000      -0.415690       -11.3115
  63   2.0000      -0.346244        -9.4218
  64   2.0000      -0.332402        -9.0451
  65   2.0000      -0.331114        -9.0101
  66   2.0000      -0.291251        -7.9253
  67   0.0000       0.035978         0.9790
  68   0.0000       0.064380         1.7519
  69   0.0000       0.105567         2.8726
  70   0.0000       0.129453         3.5226
  71   0.0000       0.131056         3.5662

MULLIKEN ATOMIC CHARGES
-----------------------
   0 S :    0.106353
   1 C :   -0.088530
   2 C :   -0.131170
   3 C :    0.042482
   4 C :   -0.153126
   5 H :   -0.017972
   6 C :    0.102132
   7 H :    0.048871
   8 H :    0.005509
   9 C :   -0.093816
  10 H :    0.037683
  11 H :    0.043111
  12 C :   -0.068614
  13 H :    0.025585
  14 H :    0.030554
  15 H :    0.064842
  16 S :    0.092618
  17 C :   -0.106142
  18 C :   -0.007653
  19 C :    0.003580
  20 C :   -0.157090
  21 H :   -0.001296
  22 C :    0.077067
  23 H :    0.018656
  24 H :    0.022133
  25 C :   -0.107923
  26 H :    0.026344
  27 H :    0.037910
  28 C :   -0.033357
  29 H :    0.044749
  30 H :    0.039679
  31 H :    0.019007
  32 H :    0.015510
  33 H :    0.062313
Sum of atomic charges:    0.0000000

LOEWDIN ATOMIC CHARGES
----------------------
   0 S :    0.411126
   1 C :   -0.191969
   2 C :   -0.054186
   3 C :   -0.070020
   4 C :   -0.203554
   5 H :    0.023931
   6 C :   -0.025798
   7 H :    0.041431
   8 H :    0.021024
   9 C :   -0.046493
  10 H :    0.030761
  11 H :    0.027495
  12 C :   -0.070042
  13 H :    0.028206
  14 H :    0.026177
  15 H :    0.030529
  16 S :    0.364808
  17 C :   -0.158960
  18 C :   -0.061152
  19 C :   -0.052110
  20 C :   -0.187161
  21 H :    0.023927
  22 C :   -0.028317
  23 H :    0.025925
  24 H :    0.025596
  25 C :   -0.035061
  26 H :    0.018936
  27 H :    0.025150
  28 C :   -0.063528
  29 H :    0.032029
  30 H :    0.035789
  31 H :    0.013910
  32 H :    0.009907
  33 H :    0.031696

  Mayer bond orders larger than 0.100000
B(  0-S ,  1-C ) :   1.1253 B(  0-S ,  4-C ) :   1.1533 B(  1-C ,  2-C ) :   1.6226
B(  1-C ,  4-C ) :   0.1014 B(  1-C , 32-H ) :   0.9686 B(  2-C ,  3-C ) :   1.2217
B(  2-C ,  6-C ) :   1.0091 B(  3-C ,  4-C ) :   1.6067 B(  3-C ,  5-H ) :   1.0087
B(  4-C , 20-C ) :   1.0185 B(  6-C ,  7-H ) :   0.9367 B(  6-C ,  8-H ) :   0.9404
B(  6-C ,  9-C ) :   1.0676 B(  9-C , 10-H ) :   0.9555 B(  9-C , 11-H ) :   0.9547
B(  9-C , 12-C ) :   1.0686 B( 12-C , 13-H ) :   0.9742 B( 12-C , 14-H ) :   0.9735
B( 12-C , 15-H ) :   0.9754 B( 16-S , 17-C ) :   1.1256 B( 16-S , 20-C ) :   1.1188
B( 17-C , 18-C ) :   1.6602 B( 17-C , 33-H ) :   0.9635 B( 18-C , 19-C ) :   1.1818
B( 18-C , 21-H ) :   0.9995 B( 19-C , 20-C ) :   1.6465 B( 19-C , 22-C ) :   1.0404
B( 22-C , 23-H ) :   0.9372 B( 22-C , 24-H ) :   0.9318 B( 22-C , 25-C ) :   1.0566
B( 25-C , 26-H ) :   0.9538 B( 25-C , 27-H ) :   0.9591 B( 25-C , 28-C ) :   1.0843
B( 28-C , 29-H ) :   0.9745 B( 28-C , 30-H ) :   0.9722 B( 28-C , 31-H ) :   0.9736

Dispersion correction           -0.014493148
FINAL SINGLE POINT ENERGY     -1339.872498586329

DIPOLE MOMENT
-------------
                                X             Y             Z
Electronic contribution:      1.77753       6.58565      19.84799
Nuclear contribution   :     -2.02053      -6.56015     -20.42494
                        -----------------------------------------
Total Dipole Moment    :     -0.24301       0.02550      -0.57695
                        -----------------------------------------
Magnitude (a.u.)       :      0.62656
Magnitude (Debye)      :      1.59258

Rotational constants in cm-1:     0.018489     0.008661     0.007237
Rotational constants in MHz :   554.294024   259.647424   216.968091

                             ****ORCA TERMINATED NORMALLY****
TOTAL RUN TIME: 0 days 0 hours 0 minutes 34 seconds 269 msec
