                         Program Version 4.2.1 -  RELEASE  -
|  1> ! wB97X-D3 SP def2-SVP
|  2> %pal
|  3> nprocs 16
|  4> end
|  5>
|  6> * xyz 0 1
|  7> S 	 -40.0069 	 52.5059 	 104.513
|  8> C 	 -38.5401 	 53.4862 	 104.694
|  9> C 	 -37.5322 	 52.7498 	 105.294
| 10> C 	 -37.9589 	 51.4326 	 105.634
| 11> C 	 -39.2454 	 51.0926 	 105.286
| 12> H 	 -37.329 	 50.7771 	 106.249
| 13> C 	 -36.137 	 53.2983 	 105.755
| 14> H 	 -35.958 	 54.2668 	 105.33
| 15> H 	 -35.3208 	 52.699 	 105.359
| 16> C 	 -35.9472 	 53.4764 	 107.291
| 17> H 	 -36.1064 	 52.5072 	 107.773
| 18> H 	 -34.952 	 53.697 	 107.573
| 19> C 	 -36.9018 	 54.5999 	 107.936
| 20> H 	 -36.5107 	 55.5326 	 107.679
| 21> H 	 -37.8831 	 54.4937 	 107.573
| 22> H 	 -36.8833 	 54.5712 	 109.047
| 23> S 	 -41.1872 	 49.8869 	 106.793
| 24> C 	 -41.3148 	 48.1622 	 106.857
| 25> C 	 -40.4273 	 47.5718 	 105.986
| 26> C 	 -39.686 	 48.5081 	 105.244
| 27> C 	 -39.9146 	 49.8374 	 105.598
| 28> H 	 -40.3058 	 46.5359 	 105.903
| 29> C 	 -38.7489 	 48.1065 	 104.166
| 30> H 	 -38.9141 	 48.7888 	 103.312
| 31> H 	 -39.0837 	 47.1505 	 103.759
| 32> C 	 -37.2704 	 48.078 	 104.412
| 33> H 	 -37.1626 	 47.7456 	 105.426
| 34> H 	 -36.8881 	 49.2259 	 104.465
| 35> C 	 -36.4609 	 47.1993 	 103.428
| 36> H 	 -36.9682 	 47.1259 	 102.462
| 37> H 	 -36.2161 	 46.2231 	 103.778
| 38> H 	 -35.517 	 47.5614 	 103.159
| 39> H 	 -38.5419 	 54.5722 	 104.377
| 40> H 	 -42.0099 	 47.6785 	 107.575
| 41> *
| 42>
| 43>                          ****END OF INPUT****

CARTESIAN COORDINATES (ANGSTROEM)
---------------------------------
  S    -40.006900   52.505900  104.513000
  C    -38.540100   53.486200  104.694000
  C    -37.532200   52.749800  105.294000
  C    -37.958900   51.432600  105.634000
  C    -39.245400   51.092600  105.286000
  H    -37.329000   50.777100  106.249000
  C    -36.137000   53.298300  105.755000
  H    -35.958000   54.266800  105.330000
  H    -35.320800   52.699000  105.359000
  C    -35.947200   53.476400  107.291000
  H    -36.106400   52.507200  107.773000
  H    -34.952000   53.697000  107.573000
  C    -36.901800   54.599900  107.936000
  H    -36.510700   55.532600  107.679000
  H    -37.883100   54.493700  107.573000
  H    -36.883300   54.571200  109.047000
  S    -41.187200   49.886900  106.793000
  C    -41.314800   48.162200  106.857000
  C    -40.427300   47.571800  105.986000
  C    -39.686000   48.508100  105.244000
  C    -39.914600   49.837400  105.598000
  H    -40.305800   46.535900  105.903000
  C    -38.748900   48.106500  104.166000
  H    -38.914100   48.788800  103.312000
  H    -39.083700   47.150500  103.759000
  C    -37.270400   48.078000  104.412000
  H    -37.162600   47.745600  105.426000
  H    -36.888100   49.225900  104.465000
  C    -36.460900   47.199300  103.428000
  H    -36.968200   47.125900  102.462000
  H    -36.216100   46.223100  103.778000
  H    -35.517000   47.561400  103.159000
  H    -38.541900   54.572200  104.377000
  H    -42.009900   47.678500  107.575000

 Total Charge           Charge          ....    0
 Multiplicity           Mult            ....    1
 Number of Electrons    NEL             ....  134
 Basis Dimension        Dim             ....  322

ORBITAL ENERGIES
----------------

  NO   OCC          E(Eh)            E(eV)
   0   2.0000     -88.966732     -2420.9079
   1   2.0000     -88.963024     -2420.8070
   2   2.0000     -10.333452      -281.1875
   3   2.0000     -10.326047      -280.9860
   4   2.0000     -10.325169      -280.9621
   5   2.0000     -10.320343      -280.8308
   6   2.0000     -10.307708      -280.4870
   7   2.0000     -10.299881      -280.2740
   8   2.0000     -10.297315      -280.2042
   9   2.0000     -10.296577      -280.1841
  10   2.0000     -10.291020      -280.0329
  11   2.0000     -10.289444      -279.9900
  12   2.0000     -10.288833      -279.9734
  13   2.0000     -10.283179      -279.8195
  14   2.0000     -10.272737      -279.5354
  15   2.0000     -10.272235      -279.5217
  16   2.0000      -8.080680      -219.8865
  17   2.0000      -8.078490      -219.8269
  18   2.0000      -6.039256      -164.3365
  19   2.0000      -6.036818      -164.2702
  20   2.0000      -6.035273      -164.2281
  21   2.0000      -6.032710      -164.1584
  22   2.0000      -6.031419      -164.1233
  23   2.0000      -6.029586      -164.0734
  24   2.0000      -1.007502       -27.4155
  25   2.0000      -0.984267       -26.7833
  26   2.0000      -0.910622       -24.7793
  27   2.0000      -0.900724       -24.5099
  28   2.0000      -0.868524       -23.6337
  29   2.0000      -0.851414       -23.1681
  30   2.0000      -0.840484       -22.8707
  31   2.0000      -0.813471       -22.1357
  32   2.0000      -0.785283       -21.3686
  33   2.0000      -0.775361       -21.0987
  34   2.0000      -0.709846       -19.3159
  35   2.0000      -0.700514       -19.0620
  36   2.0000      -0.689878       -18.7725
  37   2.0000      -0.667017       -18.1505
  38   2.0000      -0.640289       -17.4232
  39   2.0000      -0.622636       -16.9428
  40   2.0000      -0.602226       -16.3874
  41   2.0000      -0.567249       -15.4356
  42   2.0000      -0.552173       -15.0254
  43   2.0000      -0.545470       -14.8430
  44   2.0000      -0.537693       -14.6314
  45   2.0000      -0.526657       -14.3311
  46   2.0000      -0.516765       -14.0619
  47   2.0000      -0.510012       -13.8781
  48   2.0000      -0.503594       -13.7035
  49   2.0000      -0.499021       -13.5791
  50   2.0000      -0.485876       -13.2214
  51   2.0000      -0.476149       -12.9567
  52   2.0000      -0.472289       -12.8516
  53   2.0000      -0.466346       -12.6899
  54   2.0000      -0.462746       -12.5919
  55   2.0000      -0.456444       -12.4205
  56   2.0000      -0.447685       -12.1821
  57   2.0000      -0.434557       -11.8249
  58   2.0000      -0.431806       -11.7500
  59   2.0000      -0.422771       -11.5042
  60   2.0000      -0.420195       -11.4341
  61   2.0000      -0.416969       -11.3463
  62   2.0000      -0.400879       -10.9085
  63   2.0000      -0.342653        -9.3241
  64   2.0000      -0.331281        -9.0146
  65   2.0000      -0.328901        -8.9499
  66   2.0000      -0.301752        -8.2111
  67   0.0000       0.033159         0.9023
  68   0.0000       0.060240         1.6392
  69   0.0000       0.119709         3.2574
  70   0.0000       0.123059         3.3486
  71   0.0000       0.128949         3.5089

MULLIKEN ATOMIC CHARGES
-----------------------
   0 S :    0.101803
   1 C :   -0.160898
   2 C :   -0.079838
   3 C :    0.040721
   4 C :   -0.155085
   5 H :    0.027551
   6 C :    0.082711
   7 H :    0.007135
   8 H :    0.033670
   9 C :   -0.075449
  10 H :    0.023720
  11 H :    0.019563
  12 C :   -0.038228
  13 H :    0.014299
  14 H :    0.037306
  15 H :    0.038014
  16 S :    0.108045
  17 C :   -0.104277
  18 C :   -0.008797
  19 C :   -0.034252
  20 C :   -0.166927
  21 H :   -0.002218
  22 C :    0.060268
  23 H :    0.032672
  24 H :    0.009820
  25 C :   -0.098149
  26 H :    0.016837
  27 H :    0.051824
  28 C :    0.000934
  29 H :    0.026674
  30 H :    0.025422
  31 H :    0.010005
  32 H :    0.080254
  33 H :    0.074868
Sum of atomic charges:   -0.0000000

LOEWDIN ATOMIC CHARGES
----------------------
   0 S :    0.382533
   1 C :   -0.192823
   2 C :   -0.068586
   3 C :   -0.056955
   4 C :   -0.192355
   5 H :    0.034158
   6 C :   -0.026255
   7 H :    0.023713
   8 H :    0.032316
   9 C :   -0.034229
  10 H :    0.019399
  11 H :    0.017642
  12 C :   -0.054892
  13 H :    0.014248
  14 H :    0.019373
  15 H :    0.031674
  16 S :    0.422311
  17 C :   -0.188676
  18 C :   -0.069137
  19 C :   -0.053650
  20 C :   -0.204577
  21 H :    0.024658
  22 C :   -0.042229
  23 H :    0.036946
  24 H :    0.027378
  25 C :   -0.048803
  26 H :    0.016041
  27 H :    0.038577
  28 C :   -0.062635
  29 H :    0.028577
  30 H :    0.024647
  31 H :    0.021148
  32 H :    0.043284
  33 H :    0.037178

  Mayer bond orders larger than 0.100000
B(  0-S ,  1-C ) :   1.1431 B(  0-S ,  4-C ) :   1.1348 B(  1-C ,  2-C ) :   1.6059
B(  1-C , 32-H ) :   0.9600 B(  2-C ,  3-C ) :   1.2462 B(  2-C ,  6-C ) :   1.0211
B(  3-C ,  4-C ) :   1.5918 B(  3-C ,  5-H ) :   0.9819 B(  4-C , 20-C ) :   1.0299
B(  6-C ,  7-H ) :   0.9446 B(  6-C ,  8-H ) :   0.9416 B(  6-C ,  9-C ) :   1.0665
B(  9-C , 10-H ) :   0.9614 B(  9-C , 11-H ) :   0.9583 B(  9-C , 12-C ) :   1.0593
B( 12-C , 13-H ) :   0.9782 B( 12-C , 14-H ) :   0.9825 B( 12-C , 15-H ) :   0.9771
B( 16-S , 17-C ) :   1.1853 B( 16-S , 20-C ) :   1.1542 B( 17-C , 18-C ) :   1.5495
B( 17-C , 20-C ) :   0.1031 B( 17-C , 33-H ) :   0.9651 B( 18-C , 19-C ) :   1.2782
B( 18-C , 21-H ) :   1.0047 B( 19-C , 20-C ) :   1.5676 B( 19-C , 22-C ) :   1.0535
B( 22-C , 23-H ) :   0.9190 B( 22-C , 24-H ) :   0.9357 B( 22-C , 25-C ) :   1.0644
B( 25-C , 26-H ) :   0.9605 B( 25-C , 27-H ) :   0.9450 B( 25-C , 28-C ) :   1.0623
B( 28-C , 29-H ) :   0.9762 B( 28-C , 30-H ) :   0.9739 B( 28-C , 31-H ) :   0.9712

Dispersion correction           -0.014706955
FINAL SINGLE POINT ENERGY     -1339.878186138571

DIPOLE MOMENT
-------------
                                X             Y             Z
Electronic contribution:    -24.00834       1.46800      -0.30152
Nuclear contribution   :     24.60515      -1.65129       0.42877
                        -----------------------------------------
Total Dipole Moment    :      0.59681      -0.18330       0.12725
                        -----------------------------------------
Magnitude (a.u.)       :      0.63716
Magnitude (Debye)      :      1.61953

Rotational constants in cm-1:     0.017131     0.008941     0.007305
Rotational constants in MHz :   513.581273   268.039926   218.993789

                             ****ORCA TERMINATED NORMALLY****
TOTAL RUN TIME: 0 days 0 hours 0 minutes 30 seconds 245 msec
