                         Program Version 4.2.1 -  RELEASE  -
|  1> ! wB97X-D3 SP def2-SVP
|  2> %pal
|  3> nprocs 16
|  4> end
|  5>
|  6> * xyz 0 1
|  7> S 	 -3.24623 	 26.527 	 52.9505
|  8> C 	 -1.70537 	 25.755 	 52.5675
|  9> C 	 -0.651073 	 26.6611 	 52.358
| 10> C 	 -1.1404 	 28.016 	 52.4808
| 11> C 	 -2.50819 	 28.13 	 52.7205
| 12> H 	 -0.582408 	 28.859 	 52.3865
| 13> C 	 0.738946 	 26.2184 	 51.9597
| 14> H 	 0.776388 	 25.1593 	 52.1902
| 15> H 	 1.4737 	 26.6729 	 52.6544
| 16> C 	 1.15138 	 26.3934 	 50.4925
| 17> H 	 2.14764 	 26.0339 	 50.5356
| 18> H 	 0.511449 	 25.6978 	 49.9317
| 19> C 	 1.08188 	 27.7906 	 49.9055
| 20> H 	 1.75822 	 28.4999 	 50.3002
| 21> H 	 1.20499 	 27.7337 	 48.8318
| 22> H 	 0.05571 	 28.1708 	 49.9613
| 23> S 	 -5.02343 	 29.2018 	 52.5711
| 24> C 	 -5.24825 	 30.9236 	 52.5326
| 25> C 	 -4.05321 	 31.6022 	 52.7359
| 26> C 	 -2.9004 	 30.736 	 52.919
| 27> C 	 -3.25896 	 29.3676 	 52.8135
| 28> H 	 -4.02433 	 32.7284 	 52.6926
| 29> C 	 -1.57516 	 31.3841 	 53.3231
| 30> H 	 -1.13796 	 31.7451 	 52.4293
| 31> H 	 -0.895856 	 30.6464 	 53.6955
| 32> C 	 -1.6894 	 32.5538 	 54.3623
| 33> H 	 -2.14026 	 33.4726 	 54.0066
| 34> H 	 -0.727101 	 32.9287 	 54.538
| 35> C 	 -2.36249 	 32.123 	 55.6446
| 36> H 	 -3.44031 	 32.07 	 55.4729
| 37> H 	 -2.21699 	 32.7793 	 56.4828
| 38> H 	 -1.90787 	 31.1238 	 55.8914
| 39> H 	 -1.50391 	 24.6929 	 52.7312
| 40> H 	 -6.19631 	 31.418 	 52.3724
| 41> *
| 42>
| 43>                          ****END OF INPUT****

CARTESIAN COORDINATES (ANGSTROEM)
---------------------------------
  S     -3.246230   26.527000   52.950500
  C     -1.705370   25.755000   52.567500
  C     -0.651073   26.661100   52.358000
  C     -1.140400   28.016000   52.480800
  C     -2.508190   28.130000   52.720500
  H     -0.582408   28.859000   52.386500
  C      0.738946   26.218400   51.959700
  H      0.776388   25.159300   52.190200
  H      1.473700   26.672900   52.654400
  C      1.151380   26.393400   50.492500
  H      2.147640   26.033900   50.535600
  H      0.511449   25.697800   49.931700
  C      1.081880   27.790600   49.905500
  H      1.758220   28.499900   50.300200
  H      1.204990   27.733700   48.831800
  H      0.055710   28.170800   49.961300
  S     -5.023430   29.201800   52.571100
  C     -5.248250   30.923600   52.532600
  C     -4.053210   31.602200   52.735900
  C     -2.900400   30.736000   52.919000
  C     -3.258960   29.367600   52.813500
  H     -4.024330   32.728400   52.692600
  C     -1.575160   31.384100   53.323100
  H     -1.137960   31.745100   52.429300
  H     -0.895856   30.646400   53.695500
  C     -1.689400   32.553800   54.362300
  H     -2.140260   33.472600   54.006600
  H     -0.727101   32.928700   54.538000
  C     -2.362490   32.123000   55.644600
  H     -3.440310   32.070000   55.472900
  H     -2.216990   32.779300   56.482800
  H     -1.907870   31.123800   55.891400
  H     -1.503910   24.692900   52.731200
  H     -6.196310   31.418000   52.372400

 Total Charge           Charge          ....    0
 Multiplicity           Mult            ....    1
 Number of Electrons    NEL             ....  134
 Basis Dimension        Dim             ....  322

ORBITAL ENERGIES
----------------

  NO   OCC          E(Eh)            E(eV)
   0   2.0000     -88.968653     -2420.9601
   1   2.0000     -88.964991     -2420.8605
   2   2.0000     -10.334758      -281.2231
   3   2.0000     -10.333878      -281.1991
   4   2.0000     -10.318502      -280.7807
   5   2.0000     -10.316164      -280.7171
   6   2.0000     -10.311896      -280.6010
   7   2.0000     -10.304236      -280.3925
   8   2.0000     -10.300406      -280.2883
   9   2.0000     -10.294715      -280.1334
  10   2.0000     -10.293168      -280.0913
  11   2.0000     -10.289446      -279.9901
  12   2.0000     -10.285047      -279.8703
  13   2.0000     -10.283377      -279.8249
  14   2.0000     -10.273981      -279.5692
  15   2.0000     -10.272572      -279.5309
  16   2.0000      -8.082406      -219.9334
  17   2.0000      -8.079520      -219.8549
  18   2.0000      -6.041101      -164.3867
  19   2.0000      -6.038141      -164.3062
  20   2.0000      -6.037138      -164.2789
  21   2.0000      -6.034093      -164.1960
  22   2.0000      -6.032967      -164.1654
  23   2.0000      -6.030145      -164.0886
  24   2.0000      -0.999123       -27.1875
  25   2.0000      -0.975407       -26.5422
  26   2.0000      -0.913528       -24.8584
  27   2.0000      -0.910040       -24.7634
  28   2.0000      -0.867559       -23.6075
  29   2.0000      -0.851371       -23.1670
  30   2.0000      -0.840744       -22.8778
  31   2.0000      -0.815250       -22.1841
  32   2.0000      -0.787323       -21.4241
  33   2.0000      -0.773930       -21.0597
  34   2.0000      -0.710997       -19.3472
  35   2.0000      -0.699897       -19.0452
  36   2.0000      -0.695536       -18.9265
  37   2.0000      -0.657896       -17.9023
  38   2.0000      -0.636940       -17.3320
  39   2.0000      -0.619151       -16.8479
  40   2.0000      -0.596468       -16.2307
  41   2.0000      -0.576404       -15.6848
  42   2.0000      -0.562044       -15.2940
  43   2.0000      -0.543766       -14.7966
  44   2.0000      -0.538103       -14.6425
  45   2.0000      -0.535418       -14.5695
  46   2.0000      -0.518892       -14.1198
  47   2.0000      -0.515956       -14.0399
  48   2.0000      -0.501676       -13.6513
  49   2.0000      -0.493205       -13.4208
  50   2.0000      -0.487693       -13.2708
  51   2.0000      -0.479904       -13.0588
  52   2.0000      -0.469021       -12.7627
  53   2.0000      -0.467601       -12.7241
  54   2.0000      -0.459570       -12.5055
  55   2.0000      -0.447405       -12.1745
  56   2.0000      -0.441641       -12.0177
  57   2.0000      -0.440124       -11.9764
  58   2.0000      -0.434049       -11.8111
  59   2.0000      -0.428008       -11.6467
  60   2.0000      -0.422485       -11.4964
  61   2.0000      -0.417914       -11.3720
  62   2.0000      -0.411911       -11.2087
  63   2.0000      -0.360562        -9.8114
  64   2.0000      -0.333444        -9.0735
  65   2.0000      -0.326321        -8.8797
  66   2.0000      -0.276843        -7.5333
  67   0.0000       0.017413         0.4738
  68   0.0000       0.080751         2.1974
  69   0.0000       0.095624         2.6021
  70   0.0000       0.116692         3.1754
  71   0.0000       0.141971         3.8632

MULLIKEN ATOMIC CHARGES
-----------------------
   0 S :    0.104161
   1 C :   -0.121721
   2 C :   -0.106234
   3 C :    0.029877
   4 C :   -0.101150
   5 H :   -0.041573
   6 C :    0.056124
   7 H :    0.010745
   8 H :    0.030775
   9 C :   -0.035866
  10 H :    0.023839
  11 H :    0.029284
  12 C :   -0.037078
  13 H :    0.027881
  14 H :    0.027947
  15 H :    0.038386
  16 S :    0.087103
  17 C :   -0.081555
  18 C :   -0.059154
  19 C :   -0.082058
  20 C :   -0.130699
  21 H :    0.040836
  22 C :    0.083357
  23 H :    0.027820
  24 H :    0.027811
  25 C :   -0.049896
  26 H :    0.012455
  27 H :    0.006731
  28 C :   -0.042499
  29 H :    0.043220
  30 H :    0.030365
  31 H :    0.036473
  32 H :    0.055636
  33 H :    0.058657
Sum of atomic charges:   -0.0000000

LOEWDIN ATOMIC CHARGES
----------------------
   0 S :    0.382288
   1 C :   -0.199056
   2 C :   -0.056838
   3 C :   -0.055441
   4 C :   -0.177161
   5 H :    0.008754
   6 C :   -0.035390
   7 H :    0.030060
   8 H :    0.031283
   9 C :   -0.032319
  10 H :    0.021963
  11 H :    0.029162
  12 C :   -0.066256
  13 H :    0.018941
  14 H :    0.029827
  15 H :    0.031199
  16 S :    0.390950
  17 C :   -0.189216
  18 C :   -0.077617
  19 C :   -0.054800
  20 C :   -0.182461
  21 H :    0.040639
  22 C :   -0.024180
  23 H :    0.030649
  24 H :    0.026172
  25 C :   -0.039001
  26 H :    0.019320
  27 H :    0.017936
  28 C :   -0.063581
  29 H :    0.028837
  30 H :    0.022156
  31 H :    0.032910
  32 H :    0.029512
  33 H :    0.030760

  Mayer bond orders larger than 0.100000
B(  0-S ,  1-C ) :   1.1273 B(  0-S ,  4-C ) :   1.1296 B(  1-C ,  2-C ) :   1.6240
B(  1-C , 32-H ) :   0.9578 B(  2-C ,  3-C ) :   1.2273 B(  2-C ,  6-C ) :   1.0313
B(  3-C ,  4-C ) :   1.5706 B(  3-C ,  5-H ) :   1.0062 B(  4-C , 20-C ) :   1.0995
B(  6-C ,  7-H ) :   0.9347 B(  6-C ,  8-H ) :   0.9354 B(  6-C ,  9-C ) :   1.0699
B(  9-C , 10-H ) :   0.9516 B(  9-C , 11-H ) :   0.9513 B(  9-C , 12-C ) :   1.0957
B( 12-C , 13-H ) :   0.9750 B( 12-C , 14-H ) :   0.9684 B( 12-C , 15-H ) :   0.9655
B( 16-S , 17-C ) :   1.1522 B( 16-S , 20-C ) :   1.1245 B( 17-C , 18-C ) :   1.6124
B( 17-C , 33-H ) :   0.9677 B( 18-C , 19-C ) :   1.2422 B( 18-C , 21-H ) :   0.9761
B( 19-C , 20-C ) :   1.5827 B( 19-C , 22-C ) :   1.0302 B( 22-C , 23-H ) :   0.9227
B( 22-C , 24-H ) :   0.9380 B( 22-C , 25-C ) :   1.0809 B( 25-C , 26-H ) :   0.9459
B( 25-C , 27-H ) :   0.9483 B( 25-C , 28-C ) :   1.0788 B( 28-C , 29-H ) :   0.9708
B( 28-C , 30-H ) :   0.9736 B( 28-C , 31-H ) :   0.9753

Dispersion correction           -0.014473468
FINAL SINGLE POINT ENERGY     -1339.880994382136

DIPOLE MOMENT
-------------
                                X             Y             Z
Electronic contribution:    -22.20359     -10.52018       0.71313
Nuclear contribution   :     22.86457      10.96343      -0.77265
                        -----------------------------------------
Total Dipole Moment    :      0.66098       0.44325      -0.05953
                        -----------------------------------------
Magnitude (a.u.)       :      0.79807
Magnitude (Debye)      :      2.02852

Rotational constants in cm-1:     0.019089     0.008581     0.006977
Rotational constants in MHz :   572.265906   257.246963   209.154544

                             ****ORCA TERMINATED NORMALLY****
TOTAL RUN TIME: 0 days 0 hours 0 minutes 35 seconds 586 msec
