                         Program Version 4.2.1 -  RELEASE  -
|  1> ! wB97X-D3 SP def2-SVP
|  2> %pal
|  3> nprocs 16
|  4> end
|  5>
|  6> * xyz 0 1
|  7> S 	 -104.79 	 46.9913 	 120.867
|  8> C 	 -104.496 	 47.8077 	 122.424
|  9> C 	 -104.861 	 47.0283 	 123.503
| 10> C 	 -105.192 	 45.6879 	 123.094
| 11> C 	 -105.463 	 45.5894 	 121.745
| 12> H 	 -105.371 	 44.8554 	 123.759
| 13> C 	 -104.688 	 47.3895 	 125.005
| 14> H 	 -105.219 	 48.3594 	 124.932
| 15> H 	 -103.629 	 47.496 	 125.262
| 16> C 	 -105.305 	 46.5236 	 126.105
| 17> H 	 -105.516 	 47.1484 	 126.95
| 18> H 	 -106.217 	 46.0701 	 125.821
| 19> C 	 -104.421 	 45.368 	 126.579
| 20> H 	 -103.475 	 45.6237 	 127.086
| 21> H 	 -105.005 	 44.831 	 127.285
| 22> H 	 -104.348 	 44.7046 	 125.8
| 23> S 	 -107.493 	 43.7021 	 121.637
| 24> C 	 -107.213 	 42.3631 	 120.604
| 25> C 	 -106.048 	 42.3578 	 119.899
| 26> C 	 -105.276 	 43.4871 	 120.195
| 27> C 	 -105.918 	 44.3012 	 121.129
| 28> H 	 -105.664 	 41.5599 	 119.211
| 29> C 	 -103.965 	 43.8563 	 119.552
| 30> H 	 -104.08 	 44.8969 	 119.175
| 31> H 	 -103.638 	 43.2703 	 118.704
| 32> C 	 -102.777 	 43.8936 	 120.483
| 33> H 	 -102.713 	 43.0459 	 121.2
| 34> H 	 -102.801 	 44.7728 	 121.097
| 35> C 	 -101.421 	 43.9263 	 119.786
| 36> H 	 -100.553 	 43.9668 	 120.463
| 37> H 	 -101.277 	 44.7464 	 119.051
| 38> H 	 -101.369 	 43.0183 	 119.162
| 39> H 	 -104.069 	 48.79 	 122.542
| 40> H 	 -107.943 	 41.4987 	 120.556
| 41> *
| 42>
| 43>                          ****END OF INPUT****

CARTESIAN COORDINATES (ANGSTROEM)
---------------------------------
  S    -104.790000   46.991300  120.867000
  C    -104.496000   47.807700  122.424000
  C    -104.861000   47.028300  123.503000
  C    -105.192000   45.687900  123.094000
  C    -105.463000   45.589400  121.745000
  H    -105.371000   44.855400  123.759000
  C    -104.688000   47.389500  125.005000
  H    -105.219000   48.359400  124.932000
  H    -103.629000   47.496000  125.262000
  C    -105.305000   46.523600  126.105000
  H    -105.516000   47.148400  126.950000
  H    -106.217000   46.070100  125.821000
  C    -104.421000   45.368000  126.579000
  H    -103.475000   45.623700  127.086000
  H    -105.005000   44.831000  127.285000
  H    -104.348000   44.704600  125.800000
  S    -107.493000   43.702100  121.637000
  C    -107.213000   42.363100  120.604000
  C    -106.048000   42.357800  119.899000
  C    -105.276000   43.487100  120.195000
  C    -105.918000   44.301200  121.129000
  H    -105.664000   41.559900  119.211000
  C    -103.965000   43.856300  119.552000
  H    -104.080000   44.896900  119.175000
  H    -103.638000   43.270300  118.704000
  C    -102.777000   43.893600  120.483000
  H    -102.713000   43.045900  121.200000
  H    -102.801000   44.772800  121.097000
  C    -101.421000   43.926300  119.786000
  H    -100.553000   43.966800  120.463000
  H    -101.277000   44.746400  119.051000
  H    -101.369000   43.018300  119.162000
  H    -104.069000   48.790000  122.542000
  H    -107.943000   41.498700  120.556000

 Total Charge           Charge          ....    0
 Multiplicity           Mult            ....    1
 Number of Electrons    NEL             ....  134
 Basis Dimension        Dim             ....  322

ORBITAL ENERGIES
----------------

  NO   OCC          E(Eh)            E(eV)
   0   2.0000     -88.971684     -2421.0426
   1   2.0000     -88.969276     -2420.9771
   2   2.0000     -10.330447      -281.1058
   3   2.0000     -10.324860      -280.9537
   4   2.0000     -10.316691      -280.7314
   5   2.0000     -10.315305      -280.6937
   6   2.0000     -10.303453      -280.3712
   7   2.0000     -10.299853      -280.2732
   8   2.0000     -10.295663      -280.1592
   9   2.0000     -10.293173      -280.0915
  10   2.0000     -10.292556      -280.0747
  11   2.0000     -10.289587      -279.9939
  12   2.0000     -10.282662      -279.8055
  13   2.0000     -10.276413      -279.6354
  14   2.0000     -10.275832      -279.6196
  15   2.0000     -10.270026      -279.4616
  16   2.0000      -8.086649      -220.0489
  17   2.0000      -8.082129      -219.9259
  18   2.0000      -6.044878      -164.4895
  19   2.0000      -6.041276      -164.3915
  20   2.0000      -6.040834      -164.3795
  21   2.0000      -6.037544      -164.2899
  22   2.0000      -6.037060      -164.2767
  23   2.0000      -6.032654      -164.1568
  24   2.0000      -1.006356       -27.3843
  25   2.0000      -0.981866       -26.7179
  26   2.0000      -0.912804       -24.8386
  27   2.0000      -0.909791       -24.7567
  28   2.0000      -0.866436       -23.5769
  29   2.0000      -0.855639       -23.2831
  30   2.0000      -0.844550       -22.9814
  31   2.0000      -0.812638       -22.1130
  32   2.0000      -0.784516       -21.3478
  33   2.0000      -0.770601       -20.9691
  34   2.0000      -0.704839       -19.1796
  35   2.0000      -0.696299       -18.9472
  36   2.0000      -0.683192       -18.5906
  37   2.0000      -0.661617       -18.0035
  38   2.0000      -0.634381       -17.2624
  39   2.0000      -0.617962       -16.8156
  40   2.0000      -0.602691       -16.4000
  41   2.0000      -0.572293       -15.5729
  42   2.0000      -0.564149       -15.3513
  43   2.0000      -0.552928       -15.0459
  44   2.0000      -0.537951       -14.6384
  45   2.0000      -0.521378       -14.1874
  46   2.0000      -0.514749       -14.0070
  47   2.0000      -0.507689       -13.8149
  48   2.0000      -0.501080       -13.6351
  49   2.0000      -0.496808       -13.5188
  50   2.0000      -0.486039       -13.2258
  51   2.0000      -0.476038       -12.9537
  52   2.0000      -0.471772       -12.8376
  53   2.0000      -0.462312       -12.5801
  54   2.0000      -0.459011       -12.4903
  55   2.0000      -0.455628       -12.3983
  56   2.0000      -0.447203       -12.1690
  57   2.0000      -0.437335       -11.9005
  58   2.0000      -0.434909       -11.8345
  59   2.0000      -0.427778       -11.6404
  60   2.0000      -0.423662       -11.5284
  61   2.0000      -0.410277       -11.1642
  62   2.0000      -0.405833       -11.0433
  63   2.0000      -0.340500        -9.2655
  64   2.0000      -0.336538        -9.1577
  65   2.0000      -0.327102        -8.9009
  66   2.0000      -0.292851        -7.9689
  67   0.0000       0.030847         0.8394
  68   0.0000       0.068212         1.8562
  69   0.0000       0.106147         2.8884
  70   0.0000       0.109584         2.9819
  71   0.0000       0.127295         3.4639

MULLIKEN ATOMIC CHARGES
-----------------------
   0 S :    0.095030
   1 C :   -0.131381
   2 C :   -0.071143
   3 C :    0.003179
   4 C :   -0.130103
   5 H :    0.018240
   6 C :    0.047332
   7 H :    0.042997
   8 H :    0.047515
   9 C :   -0.059689
  10 H :    0.026170
  11 H :    0.015994
  12 C :   -0.016210
  13 H :    0.042137
  14 H :    0.015398
  15 H :    0.005954
  16 S :    0.136414
  17 C :   -0.106784
  18 C :   -0.046210
  19 C :   -0.002942
  20 C :   -0.204549
  21 H :    0.033262
  22 C :    0.079968
  23 H :    0.033609
  24 H :    0.006710
  25 C :   -0.072890
  26 H :    0.029956
  27 H :    0.032015
  28 C :   -0.069832
  29 H :    0.040590
  30 H :    0.026764
  31 H :    0.020484
  32 H :    0.042660
  33 H :    0.069353
Sum of atomic charges:    0.0000000

LOEWDIN ATOMIC CHARGES
----------------------
   0 S :    0.381396
   1 C :   -0.189903
   2 C :   -0.059774
   3 C :   -0.063233
   4 C :   -0.182971
   5 H :    0.027100
   6 C :   -0.036189
   7 H :    0.041097
   8 H :    0.035307
   9 C :   -0.037272
  10 H :    0.026269
  11 H :    0.020206
  12 C :   -0.056394
  13 H :    0.028855
  14 H :    0.025395
  15 H :    0.011009
  16 S :    0.428693
  17 C :   -0.202822
  18 C :   -0.078530
  19 C :   -0.052965
  20 C :   -0.197095
  21 H :    0.043600
  22 C :   -0.034458
  23 H :    0.032357
  24 H :    0.026206
  25 C :   -0.045224
  26 H :    0.026724
  27 H :    0.017422
  28 C :   -0.070285
  29 H :    0.028653
  30 H :    0.023562
  31 H :    0.020335
  32 H :    0.026711
  33 H :    0.036219

  Mayer bond orders larger than 0.100000
B(  0-S ,  1-C ) :   1.1183 B(  0-S ,  4-C ) :   1.1237 B(  1-C ,  2-C ) :   1.6436
B(  1-C , 32-H ) :   0.9709 B(  2-C ,  3-C ) :   1.2186 B(  2-C ,  6-C ) :   0.9891
B(  3-C ,  4-C ) :   1.6120 B(  3-C ,  5-H ) :   0.9782 B(  4-C , 20-C ) :   1.0107
B(  6-C ,  7-H ) :   0.9397 B(  6-C ,  8-H ) :   0.9445 B(  6-C ,  9-C ) :   1.0815
B(  9-C , 10-H ) :   0.9525 B(  9-C , 11-H ) :   0.9541 B(  9-C , 12-C ) :   1.0866
B( 12-C , 13-H ) :   0.9722 B( 12-C , 14-H ) :   0.9669 B( 12-C , 15-H ) :   0.9760
B( 16-S , 17-C ) :   1.1672 B( 16-S , 20-C ) :   1.1577 B( 17-C , 18-C ) :   1.5909
B( 17-C , 33-H ) :   0.9544 B( 18-C , 19-C ) :   1.2772 B( 18-C , 21-H ) :   0.9836
B( 19-C , 20-C ) :   1.5737 B( 19-C , 22-C ) :   1.0386 B( 22-C , 23-H ) :   0.9242
B( 22-C , 24-H ) :   0.9414 B( 22-C , 25-C ) :   1.0540 B( 25-C , 26-H ) :   0.9583
B( 25-C , 27-H ) :   0.9481 B( 25-C , 28-C ) :   1.0895 B( 28-C , 29-H ) :   0.9747
B( 28-C , 30-H ) :   0.9729 B( 28-C , 31-H ) :   0.9734

Dispersion correction           -0.014887508
FINAL SINGLE POINT ENERGY     -1339.869018808616

DIPOLE MOMENT
-------------
                                X             Y             Z
Electronic contribution:    -17.23383       2.18672     -11.65907
Nuclear contribution   :     17.49467      -2.34596      12.06299
                        -----------------------------------------
Total Dipole Moment    :      0.26085      -0.15924       0.40392
                        -----------------------------------------
Magnitude (a.u.)       :      0.50651
Magnitude (Debye)      :      1.28744

Rotational constants in cm-1:     0.016642     0.009533     0.007843
Rotational constants in MHz :   498.919986   285.790092   235.130550

                             ****ORCA TERMINATED NORMALLY****
TOTAL RUN TIME: 0 days 0 hours 0 minutes 34 seconds 166 msec
