                         Program Version 4.2.1 -  RELEASE  -
|  1> ! wB97X-D3 SP def2-SVP
|  2> %pal
|  3> nprocs 16
|  4> end
|  5>
|  6> * xyz 0 1
|  7> S 	 -30.4491 	 65.977 	 102.132
|  8> C 	 -30.2907 	 67.6549 	 102.495
|  9> C 	 -29.2712 	 68.3146 	 101.833
| 10> C 	 -28.5253 	 67.3625 	 101.11
| 11> C 	 -28.9153 	 66.059 	 101.275
| 12> H 	 -27.7108 	 67.5097 	 100.373
| 13> C 	 -28.9139 	 69.7515 	 102.016
| 14> H 	 -29.5421 	 70.1844 	 102.791
| 15> H 	 -29.0726 	 70.2076 	 101.058
| 16> C 	 -27.4713 	 70.0114 	 102.503
| 17> H 	 -26.6841 	 69.7512 	 101.742
| 18> H 	 -27.3979 	 71.0993 	 102.668
| 19> C 	 -27.0652 	 69.2584 	 103.806
| 20> H 	 -27.7917 	 69.3973 	 104.631
| 21> H 	 -27.2709 	 68.1861 	 103.634
| 22> H 	 -26.0993 	 69.4402 	 104.193
| 23> S 	 -29.1546 	 64.2692 	 99.1824
| 24> C 	 -28.0065 	 62.9466 	 99.0482
| 25> C 	 -26.9337 	 63.0951 	 99.8975
| 26> C 	 -27.1882 	 64.1613 	 100.856
| 27> C 	 -28.3781 	 64.8642 	 100.622
| 28> H 	 -26.0587 	 62.4093 	 99.9595
| 29> C 	 -26.152 	 64.5589 	 101.811
| 30> H 	 -26.3049 	 65.578 	 102.094
| 31> H 	 -25.1763 	 64.38 	 101.387
| 32> C 	 -25.9299 	 63.7078 	 102.961
| 33> H 	 -24.8903 	 63.872 	 103.422
| 34> H 	 -25.7179 	 62.6759 	 102.641
| 35> C 	 -27.0241 	 63.6828 	 103.983
| 36> H 	 -28.0098 	 63.3874 	 103.436
| 37> H 	 -27.1342 	 64.5163 	 104.542
| 38> H 	 -26.7584 	 62.8047 	 104.57
| 39> H 	 -30.924 	 68.2137 	 103.147
| 40> H 	 -28.0156 	 62.309 	 98.2101
| 41> *
| 42>
| 43>                          ****END OF INPUT****

CARTESIAN COORDINATES (ANGSTROEM)
---------------------------------
  S    -30.449100   65.977000  102.132000
  C    -30.290700   67.654900  102.495000
  C    -29.271200   68.314600  101.833000
  C    -28.525300   67.362500  101.110000
  C    -28.915300   66.059000  101.275000
  H    -27.710800   67.509700  100.373000
  C    -28.913900   69.751500  102.016000
  H    -29.542100   70.184400  102.791000
  H    -29.072600   70.207600  101.058000
  C    -27.471300   70.011400  102.503000
  H    -26.684100   69.751200  101.742000
  H    -27.397900   71.099300  102.668000
  C    -27.065200   69.258400  103.806000
  H    -27.791700   69.397300  104.631000
  H    -27.270900   68.186100  103.634000
  H    -26.099300   69.440200  104.193000
  S    -29.154600   64.269200   99.182400
  C    -28.006500   62.946600   99.048200
  C    -26.933700   63.095100   99.897500
  C    -27.188200   64.161300  100.856000
  C    -28.378100   64.864200  100.622000
  H    -26.058700   62.409300   99.959500
  C    -26.152000   64.558900  101.811000
  H    -26.304900   65.578000  102.094000
  H    -25.176300   64.380000  101.387000
  C    -25.929900   63.707800  102.961000
  H    -24.890300   63.872000  103.422000
  H    -25.717900   62.675900  102.641000
  C    -27.024100   63.682800  103.983000
  H    -28.009800   63.387400  103.436000
  H    -27.134200   64.516300  104.542000
  H    -26.758400   62.804700  104.570000
  H    -30.924000   68.213700  103.147000
  H    -28.015600   62.309000   98.210100

 Total Charge           Charge          ....    0
 Multiplicity           Mult            ....    1
 Number of Electrons    NEL             ....  134
 Basis Dimension        Dim             ....  322

ORBITAL ENERGIES
----------------

  NO   OCC          E(Eh)            E(eV)
   0   2.0000     -88.967292     -2420.9231
   1   2.0000     -88.963437     -2420.8182
   2   2.0000     -10.326494      -280.9982
   3   2.0000     -10.324083      -280.9326
   4   2.0000     -10.316005      -280.7128
   5   2.0000     -10.310421      -280.5608
   6   2.0000     -10.301355      -280.3141
   7   2.0000     -10.299959      -280.2761
   8   2.0000     -10.298307      -280.2312
   9   2.0000     -10.295527      -280.1555
  10   2.0000     -10.295466      -280.1539
  11   2.0000     -10.294359      -280.1237
  12   2.0000     -10.279747      -279.7261
  13   2.0000     -10.276724      -279.6439
  14   2.0000     -10.272704      -279.5345
  15   2.0000     -10.264553      -279.3127
  16   2.0000      -8.082396      -219.9332
  17   2.0000      -8.078458      -219.8260
  18   2.0000      -6.040715      -164.3762
  19   2.0000      -6.037035      -164.2761
  20   2.0000      -6.036931      -164.2732
  21   2.0000      -6.033139      -164.1701
  22   2.0000      -6.032977      -164.1657
  23   2.0000      -6.029191      -164.0626
  24   2.0000      -1.009311       -27.4647
  25   2.0000      -0.987056       -26.8592
  26   2.0000      -0.925262       -25.1777
  27   2.0000      -0.913569       -24.8595
  28   2.0000      -0.868285       -23.6272
  29   2.0000      -0.849032       -23.1033
  30   2.0000      -0.846126       -23.0243
  31   2.0000      -0.816926       -22.2297
  32   2.0000      -0.788909       -21.4673
  33   2.0000      -0.776702       -21.1351
  34   2.0000      -0.708375       -19.2759
  35   2.0000      -0.693894       -18.8818
  36   2.0000      -0.692326       -18.8392
  37   2.0000      -0.656644       -17.8682
  38   2.0000      -0.642925       -17.4949
  39   2.0000      -0.620009       -16.8713
  40   2.0000      -0.602463       -16.3938
  41   2.0000      -0.566551       -15.4166
  42   2.0000      -0.561522       -15.2798
  43   2.0000      -0.556448       -15.1417
  44   2.0000      -0.543490       -14.7891
  45   2.0000      -0.535673       -14.5764
  46   2.0000      -0.529753       -14.4153
  47   2.0000      -0.512176       -13.9370
  48   2.0000      -0.503466       -13.7000
  49   2.0000      -0.494462       -13.4550
  50   2.0000      -0.484222       -13.1764
  51   2.0000      -0.478960       -13.0332
  52   2.0000      -0.472042       -12.8449
  53   2.0000      -0.468723       -12.7546
  54   2.0000      -0.458390       -12.4734
  55   2.0000      -0.447773       -12.1845
  56   2.0000      -0.444872       -12.1056
  57   2.0000      -0.440636       -11.9903
  58   2.0000      -0.432690       -11.7741
  59   2.0000      -0.423432       -11.5222
  60   2.0000      -0.416067       -11.3218
  61   2.0000      -0.412980       -11.2377
  62   2.0000      -0.399098       -10.8600
  63   2.0000      -0.341181        -9.2840
  64   2.0000      -0.329007        -8.9527
  65   2.0000      -0.322906        -8.7867
  66   2.0000      -0.303122        -8.2484
  67   0.0000       0.041753         1.1362
  68   0.0000       0.055593         1.5128
  69   0.0000       0.105711         2.8766
  70   0.0000       0.118168         3.2155
  71   0.0000       0.131210         3.5704

MULLIKEN ATOMIC CHARGES
-----------------------
   0 S :    0.127563
   1 C :   -0.094833
   2 C :   -0.114823
   3 C :    0.035425
   4 C :   -0.198822
   5 H :    0.027173
   6 C :    0.117509
   7 H :    0.019322
   8 H :    0.039490
   9 C :   -0.110557
  10 H :    0.039997
  11 H :    0.036905
  12 C :   -0.055151
  13 H :    0.016543
  14 H :    0.041917
  15 H :    0.039108
  16 S :    0.105852
  17 C :   -0.071233
  18 C :   -0.038920
  19 C :   -0.052366
  20 C :   -0.168622
  21 H :    0.040153
  22 C :    0.147416
  23 H :    0.014945
  24 H :    0.010706
  25 C :   -0.135677
  26 H :    0.022374
  27 H :    0.006455
  28 C :   -0.007843
  29 H :    0.043018
  30 H :    0.019738
  31 H :    0.025084
  32 H :    0.026808
  33 H :    0.045347
Sum of atomic charges:   -0.0000000

LOEWDIN ATOMIC CHARGES
----------------------
   0 S :    0.416061
   1 C :   -0.194397
   2 C :   -0.071291
   3 C :   -0.058755
   4 C :   -0.199037
   5 H :    0.039181
   6 C :   -0.025568
   7 H :    0.032190
   8 H :    0.036322
   9 C :   -0.042864
  10 H :    0.026714
  11 H :    0.025399
  12 C :   -0.072325
  13 H :    0.025064
  14 H :    0.030840
  15 H :    0.020751
  16 S :    0.405269
  17 C :   -0.172418
  18 C :   -0.068827
  19 C :   -0.048427
  20 C :   -0.215933
  21 H :    0.039447
  22 C :   -0.041034
  23 H :    0.026900
  24 H :    0.039391
  25 C :   -0.052444
  26 H :    0.027338
  27 H :    0.019658
  28 C :   -0.059908
  29 H :    0.038882
  30 H :    0.006857
  31 H :    0.029036
  32 H :    0.019337
  33 H :    0.018590

  Mayer bond orders larger than 0.100000
B(  0-S ,  1-C ) :   1.1540 B(  0-S ,  4-C ) :   1.1427 B(  1-C ,  2-C ) :   1.6162
B(  1-C , 32-H ) :   0.9630 B(  2-C ,  3-C ) :   1.2179 B(  2-C ,  6-C ) :   1.0302
B(  3-C ,  4-C ) :   1.6091 B(  3-C ,  5-H ) :   0.9893 B(  4-C , 20-C ) :   1.0149
B(  6-C ,  7-H ) :   0.9397 B(  6-C ,  8-H ) :   0.9269 B(  6-C ,  9-C ) :   1.0743
B(  9-C , 10-H ) :   0.9534 B(  9-C , 11-H ) :   0.9591 B(  9-C , 12-C ) :   1.0665
B( 12-C , 13-H ) :   0.9721 B( 12-C , 14-H ) :   0.9691 B( 12-C , 15-H ) :   0.9777
B( 16-S , 17-C ) :   1.1579 B( 16-S , 20-C ) :   1.1420 B( 17-C , 18-C ) :   1.6128
B( 17-C , 33-H ) :   0.9704 B( 18-C , 19-C ) :   1.2357 B( 18-C , 21-H ) :   0.9787
B( 19-C , 20-C ) :   1.5901 B( 19-C , 22-C ) :   1.0730 B( 22-C , 23-H ) :   0.9257
B( 22-C , 24-H ) :   0.9164 B( 22-C , 25-C ) :   1.0728 B( 25-C , 26-H ) :   0.9464
B( 25-C , 27-H ) :   0.9508 B( 25-C , 28-C ) :   1.0799 B( 28-C , 29-H ) :   0.9689
B( 28-C , 30-H ) :   0.9782 B( 28-C , 31-H ) :   0.9703

Dispersion correction           -0.015684313
FINAL SINGLE POINT ENERGY     -1339.864071303136

DIPOLE MOMENT
-------------
                                X             Y             Z
Electronic contribution:    -17.46980      -9.28002     -16.25812
Nuclear contribution   :     18.00627       9.57166      16.31543
                        -----------------------------------------
Total Dipole Moment    :      0.53646       0.29165       0.05731
                        -----------------------------------------
Magnitude (a.u.)       :      0.61330
Magnitude (Debye)      :      1.55888

Rotational constants in cm-1:     0.019213     0.009595     0.007961
Rotational constants in MHz :   575.996107   287.645594   238.667472

                             ****ORCA TERMINATED NORMALLY****
TOTAL RUN TIME: 0 days 0 hours 0 minutes 32 seconds 716 msec
