                         Program Version 4.2.1 -  RELEASE  -
|  1> ! wB97X-D3 SP def2-SVP
|  2> %pal
|  3> nprocs 16
|  4> end
|  5>
|  6> * xyz 0 1
|  7> S 	 -55.4246 	 22.4816 	 86.5308
|  8> C 	 -54.4802 	 21.2267 	 85.7348
|  9> C 	 -53.1629 	 21.6013 	 85.6262
| 10> C 	 -52.8401 	 22.8903 	 86.211
| 11> C 	 -53.9505 	 23.5095 	 86.7605
| 12> H 	 -51.8307 	 23.3299 	 86.2107
| 13> C 	 -52.1225 	 20.8085 	 84.9413
| 14> H 	 -51.8085 	 21.3318 	 84.0509
| 15> H 	 -52.6048 	 19.9075 	 84.432
| 16> C 	 -50.9147 	 20.4749 	 85.7536
| 17> H 	 -50.3485 	 19.8647 	 85.0654
| 18> H 	 -50.2996 	 21.3242 	 86.0176
| 19> C 	 -51.224 	 19.6705 	 87.0024
| 20> H 	 -51.824 	 20.3204 	 87.6251
| 21> H 	 -51.7395 	 18.8233 	 86.7657
| 22> H 	 -50.2851 	 19.4135 	 87.5823
| 23> S 	 -55.163 	 25.9669 	 86.7007
| 24> C 	 -54.9442 	 26.9977 	 88.0671
| 25> C 	 -53.9874 	 26.6033 	 88.9012
| 26> C 	 -53.3675 	 25.339 	 88.486
| 27> C 	 -53.9904 	 24.8161 	 87.3702
| 28> H 	 -53.7836 	 27.0989 	 89.8199
| 29> C 	 -52.2281 	 24.6454 	 89.1813
| 30> H 	 -51.3496 	 24.9122 	 88.5785
| 31> H 	 -52.224 	 23.5844 	 88.9969
| 32> C 	 -51.844 	 25.0267 	 90.6369
| 33> H 	 -51.8632 	 26.0979 	 90.9222
| 34> H 	 -50.8654 	 24.5123 	 90.7431
| 35> C 	 -52.9956 	 24.4876 	 91.589
| 36> H 	 -54.0052 	 24.9246 	 91.5247
| 37> H 	 -52.7417 	 24.5604 	 92.7132
| 38> H 	 -53.1444 	 23.3751 	 91.3925
| 39> H 	 -54.8018 	 20.3668 	 85.2755
| 40> H 	 -55.604 	 27.8396 	 88.2784
| 41> *
| 42>
| 43>                          ****END OF INPUT****

CARTESIAN COORDINATES (ANGSTROEM)
---------------------------------
  S    -55.424600   22.481600   86.530800
  C    -54.480200   21.226700   85.734800
  C    -53.162900   21.601300   85.626200
  C    -52.840100   22.890300   86.211000
  C    -53.950500   23.509500   86.760500
  H    -51.830700   23.329900   86.210700
  C    -52.122500   20.808500   84.941300
  H    -51.808500   21.331800   84.050900
  H    -52.604800   19.907500   84.432000
  C    -50.914700   20.474900   85.753600
  H    -50.348500   19.864700   85.065400
  H    -50.299600   21.324200   86.017600
  C    -51.224000   19.670500   87.002400
  H    -51.824000   20.320400   87.625100
  H    -51.739500   18.823300   86.765700
  H    -50.285100   19.413500   87.582300
  S    -55.163000   25.966900   86.700700
  C    -54.944200   26.997700   88.067100
  C    -53.987400   26.603300   88.901200
  C    -53.367500   25.339000   88.486000
  C    -53.990400   24.816100   87.370200
  H    -53.783600   27.098900   89.819900
  C    -52.228100   24.645400   89.181300
  H    -51.349600   24.912200   88.578500
  H    -52.224000   23.584400   88.996900
  C    -51.844000   25.026700   90.636900
  H    -51.863200   26.097900   90.922200
  H    -50.865400   24.512300   90.743100
  C    -52.995600   24.487600   91.589000
  H    -54.005200   24.924600   91.524700
  H    -52.741700   24.560400   92.713200
  H    -53.144400   23.375100   91.392500
  H    -54.801800   20.366800   85.275500
  H    -55.604000   27.839600   88.278400

 Total Charge           Charge          ....    0
 Multiplicity           Mult            ....    1
 Number of Electrons    NEL             ....  134
 Basis Dimension        Dim             ....  322

ORBITAL ENERGIES
----------------

  NO   OCC          E(Eh)            E(eV)
   0   2.0000     -88.966126     -2420.8914
   1   2.0000     -88.959820     -2420.7198
   2   2.0000     -10.334584      -281.2183
   3   2.0000     -10.321729      -280.8685
   4   2.0000     -10.311605      -280.5930
   5   2.0000     -10.308510      -280.5088
   6   2.0000     -10.308076      -280.4970
   7   2.0000     -10.302871      -280.3554
   8   2.0000     -10.299410      -280.2612
   9   2.0000     -10.296706      -280.1876
  10   2.0000     -10.293915      -280.1117
  11   2.0000     -10.290652      -280.0229
  12   2.0000     -10.289582      -279.9938
  13   2.0000     -10.289401      -279.9888
  14   2.0000     -10.281303      -279.7685
  15   2.0000     -10.269571      -279.4492
  16   2.0000      -8.079594      -219.8569
  17   2.0000      -8.075198      -219.7373
  18   2.0000      -6.038354      -164.3120
  19   2.0000      -6.034315      -164.2020
  20   2.0000      -6.033741      -164.1864
  21   2.0000      -6.030101      -164.0874
  22   2.0000      -6.029739      -164.0775
  23   2.0000      -6.025761      -163.9693
  24   2.0000      -1.004125       -27.3236
  25   2.0000      -0.981543       -26.7091
  26   2.0000      -0.920277       -25.0420
  27   2.0000      -0.906763       -24.6743
  28   2.0000      -0.874501       -23.7964
  29   2.0000      -0.845582       -23.0095
  30   2.0000      -0.839206       -22.8360
  31   2.0000      -0.819611       -22.3027
  32   2.0000      -0.783984       -21.3333
  33   2.0000      -0.772917       -21.0321
  34   2.0000      -0.713522       -19.4159
  35   2.0000      -0.697862       -18.9898
  36   2.0000      -0.696431       -18.9509
  37   2.0000      -0.653703       -17.7882
  38   2.0000      -0.638671       -17.3791
  39   2.0000      -0.624198       -16.9853
  40   2.0000      -0.606309       -16.4985
  41   2.0000      -0.571802       -15.5595
  42   2.0000      -0.557379       -15.1671
  43   2.0000      -0.546276       -14.8649
  44   2.0000      -0.544086       -14.8053
  45   2.0000      -0.531395       -14.4600
  46   2.0000      -0.522150       -14.2084
  47   2.0000      -0.513789       -13.9809
  48   2.0000      -0.504620       -13.7314
  49   2.0000      -0.498374       -13.5614
  50   2.0000      -0.490856       -13.3569
  51   2.0000      -0.475624       -12.9424
  52   2.0000      -0.473753       -12.8915
  53   2.0000      -0.460960       -12.5434
  54   2.0000      -0.459524       -12.5043
  55   2.0000      -0.450692       -12.2640
  56   2.0000      -0.442315       -12.0360
  57   2.0000      -0.440550       -11.9880
  58   2.0000      -0.431263       -11.7353
  59   2.0000      -0.424355       -11.5473
  60   2.0000      -0.417803       -11.3690
  61   2.0000      -0.412626       -11.2281
  62   2.0000      -0.411070       -11.1858
  63   2.0000      -0.345665        -9.4060
  64   2.0000      -0.327799        -8.9199
  65   2.0000      -0.325559        -8.8589
  66   2.0000      -0.296219        -8.0605
  67   0.0000       0.030478         0.8293
  68   0.0000       0.071167         1.9365
  69   0.0000       0.116176         3.1613
  70   0.0000       0.123297         3.3551
  71   0.0000       0.125943         3.4271

MULLIKEN ATOMIC CHARGES
-----------------------
   0 S :    0.108989
   1 C :   -0.072243
   2 C :   -0.104439
   3 C :    0.016735
   4 C :   -0.137468
   5 H :    0.029078
   6 C :    0.052854
   7 H :    0.030910
   8 H :    0.015430
   9 C :   -0.071691
  10 H :    0.020976
  11 H :    0.027420
  12 C :   -0.016304
  13 H :    0.035051
  14 H :    0.009391
  15 H :    0.038594
  16 S :    0.098884
  17 C :   -0.078094
  18 C :   -0.016062
  19 C :   -0.016559
  20 C :   -0.190858
  21 H :    0.005039
  22 C :    0.037063
  23 H :    0.036682
  24 H :    0.028035
  25 C :   -0.050058
  26 H :    0.048193
  27 H :    0.047739
  28 C :   -0.132604
  29 H :    0.051430
  30 H :    0.043796
  31 H :    0.037879
  32 H :    0.008024
  33 H :    0.058188
Sum of atomic charges:   -0.0000000

LOEWDIN ATOMIC CHARGES
----------------------
   0 S :    0.376488
   1 C :   -0.183139
   2 C :   -0.065158
   3 C :   -0.060561
   4 C :   -0.172547
   5 H :    0.036709
   6 C :   -0.041242
   7 H :    0.033744
   8 H :    0.034508
   9 C :   -0.041555
  10 H :    0.024318
  11 H :    0.021266
  12 C :   -0.053987
  13 H :    0.024956
  14 H :    0.010131
  15 H :    0.033298
  16 S :    0.392259
  17 C :   -0.182278
  18 C :   -0.073724
  19 C :   -0.039338
  20 C :   -0.199402
  21 H :    0.027077
  22 C :   -0.041590
  23 H :    0.038295
  24 H :    0.032064
  25 C :   -0.039566
  26 H :    0.030109
  27 H :    0.036509
  28 C :   -0.089334
  29 H :    0.027474
  30 H :    0.029635
  31 H :    0.028255
  32 H :    0.013394
  33 H :    0.032932

  Mayer bond orders larger than 0.100000
B(  0-S ,  1-C ) :   1.1108 B(  0-S ,  4-C ) :   1.1264 B(  1-C ,  2-C ) :   1.6431
B(  1-C , 32-H ) :   0.9718 B(  2-C ,  3-C ) :   1.1971 B(  2-C ,  6-C ) :   1.0384
B(  3-C ,  4-C ) :   1.5865 B(  3-C ,  5-H ) :   0.9913 B(  4-C , 20-C ) :   1.0665
B(  6-C ,  7-H ) :   0.9289 B(  6-C ,  8-H ) :   0.9360 B(  6-C ,  9-C ) :   1.0794
B(  9-C , 10-H ) :   0.9496 B(  9-C , 11-H ) :   0.9524 B(  9-C , 12-C ) :   1.0812
B( 12-C , 13-H ) :   0.9711 B( 12-C , 14-H ) :   0.9743 B( 12-C , 15-H ) :   0.9733
B( 16-S , 17-C ) :   1.1429 B( 16-S , 20-C ) :   1.1170 B( 17-C , 18-C ) :   1.6569
B( 17-C , 33-H ) :   0.9584 B( 18-C , 19-C ) :   1.1974 B( 18-C , 21-H ) :   0.9935
B( 19-C , 20-C ) :   1.6276 B( 19-C , 22-C ) :   1.0390 B( 22-C , 23-H ) :   0.9238
B( 22-C , 24-H ) :   0.9277 B( 22-C , 25-C ) :   1.0714 B( 25-C , 26-H ) :   0.9565
B( 25-C , 27-H ) :   0.9526 B( 25-C , 28-C ) :   1.0519 B( 28-C , 29-H ) :   0.9770
B( 28-C , 30-H ) :   0.9778 B( 28-C , 31-H ) :   0.9765

Dispersion correction           -0.014804051
FINAL SINGLE POINT ENERGY     -1339.870650084045

DIPOLE MOMENT
-------------
                                X             Y             Z
Electronic contribution:    -20.63550      12.24579     -12.25283
Nuclear contribution   :     21.26729     -12.36818      12.41337
                        -----------------------------------------
Total Dipole Moment    :      0.63179      -0.12239       0.16054
                        -----------------------------------------
Magnitude (a.u.)       :      0.66326
Magnitude (Debye)      :      1.68588

Rotational constants in cm-1:     0.018599     0.009208     0.007042
Rotational constants in MHz :   557.592051   276.037819   211.127386

                             ****ORCA TERMINATED NORMALLY****
TOTAL RUN TIME: 0 days 0 hours 0 minutes 31 seconds 243 msec
