                         Program Version 4.2.1 -  RELEASE  -
|  1> ! wB97X-D3 SP def2-SVP
|  2> %pal
|  3> nprocs 16
|  4> end
|  5>
|  6> * xyz 0 1
|  7> S 	 -30.0406 	 28.8517 	 43.1526
|  8> C 	 -31.5999 	 28.4159 	 43.6839
|  9> C 	 -32.2301 	 29.5465 	 44.2595
| 10> C 	 -31.3791 	 30.6967 	 44.3139
| 11> C 	 -30.1037 	 30.4167 	 43.7463
| 12> H 	 -31.5431 	 31.6389 	 44.6314
| 13> C 	 -33.6644 	 29.6408 	 44.7511
| 14> H 	 -34.0619 	 28.6892 	 44.4691
| 15> H 	 -34.1162 	 30.3899 	 44.1974
| 16> C 	 -34.0461 	 29.9762 	 46.2188
| 17> H 	 -33.9883 	 31.0608 	 46.5028
| 18> H 	 -35.1031 	 29.7811 	 46.2854
| 19> C 	 -33.3702 	 29.1802 	 47.3239
| 20> H 	 -33.4972 	 28.2131 	 47.1279
| 21> H 	 -32.3134 	 29.413 	 47.3019
| 22> H 	 -33.7564 	 29.3966 	 48.3511
| 23> S 	 -27.4531 	 30.8116 	 44.4567
| 24> C 	 -26.6674 	 32.2323 	 43.8507
| 25> C 	 -27.5131 	 33.0493 	 43.1524
| 26> C 	 -28.794 	 32.4945 	 42.9707
| 27> C 	 -28.9308 	 31.2666 	 43.5964
| 28> H 	 -27.2255 	 34.056 	 42.7444
| 29> C 	 -29.8371 	 33.1655 	 42.0778
| 30> H 	 -30.3037 	 32.4571 	 41.4171
| 31> H 	 -29.3159 	 33.9084 	 41.3425
| 32> C 	 -30.8877 	 33.9964 	 42.777
| 33> H 	 -30.1788 	 34.6736 	 43.3349
| 34> H 	 -31.4361 	 33.4432 	 43.4892
| 35> C 	 -31.7813 	 34.7206 	 41.7236
| 36> H 	 -31.221 	 35.5135 	 41.1627
| 37> H 	 -32.4537 	 35.4278 	 42.2168
| 38> H 	 -32.3209 	 34.0795 	 41.0298
| 39> H 	 -32.1065 	 27.5153 	 43.4599
| 40> H 	 -25.653 	 32.4836 	 43.9287
| 41> *
| 42>
| 43>                          ****END OF INPUT****

CARTESIAN COORDINATES (ANGSTROEM)
---------------------------------
  S    -30.040600   28.851700   43.152600
  C    -31.599900   28.415900   43.683900
  C    -32.230100   29.546500   44.259500
  C    -31.379100   30.696700   44.313900
  C    -30.103700   30.416700   43.746300
  H    -31.543100   31.638900   44.631400
  C    -33.664400   29.640800   44.751100
  H    -34.061900   28.689200   44.469100
  H    -34.116200   30.389900   44.197400
  C    -34.046100   29.976200   46.218800
  H    -33.988300   31.060800   46.502800
  H    -35.103100   29.781100   46.285400
  C    -33.370200   29.180200   47.323900
  H    -33.497200   28.213100   47.127900
  H    -32.313400   29.413000   47.301900
  H    -33.756400   29.396600   48.351100
  S    -27.453100   30.811600   44.456700
  C    -26.667400   32.232300   43.850700
  C    -27.513100   33.049300   43.152400
  C    -28.794000   32.494500   42.970700
  C    -28.930800   31.266600   43.596400
  H    -27.225500   34.056000   42.744400
  C    -29.837100   33.165500   42.077800
  H    -30.303700   32.457100   41.417100
  H    -29.315900   33.908400   41.342500
  C    -30.887700   33.996400   42.777000
  H    -30.178800   34.673600   43.334900
  H    -31.436100   33.443200   43.489200
  C    -31.781300   34.720600   41.723600
  H    -31.221000   35.513500   41.162700
  H    -32.453700   35.427800   42.216800
  H    -32.320900   34.079500   41.029800
  H    -32.106500   27.515300   43.459900
  H    -25.653000   32.483600   43.928700

 Total Charge           Charge          ....    0
 Multiplicity           Mult            ....    1
 Number of Electrons    NEL             ....  134
 Basis Dimension        Dim             ....  322

ORBITAL ENERGIES
----------------

  NO   OCC          E(Eh)            E(eV)
   0   2.0000     -88.968075     -2420.9444
   1   2.0000     -88.967152     -2420.9193
   2   2.0000     -10.325556      -280.9727
   3   2.0000     -10.324699      -280.9493
   4   2.0000     -10.311761      -280.5973
   5   2.0000     -10.311473      -280.5894
   6   2.0000     -10.304987      -280.4129
   7   2.0000     -10.300506      -280.2910
   8   2.0000     -10.293432      -280.0985
   9   2.0000     -10.293395      -280.0975
  10   2.0000     -10.289070      -279.9798
  11   2.0000     -10.288489      -279.9640
  12   2.0000     -10.287082      -279.9257
  13   2.0000     -10.286215      -279.9021
  14   2.0000     -10.285400      -279.8800
  15   2.0000     -10.263912      -279.2953
  16   2.0000      -8.083698      -219.9686
  17   2.0000      -8.082769      -219.9433
  18   2.0000      -6.041866      -164.4075
  19   2.0000      -6.041275      -164.3914
  20   2.0000      -6.037602      -164.2915
  21   2.0000      -6.037270      -164.2825
  22   2.0000      -6.035056      -164.2222
  23   2.0000      -6.033541      -164.1810
  24   2.0000      -1.012989       -27.5648
  25   2.0000      -0.989554       -26.9271
  26   2.0000      -0.911769       -24.8105
  27   2.0000      -0.910281       -24.7700
  28   2.0000      -0.870056       -23.6754
  29   2.0000      -0.852405       -23.1951
  30   2.0000      -0.849188       -23.1076
  31   2.0000      -0.815228       -22.1835
  32   2.0000      -0.787674       -21.4337
  33   2.0000      -0.774454       -21.0740
  34   2.0000      -0.710190       -19.3253
  35   2.0000      -0.701035       -19.0761
  36   2.0000      -0.692365       -18.8402
  37   2.0000      -0.661663       -18.0048
  38   2.0000      -0.650306       -17.6957
  39   2.0000      -0.617097       -16.7921
  40   2.0000      -0.599485       -16.3128
  41   2.0000      -0.567026       -15.4296
  42   2.0000      -0.566219       -15.4076
  43   2.0000      -0.557881       -15.1807
  44   2.0000      -0.542402       -14.7595
  45   2.0000      -0.525546       -14.3008
  46   2.0000      -0.519630       -14.1398
  47   2.0000      -0.514182       -13.9916
  48   2.0000      -0.509505       -13.8643
  49   2.0000      -0.501240       -13.6394
  50   2.0000      -0.493086       -13.4176
  51   2.0000      -0.478936       -13.0325
  52   2.0000      -0.471826       -12.8390
  53   2.0000      -0.462648       -12.5893
  54   2.0000      -0.457813       -12.4577
  55   2.0000      -0.453070       -12.3287
  56   2.0000      -0.441991       -12.0272
  57   2.0000      -0.439394       -11.9565
  58   2.0000      -0.432087       -11.7577
  59   2.0000      -0.425400       -11.5757
  60   2.0000      -0.422130       -11.4867
  61   2.0000      -0.414555       -11.2806
  62   2.0000      -0.411899       -11.2084
  63   2.0000      -0.340088        -9.2543
  64   2.0000      -0.333308        -9.0698
  65   2.0000      -0.328563        -8.9407
  66   2.0000      -0.297997        -8.1089
  67   0.0000       0.034228         0.9314
  68   0.0000       0.067488         1.8364
  69   0.0000       0.115283         3.1370
  70   0.0000       0.119218         3.2441
  71   0.0000       0.131809         3.5867

MULLIKEN ATOMIC CHARGES
-----------------------
   0 S :    0.140154
   1 C :   -0.101699
   2 C :   -0.128193
   3 C :    0.099729
   4 C :   -0.194882
   5 H :   -0.045310
   6 C :    0.132125
   7 H :    0.002016
   8 H :    0.020047
   9 C :   -0.102236
  10 H :    0.029392
  11 H :    0.022953
  12 C :   -0.004837
  13 H :   -0.002057
  14 H :    0.035653
  15 H :    0.035535
  16 S :    0.124927
  17 C :   -0.060399
  18 C :   -0.057976
  19 C :    0.006710
  20 C :   -0.176788
  21 H :    0.032965
  22 C :    0.026470
  23 H :    0.024543
  24 H :    0.026881
  25 C :   -0.059008
  26 H :    0.027854
  27 H :    0.018328
  28 C :   -0.046917
  29 H :    0.027801
  30 H :    0.027692
  31 H :    0.047111
  32 H :    0.036046
  33 H :    0.035369
Sum of atomic charges:    0.0000000

LOEWDIN ATOMIC CHARGES
----------------------
   0 S :    0.475364
   1 C :   -0.221383
   2 C :   -0.056211
   3 C :   -0.049612
   4 C :   -0.221327
   5 H :    0.006845
   6 C :   -0.025194
   7 H :    0.025501
   8 H :    0.028739
   9 C :   -0.041457
  10 H :    0.025154
  11 H :    0.023475
  12 C :   -0.055657
  13 H :    0.003786
  14 H :    0.027717
  15 H :    0.032746
  16 S :    0.411651
  17 C :   -0.182668
  18 C :   -0.075712
  19 C :   -0.057715
  20 C :   -0.202707
  21 H :    0.039828
  22 C :   -0.034726
  23 H :    0.022739
  24 H :    0.036916
  25 C :   -0.038493
  26 H :    0.032213
  27 H :    0.011627
  28 C :   -0.071284
  29 H :    0.031737
  30 H :    0.027646
  31 H :    0.027589
  32 H :    0.021818
  33 H :    0.021054

  Mayer bond orders larger than 0.100000
B(  0-S ,  1-C ) :   1.1685 B(  0-S ,  4-C ) :   1.2253 B(  1-C ,  2-C ) :   1.5431
B(  1-C ,  4-C ) :   0.1055 B(  1-C , 32-H ) :   0.9737 B(  2-C ,  3-C ) :   1.2670
B(  2-C ,  6-C ) :   1.0285 B(  3-C ,  4-C ) :   1.5042 B(  3-C ,  5-H ) :   1.0179
B(  4-C , 20-C ) :   1.0108 B(  6-C ,  7-H ) :   0.9343 B(  6-C ,  8-H ) :   0.9309
B(  6-C ,  9-C ) :   1.0718 B(  9-C , 10-H ) :   0.9567 B(  9-C , 11-H ) :   0.9526
B(  9-C , 12-C ) :   1.0824 B( 12-C , 13-H ) :   0.9755 B( 12-C , 14-H ) :   0.9723
B( 12-C , 15-H ) :   0.9731 B( 16-S , 17-C ) :   1.1550 B( 16-S , 20-C ) :   1.1444
B( 17-C , 18-C ) :   1.6070 B( 17-C , 20-C ) :   0.1009 B( 17-C , 33-H ) :   0.9700
B( 18-C , 19-C ) :   1.2657 B( 18-C , 21-H ) :   0.9779 B( 19-C , 20-C ) :   1.5971
B( 19-C , 22-C ) :   1.0293 B( 22-C , 23-H ) :   0.9338 B( 22-C , 24-H ) :   0.9477
B( 22-C , 25-C ) :   1.0486 B( 25-C , 26-H ) :   0.9553 B( 25-C , 27-H ) :   0.9560
B( 25-C , 28-C ) :   1.0771 B( 28-C , 29-H ) :   0.9709 B( 28-C , 30-H ) :   0.9721
B( 28-C , 31-H ) :   0.9758

Dispersion correction           -0.014398257
FINAL SINGLE POINT ENERGY     -1339.862358704695

DIPOLE MOMENT
-------------
                                X             Y             Z
Electronic contribution:     22.94009     -13.12660      -3.09687
Nuclear contribution   :    -23.38158      13.53763       2.97183
                        -----------------------------------------
Total Dipole Moment    :     -0.44149       0.41104      -0.12504
                        -----------------------------------------
Magnitude (a.u.)       :      0.61604
Magnitude (Debye)      :      1.56584

Rotational constants in cm-1:     0.017142     0.009120     0.007206
Rotational constants in MHz :   513.905214   273.411883   216.029013

                             ****ORCA TERMINATED NORMALLY****
TOTAL RUN TIME: 0 days 0 hours 0 minutes 33 seconds 836 msec
