                         Program Version 4.2.1 -  RELEASE  -
|  1> ! wB97X-D3 SP def2-SVP
|  2> %pal
|  3> nprocs 16
|  4> end
|  5>
|  6> * xyz 0 1
|  7> S 	 50.0968 	 9.67353 	 92.1503
|  8> C 	 49.6499 	 10.9243 	 93.3427
|  9> C 	 49.2684 	 12.1105 	 92.8194
| 10> C 	 49.1201 	 12.0035 	 91.3734
| 11> C 	 49.4413 	 10.7664 	 90.931
| 12> H 	 48.8247 	 12.7465 	 90.6809
| 13> C 	 48.7457 	 13.2575 	 93.6383
| 14> H 	 47.8894 	 12.9252 	 94.279
| 15> H 	 48.3862 	 14.0419 	 92.9327
| 16> C 	 49.7338 	 13.9595 	 94.5171
| 17> H 	 49.3498 	 14.8017 	 95.1202
| 18> H 	 50.0939 	 13.2773 	 95.257
| 19> C 	 50.9596 	 14.4392 	 93.6492
| 20> H 	 50.6959 	 15.3573 	 93.1683
| 21> H 	 51.8261 	 14.5793 	 94.317
| 22> H 	 51.161 	 13.7336 	 92.8279
| 23> S 	 51.0317 	 9.7159 	 89.0025
| 24> C 	 50.4765 	 9.60403 	 87.3412
| 25> C 	 49.1462 	 9.90747 	 87.2673
| 26> C 	 48.5223 	 10.3979 	 88.4532
| 27> C 	 49.4524 	 10.2193 	 89.5392
| 28> H 	 48.6481 	 9.91398 	 86.3033
| 29> C 	 47.0471 	 10.7909 	 88.4905
| 30> H 	 46.7806 	 11.5284 	 87.6996
| 31> H 	 46.8442 	 11.2726 	 89.4294
| 32> C 	 46.0546 	 9.59676 	 88.4498
| 33> H 	 46.4534 	 8.74707 	 89.0785
| 34> H 	 45.9807 	 9.29281 	 87.4118
| 35> C 	 44.6292 	 10.0526 	 88.8422
| 36> H 	 43.8596 	 9.36784 	 88.4333
| 37> H 	 44.3984 	 11.0151 	 88.3048
| 38> H 	 44.5674 	 10.1608 	 89.9693
| 39> H 	 49.5836 	 10.6973 	 94.3905
| 40> H 	 50.9336 	 9.14233 	 86.5336
| 41> *
| 42>
| 43>                          ****END OF INPUT****

CARTESIAN COORDINATES (ANGSTROEM)
---------------------------------
  S     50.096800    9.673530   92.150300
  C     49.649900   10.924300   93.342700
  C     49.268400   12.110500   92.819400
  C     49.120100   12.003500   91.373400
  C     49.441300   10.766400   90.931000
  H     48.824700   12.746500   90.680900
  C     48.745700   13.257500   93.638300
  H     47.889400   12.925200   94.279000
  H     48.386200   14.041900   92.932700
  C     49.733800   13.959500   94.517100
  H     49.349800   14.801700   95.120200
  H     50.093900   13.277300   95.257000
  C     50.959600   14.439200   93.649200
  H     50.695900   15.357300   93.168300
  H     51.826100   14.579300   94.317000
  H     51.161000   13.733600   92.827900
  S     51.031700    9.715900   89.002500
  C     50.476500    9.604030   87.341200
  C     49.146200    9.907470   87.267300
  C     48.522300   10.397900   88.453200
  C     49.452400   10.219300   89.539200
  H     48.648100    9.913980   86.303300
  C     47.047100   10.790900   88.490500
  H     46.780600   11.528400   87.699600
  H     46.844200   11.272600   89.429400
  C     46.054600    9.596760   88.449800
  H     46.453400    8.747070   89.078500
  H     45.980700    9.292810   87.411800
  C     44.629200   10.052600   88.842200
  H     43.859600    9.367840   88.433300
  H     44.398400   11.015100   88.304800
  H     44.567400   10.160800   89.969300
  H     49.583600   10.697300   94.390500
  H     50.933600    9.142330   86.533600

 Total Charge           Charge          ....    0
 Multiplicity           Mult            ....    1
 Number of Electrons    NEL             ....  134
 Basis Dimension        Dim             ....  322

ORBITAL ENERGIES
----------------

  NO   OCC          E(Eh)            E(eV)
   0   2.0000     -88.967864     -2420.9387
   1   2.0000     -88.964851     -2420.8567
   2   2.0000     -10.332319      -281.1567
   3   2.0000     -10.329594      -281.0826
   4   2.0000     -10.310771      -280.5703
   5   2.0000     -10.309401      -280.5331
   6   2.0000     -10.308999      -280.5221
   7   2.0000     -10.301862      -280.3279
   8   2.0000     -10.295665      -280.1593
   9   2.0000     -10.294992      -280.1410
  10   2.0000     -10.293589      -280.1028
  11   2.0000     -10.290306      -280.0135
  12   2.0000     -10.290225      -280.0113
  13   2.0000     -10.289368      -279.9879
  14   2.0000     -10.283255      -279.8216
  15   2.0000     -10.273894      -279.5669
  16   2.0000      -8.082381      -219.9328
  17   2.0000      -8.079418      -219.8521
  18   2.0000      -6.040938      -164.3823
  19   2.0000      -6.037948      -164.3009
  20   2.0000      -6.036841      -164.2708
  21   2.0000      -6.034284      -164.2012
  22   2.0000      -6.033174      -164.1710
  23   2.0000      -6.029823      -164.0798
  24   2.0000      -1.004980       -27.3469
  25   2.0000      -0.982277       -26.7291
  26   2.0000      -0.915274       -24.9059
  27   2.0000      -0.905992       -24.6533
  28   2.0000      -0.864858       -23.5340
  29   2.0000      -0.849041       -23.1036
  30   2.0000      -0.842418       -22.9234
  31   2.0000      -0.814389       -22.1606
  32   2.0000      -0.779380       -21.2080
  33   2.0000      -0.768484       -20.9115
  34   2.0000      -0.704680       -19.1753
  35   2.0000      -0.699154       -19.0249
  36   2.0000      -0.690475       -18.7888
  37   2.0000      -0.657762       -17.8986
  38   2.0000      -0.640741       -17.4354
  39   2.0000      -0.614056       -16.7093
  40   2.0000      -0.597074       -16.2472
  41   2.0000      -0.572507       -15.5787
  42   2.0000      -0.567844       -15.4518
  43   2.0000      -0.554641       -15.0925
  44   2.0000      -0.536885       -14.6094
  45   2.0000      -0.517362       -14.0781
  46   2.0000      -0.514479       -13.9997
  47   2.0000      -0.509435       -13.8624
  48   2.0000      -0.505062       -13.7434
  49   2.0000      -0.490230       -13.3398
  50   2.0000      -0.486506       -13.2385
  51   2.0000      -0.478058       -13.0086
  52   2.0000      -0.476313       -12.9611
  53   2.0000      -0.456904       -12.4330
  54   2.0000      -0.454135       -12.3577
  55   2.0000      -0.446249       -12.1430
  56   2.0000      -0.444979       -12.1085
  57   2.0000      -0.438232       -11.9249
  58   2.0000      -0.430711       -11.7202
  59   2.0000      -0.427766       -11.6401
  60   2.0000      -0.418769       -11.3953
  61   2.0000      -0.417474       -11.3601
  62   2.0000      -0.414958       -11.2916
  63   2.0000      -0.348151        -9.4737
  64   2.0000      -0.333401        -9.0723
  65   2.0000      -0.329279        -8.9601
  66   2.0000      -0.292413        -7.9570
  67   0.0000       0.031690         0.8623
  68   0.0000       0.063414         1.7256
  69   0.0000       0.098145         2.6707
  70   0.0000       0.117373         3.1939
  71   0.0000       0.131792         3.5863

MULLIKEN ATOMIC CHARGES
-----------------------
   0 S :    0.092304
   1 C :   -0.113423
   2 C :   -0.083312
   3 C :    0.046665
   4 C :   -0.148810
   5 H :    0.002624
   6 C :    0.045946
   7 H :    0.050499
   8 H :    0.021583
   9 C :   -0.066531
  10 H :    0.034986
  11 H :    0.014970
  12 C :   -0.072055
  13 H :    0.021711
  14 H :    0.041691
  15 H :    0.051261
  16 S :    0.107419
  17 C :   -0.053940
  18 C :   -0.044877
  19 C :   -0.045456
  20 C :   -0.139734
  21 H :    0.017112
  22 C :    0.055909
  23 H :    0.035791
  24 H :    0.010992
  25 C :   -0.084235
  26 H :    0.055687
  27 H :    0.023546
  28 C :   -0.084917
  29 H :    0.042130
  30 H :    0.032647
  31 H :    0.056779
  32 H :    0.041604
  33 H :    0.033433
Sum of atomic charges:    0.0000000

LOEWDIN ATOMIC CHARGES
----------------------
   0 S :    0.371797
   1 C :   -0.172223
   2 C :   -0.063044
   3 C :   -0.057966
   4 C :   -0.177227
   5 H :    0.029136
   6 C :   -0.037447
   7 H :    0.039785
   8 H :    0.031580
   9 C :   -0.043455
  10 H :    0.027542
  11 H :    0.014175
  12 C :   -0.063860
  13 H :    0.018469
  14 H :    0.028847
  15 H :    0.030241
  16 S :    0.413866
  17 C :   -0.184872
  18 C :   -0.066381
  19 C :   -0.056679
  20 C :   -0.203385
  21 H :    0.029702
  22 C :   -0.035898
  23 H :    0.035115
  24 H :    0.024067
  25 C :   -0.042281
  26 H :    0.034570
  27 H :    0.019233
  28 C :   -0.075905
  29 H :    0.029138
  30 H :    0.029112
  31 H :    0.033466
  32 H :    0.022054
  33 H :    0.018727

  Mayer bond orders larger than 0.100000
B(  0-S ,  1-C ) :   1.1088 B(  0-S ,  4-C ) :   1.1310 B(  1-C ,  2-C ) :   1.6770
B(  1-C , 32-H ) :   0.9694 B(  2-C ,  3-C ) :   1.1595 B(  2-C ,  6-C ) :   1.0135
B(  3-C ,  4-C ) :   1.6551 B(  3-C ,  5-H ) :   1.0013 B(  4-C , 20-C ) :   0.9781
B(  6-C ,  7-H ) :   0.9419 B(  6-C ,  8-H ) :   0.9439 B(  6-C ,  9-C ) :   1.0763
B(  9-C , 10-H ) :   0.9578 B(  9-C , 11-H ) :   0.9575 B(  9-C , 12-C ) :   1.0606
B( 12-C , 13-H ) :   0.9770 B( 12-C , 14-H ) :   0.9767 B( 12-C , 15-H ) :   0.9770
B( 16-S , 17-C ) :   1.1390 B( 16-S , 20-C ) :   1.1720 B( 17-C , 18-C ) :   1.6233
B( 17-C , 20-C ) :   0.1050 B( 17-C , 33-H ) :   0.9693 B( 18-C , 19-C ) :   1.2515
B( 18-C , 21-H ) :   0.9823 B( 19-C , 20-C ) :   1.5635 B( 19-C , 22-C ) :   1.0566
B( 22-C , 23-H ) :   0.9300 B( 22-C , 24-H ) :   0.9387 B( 22-C , 25-C ) :   1.0559
B( 25-C , 26-H ) :   0.9584 B( 25-C , 27-H ) :   0.9535 B( 25-C , 28-C ) :   1.0797
B( 28-C , 29-H ) :   0.9748 B( 28-C , 30-H ) :   0.9702 B( 28-C , 31-H ) :   0.9752

Dispersion correction           -0.013912063
FINAL SINGLE POINT ENERGY     -1339.875117599419

DIPOLE MOMENT
-------------
                                X             Y             Z
Electronic contribution:     16.93027     -14.79878      -4.62744
Nuclear contribution   :    -17.48804      15.15661       4.54322
                        -----------------------------------------
Total Dipole Moment    :     -0.55777       0.35784      -0.08421
                        -----------------------------------------
Magnitude (a.u.)       :      0.66801
Magnitude (Debye)      :      1.69796

Rotational constants in cm-1:     0.018773     0.008159     0.006684
Rotational constants in MHz :   562.793193   244.589004   200.389982

                             ****ORCA TERMINATED NORMALLY****
TOTAL RUN TIME: 0 days 0 hours 0 minutes 29 seconds 666 msec
