                         Program Version 4.2.1 -  RELEASE  -
|  1> ! wB97X-D3 SP def2-SVP
|  2> %pal
|  3> nprocs 16
|  4> end
|  5>
|  6> * xyz 0 1
|  7> S 	 -5.4561 	 39.7416 	 34.4064
|  8> C 	 -5.57397 	 38.2013 	 33.5462
|  9> C 	 -6.84923 	 37.6294 	 33.9397
| 10> C 	 -7.57633 	 38.3974 	 34.9247
| 11> C 	 -6.88019 	 39.5493 	 35.3348
| 12> H 	 -8.46964 	 38.0422 	 35.4531
| 13> C 	 -7.26597 	 36.2365 	 33.453
| 14> H 	 -6.54615 	 35.9171 	 32.757
| 15> H 	 -8.18771 	 36.2486 	 32.8991
| 16> C 	 -7.33582 	 35.2291 	 34.6395
| 17> H 	 -6.27832 	 35.2036 	 34.9469
| 18> H 	 -7.95152 	 35.6193 	 35.4392
| 19> C 	 -7.66642 	 33.7449 	 34.2593
| 20> H 	 -8.74093 	 33.5753 	 34.1615
| 21> H 	 -7.16058 	 33.3825 	 33.4003
| 22> H 	 -7.43227 	 33.0281 	 35.0279
| 23> S 	 -9.05641 	 41.0762 	 36.3694
| 24> C 	 -8.65129 	 42.0583 	 37.7801
| 25> C 	 -7.35386 	 41.9591 	 38.1299
| 26> C 	 -6.59231 	 41.0537 	 37.3721
| 27> C 	 -7.34822 	 40.4781 	 36.3598
| 28> H 	 -7.09948 	 42.5115 	 39.0423
| 29> C 	 -5.18426 	 40.8272 	 37.8256
| 30> H 	 -4.96529 	 41.4589 	 38.6018
| 31> H 	 -4.67464 	 41.1621 	 36.9027
| 32> C 	 -4.64246 	 39.4271 	 38.1431
| 33> H 	 -5.15392 	 38.7037 	 37.4882
| 34> H 	 -4.90271 	 39.0989 	 39.1306
| 35> C 	 -3.13416 	 39.2421 	 37.921
| 36> H 	 -2.49344 	 39.8333 	 38.5248
| 37> H 	 -2.8725 	 39.3538 	 36.9042
| 38> H 	 -2.85497 	 38.3131 	 38.3562
| 39> H 	 -4.83455 	 37.7396 	 32.8621
| 40> H 	 -9.41089 	 42.6111 	 38.3131
| 41> *
| 42>
| 43>                          ****END OF INPUT****

CARTESIAN COORDINATES (ANGSTROEM)
---------------------------------
  S     -5.456100   39.741600   34.406400
  C     -5.573970   38.201300   33.546200
  C     -6.849230   37.629400   33.939700
  C     -7.576330   38.397400   34.924700
  C     -6.880190   39.549300   35.334800
  H     -8.469640   38.042200   35.453100
  C     -7.265970   36.236500   33.453000
  H     -6.546150   35.917100   32.757000
  H     -8.187710   36.248600   32.899100
  C     -7.335820   35.229100   34.639500
  H     -6.278320   35.203600   34.946900
  H     -7.951520   35.619300   35.439200
  C     -7.666420   33.744900   34.259300
  H     -8.740930   33.575300   34.161500
  H     -7.160580   33.382500   33.400300
  H     -7.432270   33.028100   35.027900
  S     -9.056410   41.076200   36.369400
  C     -8.651290   42.058300   37.780100
  C     -7.353860   41.959100   38.129900
  C     -6.592310   41.053700   37.372100
  C     -7.348220   40.478100   36.359800
  H     -7.099480   42.511500   39.042300
  C     -5.184260   40.827200   37.825600
  H     -4.965290   41.458900   38.601800
  H     -4.674640   41.162100   36.902700
  C     -4.642460   39.427100   38.143100
  H     -5.153920   38.703700   37.488200
  H     -4.902710   39.098900   39.130600
  C     -3.134160   39.242100   37.921000
  H     -2.493440   39.833300   38.524800
  H     -2.872500   39.353800   36.904200
  H     -2.854970   38.313100   38.356200
  H     -4.834550   37.739600   32.862100
  H     -9.410890   42.611100   38.313100

 Total Charge           Charge          ....    0
 Multiplicity           Mult            ....    1
 Number of Electrons    NEL             ....  134
 Basis Dimension        Dim             ....  322

ORBITAL ENERGIES
----------------

  NO   OCC          E(Eh)            E(eV)
   0   2.0000     -88.970720     -2421.0164
   1   2.0000     -88.967307     -2420.9235
   2   2.0000     -10.331414      -281.1321
   3   2.0000     -10.330241      -281.1001
   4   2.0000     -10.325681      -280.9761
   5   2.0000     -10.315378      -280.6957
   6   2.0000     -10.311535      -280.5911
   7   2.0000     -10.302836      -280.3544
   8   2.0000     -10.297757      -280.2162
   9   2.0000     -10.289553      -279.9930
  10   2.0000     -10.288382      -279.9611
  11   2.0000     -10.287019      -279.9240
  12   2.0000     -10.283570      -279.8302
  13   2.0000     -10.281567      -279.7757
  14   2.0000     -10.275434      -279.6088
  15   2.0000     -10.265098      -279.3275
  16   2.0000      -8.084851      -220.0000
  17   2.0000      -8.080879      -219.8919
  18   2.0000      -6.043299      -164.4465
  19   2.0000      -6.039433      -164.3413
  20   2.0000      -6.039195      -164.3349
  21   2.0000      -6.035952      -164.2466
  22   2.0000      -6.035738      -164.2408
  23   2.0000      -6.031488      -164.1251
  24   2.0000      -1.003545       -27.3079
  25   2.0000      -0.981076       -26.6964
  26   2.0000      -0.909365       -24.7451
  27   2.0000      -0.905520       -24.6405
  28   2.0000      -0.865304       -23.5461
  29   2.0000      -0.855274       -23.2732
  30   2.0000      -0.841824       -22.9072
  31   2.0000      -0.812635       -22.1129
  32   2.0000      -0.788483       -21.4557
  33   2.0000      -0.771947       -21.0057
  34   2.0000      -0.714692       -19.4478
  35   2.0000      -0.701909       -19.0999
  36   2.0000      -0.688832       -18.7441
  37   2.0000      -0.664764       -18.0891
  38   2.0000      -0.633178       -17.2297
  39   2.0000      -0.615494       -16.7484
  40   2.0000      -0.594706       -16.1828
  41   2.0000      -0.573661       -15.6101
  42   2.0000      -0.565912       -15.3993
  43   2.0000      -0.561399       -15.2765
  44   2.0000      -0.526251       -14.3200
  45   2.0000      -0.518808       -14.1175
  46   2.0000      -0.517282       -14.0760
  47   2.0000      -0.511811       -13.9271
  48   2.0000      -0.501379       -13.6432
  49   2.0000      -0.500339       -13.6149
  50   2.0000      -0.488751       -13.2996
  51   2.0000      -0.487675       -13.2703
  52   2.0000      -0.474355       -12.9079
  53   2.0000      -0.469779       -12.7833
  54   2.0000      -0.457737       -12.4556
  55   2.0000      -0.448469       -12.2035
  56   2.0000      -0.444497       -12.0954
  57   2.0000      -0.438331       -11.9276
  58   2.0000      -0.435616       -11.8537
  59   2.0000      -0.420864       -11.4523
  60   2.0000      -0.417945       -11.3729
  61   2.0000      -0.411783       -11.2052
  62   2.0000      -0.409907       -11.1541
  63   2.0000      -0.346255        -9.4221
  64   2.0000      -0.333130        -9.0649
  65   2.0000      -0.328518        -8.9394
  66   2.0000      -0.288536        -7.8515
  67   0.0000       0.021065         0.5732
  68   0.0000       0.076190         2.0732
  69   0.0000       0.098554         2.6818
  70   0.0000       0.125152         3.4056
  71   0.0000       0.132533         3.6064

MULLIKEN ATOMIC CHARGES
-----------------------
   0 S :    0.115042
   1 C :   -0.141012
   2 C :   -0.120995
   3 C :    0.009849
   4 C :   -0.156628
   5 H :    0.027765
   6 C :    0.110293
   7 H :   -0.005803
   8 H :    0.028854
   9 C :   -0.101497
  10 H :    0.031711
  11 H :    0.038147
  12 C :   -0.029118
  13 H :    0.026515
  14 H :    0.022555
  15 H :    0.025538
  16 S :    0.102493
  17 C :   -0.098259
  18 C :   -0.040690
  19 C :   -0.032161
  20 C :   -0.155126
  21 H :    0.024222
  22 C :    0.123821
  23 H :   -0.002929
  24 H :    0.030853
  25 C :   -0.059021
  26 H :    0.035860
  27 H :    0.016818
  28 C :   -0.007166
  29 H :    0.007990
  30 H :    0.031335
  31 H :    0.012258
  32 H :    0.073720
  33 H :    0.054765
Sum of atomic charges:    0.0000000

LOEWDIN ATOMIC CHARGES
----------------------
   0 S :    0.429903
   1 C :   -0.218282
   2 C :   -0.049566
   3 C :   -0.076753
   4 C :   -0.205098
   5 H :    0.033917
   6 C :   -0.028176
   7 H :    0.019680
   8 H :    0.026267
   9 C :   -0.035624
  10 H :    0.028750
  11 H :    0.021987
  12 C :   -0.068375
  13 H :    0.024994
  14 H :    0.020343
  15 H :    0.026404
  16 S :    0.373721
  17 C :   -0.168581
  18 C :   -0.077485
  19 C :   -0.048459
  20 C :   -0.186754
  21 H :    0.037975
  22 C :   -0.028145
  23 H :    0.017711
  24 H :    0.038696
  25 C :   -0.033916
  26 H :    0.029003
  27 H :    0.018768
  28 C :   -0.056420
  29 H :    0.018628
  30 H :    0.019956
  31 H :    0.026127
  32 H :    0.040795
  33 H :    0.028006

  Mayer bond orders larger than 0.100000
B(  0-S ,  1-C ) :   1.1397 B(  0-S ,  4-C ) :   1.1829 B(  1-C ,  2-C ) :   1.5515
B(  1-C ,  4-C ) :   0.1046 B(  1-C , 32-H ) :   0.9680 B(  2-C ,  3-C ) :   1.2806
B(  2-C ,  6-C ) :   1.0417 B(  3-C ,  4-C ) :   1.5060 B(  3-C ,  5-H ) :   0.9891
B(  4-C , 20-C ) :   1.0725 B(  6-C ,  7-H ) :   0.9380 B(  6-C ,  8-H ) :   0.9382
B(  6-C ,  9-C ) :   1.0500 B(  9-C , 10-H ) :   0.9578 B(  9-C , 11-H ) :   0.9637
B(  9-C , 12-C ) :   1.0779 B( 12-C , 13-H ) :   0.9751 B( 12-C , 14-H ) :   0.9753
B( 12-C , 15-H ) :   0.9753 B( 16-S , 17-C ) :   1.1393 B( 16-S , 20-C ) :   1.1158
B( 17-C , 18-C ) :   1.6450 B( 17-C , 33-H ) :   0.9642 B( 18-C , 19-C ) :   1.2260
B( 18-C , 21-H ) :   0.9866 B( 19-C , 20-C ) :   1.5797 B( 19-C , 22-C ) :   1.0287
B( 22-C , 23-H ) :   0.9329 B( 22-C , 24-H ) :   0.9191 B( 22-C , 25-C ) :   1.0568
B( 25-C , 26-H ) :   0.9566 B( 25-C , 27-H ) :   0.9557 B( 25-C , 28-C ) :   1.0880
B( 28-C , 29-H ) :   0.9723 B( 28-C , 30-H ) :   0.9758 B( 28-C , 31-H ) :   0.9673

Dispersion correction           -0.014527980
FINAL SINGLE POINT ENERGY     -1339.866926369650

DIPOLE MOMENT
-------------
                                X             Y             Z
Electronic contribution:    -10.04944      21.76954      -4.52217
Nuclear contribution   :     10.22115     -22.14583       4.89724
                        -----------------------------------------
Total Dipole Moment    :      0.17171      -0.37629       0.37507
                        -----------------------------------------
Magnitude (a.u.)       :      0.55835
Magnitude (Debye)      :      1.41922

Rotational constants in cm-1:     0.017901     0.008523     0.007105
Rotational constants in MHz :   536.647531   255.513294   213.013405

                             ****ORCA TERMINATED NORMALLY****
TOTAL RUN TIME: 0 days 0 hours 0 minutes 33 seconds 690 msec
