                         Program Version 4.2.1 -  RELEASE  -
|  1> ! wB97X-D3 SP def2-SVP
|  2> %pal
|  3> nprocs 16
|  4> end
|  5>
|  6> * xyz 0 1
|  7> S 	 -49.0922 	 67.4553 	 128.495
|  8> C 	 -49.6175 	 65.9704 	 127.735
|  9> C 	 -48.5585 	 65.0376 	 127.745
| 10> C 	 -47.4037 	 65.4526 	 128.463
| 11> C 	 -47.5619 	 66.7672 	 128.948
| 12> H 	 -46.4052 	 64.9432 	 128.597
| 13> C 	 -48.5894 	 63.5341 	 127.259
| 14> H 	 -49.4001 	 63.3847 	 126.553
| 15> H 	 -48.6985 	 62.8975 	 128.099
| 16> C 	 -47.2982 	 63.1111 	 126.455
| 17> H 	 -47.4493 	 62.2846 	 125.737
| 18> H 	 -46.7729 	 63.9942 	 126.074
| 19> C 	 -46.3542 	 62.4 	 127.438
| 20> H 	 -46.8571 	 61.6936 	 128.074
| 21> H 	 -45.6696 	 61.9112 	 126.784
| 22> H 	 -45.7239 	 62.9627 	 128.183
| 23> S 	 -45.7614 	 68.8129 	 128.717
| 24> C 	 -44.9673 	 69.4308 	 130.115
| 25> C 	 -45.3395 	 68.7464 	 131.259
| 26> C 	 -46.2407 	 67.6948 	 131.019
| 27> C 	 -46.5407 	 67.6316 	 129.626
| 28> H 	 -44.8334 	 68.9782 	 132.177
| 29> C 	 -46.6963 	 66.7312 	 132.071
| 30> H 	 -45.8452 	 66.4138 	 132.73
| 31> H 	 -46.8545 	 65.7794 	 131.664
| 32> C 	 -47.8653 	 67.2271 	 132.879
| 33> H 	 -48.7413 	 67.0913 	 132.235
| 34> H 	 -47.9431 	 68.3795 	 132.977
| 35> C 	 -48.2121 	 66.4826 	 134.165
| 36> H 	 -47.319 	 66.2653 	 134.848
| 37> H 	 -48.6431 	 65.5058 	 134.037
| 38> H 	 -48.8691 	 67.1156 	 134.755
| 39> H 	 -50.629 	 65.6088 	 127.566
| 40> H 	 -44.1389 	 70.1259 	 130.074
| 41> *
| 42>
| 43>                          ****END OF INPUT****

CARTESIAN COORDINATES (ANGSTROEM)
---------------------------------
  S    -49.092200   67.455300  128.495000
  C    -49.617500   65.970400  127.735000
  C    -48.558500   65.037600  127.745000
  C    -47.403700   65.452600  128.463000
  C    -47.561900   66.767200  128.948000
  H    -46.405200   64.943200  128.597000
  C    -48.589400   63.534100  127.259000
  H    -49.400100   63.384700  126.553000
  H    -48.698500   62.897500  128.099000
  C    -47.298200   63.111100  126.455000
  H    -47.449300   62.284600  125.737000
  H    -46.772900   63.994200  126.074000
  C    -46.354200   62.400000  127.438000
  H    -46.857100   61.693600  128.074000
  H    -45.669600   61.911200  126.784000
  H    -45.723900   62.962700  128.183000
  S    -45.761400   68.812900  128.717000
  C    -44.967300   69.430800  130.115000
  C    -45.339500   68.746400  131.259000
  C    -46.240700   67.694800  131.019000
  C    -46.540700   67.631600  129.626000
  H    -44.833400   68.978200  132.177000
  C    -46.696300   66.731200  132.071000
  H    -45.845200   66.413800  132.730000
  H    -46.854500   65.779400  131.664000
  C    -47.865300   67.227100  132.879000
  H    -48.741300   67.091300  132.235000
  H    -47.943100   68.379500  132.977000
  C    -48.212100   66.482600  134.165000
  H    -47.319000   66.265300  134.848000
  H    -48.643100   65.505800  134.037000
  H    -48.869100   67.115600  134.755000
  H    -50.629000   65.608800  127.566000
  H    -44.138900   70.125900  130.074000

 Total Charge           Charge          ....    0
 Multiplicity           Mult            ....    1
 Number of Electrons    NEL             ....  134
 Basis Dimension        Dim             ....  322

ORBITAL ENERGIES
----------------

  NO   OCC          E(Eh)            E(eV)
   0   2.0000     -88.969673     -2420.9879
   1   2.0000     -88.968472     -2420.9552
   2   2.0000     -10.332217      -281.1539
   3   2.0000     -10.324196      -280.9356
   4   2.0000     -10.316132      -280.7162
   5   2.0000     -10.312004      -280.6039
   6   2.0000     -10.307355      -280.4774
   7   2.0000     -10.302410      -280.3428
   8   2.0000     -10.299318      -280.2587
   9   2.0000     -10.292648      -280.0772
  10   2.0000     -10.292494      -280.0730
  11   2.0000     -10.289700      -279.9970
  12   2.0000     -10.287076      -279.9256
  13   2.0000     -10.285444      -279.8812
  14   2.0000     -10.279532      -279.7203
  15   2.0000     -10.275626      -279.6140
  16   2.0000      -8.084672      -219.9951
  17   2.0000      -8.084054      -219.9783
  18   2.0000      -6.042829      -164.4337
  19   2.0000      -6.042458      -164.4236
  20   2.0000      -6.038796      -164.3240
  21   2.0000      -6.038451      -164.3146
  22   2.0000      -6.035905      -164.2453
  23   2.0000      -6.035097      -164.2233
  24   2.0000      -1.009963       -27.4825
  25   2.0000      -0.984929       -26.8013
  26   2.0000      -0.910921       -24.7874
  27   2.0000      -0.906340       -24.6628
  28   2.0000      -0.865169       -23.5424
  29   2.0000      -0.851294       -23.1649
  30   2.0000      -0.844389       -22.9770
  31   2.0000      -0.811935       -22.0939
  32   2.0000      -0.783165       -21.3110
  33   2.0000      -0.769180       -20.9304
  34   2.0000      -0.700346       -19.0574
  35   2.0000      -0.694894       -18.9090
  36   2.0000      -0.690515       -18.7899
  37   2.0000      -0.658545       -17.9199
  38   2.0000      -0.637554       -17.3487
  39   2.0000      -0.620334       -16.8801
  40   2.0000      -0.602784       -16.4026
  41   2.0000      -0.569854       -15.5065
  42   2.0000      -0.548135       -14.9155
  43   2.0000      -0.545156       -14.8345
  44   2.0000      -0.542072       -14.7505
  45   2.0000      -0.529232       -14.4011
  46   2.0000      -0.517354       -14.0779
  47   2.0000      -0.513956       -13.9855
  48   2.0000      -0.505304       -13.7500
  49   2.0000      -0.498726       -13.5710
  50   2.0000      -0.488146       -13.2831
  51   2.0000      -0.479222       -13.0403
  52   2.0000      -0.469369       -12.7722
  53   2.0000      -0.456237       -12.4148
  54   2.0000      -0.455094       -12.3837
  55   2.0000      -0.450412       -12.2563
  56   2.0000      -0.442660       -12.0454
  57   2.0000      -0.442058       -12.0290
  58   2.0000      -0.435082       -11.8392
  59   2.0000      -0.428282       -11.6541
  60   2.0000      -0.419200       -11.4070
  61   2.0000      -0.407876       -11.0989
  62   2.0000      -0.395544       -10.7633
  63   2.0000      -0.341900        -9.3036
  64   2.0000      -0.330824        -9.0022
  65   2.0000      -0.324267        -8.8238
  66   2.0000      -0.300693        -8.1823
  67   0.0000       0.044886         1.2214
  68   0.0000       0.050979         1.3872
  69   0.0000       0.122351         3.3293
  70   0.0000       0.125405         3.4124
  71   0.0000       0.127159         3.4602

MULLIKEN ATOMIC CHARGES
-----------------------
   0 S :    0.129820
   1 C :   -0.112361
   2 C :   -0.116434
   3 C :    0.030963
   4 C :   -0.178649
   5 H :    0.035624
   6 C :    0.088228
   7 H :    0.019589
   8 H :    0.033342
   9 C :   -0.094251
  10 H :    0.045853
  11 H :    0.053406
  12 C :   -0.083902
  13 H :    0.024321
  14 H :    0.023313
  15 H :    0.035434
  16 S :    0.142974
  17 C :   -0.106511
  18 C :   -0.027787
  19 C :   -0.020331
  20 C :   -0.201594
  21 H :    0.013251
  22 C :    0.125071
  23 H :    0.017641
  24 H :   -0.003340
  25 C :   -0.110303
  26 H :    0.025949
  27 H :    0.045296
  28 C :   -0.042351
  29 H :    0.027615
  30 H :    0.033031
  31 H :    0.034122
  32 H :    0.057206
  33 H :    0.055764
Sum of atomic charges:   -0.0000000

LOEWDIN ATOMIC CHARGES
----------------------
   0 S :    0.424161
   1 C :   -0.216999
   2 C :   -0.058196
   3 C :   -0.076141
   4 C :   -0.199156
   5 H :    0.045023
   6 C :   -0.023033
   7 H :    0.025109
   8 H :    0.023611
   9 C :   -0.037726
  10 H :    0.033815
  11 H :    0.031295
  12 C :   -0.072059
  13 H :    0.018517
  14 H :    0.019914
  15 H :    0.023082
  16 S :    0.460099
  17 C :   -0.202131
  18 C :   -0.064977
  19 C :   -0.051439
  20 C :   -0.235315
  21 H :    0.030866
  22 C :   -0.036453
  23 H :    0.033951
  24 H :    0.023639
  25 C :   -0.055192
  26 H :    0.029201
  27 H :    0.035960
  28 C :   -0.070522
  29 H :    0.027391
  30 H :    0.022556
  31 H :    0.028772
  32 H :    0.034724
  33 H :    0.027651

  Mayer bond orders larger than 0.100000
B(  0-S ,  1-C ) :   1.1413 B(  0-S ,  4-C ) :   1.1857 B(  1-C ,  2-C ) :   1.6045
B(  1-C ,  4-C ) :   0.1073 B(  1-C , 32-H ) :   0.9638 B(  2-C ,  3-C ) :   1.2555
B(  2-C ,  6-C ) :   1.0194 B(  3-C ,  4-C ) :   1.5695 B(  3-C ,  5-H ) :   0.9759
B(  4-C , 20-C ) :   0.9802 B(  6-C ,  7-H ) :   0.9462 B(  6-C ,  8-H ) :   0.9526
B(  6-C ,  9-C ) :   1.0476 B(  9-C , 10-H ) :   0.9638 B(  9-C , 11-H ) :   0.9614
B(  9-C , 12-C ) :   1.0578 B( 12-C , 13-H ) :   0.9767 B( 12-C , 14-H ) :   0.9772
B( 12-C , 15-H ) :   0.9722 B( 16-S , 17-C ) :   1.1766 B( 16-S , 20-C ) :   1.2039
B( 17-C , 18-C ) :   1.5683 B( 17-C , 20-C ) :   0.1034 B( 17-C , 33-H ) :   0.9681
B( 18-C , 19-C ) :   1.2920 B( 18-C , 21-H ) :   0.9932 B( 19-C , 20-C ) :   1.5305
B( 19-C , 22-C ) :   1.0481 B( 22-C , 23-H ) :   0.9379 B( 22-C , 24-H ) :   0.9174
B( 22-C , 25-C ) :   1.0437 B( 25-C , 26-H ) :   0.9439 B( 25-C , 27-H ) :   0.9655
B( 25-C , 28-C ) :   1.0762 B( 28-C , 29-H ) :   0.9753 B( 28-C , 30-H ) :   0.9742
B( 28-C , 31-H ) :   0.9735

Dispersion correction           -0.014247526
FINAL SINGLE POINT ENERGY     -1339.858164222295

DIPOLE MOMENT
-------------
                                X             Y             Z
Electronic contribution:     -0.15927      21.58096     -10.77309
Nuclear contribution   :      0.31129     -22.13350      10.99398
                        -----------------------------------------
Total Dipole Moment    :      0.15203      -0.55254       0.22089
                        -----------------------------------------
Magnitude (a.u.)       :      0.61417
Magnitude (Debye)      :      1.56109

Rotational constants in cm-1:     0.016913     0.008526     0.007569
Rotational constants in MHz :   507.051866   255.593960   226.914011

                             ****ORCA TERMINATED NORMALLY****
TOTAL RUN TIME: 0 days 0 hours 0 minutes 34 seconds 678 msec
