                         Program Version 4.2.1 -  RELEASE  -
|  1> ! wB97X-D3 SP def2-SVP
|  2> %pal
|  3> nprocs 16
|  4> end
|  5>
|  6> * xyz 0 1
|  7> S 	 9.56919 	 -13.8245 	 69.1254
|  8> C 	 8.05004 	 -13.533 	 68.1838
|  9> C 	 8.15757 	 -12.2598 	 67.6615
| 10> C 	 9.48128 	 -11.7583 	 67.7448
| 11> C 	 10.4177 	 -12.5262 	 68.4688
| 12> H 	 9.70994 	 -10.8308 	 67.3032
| 13> C 	 6.99608 	 -11.5665 	 66.8877
| 14> H 	 6.24675 	 -11.4005 	 67.6707
| 15> H 	 6.65881 	 -12.3015 	 66.1522
| 16> C 	 7.28493 	 -10.2099 	 66.1729
| 17> H 	 7.72579 	 -9.57869 	 66.9234
| 18> H 	 8.01651 	 -10.4593 	 65.342
| 19> C 	 6.17455 	 -9.51061 	 65.623
| 20> H 	 5.25015 	 -9.48658 	 66.2383
| 21> H 	 6.50326 	 -8.47302 	 65.5369
| 22> H 	 5.96175 	 -9.80921 	 64.6263
| 23> S 	 12.926 	 -13.6338 	 68.5549
| 24> C 	 14.3537 	 -12.5688 	 68.9807
| 25> C 	 13.9416 	 -11.2997 	 68.8903
| 26> C 	 12.5297 	 -11.1164 	 68.6852
| 27> C 	 11.8367 	 -12.3083 	 68.666
| 28> H 	 14.5747 	 -10.4517 	 68.9543
| 29> C 	 12.0258 	 -9.72663 	 68.6534
| 30> H 	 12.5731 	 -8.99818 	 69.2017
| 31> H 	 11.0966 	 -9.65212 	 69.2552
| 32> C 	 11.805 	 -9.14713 	 67.2829
| 33> H 	 11.049 	 -9.57013 	 66.7008
| 34> H 	 12.8614 	 -9.26707 	 66.8489
| 35> C 	 11.41 	 -7.69245 	 67.2948
| 36> H 	 11.2713 	 -7.35991 	 66.2392
| 37> H 	 12.2537 	 -7.06796 	 67.6878
| 38> H 	 10.3593 	 -7.50099 	 67.7551
| 39> H 	 7.12786 	 -14.0403 	 68.289
| 40> H 	 15.3989 	 -12.7755 	 69.0921
| 41> *
| 42>
| 43>                          ****END OF INPUT****

CARTESIAN COORDINATES (ANGSTROEM)
---------------------------------
  S      9.569190  -13.824500   69.125400
  C      8.050040  -13.533000   68.183800
  C      8.157570  -12.259800   67.661500
  C      9.481280  -11.758300   67.744800
  C     10.417700  -12.526200   68.468800
  H      9.709940  -10.830800   67.303200
  C      6.996080  -11.566500   66.887700
  H      6.246750  -11.400500   67.670700
  H      6.658810  -12.301500   66.152200
  C      7.284930  -10.209900   66.172900
  H      7.725790   -9.578690   66.923400
  H      8.016510  -10.459300   65.342000
  C      6.174550   -9.510610   65.623000
  H      5.250150   -9.486580   66.238300
  H      6.503260   -8.473020   65.536900
  H      5.961750   -9.809210   64.626300
  S     12.926000  -13.633800   68.554900
  C     14.353700  -12.568800   68.980700
  C     13.941600  -11.299700   68.890300
  C     12.529700  -11.116400   68.685200
  C     11.836700  -12.308300   68.666000
  H     14.574700  -10.451700   68.954300
  C     12.025800   -9.726630   68.653400
  H     12.573100   -8.998180   69.201700
  H     11.096600   -9.652120   69.255200
  C     11.805000   -9.147130   67.282900
  H     11.049000   -9.570130   66.700800
  H     12.861400   -9.267070   66.848900
  C     11.410000   -7.692450   67.294800
  H     11.271300   -7.359910   66.239200
  H     12.253700   -7.067960   67.687800
  H     10.359300   -7.500990   67.755100
  H      7.127860  -14.040300   68.289000
  H     15.398900  -12.775500   69.092100

 Total Charge           Charge          ....    0
 Multiplicity           Mult            ....    1
 Number of Electrons    NEL             ....  134
 Basis Dimension        Dim             ....  322

ORBITAL ENERGIES
----------------

  NO   OCC          E(Eh)            E(eV)
   0   2.0000     -88.965644     -2420.8782
   1   2.0000     -88.964531     -2420.8480
   2   2.0000     -10.330303      -281.1018
   3   2.0000     -10.328754      -281.0597
   4   2.0000     -10.318099      -280.7698
   5   2.0000     -10.312922      -280.6289
   6   2.0000     -10.302569      -280.3472
   7   2.0000     -10.298154      -280.2270
   8   2.0000     -10.297697      -280.2146
   9   2.0000     -10.291172      -280.0370
  10   2.0000     -10.288487      -279.9640
  11   2.0000     -10.288397      -279.9615
  12   2.0000     -10.288061      -279.9524
  13   2.0000     -10.285358      -279.8788
  14   2.0000     -10.284496      -279.8554
  15   2.0000     -10.274672      -279.5880
  16   2.0000      -8.079768      -219.8617
  17   2.0000      -8.079377      -219.8510
  18   2.0000      -6.038635      -164.3196
  19   2.0000      -6.037919      -164.3001
  20   2.0000      -6.034462      -164.2061
  21   2.0000      -6.033677      -164.1847
  22   2.0000      -6.030242      -164.0912
  23   2.0000      -6.030030      -164.0855
  24   2.0000      -1.011078       -27.5128
  25   2.0000      -0.985839       -26.8261
  26   2.0000      -0.921735       -25.0817
  27   2.0000      -0.918555       -24.9952
  28   2.0000      -0.882771       -24.0214
  29   2.0000      -0.851058       -23.1585
  30   2.0000      -0.849526       -23.1168
  31   2.0000      -0.817521       -22.2459
  32   2.0000      -0.786058       -21.3897
  33   2.0000      -0.772715       -21.0266
  34   2.0000      -0.714432       -19.4407
  35   2.0000      -0.694596       -18.9009
  36   2.0000      -0.687991       -18.7212
  37   2.0000      -0.665557       -18.1107
  38   2.0000      -0.637370       -17.3437
  39   2.0000      -0.622229       -16.9317
  40   2.0000      -0.603503       -16.4222
  41   2.0000      -0.587518       -15.9872
  42   2.0000      -0.578522       -15.7424
  43   2.0000      -0.571119       -15.5409
  44   2.0000      -0.532252       -14.4833
  45   2.0000      -0.526035       -14.3141
  46   2.0000      -0.518898       -14.1199
  47   2.0000      -0.514712       -14.0060
  48   2.0000      -0.508191       -13.8286
  49   2.0000      -0.505102       -13.7445
  50   2.0000      -0.503262       -13.6945
  51   2.0000      -0.483079       -13.1452
  52   2.0000      -0.479285       -13.0420
  53   2.0000      -0.473628       -12.8881
  54   2.0000      -0.457164       -12.4401
  55   2.0000      -0.450575       -12.2608
  56   2.0000      -0.441913       -12.0251
  57   2.0000      -0.428340       -11.6557
  58   2.0000      -0.427089       -11.6217
  59   2.0000      -0.421830       -11.4786
  60   2.0000      -0.413566       -11.2537
  61   2.0000      -0.411019       -11.1844
  62   2.0000      -0.408609       -11.1188
  63   2.0000      -0.357157        -9.7187
  64   2.0000      -0.332427        -9.0458
  65   2.0000      -0.324221        -8.8225
  66   2.0000      -0.289664        -7.8822
  67   0.0000       0.018271         0.4972
  68   0.0000       0.081218         2.2101
  69   0.0000       0.104048         2.8313
  70   0.0000       0.113920         3.0999
  71   0.0000       0.121853         3.3158

MULLIKEN ATOMIC CHARGES
-----------------------
   0 S :    0.103684
   1 C :   -0.122040
   2 C :   -0.097534
   3 C :    0.045426
   4 C :   -0.117749
   5 H :   -0.067708
   6 C :    0.044921
   7 H :    0.035748
   8 H :    0.044614
   9 C :   -0.124826
  10 H :    0.031057
  11 H :    0.046033
  12 C :    0.010676
  13 H :    0.032688
  14 H :    0.025193
  15 H :    0.022408
  16 S :    0.098315
  17 C :   -0.064023
  18 C :   -0.005876
  19 C :   -0.027119
  20 C :   -0.105408
  21 H :    0.002786
  22 C :    0.055443
  23 H :   -0.000942
  24 H :    0.016353
  25 C :   -0.080747
  26 H :    0.038267
  27 H :    0.032713
  28 C :   -0.086469
  29 H :    0.036481
  30 H :    0.042020
  31 H :    0.047842
  32 H :    0.039280
  33 H :    0.048491
Sum of atomic charges:    0.0000000

LOEWDIN ATOMIC CHARGES
----------------------
   0 S :    0.420501
   1 C :   -0.184594
   2 C :   -0.058144
   3 C :   -0.071559
   4 C :   -0.208274
   5 H :    0.012674
   6 C :   -0.030988
   7 H :    0.032278
   8 H :    0.033913
   9 C :   -0.053540
  10 H :    0.020971
  11 H :    0.036068
  12 C :   -0.064099
  13 H :    0.030094
  14 H :    0.033685
  15 H :    0.021873
  16 S :    0.388251
  17 C :   -0.160072
  18 C :   -0.059522
  19 C :   -0.056910
  20 C :   -0.198382
  21 H :    0.025651
  22 C :   -0.043525
  23 H :    0.025370
  24 H :    0.032095
  25 C :   -0.042670
  26 H :    0.013095
  27 H :    0.034780
  28 C :   -0.076552
  29 H :    0.029109
  30 H :    0.027870
  31 H :    0.035092
  32 H :    0.022450
  33 H :    0.033013

  Mayer bond orders larger than 0.100000
B(  0-S ,  1-C ) :   1.1314 B(  0-S ,  4-C ) :   1.1856 B(  1-C ,  2-C ) :   1.5776
B(  1-C ,  4-C ) :   0.1092 B(  1-C , 32-H ) :   0.9764 B(  2-C ,  3-C ) :   1.3156
B(  2-C ,  6-C ) :   0.9872 B(  3-C ,  4-C ) :   1.4841 B(  3-C ,  5-H ) :   0.9948
B(  4-C , 20-C ) :   1.0564 B(  6-C ,  7-H ) :   0.9336 B(  6-C ,  8-H ) :   0.9492
B(  6-C ,  9-C ) :   1.0936 B(  9-C , 10-H ) :   0.9492 B(  9-C , 11-H ) :   0.9452
B(  9-C , 12-C ) :   1.1058 B( 12-C , 13-H ) :   0.9666 B( 12-C , 14-H ) :   0.9652
B( 12-C , 15-H ) :   0.9675 B( 16-S , 17-C ) :   1.1049 B( 16-S , 20-C ) :   1.1354
B( 17-C , 18-C ) :   1.6375 B( 17-C , 33-H ) :   0.9697 B( 18-C , 19-C ) :   1.2373
B( 18-C , 21-H ) :   0.9884 B( 19-C , 20-C ) :   1.5925 B( 19-C , 22-C ) :   1.0585
B( 22-C , 23-H ) :   0.9345 B( 22-C , 24-H ) :   0.9189 B( 22-C , 25-C ) :   1.0586
B( 25-C , 26-H ) :   0.9476 B( 25-C , 27-H ) :   0.9461 B( 25-C , 28-C ) :   1.0947
B( 28-C , 29-H ) :   0.9732 B( 28-C , 30-H ) :   0.9700 B( 28-C , 31-H ) :   0.9669

Dispersion correction           -0.014391412
FINAL SINGLE POINT ENERGY     -1339.845478536458

DIPOLE MOMENT
-------------
                                X             Y             Z
Electronic contribution:     13.50518     -28.55313      13.41886
Nuclear contribution   :    -13.71873      29.42399     -13.75073
                        -----------------------------------------
Total Dipole Moment    :     -0.21356       0.87086      -0.33187
                        -----------------------------------------
Magnitude (a.u.)       :      0.95611
Magnitude (Debye)      :      2.43023

Rotational constants in cm-1:     0.017711     0.009763     0.006589
Rotational constants in MHz :   530.965767   292.687267   197.522584

                             ****ORCA TERMINATED NORMALLY****
TOTAL RUN TIME: 0 days 0 hours 0 minutes 38 seconds 651 msec
