                         Program Version 4.2.1 -  RELEASE  -
|  1> ! wB97X-D3 SP def2-SVP
|  2> %pal
|  3> nprocs 16
|  4> end
|  5>
|  6> * xyz 0 1
|  7> S 	 -73.022 	 45.983 	 123.456
|  8> C 	 -73.7296 	 44.4073 	 123.63
|  9> C 	 -73.465 	 43.9511 	 124.927
| 10> C 	 -72.6783 	 44.8327 	 125.658
| 11> C 	 -72.3259 	 46.0017 	 125.009
| 12> H 	 -72.2388 	 44.6671 	 126.633
| 13> C 	 -73.999 	 42.6973 	 125.468
| 14> H 	 -74.8415 	 42.3476 	 124.823
| 15> H 	 -74.2428 	 42.8858 	 126.514
| 16> C 	 -72.9785 	 41.5141 	 125.564
| 17> H 	 -72.2374 	 41.7365 	 126.323
| 18> H 	 -73.4508 	 40.569 	 125.962
| 19> C 	 -72.516 	 41.0231 	 124.207
| 20> H 	 -71.6576 	 40.2812 	 124.318
| 21> H 	 -73.3715 	 40.5722 	 123.684
| 22> H 	 -72.183 	 41.9814 	 123.687
| 23> S 	 -70.2482 	 47.7536 	 124.649
| 24> C 	 -70.1801 	 49.1207 	 125.737
| 25> C 	 -71.0456 	 48.9915 	 126.812
| 26> C 	 -71.7867 	 47.7897 	 126.772
| 27> C 	 -71.5661 	 47.0852 	 125.603
| 28> H 	 -71.0602 	 49.6283 	 127.692
| 29> C 	 -72.7351 	 47.453 	 127.889
| 30> H 	 -72.187 	 47.2574 	 128.825
| 31> H 	 -73.276 	 46.4956 	 127.693
| 32> C 	 -73.8059 	 48.5038 	 128.056
| 33> H 	 -73.2712 	 49.4078 	 128.145
| 34> H 	 -74.3416 	 48.2479 	 129.008
| 35> C 	 -74.8563 	 48.5926 	 126.979
| 36> H 	 -74.4499 	 48.6605 	 125.961
| 37> H 	 -75.4443 	 49.496 	 127.052
| 38> H 	 -75.5253 	 47.7312 	 126.878
| 39> H 	 -74.3381 	 43.9359 	 122.789
| 40> H 	 -69.491 	 49.9176 	 125.69
| 41> *
| 42>
| 43>                          ****END OF INPUT****

CARTESIAN COORDINATES (ANGSTROEM)
---------------------------------
  S    -73.022000   45.983000  123.456000
  C    -73.729600   44.407300  123.630000
  C    -73.465000   43.951100  124.927000
  C    -72.678300   44.832700  125.658000
  C    -72.325900   46.001700  125.009000
  H    -72.238800   44.667100  126.633000
  C    -73.999000   42.697300  125.468000
  H    -74.841500   42.347600  124.823000
  H    -74.242800   42.885800  126.514000
  C    -72.978500   41.514100  125.564000
  H    -72.237400   41.736500  126.323000
  H    -73.450800   40.569000  125.962000
  C    -72.516000   41.023100  124.207000
  H    -71.657600   40.281200  124.318000
  H    -73.371500   40.572200  123.684000
  H    -72.183000   41.981400  123.687000
  S    -70.248200   47.753600  124.649000
  C    -70.180100   49.120700  125.737000
  C    -71.045600   48.991500  126.812000
  C    -71.786700   47.789700  126.772000
  C    -71.566100   47.085200  125.603000
  H    -71.060200   49.628300  127.692000
  C    -72.735100   47.453000  127.889000
  H    -72.187000   47.257400  128.825000
  H    -73.276000   46.495600  127.693000
  C    -73.805900   48.503800  128.056000
  H    -73.271200   49.407800  128.145000
  H    -74.341600   48.247900  129.008000
  C    -74.856300   48.592600  126.979000
  H    -74.449900   48.660500  125.961000
  H    -75.444300   49.496000  127.052000
  H    -75.525300   47.731200  126.878000
  H    -74.338100   43.935900  122.789000
  H    -69.491000   49.917600  125.690000

 Total Charge           Charge          ....    0
 Multiplicity           Mult            ....    1
 Number of Electrons    NEL             ....  134
 Basis Dimension        Dim             ....  322

ORBITAL ENERGIES
----------------

  NO   OCC          E(Eh)            E(eV)
   0   2.0000     -88.969797     -2420.9913
   1   2.0000     -88.966048     -2420.8892
   2   2.0000     -10.326396      -280.9955
   3   2.0000     -10.323783      -280.9244
   4   2.0000     -10.319327      -280.8032
   5   2.0000     -10.317584      -280.7557
   6   2.0000     -10.300834      -280.2999
   7   2.0000     -10.297644      -280.2131
   8   2.0000     -10.293971      -280.1132
   9   2.0000     -10.291593      -280.0485
  10   2.0000     -10.291095      -280.0349
  11   2.0000     -10.286326      -279.9051
  12   2.0000     -10.285845      -279.8921
  13   2.0000     -10.282564      -279.8028
  14   2.0000     -10.282082      -279.7897
  15   2.0000     -10.270541      -279.4756
  16   2.0000      -8.084332      -219.9858
  17   2.0000      -8.081641      -219.9126
  18   2.0000      -6.042776      -164.4323
  19   2.0000      -6.039926      -164.3547
  20   2.0000      -6.038926      -164.3275
  21   2.0000      -6.035826      -164.2432
  22   2.0000      -6.035124      -164.2241
  23   2.0000      -6.032767      -164.1599
  24   2.0000      -1.014372       -27.6025
  25   2.0000      -0.991058       -26.9680
  26   2.0000      -0.917144       -24.9567
  27   2.0000      -0.914342       -24.8805
  28   2.0000      -0.869424       -23.6582
  29   2.0000      -0.853121       -23.2146
  30   2.0000      -0.847867       -23.0716
  31   2.0000      -0.812708       -22.1149
  32   2.0000      -0.784990       -21.3607
  33   2.0000      -0.771650       -20.9977
  34   2.0000      -0.706738       -19.2313
  35   2.0000      -0.697415       -18.9776
  36   2.0000      -0.688351       -18.7310
  37   2.0000      -0.660540       -17.9742
  38   2.0000      -0.641006       -17.4427
  39   2.0000      -0.622407       -16.9366
  40   2.0000      -0.605580       -16.4787
  41   2.0000      -0.565383       -15.3848
  42   2.0000      -0.553804       -15.0698
  43   2.0000      -0.550685       -14.9849
  44   2.0000      -0.544844       -14.8260
  45   2.0000      -0.540236       -14.7006
  46   2.0000      -0.521959       -14.2032
  47   2.0000      -0.509851       -13.8738
  48   2.0000      -0.503648       -13.7050
  49   2.0000      -0.500510       -13.6196
  50   2.0000      -0.486817       -13.2470
  51   2.0000      -0.480792       -13.0830
  52   2.0000      -0.470319       -12.7980
  53   2.0000      -0.465061       -12.6550
  54   2.0000      -0.461639       -12.5618
  55   2.0000      -0.447237       -12.1699
  56   2.0000      -0.444212       -12.0876
  57   2.0000      -0.441857       -12.0235
  58   2.0000      -0.432501       -11.7689
  59   2.0000      -0.422646       -11.5008
  60   2.0000      -0.419537       -11.4162
  61   2.0000      -0.410672       -11.1750
  62   2.0000      -0.399385       -10.8678
  63   2.0000      -0.345548        -9.4028
  64   2.0000      -0.336943        -9.1687
  65   2.0000      -0.328930        -8.9506
  66   2.0000      -0.291066        -7.9203
  67   0.0000       0.029365         0.7991
  68   0.0000       0.070683         1.9234
  69   0.0000       0.108144         2.9427
  70   0.0000       0.115918         3.1543
  71   0.0000       0.135245         3.6802

MULLIKEN ATOMIC CHARGES
-----------------------
   0 S :    0.121495
   1 C :   -0.168408
   2 C :   -0.070006
   3 C :    0.009048
   4 C :   -0.134786
   5 H :    0.012682
   6 C :    0.076887
   7 H :    0.025434
   8 H :    0.028003
   9 C :   -0.095676
  10 H :    0.026861
  11 H :    0.027486
  12 C :   -0.087247
  13 H :    0.051766
  14 H :    0.035392
  15 H :    0.051558
  16 S :    0.121119
  17 C :   -0.063323
  18 C :   -0.047569
  19 C :   -0.028133
  20 C :   -0.193668
  21 H :    0.027249
  22 C :    0.061774
  23 H :    0.041223
  24 H :    0.014931
  25 C :   -0.057443
  26 H :    0.012040
  27 H :    0.033183
  28 C :   -0.041791
  29 H :    0.026989
  30 H :    0.030109
  31 H :    0.029962
  32 H :    0.082971
  33 H :    0.039889
Sum of atomic charges:    0.0000000

LOEWDIN ATOMIC CHARGES
----------------------
   0 S :    0.439699
   1 C :   -0.220726
   2 C :   -0.073518
   3 C :   -0.071518
   4 C :   -0.213249
   5 H :    0.030152
   6 C :   -0.031703
   7 H :    0.034288
   8 H :    0.035408
   9 C :   -0.050329
  10 H :    0.018138
  11 H :    0.026592
  12 C :   -0.078582
  13 H :    0.034652
  14 H :    0.024900
  15 H :    0.031400
  16 S :    0.408757
  17 C :   -0.174003
  18 C :   -0.069691
  19 C :   -0.052272
  20 C :   -0.197311
  21 H :    0.032858
  22 C :   -0.036469
  23 H :    0.036581
  24 H :    0.030856
  25 C :   -0.039207
  26 H :    0.014224
  27 H :    0.031015
  28 C :   -0.069259
  29 H :    0.027645
  30 H :    0.027204
  31 H :    0.026952
  32 H :    0.046395
  33 H :    0.020120

  Mayer bond orders larger than 0.100000
B(  0-S ,  1-C ) :   1.1593 B(  0-S ,  4-C ) :   1.1842 B(  1-C ,  2-C ) :   1.5226
B(  1-C ,  4-C ) :   0.1029 B(  1-C , 32-H ) :   0.9651 B(  2-C ,  3-C ) :   1.2841
B(  2-C ,  6-C ) :   1.0447 B(  3-C ,  4-C ) :   1.5241 B(  3-C ,  5-H ) :   0.9971
B(  4-C , 20-C ) :   1.0385 B(  6-C ,  7-H ) :   0.9398 B(  6-C ,  8-H ) :   0.9317
B(  6-C ,  9-C ) :   1.0740 B(  9-C , 10-H ) :   0.9587 B(  9-C , 11-H ) :   0.9575
B(  9-C , 12-C ) :   1.0599 B( 12-C , 13-H ) :   0.9720 B( 12-C , 14-H ) :   0.9735
B( 12-C , 15-H ) :   0.9765 B( 16-S , 17-C ) :   1.1549 B( 16-S , 20-C ) :   1.1419
B( 17-C , 18-C ) :   1.5992 B( 17-C , 33-H ) :   0.9714 B( 18-C , 19-C ) :   1.2590
B( 18-C , 21-H ) :   0.9795 B( 19-C , 20-C ) :   1.5869 B( 19-C , 22-C ) :   1.0424
B( 22-C , 23-H ) :   0.9317 B( 22-C , 24-H ) :   0.9282 B( 22-C , 25-C ) :   1.0750
B( 25-C , 26-H ) :   0.9559 B( 25-C , 27-H ) :   0.9499 B( 25-C , 28-C ) :   1.0844
B( 28-C , 29-H ) :   0.9709 B( 28-C , 30-H ) :   0.9714 B( 28-C , 31-H ) :   0.9718

Dispersion correction           -0.015086689
FINAL SINGLE POINT ENERGY     -1339.884414814427

DIPOLE MOMENT
-------------
                                X             Y             Z
Electronic contribution:     12.41584      12.63328     -12.52490
Nuclear contribution   :    -12.59783     -12.75107      13.06880
                        -----------------------------------------
Total Dipole Moment    :     -0.18199      -0.11779       0.54390
                        -----------------------------------------
Magnitude (a.u.)       :      0.58551
Magnitude (Debye)      :      1.48824

Rotational constants in cm-1:     0.021456     0.008466     0.007381
Rotational constants in MHz :   643.228537   253.813077   221.273864

                             ****ORCA TERMINATED NORMALLY****
TOTAL RUN TIME: 0 days 0 hours 0 minutes 33 seconds 571 msec
