                         Program Version 4.2.1 -  RELEASE  -
|  1> ! wB97X-D3 SP def2-SVP
|  2> %pal
|  3> nprocs 16
|  4> end
|  5>
|  6> * xyz 0 1
|  7> S 	 46.0079 	 12.1359 	 48.6811
|  8> C 	 44.4 	 11.3839 	 48.6946
|  9> C 	 43.6155 	 11.8395 	 49.7211
| 10> C 	 44.3802 	 12.6875 	 50.5897
| 11> C 	 45.7192 	 12.9708 	 50.2212
| 12> H 	 44.0157 	 13.0857 	 51.4559
| 13> C 	 42.1717 	 11.3948 	 49.9716
| 14> H 	 42.0239 	 11.6652 	 51.0438
| 15> H 	 42.0855 	 10.26 	 49.8781
| 16> C 	 41.086 	 12.0016 	 49.0065
| 17> H 	 41.105 	 13.1 	 48.9499
| 18> H 	 41.4133 	 11.7539 	 48.017
| 19> C 	 39.6941 	 11.5721 	 49.2288
| 20> H 	 39.0781 	 11.9104 	 48.329
| 21> H 	 39.6781 	 10.4595 	 49.216
| 22> H 	 39.2694 	 11.8751 	 50.1145
| 23> S 	 47.9841 	 14.5685 	 50.0364
| 24> C 	 48.8013 	 15.0441 	 51.5748
| 25> C 	 48.1242 	 14.5877 	 52.6569
| 26> C 	 46.9447 	 13.8427 	 52.3068
| 27> C 	 46.7293 	 13.7456 	 50.9526
| 28> H 	 48.5881 	 14.9205 	 53.5573
| 29> C 	 46.1115 	 13.3749 	 53.4988
| 30> H 	 46.7086 	 13.3401 	 54.4286
| 31> H 	 45.7484 	 12.4144 	 53.2559
| 32> C 	 44.8457 	 14.2099 	 53.9014
| 33> H 	 44.2459 	 14.5451 	 53.1258
| 34> H 	 45.1263 	 15.1409 	 54.4334
| 35> C 	 43.9162 	 13.6248 	 54.9062
| 36> H 	 43.3515 	 12.8005 	 54.4876
| 37> H 	 43.1649 	 14.3935 	 55.1859
| 38> H 	 44.3838 	 13.2795 	 55.7834
| 39> H 	 44.0125 	 10.7932 	 47.8552
| 40> H 	 49.653 	 15.7096 	 51.7062
| 41> *
| 42>
| 43>                          ****END OF INPUT****

CARTESIAN COORDINATES (ANGSTROEM)
---------------------------------
  S     46.007900   12.135900   48.681100
  C     44.400000   11.383900   48.694600
  C     43.615500   11.839500   49.721100
  C     44.380200   12.687500   50.589700
  C     45.719200   12.970800   50.221200
  H     44.015700   13.085700   51.455900
  C     42.171700   11.394800   49.971600
  H     42.023900   11.665200   51.043800
  H     42.085500   10.260000   49.878100
  C     41.086000   12.001600   49.006500
  H     41.105000   13.100000   48.949900
  H     41.413300   11.753900   48.017000
  C     39.694100   11.572100   49.228800
  H     39.078100   11.910400   48.329000
  H     39.678100   10.459500   49.216000
  H     39.269400   11.875100   50.114500
  S     47.984100   14.568500   50.036400
  C     48.801300   15.044100   51.574800
  C     48.124200   14.587700   52.656900
  C     46.944700   13.842700   52.306800
  C     46.729300   13.745600   50.952600
  H     48.588100   14.920500   53.557300
  C     46.111500   13.374900   53.498800
  H     46.708600   13.340100   54.428600
  H     45.748400   12.414400   53.255900
  C     44.845700   14.209900   53.901400
  H     44.245900   14.545100   53.125800
  H     45.126300   15.140900   54.433400
  C     43.916200   13.624800   54.906200
  H     43.351500   12.800500   54.487600
  H     43.164900   14.393500   55.185900
  H     44.383800   13.279500   55.783400
  H     44.012500   10.793200   47.855200
  H     49.653000   15.709600   51.706200

 Total Charge           Charge          ....    0
 Multiplicity           Mult            ....    1
 Number of Electrons    NEL             ....  134
 Basis Dimension        Dim             ....  322

ORBITAL ENERGIES
----------------

  NO   OCC          E(Eh)            E(eV)
   0   2.0000     -88.967574     -2420.9308
   1   2.0000     -88.967092     -2420.9177
   2   2.0000     -10.338344      -281.3207
   3   2.0000     -10.334533      -281.2169
   4   2.0000     -10.319178      -280.7991
   5   2.0000     -10.316273      -280.7201
   6   2.0000     -10.308630      -280.5121
   7   2.0000     -10.306700      -280.4596
   8   2.0000     -10.303322      -280.3677
   9   2.0000     -10.295156      -280.1454
  10   2.0000     -10.292669      -280.0778
  11   2.0000     -10.291688      -280.0511
  12   2.0000     -10.286278      -279.9038
  13   2.0000     -10.281218      -279.7662
  14   2.0000     -10.278537      -279.6932
  15   2.0000     -10.273649      -279.5602
  16   2.0000      -8.081399      -219.9061
  17   2.0000      -8.080885      -219.8921
  18   2.0000      -6.040142      -164.3606
  19   2.0000      -6.039513      -164.3435
  20   2.0000      -6.036134      -164.2515
  21   2.0000      -6.035511      -164.2346
  22   2.0000      -6.031871      -164.1356
  23   2.0000      -6.031583      -164.1277
  24   2.0000      -1.002511       -27.2797
  25   2.0000      -0.980202       -26.6727
  26   2.0000      -0.911213       -24.7954
  27   2.0000      -0.909760       -24.7558
  28   2.0000      -0.875232       -23.8163
  29   2.0000      -0.856482       -23.3061
  30   2.0000      -0.849102       -23.1052
  31   2.0000      -0.819153       -22.2903
  32   2.0000      -0.782600       -21.2956
  33   2.0000      -0.772872       -21.0309
  34   2.0000      -0.709409       -19.3040
  35   2.0000      -0.702425       -19.1139
  36   2.0000      -0.696173       -18.9438
  37   2.0000      -0.664462       -18.0809
  38   2.0000      -0.639255       -17.3950
  39   2.0000      -0.622130       -16.9290
  40   2.0000      -0.593696       -16.1553
  41   2.0000      -0.573780       -15.6134
  42   2.0000      -0.569367       -15.4933
  43   2.0000      -0.562928       -15.3181
  44   2.0000      -0.529267       -14.4021
  45   2.0000      -0.526935       -14.3386
  46   2.0000      -0.521947       -14.2029
  47   2.0000      -0.509517       -13.8647
  48   2.0000      -0.507050       -13.7975
  49   2.0000      -0.503258       -13.6944
  50   2.0000      -0.497564       -13.5394
  51   2.0000      -0.481413       -13.0999
  52   2.0000      -0.477260       -12.9869
  53   2.0000      -0.468189       -12.7401
  54   2.0000      -0.460378       -12.5275
  55   2.0000      -0.447479       -12.1765
  56   2.0000      -0.444449       -12.0941
  57   2.0000      -0.433403       -11.7935
  58   2.0000      -0.430464       -11.7135
  59   2.0000      -0.427165       -11.6237
  60   2.0000      -0.420595       -11.4450
  61   2.0000      -0.413984       -11.2651
  62   2.0000      -0.412858       -11.2344
  63   2.0000      -0.358642        -9.7592
  64   2.0000      -0.333355        -9.0711
  65   2.0000      -0.330650        -8.9974
  66   2.0000      -0.288188        -7.8420
  67   0.0000       0.021295         0.5795
  68   0.0000       0.074909         2.0384
  69   0.0000       0.099376         2.7042
  70   0.0000       0.119473         3.2510
  71   0.0000       0.129821         3.5326

MULLIKEN ATOMIC CHARGES
-----------------------
   0 S :    0.100172
   1 C :   -0.137542
   2 C :   -0.058912
   3 C :    0.054518
   4 C :   -0.117959
   5 H :   -0.069837
   6 C :    0.027333
   7 H :    0.027741
   8 H :    0.047241
   9 C :   -0.062522
  10 H :    0.027791
  11 H :    0.009912
  12 C :   -0.020359
  13 H :    0.046155
  14 H :    0.020964
  15 H :    0.021763
  16 S :    0.091530
  17 C :   -0.098075
  18 C :   -0.025382
  19 C :   -0.026640
  20 C :   -0.128159
  21 H :    0.012479
  22 C :    0.096929
  23 H :    0.028535
  24 H :    0.013830
  25 C :   -0.069809
  26 H :    0.019042
  27 H :    0.017541
  28 C :   -0.038198
  29 H :    0.017968
  30 H :    0.036895
  31 H :    0.019727
  32 H :    0.058922
  33 H :    0.056405
Sum of atomic charges:   -0.0000000

LOEWDIN ATOMIC CHARGES
----------------------
   0 S :    0.385895
   1 C :   -0.187939
   2 C :   -0.067122
   3 C :   -0.055540
   4 C :   -0.179222
   5 H :    0.007680
   6 C :   -0.033433
   7 H :    0.030815
   8 H :    0.040189
   9 C :   -0.045822
  10 H :    0.026511
  11 H :    0.019322
  12 C :   -0.060910
  13 H :    0.040697
  14 H :    0.026271
  15 H :    0.012224
  16 S :    0.373236
  17 C :   -0.164055
  18 C :   -0.067283
  19 C :   -0.050833
  20 C :   -0.190201
  21 H :    0.033913
  22 C :   -0.023482
  23 H :    0.036431
  24 H :    0.022365
  25 C :   -0.042889
  26 H :    0.011882
  27 H :    0.027264
  28 C :   -0.059407
  29 H :    0.017777
  30 H :    0.034619
  31 H :    0.015770
  32 H :    0.031901
  33 H :    0.033377

  Mayer bond orders larger than 0.100000
B(  0-S ,  1-C ) :   1.1389 B(  0-S ,  4-C ) :   1.1397 B(  1-C ,  2-C ) :   1.6095
B(  1-C , 32-H ) :   0.9615 B(  2-C ,  3-C ) :   1.2600 B(  2-C ,  6-C ) :   1.0113
B(  3-C ,  4-C ) :   1.5468 B(  3-C ,  5-H ) :   1.0103 B(  4-C , 20-C ) :   1.0708
B(  6-C ,  7-H ) :   0.9439 B(  6-C ,  8-H ) :   0.9441 B(  6-C ,  9-C ) :   1.0499
B(  9-C , 10-H ) :   0.9523 B(  9-C , 11-H ) :   0.9523 B(  9-C , 12-C ) :   1.0973
B( 12-C , 13-H ) :   0.9692 B( 12-C , 14-H ) :   0.9689 B( 12-C , 15-H ) :   0.9760
B( 16-S , 17-C ) :   1.1204 B( 16-S , 20-C ) :   1.1153 B( 17-C , 18-C ) :   1.6811
B( 17-C , 33-H ) :   0.9612 B( 18-C , 19-C ) :   1.1886 B( 18-C , 21-H ) :   0.9943
B( 19-C , 20-C ) :   1.6198 B( 19-C , 22-C ) :   1.0498 B( 22-C , 23-H ) :   0.9372
B( 22-C , 24-H ) :   0.9258 B( 22-C , 25-C ) :   1.0556 B( 25-C , 26-H ) :   0.9525
B( 25-C , 27-H ) :   0.9515 B( 25-C , 28-C ) :   1.0945 B( 28-C , 29-H ) :   0.9713
B( 28-C , 30-H ) :   0.9713 B( 28-C , 31-H ) :   0.9738

Dispersion correction           -0.013687577
FINAL SINGLE POINT ENERGY     -1339.864448287005

DIPOLE MOMENT
-------------
                                X             Y             Z
Electronic contribution:     28.36489       4.05089     -15.16277
Nuclear contribution   :    -28.85764      -3.98615      15.72141
                        -----------------------------------------
Total Dipole Moment    :     -0.49275       0.06474       0.55864
                        -----------------------------------------
Magnitude (a.u.)       :      0.74771
Magnitude (Debye)      :      1.90053

Rotational constants in cm-1:     0.018399     0.008332     0.006057
Rotational constants in MHz :   551.583914   249.780490   181.578805

                             ****ORCA TERMINATED NORMALLY****
TOTAL RUN TIME: 0 days 0 hours 0 minutes 33 seconds 382 msec
