                         Program Version 4.2.1 -  RELEASE  -
|  1> ! wB97X-D3 SP def2-SVP
|  2> %pal
|  3> nprocs 16
|  4> end
|  5>
|  6> * xyz 0 1
|  7> S 	 -57.0531 	 34.4544 	 97.9111
|  8> C 	 -58.5149 	 34.0147 	 97.0517
|  9> C 	 -58.329 	 32.8934 	 96.2658
| 10> C 	 -56.9286 	 32.4883 	 96.2572
| 11> C 	 -56.131 	 33.134 	 97.1468
| 12> H 	 -56.5936 	 31.6372 	 95.6058
| 13> C 	 -59.2645 	 32.3156 	 95.2707
| 14> H 	 -60.2778 	 32.6888 	 95.3694
| 15> H 	 -59.3866 	 31.2991 	 95.6404
| 16> C 	 -58.9204 	 32.493 	 93.8138
| 17> H 	 -58.97 	 33.5927 	 93.619
| 18> H 	 -57.8966 	 32.141 	 93.5148
| 19> C 	 -59.8321 	 31.9171 	 92.7652
| 20> H 	 -60.8432 	 32.3466 	 92.8111
| 21> H 	 -59.3281 	 32.1792 	 91.788
| 22> H 	 -59.9111 	 30.8924 	 92.8128
| 23> S 	 -54.2851 	 31.2513 	 97.8011
| 24> C 	 -52.5948 	 31.6612 	 98.0923
| 25> C 	 -52.4136 	 32.9861 	 97.8257
| 26> C 	 -53.5795 	 33.6713 	 97.3374
| 27> C 	 -54.7328 	 32.8262 	 97.3235
| 28> H 	 -51.4166 	 33.4336 	 97.94
| 29> C 	 -53.48 	 35.0515 	 96.7889
| 30> H 	 -52.6798 	 35.5667 	 97.2596
| 31> H 	 -54.2701 	 35.6251 	 97.2081
| 32> C 	 -53.454 	 35.0699 	 95.2366
| 33> H 	 -54.3669 	 34.5276 	 94.9554
| 34> H 	 -52.5783 	 34.55 	 94.8885
| 35> C 	 -53.471 	 36.5319 	 94.7709
| 36> H 	 -53.1928 	 36.539 	 93.7051
| 37> H 	 -52.7591 	 37.1312 	 95.3497
| 38> H 	 -54.5156 	 36.8942 	 94.9386
| 39> H 	 -59.5141 	 34.5203 	 97.0451
| 40> H 	 -51.8588 	 31.0113 	 98.6113
| 41> *
| 42>
| 43>                          ****END OF INPUT****

CARTESIAN COORDINATES (ANGSTROEM)
---------------------------------
  S    -57.053100   34.454400   97.911100
  C    -58.514900   34.014700   97.051700
  C    -58.329000   32.893400   96.265800
  C    -56.928600   32.488300   96.257200
  C    -56.131000   33.134000   97.146800
  H    -56.593600   31.637200   95.605800
  C    -59.264500   32.315600   95.270700
  H    -60.277800   32.688800   95.369400
  H    -59.386600   31.299100   95.640400
  C    -58.920400   32.493000   93.813800
  H    -58.970000   33.592700   93.619000
  H    -57.896600   32.141000   93.514800
  C    -59.832100   31.917100   92.765200
  H    -60.843200   32.346600   92.811100
  H    -59.328100   32.179200   91.788000
  H    -59.911100   30.892400   92.812800
  S    -54.285100   31.251300   97.801100
  C    -52.594800   31.661200   98.092300
  C    -52.413600   32.986100   97.825700
  C    -53.579500   33.671300   97.337400
  C    -54.732800   32.826200   97.323500
  H    -51.416600   33.433600   97.940000
  C    -53.480000   35.051500   96.788900
  H    -52.679800   35.566700   97.259600
  H    -54.270100   35.625100   97.208100
  C    -53.454000   35.069900   95.236600
  H    -54.366900   34.527600   94.955400
  H    -52.578300   34.550000   94.888500
  C    -53.471000   36.531900   94.770900
  H    -53.192800   36.539000   93.705100
  H    -52.759100   37.131200   95.349700
  H    -54.515600   36.894200   94.938600
  H    -59.514100   34.520300   97.045100
  H    -51.858800   31.011300   98.611300

 Total Charge           Charge          ....    0
 Multiplicity           Mult            ....    1
 Number of Electrons    NEL             ....  134
 Basis Dimension        Dim             ....  322

ORBITAL ENERGIES
----------------

  NO   OCC          E(Eh)            E(eV)
   0   2.0000     -88.969114     -2420.9727
   1   2.0000     -88.964177     -2420.8383
   2   2.0000     -10.330412      -281.1048
   3   2.0000     -10.325294      -280.9655
   4   2.0000     -10.318483      -280.7802
   5   2.0000     -10.317722      -280.7595
   6   2.0000     -10.301589      -280.3205
   7   2.0000     -10.299363      -280.2599
   8   2.0000     -10.295774      -280.1622
   9   2.0000     -10.292652      -280.0773
  10   2.0000     -10.290604      -280.0216
  11   2.0000     -10.289119      -279.9812
  12   2.0000     -10.282155      -279.7917
  13   2.0000     -10.279038      -279.7068
  14   2.0000     -10.278045      -279.6798
  15   2.0000     -10.276651      -279.6419
  16   2.0000      -8.082758      -219.9430
  17   2.0000      -8.079337      -219.8499
  18   2.0000      -6.041594      -164.4001
  19   2.0000      -6.037774      -164.2962
  20   2.0000      -6.037407      -164.2862
  21   2.0000      -6.033578      -164.1820
  22   2.0000      -6.033228      -164.1725
  23   2.0000      -6.030335      -164.0937
  24   2.0000      -1.006439       -27.3866
  25   2.0000      -0.983336       -26.7579
  26   2.0000      -0.917972       -24.9793
  27   2.0000      -0.908711       -24.7273
  28   2.0000      -0.875480       -23.8230
  29   2.0000      -0.852973       -23.2106
  30   2.0000      -0.843868       -22.9628
  31   2.0000      -0.816215       -22.2103
  32   2.0000      -0.782661       -21.2973
  33   2.0000      -0.765017       -20.8172
  34   2.0000      -0.706402       -19.2222
  35   2.0000      -0.697299       -18.9745
  36   2.0000      -0.692118       -18.8335
  37   2.0000      -0.661058       -17.9883
  38   2.0000      -0.629661       -17.1339
  39   2.0000      -0.623821       -16.9750
  40   2.0000      -0.593848       -16.1594
  41   2.0000      -0.568413       -15.4673
  42   2.0000      -0.565955       -15.4004
  43   2.0000      -0.562460       -15.3053
  44   2.0000      -0.536524       -14.5996
  45   2.0000      -0.524270       -14.2661
  46   2.0000      -0.515782       -14.0352
  47   2.0000      -0.510093       -13.8803
  48   2.0000      -0.509058       -13.8522
  49   2.0000      -0.501816       -13.6551
  50   2.0000      -0.494890       -13.4667
  51   2.0000      -0.478359       -13.0168
  52   2.0000      -0.468060       -12.7365
  53   2.0000      -0.458892       -12.4871
  54   2.0000      -0.455735       -12.4012
  55   2.0000      -0.449123       -12.2213
  56   2.0000      -0.443016       -12.0551
  57   2.0000      -0.436107       -11.8671
  58   2.0000      -0.431833       -11.7508
  59   2.0000      -0.422880       -11.5071
  60   2.0000      -0.417081       -11.3493
  61   2.0000      -0.414717       -11.2850
  62   2.0000      -0.412153       -11.2152
  63   2.0000      -0.349837        -9.5195
  64   2.0000      -0.330624        -8.9967
  65   2.0000      -0.323417        -8.8006
  66   2.0000      -0.292606        -7.9622
  67   0.0000       0.029646         0.8067
  68   0.0000       0.071009         1.9323
  69   0.0000       0.113162         3.0793
  70   0.0000       0.120079         3.2675
  71   0.0000       0.132748         3.6123

MULLIKEN ATOMIC CHARGES
-----------------------
   0 S :    0.118019
   1 C :   -0.135945
   2 C :   -0.083374
   3 C :   -0.028189
   4 C :   -0.103168
   5 H :    0.038314
   6 C :    0.093486
   7 H :    0.000170
   8 H :    0.027938
   9 C :   -0.107140
  10 H :    0.034097
  11 H :    0.033189
  12 C :   -0.026800
  13 H :    0.030946
  14 H :    0.041279
  15 H :    0.015846
  16 S :    0.111054
  17 C :   -0.114341
  18 C :   -0.035707
  19 C :   -0.073036
  20 C :   -0.171304
  21 H :    0.026615
  22 C :    0.097594
  23 H :   -0.005610
  24 H :   -0.002878
  25 C :   -0.059138
  26 H :    0.041092
  27 H :    0.027015
  28 C :   -0.044498
  29 H :    0.040249
  30 H :    0.031756
  31 H :    0.044677
  32 H :    0.062578
  33 H :    0.075214
Sum of atomic charges:   -0.0000000

LOEWDIN ATOMIC CHARGES
----------------------
   0 S :    0.391758
   1 C :   -0.205131
   2 C :   -0.066307
   3 C :   -0.064278
   4 C :   -0.189702
   5 H :    0.038518
   6 C :   -0.042973
   7 H :    0.028144
   8 H :    0.033975
   9 C :   -0.046883
  10 H :    0.032616
  11 H :    0.026071
  12 C :   -0.059229
  13 H :    0.024599
  14 H :    0.038680
  15 H :    0.010107
  16 S :    0.429426
  17 C :   -0.196355
  18 C :   -0.074713
  19 C :   -0.054664
  20 C :   -0.216909
  21 H :    0.035194
  22 C :   -0.037899
  23 H :    0.022147
  24 H :    0.020993
  25 C :   -0.029807
  26 H :    0.030039
  27 H :    0.020503
  28 C :   -0.066166
  29 H :    0.027525
  30 H :    0.023596
  31 H :    0.033309
  32 H :    0.042507
  33 H :    0.041307

  Mayer bond orders larger than 0.100000
B(  0-S ,  1-C ) :   1.1237 B(  0-S ,  4-C ) :   1.1068 B(  1-C ,  2-C ) :   1.6399
B(  1-C , 32-H ) :   0.9560 B(  2-C ,  3-C ) :   1.2121 B(  2-C ,  6-C ) :   1.0450
B(  3-C ,  4-C ) :   1.5918 B(  3-C ,  5-H ) :   0.9843 B(  4-C , 20-C ) :   1.0722
B(  6-C ,  7-H ) :   0.9332 B(  6-C ,  8-H ) :   0.9235 B(  6-C ,  9-C ) :   1.0598
B(  9-C , 10-H ) :   0.9536 B(  9-C , 11-H ) :   0.9539 B(  9-C , 12-C ) :   1.0929
B( 12-C , 13-H ) :   0.9722 B( 12-C , 14-H ) :   0.9733 B( 12-C , 15-H ) :   0.9747
B( 16-S , 17-C ) :   1.1579 B( 16-S , 20-C ) :   1.1666 B( 17-C , 18-C ) :   1.5870
B( 17-C , 33-H ) :   0.9628 B( 18-C , 19-C ) :   1.2814 B( 18-C , 21-H ) :   0.9852
B( 19-C , 20-C ) :   1.5139 B( 19-C , 22-C ) :   1.0607 B( 22-C , 23-H ) :   0.9211
B( 22-C , 24-H ) :   0.9178 B( 22-C , 25-C ) :   1.0499 B( 25-C , 26-H ) :   0.9587
B( 25-C , 27-H ) :   0.9575 B( 25-C , 28-C ) :   1.0763 B( 28-C , 29-H ) :   0.9749
B( 28-C , 30-H ) :   0.9743 B( 28-C , 31-H ) :   0.9763

Dispersion correction           -0.014253503
FINAL SINGLE POINT ENERGY     -1339.879299348094

DIPOLE MOMENT
-------------
                                X             Y             Z
Electronic contribution:      5.37805      -7.43346      22.24372
Nuclear contribution   :     -5.39848       7.50946     -22.67885
                        -----------------------------------------
Total Dipole Moment    :     -0.02044       0.07600      -0.43513
                        -----------------------------------------
Magnitude (a.u.)       :      0.44219
Magnitude (Debye)      :      1.12397

Rotational constants in cm-1:     0.017845     0.008199     0.007297
Rotational constants in MHz :   534.982654   245.795181   218.760683

                             ****ORCA TERMINATED NORMALLY****
TOTAL RUN TIME: 0 days 0 hours 0 minutes 28 seconds 599 msec
