                         Program Version 4.2.1 -  RELEASE  -
|  1> ! wB97X-D3 SP def2-SVP
|  2> %pal
|  3> nprocs 16
|  4> end
|  5>
|  6> * xyz 0 1
|  7> S 	 -33.0625 	 69.3315 	 146.514
|  8> C 	 -31.4133 	 68.6586 	 146.459
|  9> C 	 -31.0541 	 68.0797 	 147.675
| 10> C 	 -32.1039 	 68.1733 	 148.591
| 11> C 	 -33.1524 	 68.9864 	 148.229
| 12> H 	 -31.9958 	 67.756 	 149.591
| 13> C 	 -29.7418 	 67.5116 	 148.073
| 14> H 	 -29.726 	 67.1763 	 149.124
| 15> H 	 -29.0794 	 68.3306 	 148.079
| 16> C 	 -29.2477 	 66.3799 	 147.196
| 17> H 	 -28.9244 	 66.7432 	 146.236
| 18> H 	 -28.3742 	 66.0328 	 147.697
| 19> C 	 -30.2813 	 65.2028 	 147.08
| 20> H 	 -30.5491 	 64.7086 	 148.078
| 21> H 	 -31.2167 	 65.5374 	 146.735
| 22> H 	 -29.9138 	 64.3536 	 146.458
| 23> S 	 -35.8445 	 68.5998 	 148.355
| 24> C 	 -36.5665 	 68.7887 	 149.926
| 25> C 	 -35.7152 	 69.503 	 150.768
| 26> C 	 -34.4539 	 69.777 	 150.259
| 27> C 	 -34.3926 	 69.2787 	 148.953
| 28> H 	 -36.1225 	 69.7707 	 151.782
| 29> C 	 -33.4303 	 70.5594 	 150.994
| 30> H 	 -32.4896 	 70.0579 	 150.909
| 31> H 	 -33.6797 	 70.548 	 152.022
| 32> C 	 -33.1782 	 72.0106 	 150.526
| 33> H 	 -32.8318 	 71.9422 	 149.482
| 34> H 	 -32.3848 	 72.3581 	 151.049
| 35> C 	 -34.3513 	 72.9279 	 150.686
| 36> H 	 -34.0788 	 73.9739 	 150.505
| 37> H 	 -34.7075 	 72.9305 	 151.712
| 38> H 	 -35.2057 	 72.6397 	 150.08
| 39> H 	 -30.7102 	 68.8105 	 145.656
| 40> H 	 -37.563 	 68.3893 	 150.2
| 41> *
| 42>
| 43>                          ****END OF INPUT****

CARTESIAN COORDINATES (ANGSTROEM)
---------------------------------
  S    -33.062500   69.331500  146.514000
  C    -31.413300   68.658600  146.459000
  C    -31.054100   68.079700  147.675000
  C    -32.103900   68.173300  148.591000
  C    -33.152400   68.986400  148.229000
  H    -31.995800   67.756000  149.591000
  C    -29.741800   67.511600  148.073000
  H    -29.726000   67.176300  149.124000
  H    -29.079400   68.330600  148.079000
  C    -29.247700   66.379900  147.196000
  H    -28.924400   66.743200  146.236000
  H    -28.374200   66.032800  147.697000
  C    -30.281300   65.202800  147.080000
  H    -30.549100   64.708600  148.078000
  H    -31.216700   65.537400  146.735000
  H    -29.913800   64.353600  146.458000
  S    -35.844500   68.599800  148.355000
  C    -36.566500   68.788700  149.926000
  C    -35.715200   69.503000  150.768000
  C    -34.453900   69.777000  150.259000
  C    -34.392600   69.278700  148.953000
  H    -36.122500   69.770700  151.782000
  C    -33.430300   70.559400  150.994000
  H    -32.489600   70.057900  150.909000
  H    -33.679700   70.548000  152.022000
  C    -33.178200   72.010600  150.526000
  H    -32.831800   71.942200  149.482000
  H    -32.384800   72.358100  151.049000
  C    -34.351300   72.927900  150.686000
  H    -34.078800   73.973900  150.505000
  H    -34.707500   72.930500  151.712000
  H    -35.205700   72.639700  150.080000
  H    -30.710200   68.810500  145.656000
  H    -37.563000   68.389300  150.200000

 Total Charge           Charge          ....    0
 Multiplicity           Mult            ....    1
 Number of Electrons    NEL             ....  134
 Basis Dimension        Dim             ....  322

ORBITAL ENERGIES
----------------

  NO   OCC          E(Eh)            E(eV)
   0   2.0000     -88.968854     -2420.9656
   1   2.0000     -88.964308     -2420.8419
   2   2.0000     -10.326164      -280.9892
   3   2.0000     -10.320550      -280.8365
   4   2.0000     -10.317628      -280.7569
   5   2.0000     -10.312376      -280.6140
   6   2.0000     -10.297265      -280.2028
   7   2.0000     -10.294626      -280.1310
   8   2.0000     -10.293941      -280.1124
   9   2.0000     -10.286942      -279.9219
  10   2.0000     -10.286730      -279.9162
  11   2.0000     -10.284965      -279.8681
  12   2.0000     -10.282322      -279.7962
  13   2.0000     -10.279622      -279.7227
  14   2.0000     -10.274192      -279.5750
  15   2.0000     -10.269819      -279.4560
  16   2.0000      -8.084422      -219.9883
  17   2.0000      -8.078584      -219.8295
  18   2.0000      -6.042668      -164.4293
  19   2.0000      -6.038816      -164.3245
  20   2.0000      -6.037065      -164.2769
  21   2.0000      -6.035401      -164.2316
  22   2.0000      -6.033247      -164.1730
  23   2.0000      -6.029335      -164.0665
  24   2.0000      -1.011451       -27.5230
  25   2.0000      -0.986273       -26.8379
  26   2.0000      -0.916587       -24.9416
  27   2.0000      -0.914674       -24.8895
  28   2.0000      -0.862641       -23.4737
  29   2.0000      -0.856244       -23.2996
  30   2.0000      -0.843436       -22.9511
  31   2.0000      -0.808034       -21.9877
  32   2.0000      -0.787384       -21.4258
  33   2.0000      -0.774548       -21.0765
  34   2.0000      -0.710613       -19.3368
  35   2.0000      -0.708684       -19.2843
  36   2.0000      -0.689541       -18.7634
  37   2.0000      -0.659489       -17.9456
  38   2.0000      -0.634062       -17.2537
  39   2.0000      -0.616252       -16.7691
  40   2.0000      -0.594365       -16.1735
  41   2.0000      -0.575762       -15.6673
  42   2.0000      -0.558837       -15.2067
  43   2.0000      -0.553617       -15.0647
  44   2.0000      -0.549815       -14.9612
  45   2.0000      -0.534778       -14.5520
  46   2.0000      -0.514736       -14.0067
  47   2.0000      -0.502441       -13.6721
  48   2.0000      -0.496926       -13.5220
  49   2.0000      -0.492835       -13.4107
  50   2.0000      -0.485771       -13.2185
  51   2.0000      -0.483381       -13.1535
  52   2.0000      -0.471652       -12.8343
  53   2.0000      -0.461896       -12.5688
  54   2.0000      -0.459966       -12.5163
  55   2.0000      -0.445212       -12.1148
  56   2.0000      -0.442020       -12.0280
  57   2.0000      -0.435763       -11.8577
  58   2.0000      -0.433356       -11.7922
  59   2.0000      -0.430362       -11.7108
  60   2.0000      -0.424369       -11.5477
  61   2.0000      -0.420748       -11.4491
  62   2.0000      -0.417736       -11.3672
  63   2.0000      -0.343036        -9.3345
  64   2.0000      -0.333368        -9.0714
  65   2.0000      -0.328603        -8.9418
  66   2.0000      -0.285489        -7.7685
  67   0.0000       0.030689         0.8351
  68   0.0000       0.058721         1.5979
  69   0.0000       0.103435         2.8146
  70   0.0000       0.129809         3.5323
  71   0.0000       0.134994         3.6734

MULLIKEN ATOMIC CHARGES
-----------------------
   0 S :    0.091076
   1 C :   -0.116891
   2 C :   -0.111870
   3 C :    0.035534
   4 C :   -0.166231
   5 H :    0.010884
   6 C :    0.083659
   7 H :    0.017682
   8 H :    0.026909
   9 C :   -0.034474
  10 H :    0.024634
  11 H :    0.018761
  12 C :   -0.074561
  13 H :    0.027725
  14 H :    0.038531
  15 H :    0.042528
  16 S :    0.135615
  17 C :   -0.127107
  18 C :   -0.061328
  19 C :   -0.035637
  20 C :   -0.148816
  21 H :    0.031403
  22 C :    0.108816
  23 H :    0.012101
  24 H :    0.001679
  25 C :   -0.014404
  26 H :    0.032538
  27 H :   -0.000465
  28 C :   -0.045089
  29 H :    0.032593
  30 H :    0.012741
  31 H :    0.043511
  32 H :    0.041089
  33 H :    0.066866
Sum of atomic charges:   -0.0000000

LOEWDIN ATOMIC CHARGES
----------------------
   0 S :    0.387842
   1 C :   -0.192278
   2 C :   -0.061821
   3 C :   -0.067315
   4 C :   -0.188070
   5 H :    0.030092
   6 C :   -0.030086
   7 H :    0.032718
   8 H :    0.031461
   9 C :   -0.031486
  10 H :    0.019939
  11 H :    0.021719
  12 C :   -0.068952
  13 H :    0.031128
  14 H :    0.017439
  15 H :    0.030178
  16 S :    0.438455
  17 C :   -0.201545
  18 C :   -0.076129
  19 C :   -0.057778
  20 C :   -0.218362
  21 H :    0.038073
  22 C :   -0.024126
  23 H :    0.030777
  24 H :    0.023134
  25 C :   -0.026250
  26 H :    0.030156
  27 H :    0.010309
  28 C :   -0.065425
  29 H :    0.028493
  30 H :    0.021557
  31 H :    0.028045
  32 H :    0.023118
  33 H :    0.034987

  Mayer bond orders larger than 0.100000
B(  0-S ,  1-C ) :   1.1332 B(  0-S ,  4-C ) :   1.1510 B(  1-C ,  2-C ) :   1.5945
B(  1-C ,  4-C ) :   0.1080 B(  1-C , 32-H ) :   0.9695 B(  2-C ,  3-C ) :   1.2694
B(  2-C ,  6-C ) :   1.0137 B(  3-C ,  4-C ) :   1.5690 B(  3-C ,  5-H ) :   0.9861
B(  4-C , 20-C ) :   1.0018 B(  6-C ,  7-H ) :   0.9416 B(  6-C ,  8-H ) :   0.9282
B(  6-C ,  9-C ) :   1.0837 B(  9-C , 10-H ) :   0.9553 B(  9-C , 11-H ) :   0.9552
B(  9-C , 12-C ) :   1.0655 B( 12-C , 13-H ) :   0.9751 B( 12-C , 14-H ) :   0.9750
B( 12-C , 15-H ) :   0.9770 B( 16-S , 17-C ) :   1.1707 B( 16-S , 20-C ) :   1.1784
B( 17-C , 18-C ) :   1.5698 B( 17-C , 20-C ) :   0.1048 B( 17-C , 33-H ) :   0.9664
B( 18-C , 19-C ) :   1.2808 B( 18-C , 21-H ) :   0.9828 B( 19-C , 20-C ) :   1.5357
B( 19-C , 22-C ) :   1.0565 B( 22-C , 23-H ) :   0.9117 B( 22-C , 24-H ) :   0.9268
B( 22-C , 25-C ) :   1.0891 B( 25-C , 26-H ) :   0.9507 B( 25-C , 27-H ) :   0.9484
B( 25-C , 28-C ) :   1.0836 B( 28-C , 29-H ) :   0.9719 B( 28-C , 30-H ) :   0.9711
B( 28-C , 31-H ) :   0.9751

Dispersion correction           -0.015019630
FINAL SINGLE POINT ENERGY     -1339.876792085949

DIPOLE MOMENT
-------------
                                X             Y             Z
Electronic contribution:    -16.12039      -0.36732      -9.70970
Nuclear contribution   :     16.56770       0.33271      10.26398
                        -----------------------------------------
Total Dipole Moment    :      0.44731      -0.03461       0.55427
                        -----------------------------------------
Magnitude (a.u.)       :      0.71309
Magnitude (Debye)      :      1.81254

Rotational constants in cm-1:     0.022035     0.008112     0.007259
Rotational constants in MHz :   660.597493   243.187646   217.610096

                             ****ORCA TERMINATED NORMALLY****
TOTAL RUN TIME: 0 days 0 hours 0 minutes 35 seconds 637 msec
