                         Program Version 4.2.1 -  RELEASE  -
|  1> ! wB97X-D3 SP def2-SVP
|  2> %pal
|  3> nprocs 16
|  4> end
|  5>
|  6> * xyz 0 1
|  7> S 	 -43.3005 	 29.2039 	 82.9842
|  8> C 	 -43.3736 	 30.1214 	 81.5227
|  9> C 	 -42.2663 	 29.8072 	 80.6993
| 10> C 	 -41.4223 	 28.7805 	 81.2669
| 11> C 	 -41.8071 	 28.3819 	 82.5749
| 12> H 	 -40.5746 	 28.2616 	 80.8861
| 13> C 	 -42.0413 	 30.3497 	 79.2981
| 14> H 	 -40.9383 	 30.6721 	 79.2933
| 15> H 	 -42.5981 	 31.2604 	 78.9782
| 16> C 	 -42.2665 	 29.3547 	 78.1704
| 17> H 	 -42.0252 	 29.8535 	 77.2579
| 18> H 	 -41.5841 	 28.6107 	 78.3191
| 19> C 	 -43.62 	 28.7075 	 78.1753
| 20> H 	 -43.9872 	 28.2203 	 79.0828
| 21> H 	 -44.3717 	 29.4088 	 77.8184
| 22> H 	 -43.5628 	 28.0379 	 77.3338
| 23> S 	 -42.4764 	 26.0394 	 83.7533
| 24> C 	 -41.1839 	 25.0124 	 84.3537
| 25> C 	 -39.9451 	 25.6048 	 84.1877
| 26> C 	 -39.9901 	 26.8803 	 83.5533
| 27> C 	 -41.2952 	 27.2025 	 83.2934
| 28> H 	 -39.055 	 25.0065 	 84.4937
| 29> C 	 -38.6405 	 27.6406 	 83.3705
| 30> H 	 -38.3248 	 27.5037 	 82.3447
| 31> H 	 -37.8549 	 27.0156 	 83.9257
| 32> C 	 -38.7036 	 29.1362 	 83.9119
| 33> H 	 -39.6169 	 29.6544 	 83.5146
| 34> H 	 -37.8329 	 29.7796 	 83.6055
| 35> C 	 -38.7407 	 29.2238 	 85.4274
| 36> H 	 -38.6888 	 30.3323 	 85.7039
| 37> H 	 -37.8493 	 28.7431 	 85.8201
| 38> H 	 -39.6431 	 28.7757 	 85.8816
| 39> H 	 -44.2937 	 30.6873 	 81.1191
| 40> H 	 -41.4344 	 24.0915 	 84.8132
| 41> *
| 42>
| 43>                          ****END OF INPUT****

CARTESIAN COORDINATES (ANGSTROEM)
---------------------------------
  S    -43.300500   29.203900   82.984200
  C    -43.373600   30.121400   81.522700
  C    -42.266300   29.807200   80.699300
  C    -41.422300   28.780500   81.266900
  C    -41.807100   28.381900   82.574900
  H    -40.574600   28.261600   80.886100
  C    -42.041300   30.349700   79.298100
  H    -40.938300   30.672100   79.293300
  H    -42.598100   31.260400   78.978200
  C    -42.266500   29.354700   78.170400
  H    -42.025200   29.853500   77.257900
  H    -41.584100   28.610700   78.319100
  C    -43.620000   28.707500   78.175300
  H    -43.987200   28.220300   79.082800
  H    -44.371700   29.408800   77.818400
  H    -43.562800   28.037900   77.333800
  S    -42.476400   26.039400   83.753300
  C    -41.183900   25.012400   84.353700
  C    -39.945100   25.604800   84.187700
  C    -39.990100   26.880300   83.553300
  C    -41.295200   27.202500   83.293400
  H    -39.055000   25.006500   84.493700
  C    -38.640500   27.640600   83.370500
  H    -38.324800   27.503700   82.344700
  H    -37.854900   27.015600   83.925700
  C    -38.703600   29.136200   83.911900
  H    -39.616900   29.654400   83.514600
  H    -37.832900   29.779600   83.605500
  C    -38.740700   29.223800   85.427400
  H    -38.688800   30.332300   85.703900
  H    -37.849300   28.743100   85.820100
  H    -39.643100   28.775700   85.881600
  H    -44.293700   30.687300   81.119100
  H    -41.434400   24.091500   84.813200

 Total Charge           Charge          ....    0
 Multiplicity           Mult            ....    1
 Number of Electrons    NEL             ....  134
 Basis Dimension        Dim             ....  322

ORBITAL ENERGIES
----------------

  NO   OCC          E(Eh)            E(eV)
   0   2.0000     -88.967727     -2420.9349
   1   2.0000     -88.967561     -2420.9304
   2   2.0000     -10.331655      -281.1386
   3   2.0000     -10.327120      -281.0152
   4   2.0000     -10.321430      -280.8604
   5   2.0000     -10.314816      -280.6804
   6   2.0000     -10.308441      -280.5069
   7   2.0000     -10.307603      -280.4841
   8   2.0000     -10.305864      -280.4368
   9   2.0000     -10.297580      -280.2114
  10   2.0000     -10.297302      -280.2038
  11   2.0000     -10.294347      -280.1234
  12   2.0000     -10.292451      -280.0718
  13   2.0000     -10.277073      -279.6534
  14   2.0000     -10.271900      -279.5126
  15   2.0000     -10.269526      -279.4480
  16   2.0000      -8.083137      -219.9533
  17   2.0000      -8.082163      -219.9268
  18   2.0000      -6.041516      -164.3980
  19   2.0000      -6.040636      -164.3741
  20   2.0000      -6.037644      -164.2926
  21   2.0000      -6.036447      -164.2601
  22   2.0000      -6.033884      -164.1903
  23   2.0000      -6.033220      -164.1723
  24   2.0000      -1.009024       -27.4569
  25   2.0000      -0.982753       -26.7421
  26   2.0000      -0.915253       -24.9053
  27   2.0000      -0.899233       -24.4694
  28   2.0000      -0.867393       -23.6030
  29   2.0000      -0.851358       -23.1666
  30   2.0000      -0.844420       -22.9778
  31   2.0000      -0.808873       -22.0105
  32   2.0000      -0.780809       -21.2469
  33   2.0000      -0.772827       -21.0297
  34   2.0000      -0.703744       -19.1498
  35   2.0000      -0.694719       -18.9043
  36   2.0000      -0.680747       -18.5241
  37   2.0000      -0.664024       -18.0690
  38   2.0000      -0.638035       -17.3618
  39   2.0000      -0.616442       -16.7742
  40   2.0000      -0.591735       -16.1019
  41   2.0000      -0.567310       -15.4373
  42   2.0000      -0.549012       -14.9394
  43   2.0000      -0.545951       -14.8561
  44   2.0000      -0.543984       -14.8026
  45   2.0000      -0.542129       -14.7521
  46   2.0000      -0.515483       -14.0270
  47   2.0000      -0.503038       -13.6884
  48   2.0000      -0.496558       -13.5120
  49   2.0000      -0.494482       -13.4555
  50   2.0000      -0.490754       -13.3541
  51   2.0000      -0.478169       -13.0116
  52   2.0000      -0.469999       -12.7893
  53   2.0000      -0.463324       -12.6077
  54   2.0000      -0.462218       -12.5776
  55   2.0000      -0.445929       -12.1343
  56   2.0000      -0.441419       -12.0116
  57   2.0000      -0.434044       -11.8109
  58   2.0000      -0.428205       -11.6520
  59   2.0000      -0.419947       -11.4273
  60   2.0000      -0.418057       -11.3759
  61   2.0000      -0.416557       -11.3351
  62   2.0000      -0.408499       -11.1158
  63   2.0000      -0.347373        -9.4525
  64   2.0000      -0.335347        -9.1253
  65   2.0000      -0.326077        -8.8730
  66   2.0000      -0.291483        -7.9317
  67   0.0000       0.027033         0.7356
  68   0.0000       0.072353         1.9688
  69   0.0000       0.110080         2.9954
  70   0.0000       0.118679         3.2294
  71   0.0000       0.134004         3.6464

MULLIKEN ATOMIC CHARGES
-----------------------
   0 S :    0.104385
   1 C :   -0.144943
   2 C :   -0.087261
   3 C :    0.042431
   4 C :   -0.175614
   5 H :    0.005279
   6 C :    0.010822
   7 H :    0.039948
   8 H :    0.025964
   9 C :   -0.019320
  10 H :    0.021696
  11 H :    0.000180
  12 C :   -0.042269
  13 H :    0.058955
  14 H :    0.012732
  15 H :    0.021470
  16 S :    0.119159
  17 C :   -0.100321
  18 C :   -0.044530
  19 C :   -0.036910
  20 C :   -0.165553
  21 H :    0.036014
  22 C :    0.070616
  23 H :    0.038624
  24 H :    0.028442
  25 C :   -0.101361
  26 H :    0.061444
  27 H :    0.036253
  28 C :   -0.068727
  29 H :    0.043094
  30 H :    0.024867
  31 H :    0.050443
  32 H :    0.089589
  33 H :    0.044401
Sum of atomic charges:    0.0000000

LOEWDIN ATOMIC CHARGES
----------------------
   0 S :    0.413773
   1 C :   -0.229946
   2 C :   -0.064605
   3 C :   -0.059082
   4 C :   -0.199165
   5 H :    0.026586
   6 C :   -0.040988
   7 H :    0.039070
   8 H :    0.029059
   9 C :   -0.034970
  10 H :    0.025060
  11 H :    0.009042
  12 C :   -0.064424
  13 H :    0.032060
  14 H :    0.021727
  15 H :    0.027386
  16 S :    0.418097
  17 C :   -0.178869
  18 C :   -0.072524
  19 C :   -0.061631
  20 C :   -0.206835
  21 H :    0.039295
  22 C :   -0.028667
  23 H :    0.028884
  24 H :    0.036589
  25 C :   -0.050437
  26 H :    0.032609
  27 H :    0.028714
  28 C :   -0.070076
  29 H :    0.035163
  30 H :    0.019352
  31 H :    0.027801
  32 H :    0.053272
  33 H :    0.018682

  Mayer bond orders larger than 0.100000
B(  0-S ,  1-C ) :   1.1518 B(  0-S ,  4-C ) :   1.1624 B(  1-C ,  2-C ) :   1.5720
B(  1-C , 32-H ) :   0.9558 B(  2-C ,  3-C ) :   1.2518 B(  2-C ,  6-C ) :   1.0271
B(  3-C ,  4-C ) :   1.5418 B(  3-C ,  5-H ) :   0.9954 B(  4-C , 20-C ) :   1.0326
B(  6-C ,  7-H ) :   0.9391 B(  6-C ,  8-H ) :   0.9523 B(  6-C ,  9-C ) :   1.0758
B(  9-C , 10-H ) :   0.9512 B(  9-C , 11-H ) :   0.9515 B(  9-C , 12-C ) :   1.0833
B( 12-C , 13-H ) :   0.9720 B( 12-C , 14-H ) :   0.9717 B( 12-C , 15-H ) :   0.9695
B( 16-S , 17-C ) :   1.1487 B( 16-S , 20-C ) :   1.1597 B( 17-C , 18-C ) :   1.6145
B( 17-C , 33-H ) :   0.9760 B( 18-C , 19-C ) :   1.2367 B( 18-C , 21-H ) :   0.9810
B( 19-C , 20-C ) :   1.6103 B( 19-C , 22-C ) :   1.0086 B( 22-C , 23-H ) :   0.9358
B( 22-C , 24-H ) :   0.9465 B( 22-C , 25-C ) :   1.0433 B( 25-C , 26-H ) :   0.9563
B( 25-C , 27-H ) :   0.9583 B( 25-C , 28-C ) :   1.0739 B( 28-C , 29-H ) :   0.9740
B( 28-C , 30-H ) :   0.9747 B( 28-C , 31-H ) :   0.9763

Dispersion correction           -0.015227067
FINAL SINGLE POINT ENERGY     -1339.872297960476

DIPOLE MOMENT
-------------
                                X             Y             Z
Electronic contribution:    -12.16921      -8.75236      12.05561
Nuclear contribution   :     12.56976       8.63045     -12.49056
                        -----------------------------------------
Total Dipole Moment    :      0.40055      -0.12191      -0.43495
                        -----------------------------------------
Magnitude (a.u.)       :      0.60372
Magnitude (Debye)      :      1.53455

Rotational constants in cm-1:     0.020001     0.008756     0.007790
Rotational constants in MHz :   599.603879   262.507128   233.537203

                             ****ORCA TERMINATED NORMALLY****
TOTAL RUN TIME: 0 days 0 hours 0 minutes 29 seconds 187 msec
