                         Program Version 4.2.1 -  RELEASE  -
|  1> ! wB97X-D3 SP def2-SVP
|  2> %pal
|  3> nprocs 16
|  4> end
|  5>
|  6> * xyz 0 1
|  7> S 	 1.3815 	 2.3689 	 82.2759
|  8> C 	 0.404809 	 0.805474 	 82.1875
|  9> C 	 -0.902349 	 0.969718 	 82.5406
| 10> C 	 -1.11146 	 2.34927 	 82.8997
| 11> C 	 0.00186625 	 3.21424 	 82.8184
| 12> H 	 -2.06859 	 2.64713 	 83.2336
| 13> C 	 -1.98087 	 -0.165746 	 82.6522
| 14> H 	 -1.4247 	 -1.06434 	 82.9449
| 15> H 	 -2.42808 	 -0.370169 	 81.6487
| 16> C 	 -3.03955 	 0.0127887 	 83.7158
| 17> H 	 -2.59707 	 0.198947 	 84.7473
| 18> H 	 -3.73011 	 0.865443 	 83.4468
| 19> C 	 -3.97789 	 -1.13705 	 83.832
| 20> H 	 -4.69137 	 -1.09438 	 84.6407
| 21> H 	 -4.42217 	 -1.24949 	 82.9424
| 22> H 	 -3.35852 	 -2.02269 	 83.9422
| 23> S 	 1.27767 	 5.62493 	 82.1557
| 24> C 	 0.774043 	 7.03957 	 83.0051
| 25> C 	 0.0224909 	 6.71775 	 84.1214
| 26> C 	 -0.465284 	 5.38813 	 84.1422
| 27> C 	 0.124538 	 4.61882 	 83.1548
| 28> H 	 -0.272701 	 7.51581 	 84.7855
| 29> C 	 -1.41624 	 4.89277 	 85.1711
| 30> H 	 -2.27565 	 4.56733 	 84.5757
| 31> H 	 -1.67926 	 5.66708 	 85.9172
| 32> C 	 -0.872557 	 3.84287 	 86.1358
| 33> H 	 -0.233511 	 3.1777 	 85.4948
| 34> H 	 -1.67228 	 3.16078 	 86.378
| 35> C 	 -0.0280616 	 4.3122 	 87.3699
| 36> H 	 0.993433 	 4.68961 	 87.2073
| 37> H 	 0.156902 	 3.42351 	 88.0779
| 38> H 	 -0.657914 	 4.95741 	 87.9518
| 39> H 	 0.734408 	 -0.192756 	 81.9819
| 40> H 	 1.13169 	 8.0742 	 82.7758
| 41> *
| 42>
| 43>                          ****END OF INPUT****

CARTESIAN COORDINATES (ANGSTROEM)
---------------------------------
  S      1.381500    2.368900   82.275900
  C      0.404809    0.805474   82.187500
  C     -0.902349    0.969718   82.540600
  C     -1.111460    2.349270   82.899700
  C      0.001866    3.214240   82.818400
  H     -2.068590    2.647130   83.233600
  C     -1.980870   -0.165746   82.652200
  H     -1.424700   -1.064340   82.944900
  H     -2.428080   -0.370169   81.648700
  C     -3.039550    0.012789   83.715800
  H     -2.597070    0.198947   84.747300
  H     -3.730110    0.865443   83.446800
  C     -3.977890   -1.137050   83.832000
  H     -4.691370   -1.094380   84.640700
  H     -4.422170   -1.249490   82.942400
  H     -3.358520   -2.022690   83.942200
  S      1.277670    5.624930   82.155700
  C      0.774043    7.039570   83.005100
  C      0.022491    6.717750   84.121400
  C     -0.465284    5.388130   84.142200
  C      0.124538    4.618820   83.154800
  H     -0.272701    7.515810   84.785500
  C     -1.416240    4.892770   85.171100
  H     -2.275650    4.567330   84.575700
  H     -1.679260    5.667080   85.917200
  C     -0.872557    3.842870   86.135800
  H     -0.233511    3.177700   85.494800
  H     -1.672280    3.160780   86.378000
  C     -0.028062    4.312200   87.369900
  H      0.993433    4.689610   87.207300
  H      0.156902    3.423510   88.077900
  H     -0.657914    4.957410   87.951800
  H      0.734408   -0.192756   81.981900
  H      1.131690    8.074200   82.775800

 Total Charge           Charge          ....    0
 Multiplicity           Mult            ....    1
 Number of Electrons    NEL             ....  134
 Basis Dimension        Dim             ....  322

ORBITAL ENERGIES
----------------

  NO   OCC          E(Eh)            E(eV)
   0   2.0000     -88.969044     -2420.9708
   1   2.0000     -88.966532     -2420.9024
   2   2.0000     -10.331939      -281.1463
   3   2.0000     -10.330246      -281.1003
   4   2.0000     -10.320401      -280.8324
   5   2.0000     -10.314267      -280.6655
   6   2.0000     -10.306502      -280.4542
   7   2.0000     -10.304501      -280.3997
   8   2.0000     -10.302260      -280.3387
   9   2.0000     -10.294498      -280.1275
  10   2.0000     -10.291911      -280.0571
  11   2.0000     -10.291785      -280.0537
  12   2.0000     -10.291514      -280.0463
  13   2.0000     -10.286326      -279.9052
  14   2.0000     -10.285445      -279.8812
  15   2.0000     -10.268299      -279.4146
  16   2.0000      -8.082960      -219.9485
  17   2.0000      -8.080657      -219.8859
  18   2.0000      -6.041730      -164.4038
  19   2.0000      -6.039209      -164.3352
  20   2.0000      -6.037658      -164.2930
  21   2.0000      -6.035359      -164.2305
  22   2.0000      -6.033406      -164.1773
  23   2.0000      -6.031295      -164.1199
  24   2.0000      -1.003992       -27.3200
  25   2.0000      -0.979161       -26.6443
  26   2.0000      -0.921379       -25.0720
  27   2.0000      -0.910029       -24.7632
  28   2.0000      -0.876492       -23.8505
  29   2.0000      -0.848633       -23.0925
  30   2.0000      -0.838092       -22.8056
  31   2.0000      -0.808256       -21.9938
  32   2.0000      -0.789795       -21.4914
  33   2.0000      -0.778368       -21.1805
  34   2.0000      -0.713703       -19.4209
  35   2.0000      -0.695747       -18.9322
  36   2.0000      -0.684949       -18.6384
  37   2.0000      -0.660726       -17.9793
  38   2.0000      -0.634156       -17.2563
  39   2.0000      -0.619408       -16.8550
  40   2.0000      -0.593135       -16.1400
  41   2.0000      -0.581342       -15.8191
  42   2.0000      -0.566688       -15.4204
  43   2.0000      -0.559241       -15.2177
  44   2.0000      -0.542244       -14.7552
  45   2.0000      -0.533392       -14.5143
  46   2.0000      -0.514914       -14.0115
  47   2.0000      -0.504433       -13.7263
  48   2.0000      -0.499851       -13.6016
  49   2.0000      -0.496848       -13.5199
  50   2.0000      -0.490278       -13.3411
  51   2.0000      -0.482325       -13.1247
  52   2.0000      -0.471153       -12.8207
  53   2.0000      -0.464532       -12.6406
  54   2.0000      -0.459390       -12.5006
  55   2.0000      -0.452567       -12.3150
  56   2.0000      -0.443816       -12.0769
  57   2.0000      -0.441167       -12.0048
  58   2.0000      -0.432244       -11.7620
  59   2.0000      -0.423439       -11.5224
  60   2.0000      -0.419230       -11.4078
  61   2.0000      -0.414265       -11.2727
  62   2.0000      -0.403874       -10.9900
  63   2.0000      -0.354169        -9.6374
  64   2.0000      -0.334619        -9.1054
  65   2.0000      -0.330093        -8.9823
  66   2.0000      -0.280514        -7.6332
  67   0.0000       0.021350         0.5810
  68   0.0000       0.068079         1.8525
  69   0.0000       0.093888         2.5548
  70   0.0000       0.124349         3.3837
  71   0.0000       0.131522         3.5789

MULLIKEN ATOMIC CHARGES
-----------------------
   0 S :    0.100022
   1 C :   -0.118768
   2 C :   -0.075502
   3 C :    0.015482
   4 C :   -0.116564
   5 H :   -0.027490
   6 C :    0.063885
   7 H :    0.024052
   8 H :    0.053188
   9 C :   -0.147413
  10 H :    0.047216
  11 H :    0.039500
  12 C :    0.037980
  13 H :    0.039025
  14 H :   -0.006269
  15 H :    0.007581
  16 S :    0.099055
  17 C :   -0.104515
  18 C :   -0.034044
  19 C :   -0.035969
  20 C :   -0.141161
  21 H :    0.015199
  22 C :    0.064139
  23 H :    0.048370
  24 H :    0.014784
  25 C :   -0.085067
  26 H :    0.041922
  27 H :    0.021149
  28 C :   -0.058544
  29 H :    0.055332
  30 H :    0.039262
  31 H :    0.024625
  32 H :    0.025172
  33 H :    0.074368
Sum of atomic charges:    0.0000000

LOEWDIN ATOMIC CHARGES
----------------------
   0 S :    0.391194
   1 C :   -0.174857
   2 C :   -0.055492
   3 C :   -0.071121
   4 C :   -0.199234
   5 H :    0.014029
   6 C :   -0.028512
   7 H :    0.032350
   8 H :    0.040064
   9 C :   -0.052454
  10 H :    0.031986
  11 H :    0.026745
  12 C :   -0.050745
  13 H :    0.029376
  14 H :    0.007727
  15 H :    0.023135
  16 S :    0.380660
  17 C :   -0.191832
  18 C :   -0.074429
  19 C :   -0.051768
  20 C :   -0.177560
  21 H :    0.029956
  22 C :   -0.037171
  23 H :    0.038453
  24 H :    0.033116
  25 C :   -0.047037
  26 H :    0.029827
  27 H :    0.023915
  28 C :   -0.071331
  29 H :    0.032051
  30 H :    0.039099
  31 H :    0.017338
  32 H :    0.022414
  33 H :    0.040109

  Mayer bond orders larger than 0.100000
B(  0-S ,  1-C ) :   1.1065 B(  0-S ,  4-C ) :   1.1468 B(  1-C ,  2-C ) :   1.6679
B(  1-C , 32-H ) :   0.9642 B(  2-C ,  3-C ) :   1.2492 B(  2-C ,  6-C ) :   0.9918
B(  3-C ,  4-C ) :   1.5406 B(  3-C ,  5-H ) :   1.0004 B(  4-C , 20-C ) :   1.0742
B(  6-C ,  7-H ) :   0.9428 B(  6-C ,  8-H ) :   0.9357 B(  6-C ,  9-C ) :   1.0778
B(  9-C , 10-H ) :   0.9574 B(  9-C , 11-H ) :   0.9436 B(  9-C , 12-C ) :   1.0894
B( 12-C , 13-H ) :   0.9718 B( 12-C , 14-H ) :   0.9678 B( 12-C , 15-H ) :   0.9675
B( 16-S , 17-C ) :   1.1608 B( 16-S , 20-C ) :   1.1157 B( 17-C , 18-C ) :   1.6065
B( 17-C , 20-C ) :   0.1046 B( 17-C , 33-H ) :   0.9602 B( 18-C , 19-C ) :   1.2441
B( 18-C , 21-H ) :   0.9877 B( 19-C , 20-C ) :   1.5859 B( 19-C , 22-C ) :   1.0488
B( 22-C , 23-H ) :   0.9230 B( 22-C , 24-H ) :   0.9341 B( 22-C , 25-C ) :   1.0633
B( 25-C , 26-H ) :   0.9577 B( 25-C , 27-H ) :   0.9526 B( 25-C , 28-C ) :   1.0683
B( 28-C , 29-H ) :   0.9769 B( 28-C , 30-H ) :   0.9728 B( 28-C , 31-H ) :   0.9733

Dispersion correction           -0.014499889
FINAL SINGLE POINT ENERGY     -1339.858001164367

DIPOLE MOMENT
-------------
                                X             Y             Z
Electronic contribution:     19.93631      14.43941     -18.43433
Nuclear contribution   :    -20.54691     -14.66575      18.91785
                        -----------------------------------------
Total Dipole Moment    :     -0.61061      -0.22634       0.48353
                        -----------------------------------------
Magnitude (a.u.)       :      0.81109
Magnitude (Debye)      :      2.06162

Rotational constants in cm-1:     0.019429     0.008735     0.006872
Rotational constants in MHz :   582.478722   261.865717   206.029863

                             ****ORCA TERMINATED NORMALLY****
TOTAL RUN TIME: 0 days 0 hours 0 minutes 35 seconds 690 msec
