                         Program Version 4.2.1 -  RELEASE  -
|  1> ! wB97X-D3 SP def2-SVP
|  2> %pal
|  3> nprocs 16
|  4> end
|  5>
|  6> * xyz 0 1
|  7> S 	 4.50782 	 26.0037 	 69.2376
|  8> C 	 4.8821 	 25.089 	 67.832
|  9> C 	 6.19841 	 24.6631 	 67.7222
| 10> C 	 6.95205 	 25.2549 	 68.7651
| 11> C 	 6.2246 	 26.0445 	 69.6506
| 12> H 	 8.02987 	 25.1442 	 68.8561
| 13> C 	 6.586 	 23.8547 	 66.4941
| 14> H 	 7.27055 	 24.5685 	 65.9874
| 15> H 	 5.77027 	 23.7455 	 65.7515
| 16> C 	 7.36255 	 22.553 	 66.7708
| 17> H 	 7.84233 	 22.1402 	 65.8796
| 18> H 	 8.15517 	 22.7759 	 67.5708
| 19> C 	 6.44667 	 21.4811 	 67.3462
| 20> H 	 7.1358 	 20.9771 	 68.0896
| 21> H 	 5.55868 	 21.8168 	 67.935
| 22> H 	 6.22039 	 20.7474 	 66.6315
| 23> S 	 6.29687 	 26.1899 	 72.4317
| 24> C 	 7.49943 	 27.2106 	 73.2062
| 25> C 	 8.46488 	 27.6725 	 72.28
| 26> C 	 8.17677 	 27.2998 	 70.9495
| 27> C 	 6.87821 	 26.7121 	 70.8331
| 28> H 	 9.31787 	 28.2292 	 72.6698
| 29> C 	 9.04832 	 27.8509 	 69.8338
| 30> H 	 9.31072 	 28.8448 	 70.1306
| 31> H 	 8.38746 	 27.9621 	 68.9196
| 32> C 	 10.3438 	 27.1478 	 69.3916
| 33> H 	 10.7757 	 27.6135 	 68.5424
| 34> H 	 10.096 	 26.1431 	 69.0486
| 35> C 	 11.3294 	 27.0475 	 70.5325
| 36> H 	 11.6725 	 28.0359 	 70.8783
| 37> H 	 12.1496 	 26.4353 	 70.2131
| 38> H 	 10.8839 	 26.4751 	 71.362
| 39> H 	 4.13969 	 24.7991 	 67.1819
| 40> H 	 7.58603 	 27.3864 	 74.2827
| 41> *
| 42>
| 43>                          ****END OF INPUT****

CARTESIAN COORDINATES (ANGSTROEM)
---------------------------------
  S      4.507820   26.003700   69.237600
  C      4.882100   25.089000   67.832000
  C      6.198410   24.663100   67.722200
  C      6.952050   25.254900   68.765100
  C      6.224600   26.044500   69.650600
  H      8.029870   25.144200   68.856100
  C      6.586000   23.854700   66.494100
  H      7.270550   24.568500   65.987400
  H      5.770270   23.745500   65.751500
  C      7.362550   22.553000   66.770800
  H      7.842330   22.140200   65.879600
  H      8.155170   22.775900   67.570800
  C      6.446670   21.481100   67.346200
  H      7.135800   20.977100   68.089600
  H      5.558680   21.816800   67.935000
  H      6.220390   20.747400   66.631500
  S      6.296870   26.189900   72.431700
  C      7.499430   27.210600   73.206200
  C      8.464880   27.672500   72.280000
  C      8.176770   27.299800   70.949500
  C      6.878210   26.712100   70.833100
  H      9.317870   28.229200   72.669800
  C      9.048320   27.850900   69.833800
  H      9.310720   28.844800   70.130600
  H      8.387460   27.962100   68.919600
  C     10.343800   27.147800   69.391600
  H     10.775700   27.613500   68.542400
  H     10.096000   26.143100   69.048600
  C     11.329400   27.047500   70.532500
  H     11.672500   28.035900   70.878300
  H     12.149600   26.435300   70.213100
  H     10.883900   26.475100   71.362000
  H      4.139690   24.799100   67.181900
  H      7.586030   27.386400   74.282700

 Total Charge           Charge          ....    0
 Multiplicity           Mult            ....    1
 Number of Electrons    NEL             ....  134
 Basis Dimension        Dim             ....  322

ORBITAL ENERGIES
----------------

  NO   OCC          E(Eh)            E(eV)
   0   2.0000     -88.970239     -2421.0033
   1   2.0000     -88.967595     -2420.9314
   2   2.0000     -10.335447      -281.2418
   3   2.0000     -10.333309      -281.1836
   4   2.0000     -10.320017      -280.8219
   5   2.0000     -10.308439      -280.5069
   6   2.0000     -10.305278      -280.4209
   7   2.0000     -10.301497      -280.3180
   8   2.0000     -10.299127      -280.2535
   9   2.0000     -10.296900      -280.1929
  10   2.0000     -10.295651      -280.1589
  11   2.0000     -10.294259      -280.1210
  12   2.0000     -10.291044      -280.0335
  13   2.0000     -10.283694      -279.8335
  14   2.0000     -10.275760      -279.6177
  15   2.0000     -10.274695      -279.5887
  16   2.0000      -8.085013      -220.0044
  17   2.0000      -8.081537      -219.9098
  18   2.0000      -6.043371      -164.4485
  19   2.0000      -6.039977      -164.3561
  20   2.0000      -6.039580      -164.3453
  21   2.0000      -6.036256      -164.2549
  22   2.0000      -6.035881      -164.2447
  23   2.0000      -6.032326      -164.1479
  24   2.0000      -1.002332       -27.2748
  25   2.0000      -0.980989       -26.6941
  26   2.0000      -0.911608       -24.8061
  27   2.0000      -0.909531       -24.7496
  28   2.0000      -0.862543       -23.4710
  29   2.0000      -0.853282       -23.2190
  30   2.0000      -0.848973       -23.1017
  31   2.0000      -0.811085       -22.0708
  32   2.0000      -0.782350       -21.2888
  33   2.0000      -0.769720       -20.9451
  34   2.0000      -0.708551       -19.2807
  35   2.0000      -0.693629       -18.8746
  36   2.0000      -0.685077       -18.6419
  37   2.0000      -0.657397       -17.8887
  38   2.0000      -0.641400       -17.4534
  39   2.0000      -0.620969       -16.8974
  40   2.0000      -0.589282       -16.0352
  41   2.0000      -0.570232       -15.5168
  42   2.0000      -0.554063       -15.0768
  43   2.0000      -0.550899       -14.9907
  44   2.0000      -0.547665       -14.9027
  45   2.0000      -0.540255       -14.7011
  46   2.0000      -0.519390       -14.1333
  47   2.0000      -0.506600       -13.7853
  48   2.0000      -0.496739       -13.5169
  49   2.0000      -0.493400       -13.4261
  50   2.0000      -0.485921       -13.2226
  51   2.0000      -0.479257       -13.0412
  52   2.0000      -0.473197       -12.8763
  53   2.0000      -0.466502       -12.6942
  54   2.0000      -0.464785       -12.6474
  55   2.0000      -0.448466       -12.2034
  56   2.0000      -0.440394       -11.9837
  57   2.0000      -0.433698       -11.8015
  58   2.0000      -0.429539       -11.6884
  59   2.0000      -0.423625       -11.5274
  60   2.0000      -0.420750       -11.4492
  61   2.0000      -0.419072       -11.4035
  62   2.0000      -0.412724       -11.2308
  63   2.0000      -0.344948        -9.3865
  64   2.0000      -0.330574        -8.9954
  65   2.0000      -0.328765        -8.9461
  66   2.0000      -0.288102        -7.8396
  67   0.0000       0.024276         0.6606
  68   0.0000       0.066828         1.8185
  69   0.0000       0.107099         2.9143
  70   0.0000       0.121871         3.3163
  71   0.0000       0.125083         3.4037

MULLIKEN ATOMIC CHARGES
-----------------------
   0 S :    0.128732
   1 C :   -0.112055
   2 C :   -0.058678
   3 C :    0.021682
   4 C :   -0.151373
   5 H :   -0.002205
   6 C :    0.049584
   7 H :    0.036299
   8 H :    0.029945
   9 C :   -0.094268
  10 H :    0.036095
  11 H :    0.042657
  12 C :   -0.060354
  13 H :    0.029705
  14 H :    0.053077
  15 H :    0.026944
  16 S :    0.102142
  17 C :   -0.101496
  18 C :   -0.049210
  19 C :   -0.021552
  20 C :   -0.139377
  21 H :    0.027861
  22 C :    0.012416
  23 H :    0.019331
  24 H :    0.041240
  25 C :   -0.021428
  26 H :    0.023153
  27 H :    0.012636
  28 C :   -0.059968
  29 H :    0.031944
  30 H :    0.026941
  31 H :    0.041991
  32 H :    0.016027
  33 H :    0.061564
Sum of atomic charges:   -0.0000000

LOEWDIN ATOMIC CHARGES
----------------------
   0 S :    0.416924
   1 C :   -0.190603
   2 C :   -0.062617
   3 C :   -0.057112
   4 C :   -0.201470
   5 H :    0.027956
   6 C :   -0.035534
   7 H :    0.036173
   8 H :    0.032726
   9 C :   -0.046383
  10 H :    0.027057
  11 H :    0.031026
  12 C :   -0.074203
  13 H :    0.035098
  14 H :    0.032591
  15 H :    0.016575
  16 S :    0.398121
  17 C :   -0.189256
  18 C :   -0.072945
  19 C :   -0.058119
  20 C :   -0.185268
  21 H :    0.034658
  22 C :   -0.035076
  23 H :    0.025797
  24 H :    0.038662
  25 C :   -0.034633
  26 H :    0.021592
  27 H :    0.018828
  28 C :   -0.066163
  29 H :    0.024016
  30 H :    0.023632
  31 H :    0.029963
  32 H :    0.007216
  33 H :    0.030769

  Mayer bond orders larger than 0.100000
B(  0-S ,  1-C ) :   1.1603 B(  0-S ,  4-C ) :   1.1513 B(  1-C ,  2-C ) :   1.5755
B(  1-C , 32-H ) :   0.9767 B(  2-C ,  3-C ) :   1.2676 B(  2-C ,  6-C ) :   1.0111
B(  3-C ,  4-C ) :   1.5509 B(  3-C ,  5-H ) :   0.9915 B(  4-C , 20-C ) :   1.0242
B(  6-C ,  7-H ) :   0.9344 B(  6-C ,  8-H ) :   0.9497 B(  6-C ,  9-C ) :   1.0661
B(  9-C , 10-H ) :   0.9560 B(  9-C , 11-H ) :   0.9686 B(  9-C , 12-C ) :   1.0564
B( 12-C , 13-H ) :   0.9785 B( 12-C , 14-H ) :   0.9779 B( 12-C , 15-H ) :   0.9787
B( 16-S , 17-C ) :   1.1623 B( 16-S , 20-C ) :   1.1547 B( 17-C , 18-C ) :   1.5860
B( 17-C , 20-C ) :   0.1123 B( 17-C , 33-H ) :   0.9659 B( 18-C , 19-C ) :   1.2558
B( 18-C , 21-H ) :   0.9885 B( 19-C , 20-C ) :   1.5625 B( 19-C , 22-C ) :   1.0289
B( 22-C , 23-H ) :   0.9458 B( 22-C , 24-H ) :   0.9408 B( 22-C , 25-C ) :   1.0726
B( 25-C , 26-H ) :   0.9501 B( 25-C , 27-H ) :   0.9474 B( 25-C , 28-C ) :   1.0899
B( 28-C , 29-H ) :   0.9745 B( 28-C , 30-H ) :   0.9704 B( 28-C , 31-H ) :   0.9697

Dispersion correction           -0.014647678
FINAL SINGLE POINT ENERGY     -1339.868629308629

DIPOLE MOMENT
-------------
                                X             Y             Z
Electronic contribution:    -20.75832       9.24754      13.92667
Nuclear contribution   :     21.35586      -9.42355     -14.33992
                        -----------------------------------------
Total Dipole Moment    :      0.59755      -0.17601      -0.41325
                        -----------------------------------------
Magnitude (a.u.)       :      0.74754
Magnitude (Debye)      :      1.90010

Rotational constants in cm-1:     0.017900     0.008885     0.006973
Rotational constants in MHz :   536.621150   266.358297   209.042015

                             ****ORCA TERMINATED NORMALLY****
TOTAL RUN TIME: 0 days 0 hours 0 minutes 35 seconds 645 msec
