                         Program Version 4.2.1 -  RELEASE  -
|  1> ! wB97X-D3 SP def2-SVP
|  2> %pal
|  3> nprocs 16
|  4> end
|  5>
|  6> * xyz 0 1
|  7> S 	 -3.14589 	 -18.3896 	 83.9127
|  8> C 	 -1.82865 	 -17.3056 	 83.4571
|  9> C 	 -1.0667 	 -17.0509 	 84.5929
| 10> C 	 -1.76004 	 -17.3722 	 85.7952
| 11> C 	 -2.95788 	 -18.0253 	 85.6024
| 12> H 	 -1.46076 	 -17.2132 	 86.8095
| 13> C 	 0.263348 	 -16.3951 	 84.514
| 14> H 	 0.466228 	 -15.6597 	 85.359
| 15> H 	 0.305675 	 -15.7505 	 83.6518
| 16> C 	 1.44527 	 -17.3184 	 84.3324
| 17> H 	 2.34387 	 -16.7744 	 84.1951
| 18> H 	 1.47059 	 -17.8357 	 85.3839
| 19> C 	 1.42784 	 -18.4414 	 83.2461
| 20> H 	 0.575829 	 -19.1424 	 83.4156
| 21> H 	 1.51367 	 -17.8492 	 82.3105
| 22> H 	 2.30334 	 -19.1468 	 83.2769
| 23> S 	 -4.65504 	 -20.0888 	 86.0633
| 24> C 	 -5.75469 	 -20.0648 	 87.42
| 25> C 	 -5.53436 	 -18.9684 	 88.2293
| 26> C 	 -4.5975 	 -18.0967 	 87.6636
| 27> C 	 -4.01564 	 -18.5437 	 86.4665
| 28> H 	 -6.03049 	 -18.9159 	 89.1234
| 29> C 	 -4.12972 	 -16.8727 	 88.4587
| 30> H 	 -3.60506 	 -16.1962 	 87.7454
| 31> H 	 -3.34398 	 -17.1838 	 89.1505
| 32> C 	 -5.34587 	 -16.0827 	 89.0568
| 33> H 	 -5.90536 	 -16.6477 	 89.7636
| 34> H 	 -5.87116 	 -15.6477 	 88.2246
| 35> C 	 -4.83339 	 -14.8913 	 89.7962
| 36> H 	 -4.42738 	 -15.298 	 90.6607
| 37> H 	 -5.64585 	 -14.2559 	 90.0452
| 38> H 	 -4.01523 	 -14.3454 	 89.2161
| 39> H 	 -1.58425 	 -17.0417 	 82.3778
| 40> H 	 -6.51958 	 -20.8642 	 87.5793
| 41> *
| 42>
| 43>                          ****END OF INPUT****

CARTESIAN COORDINATES (ANGSTROEM)
---------------------------------
  S     -3.145890  -18.389600   83.912700
  C     -1.828650  -17.305600   83.457100
  C     -1.066700  -17.050900   84.592900
  C     -1.760040  -17.372200   85.795200
  C     -2.957880  -18.025300   85.602400
  H     -1.460760  -17.213200   86.809500
  C      0.263348  -16.395100   84.514000
  H      0.466228  -15.659700   85.359000
  H      0.305675  -15.750500   83.651800
  C      1.445270  -17.318400   84.332400
  H      2.343870  -16.774400   84.195100
  H      1.470590  -17.835700   85.383900
  C      1.427840  -18.441400   83.246100
  H      0.575829  -19.142400   83.415600
  H      1.513670  -17.849200   82.310500
  H      2.303340  -19.146800   83.276900
  S     -4.655040  -20.088800   86.063300
  C     -5.754690  -20.064800   87.420000
  C     -5.534360  -18.968400   88.229300
  C     -4.597500  -18.096700   87.663600
  C     -4.015640  -18.543700   86.466500
  H     -6.030490  -18.915900   89.123400
  C     -4.129720  -16.872700   88.458700
  H     -3.605060  -16.196200   87.745400
  H     -3.343980  -17.183800   89.150500
  C     -5.345870  -16.082700   89.056800
  H     -5.905360  -16.647700   89.763600
  H     -5.871160  -15.647700   88.224600
  C     -4.833390  -14.891300   89.796200
  H     -4.427380  -15.298000   90.660700
  H     -5.645850  -14.255900   90.045200
  H     -4.015230  -14.345400   89.216100
  H     -1.584250  -17.041700   82.377800
  H     -6.519580  -20.864200   87.579300

 Total Charge           Charge          ....    0
 Multiplicity           Mult            ....    1
 Number of Electrons    NEL             ....  134
 Basis Dimension        Dim             ....  322

ORBITAL ENERGIES
----------------

  NO   OCC          E(Eh)            E(eV)
   0   2.0000     -88.965108     -2420.8637
   1   2.0000     -88.961205     -2420.7574
   2   2.0000     -10.330676      -281.1120
   3   2.0000     -10.326164      -280.9892
   4   2.0000     -10.321729      -280.8685
   5   2.0000     -10.319078      -280.7964
   6   2.0000     -10.304284      -280.3938
   7   2.0000     -10.300474      -280.2902
   8   2.0000     -10.295387      -280.1517
   9   2.0000     -10.294114      -280.1171
  10   2.0000     -10.292565      -280.0749
  11   2.0000     -10.289576      -279.9936
  12   2.0000     -10.286657      -279.9142
  13   2.0000     -10.286168      -279.9008
  14   2.0000     -10.280570      -279.7485
  15   2.0000     -10.268488      -279.4198
  16   2.0000      -8.080515      -219.8820
  17   2.0000      -8.076410      -219.7703
  18   2.0000      -6.038917      -164.3273
  19   2.0000      -6.034949      -164.2193
  20   2.0000      -6.034831      -164.2161
  21   2.0000      -6.031458      -164.1243
  22   2.0000      -6.030907      -164.1093
  23   2.0000      -6.027026      -164.0037
  24   2.0000      -1.012267       -27.5452
  25   2.0000      -0.988063       -26.8866
  26   2.0000      -0.915849       -24.9215
  27   2.0000      -0.911865       -24.8131
  28   2.0000      -0.869463       -23.6593
  29   2.0000      -0.856409       -23.3041
  30   2.0000      -0.841958       -22.9108
  31   2.0000      -0.817100       -22.2344
  32   2.0000      -0.783450       -21.3188
  33   2.0000      -0.767787       -20.8925
  34   2.0000      -0.704560       -19.1720
  35   2.0000      -0.696096       -18.9417
  36   2.0000      -0.686124       -18.6704
  37   2.0000      -0.659489       -17.9456
  38   2.0000      -0.640959       -17.4414
  39   2.0000      -0.621979       -16.9249
  40   2.0000      -0.596395       -16.2287
  41   2.0000      -0.580240       -15.7891
  42   2.0000      -0.574366       -15.6293
  43   2.0000      -0.555914       -15.1272
  44   2.0000      -0.545346       -14.8396
  45   2.0000      -0.530993       -14.4491
  46   2.0000      -0.517458       -14.0807
  47   2.0000      -0.509658       -13.8685
  48   2.0000      -0.504701       -13.7336
  49   2.0000      -0.500534       -13.6202
  50   2.0000      -0.489147       -13.3104
  51   2.0000      -0.475423       -12.9369
  52   2.0000      -0.472164       -12.8482
  53   2.0000      -0.462002       -12.5717
  54   2.0000      -0.459513       -12.5040
  55   2.0000      -0.450743       -12.2653
  56   2.0000      -0.445725       -12.1288
  57   2.0000      -0.434953       -11.8357
  58   2.0000      -0.432687       -11.7740
  59   2.0000      -0.427583       -11.6351
  60   2.0000      -0.421003       -11.4561
  61   2.0000      -0.410926       -11.1819
  62   2.0000      -0.391375       -10.6499
  63   2.0000      -0.353360        -9.6154
  64   2.0000      -0.332982        -9.0609
  65   2.0000      -0.327848        -8.9212
  66   2.0000      -0.284101        -7.7308
  67   0.0000       0.023624         0.6428
  68   0.0000       0.068820         1.8727
  69   0.0000       0.102283         2.7833
  70   0.0000       0.120719         3.2849
  71   0.0000       0.139741         3.8025

MULLIKEN ATOMIC CHARGES
-----------------------
   0 S :    0.085684
   1 C :   -0.140032
   2 C :   -0.076092
   3 C :    0.036053
   4 C :   -0.139292
   5 H :   -0.000084
   6 C :    0.063589
   7 H :    0.038986
   8 H :    0.007316
   9 C :   -0.099326
  10 H :    0.028206
  11 H :    0.025297
  12 C :   -0.075343
  13 H :    0.057870
  14 H :    0.035044
  15 H :    0.042202
  16 S :    0.101165
  17 C :   -0.113920
  18 C :   -0.001332
  19 C :   -0.024852
  20 C :   -0.121750
  21 H :   -0.012572
  22 C :    0.010109
  23 H :    0.023648
  24 H :    0.044664
  25 C :   -0.074298
  26 H :    0.030296
  27 H :    0.036687
  28 C :   -0.009963
  29 H :    0.005686
  30 H :    0.028360
  31 H :    0.033756
  32 H :    0.081047
  33 H :    0.073189
Sum of atomic charges:   -0.0000000

LOEWDIN ATOMIC CHARGES
----------------------
   0 S :    0.395806
   1 C :   -0.192868
   2 C :   -0.064503
   3 C :   -0.066966
   4 C :   -0.184455
   5 H :    0.028545
   6 C :   -0.042411
   7 H :    0.039987
   8 H :    0.024297
   9 C :   -0.045028
  10 H :    0.017592
  11 H :    0.025845
  12 C :   -0.076814
  13 H :    0.033212
  14 H :    0.026901
  15 H :    0.032954
  16 S :    0.420096
  17 C :   -0.187106
  18 C :   -0.062775
  19 C :   -0.060253
  20 C :   -0.213809
  21 H :    0.019412
  22 C :   -0.032863
  23 H :    0.031050
  24 H :    0.030064
  25 C :   -0.032247
  26 H :    0.019009
  27 H :    0.028735
  28 C :   -0.057531
  29 H :    0.012823
  30 H :    0.020689
  31 H :    0.031104
  32 H :    0.044347
  33 H :    0.037160

  Mayer bond orders larger than 0.100000
B(  0-S ,  1-C ) :   1.1372 B(  0-S ,  4-C ) :   1.1523 B(  1-C ,  2-C ) :   1.5863
B(  1-C ,  4-C ) :   0.1065 B(  1-C , 32-H ) :   0.9642 B(  2-C ,  3-C ) :   1.2230
B(  2-C ,  6-C ) :   1.0324 B(  3-C ,  4-C ) :   1.5679 B(  3-C ,  5-H ) :   1.0059
B(  4-C , 20-C ) :   1.0326 B(  6-C ,  7-H ) :   0.9442 B(  6-C ,  8-H ) :   0.9347
B(  6-C ,  9-C ) :   1.0641 B(  9-C , 10-H ) :   0.9600 B(  9-C , 11-H ) :   0.9556
B(  9-C , 12-C ) :   1.0746 B( 12-C , 13-H ) :   0.9696 B( 12-C , 14-H ) :   0.9755
B( 12-C , 15-H ) :   0.9739 B( 16-S , 17-C ) :   1.1697 B( 16-S , 20-C ) :   1.1547
B( 17-C , 18-C ) :   1.5733 B( 17-C , 20-C ) :   0.1064 B( 17-C , 33-H ) :   0.9627
B( 18-C , 19-C ) :   1.2594 B( 18-C , 21-H ) :   1.0113 B( 19-C , 20-C ) :   1.5649
B( 19-C , 22-C ) :   1.0378 B( 22-C , 23-H ) :   0.9320 B( 22-C , 24-H ) :   0.9424
B( 22-C , 25-C ) :   1.0681 B( 25-C , 26-H ) :   0.9555 B( 25-C , 27-H ) :   0.9569
B( 25-C , 28-C ) :   1.0936 B( 28-C , 29-H ) :   0.9746 B( 28-C , 30-H ) :   0.9717
B( 28-C , 31-H ) :   0.9705

Dispersion correction           -0.013831515
FINAL SINGLE POINT ENERGY     -1339.855470507001

DIPOLE MOMENT
-------------
                                X             Y             Z
Electronic contribution:    -13.68079     -15.66564      -9.23079
Nuclear contribution   :     13.94126      15.97715       9.63699
                        -----------------------------------------
Total Dipole Moment    :      0.26046       0.31151       0.40621
                        -----------------------------------------
Magnitude (a.u.)       :      0.57435
Magnitude (Debye)      :      1.45989

Rotational constants in cm-1:     0.020522     0.007913     0.006252
Rotational constants in MHz :   615.220359   237.228171   187.430930

                             ****ORCA TERMINATED NORMALLY****
TOTAL RUN TIME: 0 days 0 hours 0 minutes 33 seconds 108 msec
