                         Program Version 4.2.1 -  RELEASE  -
|  1> ! wB97X-D3 SP def2-SVP
|  2> %pal
|  3> nprocs 16
|  4> end
|  5>
|  6> * xyz 0 1
|  7> S 	 -25.5377 	 -6.77945 	 85.491
|  8> C 	 -27.23 	 -6.92423 	 85.2947
|  9> C 	 -27.9169 	 -6.27093 	 86.3043
| 10> C 	 -27.0144 	 -5.38624 	 87.0275
| 11> C 	 -25.6777 	 -5.55927 	 86.7552
| 12> H 	 -27.2759 	 -4.73295 	 87.8756
| 13> C 	 -29.4044 	 -6.11543 	 86.4316
| 14> H 	 -29.6437 	 -5.83606 	 87.475
| 15> H 	 -29.7923 	 -7.11655 	 86.2634
| 16> C 	 -30.0118 	 -5.17565 	 85.3656
| 17> H 	 -29.8684 	 -5.51828 	 84.3467
| 18> H 	 -31.1383 	 -5.20189 	 85.3527
| 19> C 	 -29.6409 	 -3.79126 	 85.6656
| 20> H 	 -28.6891 	 -3.60259 	 85.2859
| 21> H 	 -30.449 	 -3.14798 	 85.2052
| 22> H 	 -29.6978 	 -3.54512 	 86.7025
| 23> S 	 -23.3359 	 -5.46404 	 88.329
| 24> C 	 -22.3524 	 -4.03142 	 88.2041
| 25> C 	 -22.9118 	 -3.10259 	 87.3785
| 26> C 	 -24.2138 	 -3.47117 	 86.9029
| 27> C 	 -24.5317 	 -4.74677 	 87.2012
| 28> H 	 -22.3349 	 -2.20784 	 87.3482
| 29> C 	 -25.0873 	 -2.55362 	 86.0637
| 30> H 	 -25.7474 	 -3.1956 	 85.4875
| 31> H 	 -24.507 	 -2.09233 	 85.2903
| 32> C 	 -25.8902 	 -1.53662 	 86.9063
| 33> H 	 -25.2141 	 -1.16515 	 87.678
| 34> H 	 -26.6703 	 -2.0955 	 87.3751
| 35> C 	 -26.7354 	 -0.391811 	 86.2194
| 36> H 	 -27.4324 	 0.032319 	 86.929
| 37> H 	 -27.1405 	 -0.762195 	 85.2588
| 38> H 	 -26.0822 	 0.466299 	 85.973
| 39> H 	 -27.8134 	 -7.42842 	 84.499
| 40> H 	 -21.3497 	 -3.88526 	 88.6923
| 41> *
| 42>
| 43>                          ****END OF INPUT****

CARTESIAN COORDINATES (ANGSTROEM)
---------------------------------
  S    -25.537700   -6.779450   85.491000
  C    -27.230000   -6.924230   85.294700
  C    -27.916900   -6.270930   86.304300
  C    -27.014400   -5.386240   87.027500
  C    -25.677700   -5.559270   86.755200
  H    -27.275900   -4.732950   87.875600
  C    -29.404400   -6.115430   86.431600
  H    -29.643700   -5.836060   87.475000
  H    -29.792300   -7.116550   86.263400
  C    -30.011800   -5.175650   85.365600
  H    -29.868400   -5.518280   84.346700
  H    -31.138300   -5.201890   85.352700
  C    -29.640900   -3.791260   85.665600
  H    -28.689100   -3.602590   85.285900
  H    -30.449000   -3.147980   85.205200
  H    -29.697800   -3.545120   86.702500
  S    -23.335900   -5.464040   88.329000
  C    -22.352400   -4.031420   88.204100
  C    -22.911800   -3.102590   87.378500
  C    -24.213800   -3.471170   86.902900
  C    -24.531700   -4.746770   87.201200
  H    -22.334900   -2.207840   87.348200
  C    -25.087300   -2.553620   86.063700
  H    -25.747400   -3.195600   85.487500
  H    -24.507000   -2.092330   85.290300
  C    -25.890200   -1.536620   86.906300
  H    -25.214100   -1.165150   87.678000
  H    -26.670300   -2.095500   87.375100
  C    -26.735400   -0.391811   86.219400
  H    -27.432400    0.032319   86.929000
  H    -27.140500   -0.762195   85.258800
  H    -26.082200    0.466299   85.973000
  H    -27.813400   -7.428420   84.499000
  H    -21.349700   -3.885260   88.692300

 Total Charge           Charge          ....    0
 Multiplicity           Mult            ....    1
 Number of Electrons    NEL             ....  134
 Basis Dimension        Dim             ....  322

ORBITAL ENERGIES
----------------

  NO   OCC          E(Eh)            E(eV)
   0   2.0000     -88.965660     -2420.8787
   1   2.0000     -88.961741     -2420.7720
   2   2.0000     -10.328558      -281.0544
   3   2.0000     -10.326601      -281.0011
   4   2.0000     -10.318800      -280.7888
   5   2.0000     -10.316294      -280.7206
   6   2.0000     -10.303653      -280.3767
   7   2.0000     -10.300336      -280.2864
   8   2.0000     -10.297069      -280.1975
   9   2.0000     -10.292778      -280.0807
  10   2.0000     -10.289581      -279.9937
  11   2.0000     -10.287071      -279.9254
  12   2.0000     -10.286760      -279.9170
  13   2.0000     -10.285259      -279.8761
  14   2.0000     -10.283800      -279.8364
  15   2.0000     -10.269103      -279.4365
  16   2.0000      -8.080776      -219.8891
  17   2.0000      -8.076362      -219.7690
  18   2.0000      -6.039292      -164.3375
  19   2.0000      -6.035104      -164.2235
  20   2.0000      -6.034895      -164.2179
  21   2.0000      -6.031598      -164.1281
  22   2.0000      -6.030973      -164.1111
  23   2.0000      -6.027016      -164.0034
  24   2.0000      -1.007010       -27.4021
  25   2.0000      -0.987357       -26.8673
  26   2.0000      -0.919835       -25.0300
  27   2.0000      -0.902949       -24.5705
  28   2.0000      -0.871217       -23.7070
  29   2.0000      -0.849595       -23.1187
  30   2.0000      -0.845111       -22.9966
  31   2.0000      -0.818435       -22.2707
  32   2.0000      -0.784163       -21.3382
  33   2.0000      -0.772356       -21.0169
  34   2.0000      -0.705100       -19.1867
  35   2.0000      -0.701842       -19.0981
  36   2.0000      -0.694153       -18.8889
  37   2.0000      -0.656280       -17.8583
  38   2.0000      -0.639881       -17.4120
  39   2.0000      -0.612943       -16.6790
  40   2.0000      -0.591840       -16.1048
  41   2.0000      -0.577890       -15.7252
  42   2.0000      -0.561048       -15.2669
  43   2.0000      -0.556336       -15.1387
  44   2.0000      -0.545766       -14.8510
  45   2.0000      -0.526591       -14.3293
  46   2.0000      -0.515714       -14.0333
  47   2.0000      -0.513617       -13.9762
  48   2.0000      -0.512235       -13.9386
  49   2.0000      -0.498145       -13.5552
  50   2.0000      -0.491736       -13.3808
  51   2.0000      -0.482732       -13.1358
  52   2.0000      -0.466480       -12.6936
  53   2.0000      -0.464665       -12.6442
  54   2.0000      -0.459907       -12.5147
  55   2.0000      -0.447560       -12.1787
  56   2.0000      -0.443267       -12.0619
  57   2.0000      -0.432271       -11.7627
  58   2.0000      -0.430491       -11.7143
  59   2.0000      -0.423873       -11.5342
  60   2.0000      -0.420426       -11.4404
  61   2.0000      -0.410165       -11.1611
  62   2.0000      -0.408061       -11.1039
  63   2.0000      -0.337296        -9.1783
  64   2.0000      -0.332805        -9.0561
  65   2.0000      -0.327271        -8.9055
  66   2.0000      -0.305378        -8.3098
  67   0.0000       0.044328         1.2062
  68   0.0000       0.055056         1.4982
  69   0.0000       0.114999         3.1293
  70   0.0000       0.121072         3.2945
  71   0.0000       0.126237         3.4351

MULLIKEN ATOMIC CHARGES
-----------------------
   0 S :    0.128435
   1 C :   -0.129413
   2 C :   -0.101790
   3 C :    0.009983
   4 C :   -0.164151
   5 H :    0.029186
   6 C :    0.058110
   7 H :    0.034456
   8 H :    0.021466
   9 C :   -0.075341
  10 H :    0.019682
  11 H :    0.022801
  12 C :   -0.011893
  13 H :    0.036260
  14 H :    0.031279
  15 H :    0.017650
  16 S :    0.098094
  17 C :   -0.119138
  18 C :   -0.024484
  19 C :   -0.024913
  20 C :   -0.178381
  21 H :    0.010228
  22 C :    0.113726
  23 H :    0.019152
  24 H :    0.014530
  25 C :   -0.082508
  26 H :    0.030479
  27 H :    0.016704
  28 C :   -0.046161
  29 H :    0.040606
  30 H :    0.041621
  31 H :    0.027481
  32 H :    0.060221
  33 H :    0.076022
Sum of atomic charges:   -0.0000000

LOEWDIN ATOMIC CHARGES
----------------------
   0 S :    0.420917
   1 C :   -0.210656
   2 C :   -0.071504
   3 C :   -0.062053
   4 C :   -0.199853
   5 H :    0.034881
   6 C :   -0.033354
   7 H :    0.033784
   8 H :    0.029371
   9 C :   -0.044482
  10 H :    0.022861
  11 H :    0.026049
  12 C :   -0.059332
  13 H :    0.017580
  14 H :    0.034950
  15 H :    0.021158
  16 S :    0.379410
  17 C :   -0.186385
  18 C :   -0.077176
  19 C :   -0.046816
  20 C :   -0.187019
  21 H :    0.030565
  22 C :   -0.027134
  23 H :    0.028251
  24 H :    0.024976
  25 C :   -0.039593
  26 H :    0.023294
  27 H :    0.019392
  28 C :   -0.066168
  29 H :    0.027985
  30 H :    0.029838
  31 H :    0.024165
  32 H :    0.039405
  33 H :    0.042694

  Mayer bond orders larger than 0.100000
B(  0-S ,  1-C ) :   1.1636 B(  0-S ,  4-C ) :   1.1387 B(  1-C ,  2-C ) :   1.5964
B(  1-C , 32-H ) :   0.9618 B(  2-C ,  3-C ) :   1.2208 B(  2-C ,  6-C ) :   1.0393
B(  3-C ,  4-C ) :   1.6088 B(  3-C ,  5-H ) :   0.9863 B(  4-C , 20-C ) :   1.0064
B(  6-C ,  7-H ) :   0.9472 B(  6-C ,  8-H ) :   0.9299 B(  6-C ,  9-C ) :   1.0743
B(  9-C , 10-H ) :   0.9525 B(  9-C , 11-H ) :   0.9566 B(  9-C , 12-C ) :   1.0785
B( 12-C , 13-H ) :   0.9735 B( 12-C , 14-H ) :   0.9704 B( 12-C , 15-H ) :   0.9693
B( 16-S , 17-C ) :   1.1454 B( 16-S , 20-C ) :   1.1186 B( 17-C , 18-C ) :   1.6618
B( 17-C , 33-H ) :   0.9561 B( 18-C , 19-C ) :   1.1794 B( 18-C , 21-H ) :   0.9963
B( 19-C , 20-C ) :   1.6653 B( 19-C , 22-C ) :   1.0401 B( 22-C , 23-H ) :   0.9231
B( 22-C , 24-H ) :   0.9366 B( 22-C , 25-C ) :   1.0531 B( 25-C , 26-H ) :   0.9630
B( 25-C , 27-H ) :   0.9548 B( 25-C , 28-C ) :   1.0730 B( 28-C , 29-H ) :   0.9770
B( 28-C , 30-H ) :   0.9739 B( 28-C , 31-H ) :   0.9767

Dispersion correction           -0.015924897
FINAL SINGLE POINT ENERGY     -1339.870533064601

DIPOLE MOMENT
-------------
                                X             Y             Z
Electronic contribution:     22.51540     -20.72633       5.68558
Nuclear contribution   :    -22.98469      21.27763      -5.82065
                        -----------------------------------------
Total Dipole Moment    :     -0.46929       0.55130      -0.13507
                        -----------------------------------------
Magnitude (a.u.)       :      0.73648
Magnitude (Debye)      :      1.87199

Rotational constants in cm-1:     0.017607     0.010414     0.007245
Rotational constants in MHz :   527.852728   312.213986   217.205442

                             ****ORCA TERMINATED NORMALLY****
TOTAL RUN TIME: 0 days 0 hours 0 minutes 36 seconds 795 msec
