                         Program Version 4.2.1 -  RELEASE  -
|  1> ! wB97X-D3 SP def2-SVP
|  2> %pal
|  3> nprocs 16
|  4> end
|  5>
|  6> * xyz 0 1
|  7> S 	 -77.8549 	 38.2962 	 135.691
|  8> C 	 -77.7715 	 36.7267 	 136.245
|  9> C 	 -78.9138 	 36.0188 	 135.887
| 10> C 	 -79.8974 	 36.7674 	 135.085
| 11> C 	 -79.4223 	 38.0782 	 134.934
| 12> H 	 -80.8718 	 36.4264 	 134.535
| 13> C 	 -79.1135 	 34.5146 	 136.144
| 14> H 	 -80.1703 	 34.2624 	 136.043
| 15> H 	 -78.8191 	 34.4277 	 137.222
| 16> C 	 -78.2805 	 33.4802 	 135.307
| 17> H 	 -77.2493 	 33.6992 	 135.482
| 18> H 	 -78.5914 	 32.5166 	 135.637
| 19> C 	 -78.6609 	 33.5507 	 133.819
| 20> H 	 -79.3484 	 34.3306 	 133.54
| 21> H 	 -77.7389 	 33.6945 	 133.222
| 22> H 	 -79.0535 	 32.5588 	 133.576
| 23> S 	 -81.105 	 40.0656 	 135.843
| 24> C 	 -81.8623 	 41.057 	 134.649
| 25> C 	 -81.1905 	 41.0176 	 133.42
| 26> C 	 -80.2503 	 39.9425 	 133.305
| 27> C 	 -80.2646 	 39.2186 	 134.506
| 28> H 	 -81.4185 	 41.7173 	 132.68
| 29> C 	 -79.2473 	 39.7467 	 132.207
| 30> H 	 -78.2912 	 39.388 	 132.558
| 31> H 	 -79.071 	 40.7806 	 131.949
| 32> C 	 -79.7878 	 39.0358 	 130.965
| 33> H 	 -80.7842 	 39.3585 	 130.644
| 34> H 	 -80.0739 	 38.0275 	 131.348
| 35> C 	 -78.8586 	 38.9161 	 129.719
| 36> H 	 -78.6082 	 39.9075 	 129.329
| 37> H 	 -79.298 	 38.2552 	 128.952
| 38> H 	 -77.7714 	 38.6032 	 130.025
| 39> H 	 -76.8984 	 36.299 	 136.793
| 40> H 	 -82.6168 	 41.8057 	 134.828
| 41> *
| 42>
| 43>                          ****END OF INPUT****

CARTESIAN COORDINATES (ANGSTROEM)
---------------------------------
  S    -77.854900   38.296200  135.691000
  C    -77.771500   36.726700  136.245000
  C    -78.913800   36.018800  135.887000
  C    -79.897400   36.767400  135.085000
  C    -79.422300   38.078200  134.934000
  H    -80.871800   36.426400  134.535000
  C    -79.113500   34.514600  136.144000
  H    -80.170300   34.262400  136.043000
  H    -78.819100   34.427700  137.222000
  C    -78.280500   33.480200  135.307000
  H    -77.249300   33.699200  135.482000
  H    -78.591400   32.516600  135.637000
  C    -78.660900   33.550700  133.819000
  H    -79.348400   34.330600  133.540000
  H    -77.738900   33.694500  133.222000
  H    -79.053500   32.558800  133.576000
  S    -81.105000   40.065600  135.843000
  C    -81.862300   41.057000  134.649000
  C    -81.190500   41.017600  133.420000
  C    -80.250300   39.942500  133.305000
  C    -80.264600   39.218600  134.506000
  H    -81.418500   41.717300  132.680000
  C    -79.247300   39.746700  132.207000
  H    -78.291200   39.388000  132.558000
  H    -79.071000   40.780600  131.949000
  C    -79.787800   39.035800  130.965000
  H    -80.784200   39.358500  130.644000
  H    -80.073900   38.027500  131.348000
  C    -78.858600   38.916100  129.719000
  H    -78.608200   39.907500  129.329000
  H    -79.298000   38.255200  128.952000
  H    -77.771400   38.603200  130.025000
  H    -76.898400   36.299000  136.793000
  H    -82.616800   41.805700  134.828000

 Total Charge           Charge          ....    0
 Multiplicity           Mult            ....    1
 Number of Electrons    NEL             ....  134
 Basis Dimension        Dim             ....  322

ORBITAL ENERGIES
----------------

  NO   OCC          E(Eh)            E(eV)
   0   2.0000     -88.966434     -2420.8998
   1   2.0000     -88.966059     -2420.8895
   2   2.0000     -10.326487      -280.9980
   3   2.0000     -10.325366      -280.9675
   4   2.0000     -10.315494      -280.6988
   5   2.0000     -10.313215      -280.6369
   6   2.0000     -10.307646      -280.4853
   7   2.0000     -10.306035      -280.4415
   8   2.0000     -10.304327      -280.3950
   9   2.0000     -10.291948      -280.0582
  10   2.0000     -10.290721      -280.0248
  11   2.0000     -10.290620      -280.0220
  12   2.0000     -10.290335      -280.0143
  13   2.0000     -10.290302      -280.0134
  14   2.0000     -10.281095      -279.7628
  15   2.0000     -10.272406      -279.5264
  16   2.0000      -8.082388      -219.9329
  17   2.0000      -8.080539      -219.8826
  18   2.0000      -6.040677      -164.3752
  19   2.0000      -6.038870      -164.3260
  20   2.0000      -6.036578      -164.2636
  21   2.0000      -6.035450      -164.2330
  22   2.0000      -6.033452      -164.1786
  23   2.0000      -6.031124      -164.1152
  24   2.0000      -1.004549       -27.3352
  25   2.0000      -0.983473       -26.7617
  26   2.0000      -0.908361       -24.7178
  27   2.0000      -0.902332       -24.5537
  28   2.0000      -0.864598       -23.5269
  29   2.0000      -0.848470       -23.0880
  30   2.0000      -0.843992       -22.9662
  31   2.0000      -0.808610       -22.0034
  32   2.0000      -0.780969       -21.2513
  33   2.0000      -0.764238       -20.7960
  34   2.0000      -0.702666       -19.1205
  35   2.0000      -0.696512       -18.9531
  36   2.0000      -0.688871       -18.7451
  37   2.0000      -0.659597       -17.9486
  38   2.0000      -0.640736       -17.4353
  39   2.0000      -0.603121       -16.4118
  40   2.0000      -0.590090       -16.0572
  41   2.0000      -0.574821       -15.6417
  42   2.0000      -0.554292       -15.0830
  43   2.0000      -0.543683       -14.7944
  44   2.0000      -0.538663       -14.6578
  45   2.0000      -0.530084       -14.4243
  46   2.0000      -0.512150       -13.9363
  47   2.0000      -0.509737       -13.8707
  48   2.0000      -0.502715       -13.6796
  49   2.0000      -0.494020       -13.4430
  50   2.0000      -0.484936       -13.1958
  51   2.0000      -0.472431       -12.8555
  52   2.0000      -0.471192       -12.8218
  53   2.0000      -0.467997       -12.7349
  54   2.0000      -0.456277       -12.4159
  55   2.0000      -0.449480       -12.2310
  56   2.0000      -0.443991       -12.0816
  57   2.0000      -0.438590       -11.9346
  58   2.0000      -0.430971       -11.7273
  59   2.0000      -0.423259       -11.5175
  60   2.0000      -0.422091       -11.4857
  61   2.0000      -0.409925       -11.1546
  62   2.0000      -0.402344       -10.9483
  63   2.0000      -0.336992        -9.1700
  64   2.0000      -0.326847        -8.8940
  65   2.0000      -0.309980        -8.4350
  66   2.0000      -0.308371        -8.3912
  67   0.0000       0.039969         1.0876
  68   0.0000       0.049527         1.3477
  69   0.0000       0.099215         2.6998
  70   0.0000       0.118871         3.2346
  71   0.0000       0.130310         3.5459

MULLIKEN ATOMIC CHARGES
-----------------------
   0 S :    0.131203
   1 C :   -0.133144
   2 C :   -0.109692
   3 C :    0.011658
   4 C :   -0.188977
   5 H :    0.070158
   6 C :    0.006799
   7 H :    0.023506
   8 H :    0.032563
   9 C :   -0.020478
  10 H :    0.023639
  11 H :    0.026179
  12 C :   -0.064651
  13 H :    0.035589
  14 H :    0.035372
  15 H :    0.029650
  16 S :    0.125708
  17 C :   -0.076455
  18 C :   -0.031856
  19 C :   -0.021154
  20 C :   -0.198863
  21 H :   -0.004706
  22 C :    0.120626
  23 H :    0.023085
  24 H :    0.014212
  25 C :   -0.088378
  26 H :    0.023568
  27 H :    0.022419
  28 C :   -0.057443
  29 H :    0.027837
  30 H :    0.055760
  31 H :    0.035348
  32 H :    0.070430
  33 H :    0.050491
Sum of atomic charges:   -0.0000000

LOEWDIN ATOMIC CHARGES
----------------------
   0 S :    0.440919
   1 C :   -0.235746
   2 C :   -0.070700
   3 C :   -0.069918
   4 C :   -0.214571
   5 H :    0.057844
   6 C :   -0.038032
   7 H :    0.024957
   8 H :    0.032538
   9 C :   -0.030499
  10 H :    0.017740
  11 H :    0.021600
  12 C :   -0.068981
  13 H :    0.021746
  14 H :    0.031926
  15 H :    0.026856
  16 S :    0.404876
  17 C :   -0.187848
  18 C :   -0.065720
  19 C :   -0.044659
  20 C :   -0.192935
  21 H :    0.019174
  22 C :   -0.026403
  23 H :    0.029080
  24 H :    0.032400
  25 C :   -0.048285
  26 H :    0.024353
  27 H :    0.025872
  28 C :   -0.075498
  29 H :    0.022272
  30 H :    0.032875
  31 H :    0.034796
  32 H :    0.041654
  33 H :    0.026315

  Mayer bond orders larger than 0.100000
B(  0-S ,  1-C ) :   1.1609 B(  0-S ,  4-C ) :   1.1729 B(  1-C ,  2-C ) :   1.5846
B(  1-C , 32-H ) :   0.9648 B(  2-C ,  3-C ) :   1.2469 B(  2-C ,  6-C ) :   1.0216
B(  3-C ,  4-C ) :   1.5688 B(  3-C ,  5-H ) :   0.9711 B(  4-C , 20-C ) :   1.0129
B(  6-C ,  7-H ) :   0.9497 B(  6-C ,  8-H ) :   0.9429 B(  6-C ,  9-C ) :   1.0747
B(  9-C , 10-H ) :   0.9627 B(  9-C , 11-H ) :   0.9648 B(  9-C , 12-C ) :   1.0523
B( 12-C , 13-H ) :   0.9830 B( 12-C , 14-H ) :   0.9773 B( 12-C , 15-H ) :   0.9813
B( 16-S , 17-C ) :   1.1574 B( 16-S , 20-C ) :   1.1481 B( 17-C , 18-C ) :   1.6116
B( 17-C , 33-H ) :   0.9681 B( 18-C , 19-C ) :   1.2386 B( 18-C , 21-H ) :   0.9959
B( 19-C , 20-C ) :   1.5834 B( 19-C , 22-C ) :   1.0354 B( 22-C , 23-H ) :   0.9308
B( 22-C , 24-H ) :   0.9285 B( 22-C , 25-C ) :   1.0505 B( 25-C , 26-H ) :   0.9572
B( 25-C , 27-H ) :   0.9528 B( 25-C , 28-C ) :   1.0733 B( 28-C , 29-H ) :   0.9739
B( 28-C , 30-H ) :   0.9738 B( 28-C , 31-H ) :   0.9724

Dispersion correction           -0.014277665
FINAL SINGLE POINT ENERGY     -1339.855232910367

DIPOLE MOMENT
-------------
                                X             Y             Z
Electronic contribution:     -4.03603      17.45921      19.41281
Nuclear contribution   :      4.09847     -17.60223     -19.74170
                        -----------------------------------------
Total Dipole Moment    :      0.06244      -0.14303      -0.32889
                        -----------------------------------------
Magnitude (a.u.)       :      0.36404
Magnitude (Debye)      :      0.92531

Rotational constants in cm-1:     0.017222     0.008931     0.006890
Rotational constants in MHz :   516.300317   267.743568   206.561499

                             ****ORCA TERMINATED NORMALLY****
TOTAL RUN TIME: 0 days 0 hours 0 minutes 32 seconds 472 msec
