                         Program Version 4.2.1 -  RELEASE  -
|  1> ! wB97X-D3 SP def2-SVP
|  2> %pal
|  3> nprocs 16
|  4> end
|  5>
|  6> * xyz 0 1
|  7> S 	 -81.2044 	 33.8704 	 132.851
|  8> C 	 -79.4818 	 33.8638 	 133.244
|  9> C 	 -78.9434 	 35.077 	 132.964
| 10> C 	 -79.9395 	 36.0828 	 132.72
| 11> C 	 -81.2059 	 35.6253 	 132.576
| 12> H 	 -79.6161 	 37.107 	 132.542
| 13> C 	 -77.4575 	 35.3288 	 133.12
| 14> H 	 -77.2076 	 35.9264 	 132.327
| 15> H 	 -76.9322 	 34.3693 	 133.074
| 16> C 	 -76.9296 	 35.8578 	 134.454
| 17> H 	 -77.546 	 35.4912 	 135.249
| 18> H 	 -75.9606 	 35.6324 	 134.736
| 19> C 	 -77.0047 	 37.4569 	 134.474
| 20> H 	 -76.6916 	 37.8705 	 133.472
| 21> H 	 -78.0116 	 37.825 	 134.698
| 22> H 	 -76.4335 	 37.8924 	 135.28
| 23> S 	 -83.4656 	 35.6909 	 131.044
| 24> C 	 -84.4448 	 37.0711 	 131.045
| 25> C 	 -84.0154 	 38.011 	 131.981
| 26> C 	 -82.7994 	 37.674 	 132.652
| 27> C 	 -82.4028 	 36.3603 	 132.319
| 28> H 	 -84.4899 	 38.9882 	 132.157
| 29> C 	 -82.1163 	 38.5366 	 133.728
| 30> H 	 -81.4532 	 37.8616 	 134.336
| 31> H 	 -82.8017 	 38.9041 	 134.437
| 32> C 	 -81.5171 	 39.8211 	 133.302
| 33> H 	 -82.3851 	 40.4187 	 133.021
| 34> H 	 -80.9345 	 39.6597 	 132.4
| 35> C 	 -80.5419 	 40.5042 	 134.286
| 36> H 	 -79.7623 	 39.723 	 134.59
| 37> H 	 -81.1107 	 40.7659 	 135.242
| 38> H 	 -80.0771 	 41.3791 	 133.934
| 39> H 	 -78.9477 	 32.8977 	 133.518
| 40> H 	 -85.4713 	 37.0509 	 130.768
| 41> *
| 42>
| 43>                          ****END OF INPUT****

CARTESIAN COORDINATES (ANGSTROEM)
---------------------------------
  S    -81.204400   33.870400  132.851000
  C    -79.481800   33.863800  133.244000
  C    -78.943400   35.077000  132.964000
  C    -79.939500   36.082800  132.720000
  C    -81.205900   35.625300  132.576000
  H    -79.616100   37.107000  132.542000
  C    -77.457500   35.328800  133.120000
  H    -77.207600   35.926400  132.327000
  H    -76.932200   34.369300  133.074000
  C    -76.929600   35.857800  134.454000
  H    -77.546000   35.491200  135.249000
  H    -75.960600   35.632400  134.736000
  C    -77.004700   37.456900  134.474000
  H    -76.691600   37.870500  133.472000
  H    -78.011600   37.825000  134.698000
  H    -76.433500   37.892400  135.280000
  S    -83.465600   35.690900  131.044000
  C    -84.444800   37.071100  131.045000
  C    -84.015400   38.011000  131.981000
  C    -82.799400   37.674000  132.652000
  C    -82.402800   36.360300  132.319000
  H    -84.489900   38.988200  132.157000
  C    -82.116300   38.536600  133.728000
  H    -81.453200   37.861600  134.336000
  H    -82.801700   38.904100  134.437000
  C    -81.517100   39.821100  133.302000
  H    -82.385100   40.418700  133.021000
  H    -80.934500   39.659700  132.400000
  C    -80.541900   40.504200  134.286000
  H    -79.762300   39.723000  134.590000
  H    -81.110700   40.765900  135.242000
  H    -80.077100   41.379100  133.934000
  H    -78.947700   32.897700  133.518000
  H    -85.471300   37.050900  130.768000

 Total Charge           Charge          ....    0
 Multiplicity           Mult            ....    1
 Number of Electrons    NEL             ....  134
 Basis Dimension        Dim             ....  322

ORBITAL ENERGIES
----------------

  NO   OCC          E(Eh)            E(eV)
   0   2.0000     -88.966571     -2420.9035
   1   2.0000     -88.961953     -2420.7778
   2   2.0000     -10.331090      -281.1233
   3   2.0000     -10.329292      -281.0743
   4   2.0000     -10.319731      -280.8142
   5   2.0000     -10.312987      -280.6306
   6   2.0000     -10.310607      -280.5659
   7   2.0000     -10.299296      -280.2581
   8   2.0000     -10.298568      -280.2383
   9   2.0000     -10.294862      -280.1374
  10   2.0000     -10.290063      -280.0068
  11   2.0000     -10.289927      -280.0031
  12   2.0000     -10.286549      -279.9112
  13   2.0000     -10.284860      -279.8653
  14   2.0000     -10.283839      -279.8375
  15   2.0000     -10.283121      -279.8179
  16   2.0000      -8.081869      -219.9188
  17   2.0000      -8.076562      -219.7744
  18   2.0000      -6.040280      -164.3644
  19   2.0000      -6.036189      -164.2531
  20   2.0000      -6.035230      -164.2269
  21   2.0000      -6.032799      -164.1608
  22   2.0000      -6.031169      -164.1164
  23   2.0000      -6.027072      -164.0050
  24   2.0000      -1.008584       -27.4450
  25   2.0000      -0.986096       -26.8330
  26   2.0000      -0.918281       -24.9877
  27   2.0000      -0.912898       -24.8412
  28   2.0000      -0.872553       -23.7434
  29   2.0000      -0.852983       -23.2108
  30   2.0000      -0.840276       -22.8651
  31   2.0000      -0.814401       -22.1610
  32   2.0000      -0.787532       -21.4298
  33   2.0000      -0.773634       -21.0516
  34   2.0000      -0.712173       -19.3792
  35   2.0000      -0.705318       -19.1927
  36   2.0000      -0.695721       -18.9315
  37   2.0000      -0.661466       -17.9994
  38   2.0000      -0.637828       -17.3562
  39   2.0000      -0.623355       -16.9624
  40   2.0000      -0.602451       -16.3935
  41   2.0000      -0.572400       -15.5758
  42   2.0000      -0.570874       -15.5343
  43   2.0000      -0.549345       -14.9484
  44   2.0000      -0.538250       -14.6465
  45   2.0000      -0.527021       -14.3410
  46   2.0000      -0.519532       -14.1372
  47   2.0000      -0.517366       -14.0782
  48   2.0000      -0.512545       -13.9471
  49   2.0000      -0.496044       -13.4980
  50   2.0000      -0.493357       -13.4249
  51   2.0000      -0.479126       -13.0377
  52   2.0000      -0.474851       -12.9214
  53   2.0000      -0.464569       -12.6416
  54   2.0000      -0.459700       -12.5091
  55   2.0000      -0.451085       -12.2746
  56   2.0000      -0.446520       -12.1504
  57   2.0000      -0.438522       -11.9328
  58   2.0000      -0.431944       -11.7538
  59   2.0000      -0.424781       -11.5589
  60   2.0000      -0.415627       -11.3098
  61   2.0000      -0.414377       -11.2758
  62   2.0000      -0.410587       -11.1726
  63   2.0000      -0.354025        -9.6335
  64   2.0000      -0.334590        -9.1047
  65   2.0000      -0.330543        -8.9945
  66   2.0000      -0.290611        -7.9079
  67   0.0000       0.021207         0.5771
  68   0.0000       0.071222         1.9380
  69   0.0000       0.109658         2.9839
  70   0.0000       0.117135         3.1874
  71   0.0000       0.124739         3.3943

MULLIKEN ATOMIC CHARGES
-----------------------
   0 S :    0.088196
   1 C :   -0.156275
   2 C :   -0.098701
   3 C :    0.009731
   4 C :   -0.101126
   5 H :    0.009825
   6 C :    0.103224
   7 H :    0.006695
   8 H :    0.019646
   9 C :   -0.013744
  10 H :    0.020869
  11 H :    0.017839
  12 C :   -0.103339
  13 H :    0.037213
  14 H :    0.032927
  15 H :    0.029655
  16 S :    0.104235
  17 C :   -0.061771
  18 C :   -0.062903
  19 C :   -0.026899
  20 C :   -0.152680
  21 H :    0.027138
  22 C :    0.060023
  23 H :    0.031386
  24 H :    0.009871
  25 C :   -0.084249
  26 H :    0.026673
  27 H :    0.023148
  28 C :   -0.054549
  29 H :    0.043019
  30 H :    0.032568
  31 H :    0.038811
  32 H :    0.079506
  33 H :    0.064038
Sum of atomic charges:    0.0000000

LOEWDIN ATOMIC CHARGES
----------------------
   0 S :    0.375781
   1 C :   -0.189551
   2 C :   -0.067025
   3 C :   -0.061642
   4 C :   -0.186410
   5 H :    0.031847
   6 C :   -0.022042
   7 H :    0.016663
   8 H :    0.036485
   9 C :   -0.025249
  10 H :    0.024910
  11 H :    0.014384
  12 C :   -0.073239
  13 H :    0.026595
  14 H :    0.020074
  15 H :    0.021826
  16 S :    0.421014
  17 C :   -0.208678
  18 C :   -0.070562
  19 C :   -0.046935
  20 C :   -0.183598
  21 H :    0.033030
  22 C :   -0.036534
  23 H :    0.033402
  24 H :    0.026435
  25 C :   -0.046263
  26 H :    0.023480
  27 H :    0.018589
  28 C :   -0.063263
  29 H :    0.034133
  30 H :    0.029472
  31 H :    0.020000
  32 H :    0.044309
  33 H :    0.028558

  Mayer bond orders larger than 0.100000
B(  0-S ,  1-C ) :   1.1278 B(  0-S ,  4-C ) :   1.1251 B(  1-C ,  2-C ) :   1.6260
B(  1-C , 32-H ) :   0.9597 B(  2-C ,  3-C ) :   1.2251 B(  2-C ,  6-C ) :   1.0399
B(  3-C ,  4-C ) :   1.5842 B(  3-C ,  5-H ) :   0.9955 B(  4-C , 20-C ) :   1.0521
B(  6-C ,  7-H ) :   0.9386 B(  6-C ,  8-H ) :   0.9365 B(  6-C ,  9-C ) :   1.0581
B(  9-C , 10-H ) :   0.9531 B(  9-C , 11-H ) :   0.9643 B(  9-C , 12-C ) :   1.0685
B( 12-C , 13-H ) :   0.9796 B( 12-C , 14-H ) :   0.9772 B( 12-C , 15-H ) :   0.9744
B( 16-S , 17-C ) :   1.1768 B( 16-S , 20-C ) :   1.1485 B( 17-C , 18-C ) :   1.5777
B( 17-C , 20-C ) :   0.1093 B( 17-C , 33-H ) :   0.9589 B( 18-C , 19-C ) :   1.2750
B( 18-C , 21-H ) :   0.9809 B( 19-C , 20-C ) :   1.5656 B( 19-C , 22-C ) :   1.0406
B( 22-C , 23-H ) :   0.9412 B( 22-C , 24-H ) :   0.9345 B( 22-C , 25-C ) :   1.0403
B( 25-C , 26-H ) :   0.9543 B( 25-C , 27-H ) :   0.9564 B( 25-C , 28-C ) :   1.0846
B( 28-C , 29-H ) :   0.9722 B( 28-C , 30-H ) :   0.9718 B( 28-C , 31-H ) :   0.9745

Dispersion correction           -0.014836506
FINAL SINGLE POINT ENERGY     -1339.863309064245

DIPOLE MOMENT
-------------
                                X             Y             Z
Electronic contribution:    -20.50346     -21.78885     -13.80053
Nuclear contribution   :     20.92787      22.26061      14.15270
                        -----------------------------------------
Total Dipole Moment    :      0.42440       0.47176       0.35216
                        -----------------------------------------
Magnitude (a.u.)       :      0.72574
Magnitude (Debye)      :      1.84468

Rotational constants in cm-1:     0.016562     0.010476     0.006743
Rotational constants in MHz :   496.527549   314.059158   202.161120

                             ****ORCA TERMINATED NORMALLY****
TOTAL RUN TIME: 0 days 0 hours 0 minutes 35 seconds 785 msec
