                         Program Version 4.2.1 -  RELEASE  -
|  1> ! wB97X-D3 SP def2-SVP
|  2> %pal
|  3> nprocs 16
|  4> end
|  5>
|  6> * xyz 0 1
|  7> S 	 -44.7238 	 0.521165 	 97.7823
|  8> C 	 -45.1134 	 -0.79652 	 96.6486
|  9> C 	 -46.1005 	 -0.41238 	 95.8406
| 10> C 	 -46.518 	 0.973536 	 96.0388
| 11> C 	 -45.7556 	 1.66752 	 96.9877
| 12> H 	 -47.2723 	 1.51054 	 95.3994
| 13> C 	 -46.7073 	 -1.23196 	 94.7403
| 14> H 	 -45.8164 	 -1.66025 	 94.2867
| 15> H 	 -47.1957 	 -0.627855 	 93.9555
| 16> C 	 -47.5314 	 -2.42832 	 95.2243
| 17> H 	 -47.7242 	 -3.11664 	 94.3347
| 18> H 	 -46.9065 	 -3.02239 	 95.8564
| 19> C 	 -48.8812 	 -2.17991 	 95.8076
| 20> H 	 -48.7324 	 -1.49904 	 96.6949
| 21> H 	 -49.6041 	 -1.79016 	 95.1052
| 22> H 	 -49.2881 	 -3.15353 	 96.1219
| 23> S 	 -46.0323 	 3.37552 	 99.2031
| 24> C 	 -46.1168 	 5.07393 	 98.9229
| 25> C 	 -46.0757 	 5.40751 	 97.6169
| 26> C 	 -46.1033 	 4.23845 	 96.7446
| 27> C 	 -45.9524 	 3.04893 	 97.4462
| 28> H 	 -45.9338 	 6.45014 	 97.3953
| 29> C 	 -46.0355 	 4.31163 	 95.2088
| 30> H 	 -46.5141 	 5.21388 	 94.8587
| 31> H 	 -46.6568 	 3.55381 	 94.8815
| 32> C 	 -44.5556 	 4.28311 	 94.739
| 33> H 	 -44.1329 	 3.30733 	 94.9681
| 34> H 	 -43.8957 	 4.85398 	 95.4304
| 35> C 	 -44.4534 	 4.37197 	 93.2245
| 36> H 	 -45.2255 	 4.9866 	 92.7042
| 37> H 	 -44.727 	 3.40586 	 92.7544
| 38> H 	 -43.4898 	 4.7083 	 92.865
| 39> H 	 -44.7837 	 -1.81384 	 96.6527
| 40> H 	 -45.9062 	 5.78566 	 99.7094
| 41> *
| 42>
| 43>                          ****END OF INPUT****

CARTESIAN COORDINATES (ANGSTROEM)
---------------------------------
  S    -44.723800    0.521165   97.782300
  C    -45.113400   -0.796520   96.648600
  C    -46.100500   -0.412380   95.840600
  C    -46.518000    0.973536   96.038800
  C    -45.755600    1.667520   96.987700
  H    -47.272300    1.510540   95.399400
  C    -46.707300   -1.231960   94.740300
  H    -45.816400   -1.660250   94.286700
  H    -47.195700   -0.627855   93.955500
  C    -47.531400   -2.428320   95.224300
  H    -47.724200   -3.116640   94.334700
  H    -46.906500   -3.022390   95.856400
  C    -48.881200   -2.179910   95.807600
  H    -48.732400   -1.499040   96.694900
  H    -49.604100   -1.790160   95.105200
  H    -49.288100   -3.153530   96.121900
  S    -46.032300    3.375520   99.203100
  C    -46.116800    5.073930   98.922900
  C    -46.075700    5.407510   97.616900
  C    -46.103300    4.238450   96.744600
  C    -45.952400    3.048930   97.446200
  H    -45.933800    6.450140   97.395300
  C    -46.035500    4.311630   95.208800
  H    -46.514100    5.213880   94.858700
  H    -46.656800    3.553810   94.881500
  C    -44.555600    4.283110   94.739000
  H    -44.132900    3.307330   94.968100
  H    -43.895700    4.853980   95.430400
  C    -44.453400    4.371970   93.224500
  H    -45.225500    4.986600   92.704200
  H    -44.727000    3.405860   92.754400
  H    -43.489800    4.708300   92.865000
  H    -44.783700   -1.813840   96.652700
  H    -45.906200    5.785660   99.709400

 Total Charge           Charge          ....    0
 Multiplicity           Mult            ....    1
 Number of Electrons    NEL             ....  134
 Basis Dimension        Dim             ....  322

ORBITAL ENERGIES
----------------

  NO   OCC          E(Eh)            E(eV)
   0   2.0000     -88.966927     -2420.9132
   1   2.0000     -88.962404     -2420.7901
   2   2.0000     -10.335308      -281.2380
   3   2.0000     -10.331705      -281.1400
   4   2.0000     -10.311810      -280.5986
   5   2.0000     -10.311022      -280.5772
   6   2.0000     -10.308867      -280.5185
   7   2.0000     -10.300757      -280.2979
   8   2.0000     -10.298568      -280.2383
   9   2.0000     -10.293386      -280.0973
  10   2.0000     -10.292030      -280.0604
  11   2.0000     -10.287729      -279.9433
  12   2.0000     -10.287657      -279.9414
  13   2.0000     -10.287470      -279.9363
  14   2.0000     -10.280714      -279.7524
  15   2.0000     -10.277677      -279.6698
  16   2.0000      -8.081322      -219.9039
  17   2.0000      -8.077356      -219.7960
  18   2.0000      -6.040143      -164.3607
  19   2.0000      -6.035940      -164.2463
  20   2.0000      -6.035788      -164.2421
  21   2.0000      -6.031908      -164.1366
  22   2.0000      -6.031831      -164.1345
  23   2.0000      -6.027945      -164.0287
  24   2.0000      -1.005938       -27.3730
  25   2.0000      -0.985858       -26.8266
  26   2.0000      -0.917650       -24.9705
  27   2.0000      -0.907699       -24.6998
  28   2.0000      -0.873230       -23.7618
  29   2.0000      -0.849151       -23.1066
  30   2.0000      -0.841947       -22.9105
  31   2.0000      -0.816941       -22.2301
  32   2.0000      -0.785887       -21.3851
  33   2.0000      -0.775182       -21.0938
  34   2.0000      -0.711181       -19.3522
  35   2.0000      -0.702900       -19.1269
  36   2.0000      -0.694416       -18.8960
  37   2.0000      -0.658877       -17.9290
  38   2.0000      -0.633883       -17.2488
  39   2.0000      -0.613330       -16.6895
  40   2.0000      -0.593614       -16.1531
  41   2.0000      -0.580157       -15.7869
  42   2.0000      -0.557909       -15.1815
  43   2.0000      -0.552590       -15.0368
  44   2.0000      -0.540386       -14.7046
  45   2.0000      -0.531263       -14.4564
  46   2.0000      -0.515464       -14.0265
  47   2.0000      -0.512093       -13.9348
  48   2.0000      -0.508890       -13.8476
  49   2.0000      -0.499549       -13.5934
  50   2.0000      -0.493845       -13.4382
  51   2.0000      -0.481428       -13.1003
  52   2.0000      -0.473532       -12.8855
  53   2.0000      -0.468202       -12.7404
  54   2.0000      -0.459390       -12.5006
  55   2.0000      -0.453035       -12.3277
  56   2.0000      -0.442926       -12.0526
  57   2.0000      -0.440055       -11.9745
  58   2.0000      -0.430554       -11.7160
  59   2.0000      -0.426891       -11.6163
  60   2.0000      -0.415493       -11.3061
  61   2.0000      -0.405370       -11.0307
  62   2.0000      -0.401674       -10.9301
  63   2.0000      -0.352524        -9.5927
  64   2.0000      -0.329703        -8.9717
  65   2.0000      -0.328119        -8.9286
  66   2.0000      -0.295663        -8.0454
  67   0.0000       0.025550         0.6952
  68   0.0000       0.074929         2.0389
  69   0.0000       0.110930         3.0185
  70   0.0000       0.118606         3.2274
  71   0.0000       0.131519         3.5788

MULLIKEN ATOMIC CHARGES
-----------------------
   0 S :    0.101702
   1 C :   -0.109812
   2 C :   -0.093955
   3 C :    0.005936
   4 C :   -0.140221
   5 H :    0.035510
   6 C :    0.080416
   7 H :    0.026634
   8 H :    0.027448
   9 C :   -0.094721
  10 H :    0.025843
  11 H :    0.013435
  12 C :   -0.036895
  13 H :    0.047860
  14 H :    0.030662
  15 H :    0.033150
  16 S :    0.094466
  17 C :   -0.085042
  18 C :   -0.032596
  19 C :   -0.081125
  20 C :   -0.149421
  21 H :    0.020313
  22 C :    0.133409
  23 H :    0.013952
  24 H :   -0.013788
  25 C :   -0.068016
  26 H :    0.029108
  27 H :    0.034802
  28 C :   -0.033810
  29 H :    0.020339
  30 H :    0.029106
  31 H :    0.038797
  32 H :    0.036630
  33 H :    0.059884
Sum of atomic charges:    0.0000000

LOEWDIN ATOMIC CHARGES
----------------------
   0 S :    0.398977
   1 C :   -0.187390
   2 C :   -0.067131
   3 C :   -0.071676
   4 C :   -0.196741
   5 H :    0.035092
   6 C :   -0.033983
   7 H :    0.037611
   8 H :    0.031170
   9 C :   -0.045865
  10 H :    0.028189
  11 H :    0.016959
  12 C :   -0.068098
  13 H :    0.033153
  14 H :    0.023046
  15 H :    0.030126
  16 S :    0.389149
  17 C :   -0.189269
  18 C :   -0.072558
  19 C :   -0.045539
  20 C :   -0.187172
  21 H :    0.033792
  22 C :   -0.019435
  23 H :    0.027342
  24 H :    0.015220
  25 C :   -0.045883
  26 H :    0.030101
  27 H :    0.031882
  28 C :   -0.071864
  29 H :    0.024196
  30 H :    0.030983
  31 H :    0.025799
  32 H :    0.029371
  33 H :    0.030445

  Mayer bond orders larger than 0.100000
B(  0-S ,  1-C ) :   1.1087 B(  0-S ,  4-C ) :   1.1491 B(  1-C ,  2-C ) :   1.6534
B(  1-C , 32-H ) :   0.9663 B(  2-C ,  3-C ) :   1.2229 B(  2-C ,  6-C ) :   1.0077
B(  3-C ,  4-C ) :   1.5652 B(  3-C ,  5-H ) :   0.9805 B(  4-C , 20-C ) :   1.0583
B(  6-C ,  7-H ) :   0.9320 B(  6-C ,  8-H ) :   0.9490 B(  6-C ,  9-C ) :   1.0769
B(  9-C , 10-H ) :   0.9509 B(  9-C , 11-H ) :   0.9545 B(  9-C , 12-C ) :   1.0885
B( 12-C , 13-H ) :   0.9733 B( 12-C , 14-H ) :   0.9729 B( 12-C , 15-H ) :   0.9693
B( 16-S , 17-C ) :   1.1461 B( 16-S , 20-C ) :   1.1242 B( 17-C , 18-C ) :   1.6613
B( 17-C , 33-H ) :   0.9584 B( 18-C , 19-C ) :   1.2017 B( 18-C , 21-H ) :   0.9927
B( 19-C , 20-C ) :   1.6196 B( 19-C , 22-C ) :   1.0465 B( 22-C , 23-H ) :   0.9320
B( 22-C , 24-H ) :   0.9254 B( 22-C , 25-C ) :   1.0526 B( 25-C , 26-H ) :   0.9523
B( 25-C , 27-H ) :   0.9616 B( 25-C , 28-C ) :   1.0615 B( 28-C , 29-H ) :   0.9756
B( 28-C , 30-H ) :   0.9725 B( 28-C , 31-H ) :   0.9752

Dispersion correction           -0.014405076
FINAL SINGLE POINT ENERGY     -1339.870422937023

DIPOLE MOMENT
-------------
                                X             Y             Z
Electronic contribution:      6.16609       6.14365      23.41155
Nuclear contribution   :     -6.23539      -6.17785     -24.05536
                        -----------------------------------------
Total Dipole Moment    :     -0.06930      -0.03420      -0.64381
                        -----------------------------------------
Magnitude (a.u.)       :      0.64843
Magnitude (Debye)      :      1.64818

Rotational constants in cm-1:     0.018658     0.008534     0.007000
Rotational constants in MHz :   559.343359   255.837589   209.860760

                             ****ORCA TERMINATED NORMALLY****
TOTAL RUN TIME: 0 days 0 hours 0 minutes 30 seconds 97 msec
