                         Program Version 4.2.1 -  RELEASE  -
|  1> ! wB97X-D3 SP def2-SVP
|  2> %pal
|  3> nprocs 16
|  4> end
|  5>
|  6> * xyz 0 1
|  7> S 	 -14.8451 	 -6.45165 	 89.4442
|  8> C 	 -16.568 	 -6.574 	 89.2483
|  9> C 	 -17.0417 	 -7.58918 	 90.0203
| 10> C 	 -16.0188 	 -8.35501 	 90.7671
| 11> C 	 -14.7657 	 -7.91272 	 90.4768
| 12> H 	 -16.1831 	 -9.2056 	 91.472
| 13> C 	 -18.4763 	 -7.86634 	 90.1134
| 14> H 	 -19.1135 	 -6.9835 	 90.3288
| 15> H 	 -18.5231 	 -8.59413 	 90.9036
| 16> C 	 -18.9784 	 -8.38279 	 88.7328
| 17> H 	 -18.9139 	 -7.60058 	 87.9453
| 18> H 	 -18.3863 	 -9.25831 	 88.3931
| 19> C 	 -20.335 	 -9.16652 	 88.7869
| 20> H 	 -20.6327 	 -9.57783 	 87.874
| 21> H 	 -20.3469 	 -9.98239 	 89.4664
| 22> H 	 -21.1134 	 -8.53053 	 89.1458
| 23> S 	 -12.5573 	 -7.2607 	 92.0449
| 24> C 	 -11.7433 	 -8.63056 	 92.8354
| 25> C 	 -11.8288 	 -9.76737 	 92.0804
| 26> C 	 -12.8448 	 -9.63738 	 91.0562
| 27> C 	 -13.4922 	 -8.38334 	 91.0828
| 28> H 	 -11.2886 	 -10.6674 	 92.2732
| 29> C 	 -13.2355 	 -10.7601 	 90.0569
| 30> H 	 -13.0335 	 -10.3018 	 89.0283
| 31> H 	 -14.3072 	 -11.0212 	 90.0294
| 32> C 	 -12.3215 	 -12.0401 	 90.1247
| 33> H 	 -12.3991 	 -12.6222 	 91.0744
| 34> H 	 -11.2529 	 -11.6899 	 90.1793
| 35> C 	 -12.5242 	 -12.9861 	 88.8863
| 36> H 	 -13.5569 	 -13.3149 	 88.8589
| 37> H 	 -12.0146 	 -13.8742 	 89.0976
| 38> H 	 -12.1374 	 -12.5789 	 87.938
| 39> H 	 -17.2815 	 -5.91644 	 88.6582
| 40> H 	 -10.9521 	 -8.65209 	 93.5905
| 41> *
| 42>
| 43>                          ****END OF INPUT****

CARTESIAN COORDINATES (ANGSTROEM)
---------------------------------
  S    -14.845100   -6.451650   89.444200
  C    -16.568000   -6.574000   89.248300
  C    -17.041700   -7.589180   90.020300
  C    -16.018800   -8.355010   90.767100
  C    -14.765700   -7.912720   90.476800
  H    -16.183100   -9.205600   91.472000
  C    -18.476300   -7.866340   90.113400
  H    -19.113500   -6.983500   90.328800
  H    -18.523100   -8.594130   90.903600
  C    -18.978400   -8.382790   88.732800
  H    -18.913900   -7.600580   87.945300
  H    -18.386300   -9.258310   88.393100
  C    -20.335000   -9.166520   88.786900
  H    -20.632700   -9.577830   87.874000
  H    -20.346900   -9.982390   89.466400
  H    -21.113400   -8.530530   89.145800
  S    -12.557300   -7.260700   92.044900
  C    -11.743300   -8.630560   92.835400
  C    -11.828800   -9.767370   92.080400
  C    -12.844800   -9.637380   91.056200
  C    -13.492200   -8.383340   91.082800
  H    -11.288600  -10.667400   92.273200
  C    -13.235500  -10.760100   90.056900
  H    -13.033500  -10.301800   89.028300
  H    -14.307200  -11.021200   90.029400
  C    -12.321500  -12.040100   90.124700
  H    -12.399100  -12.622200   91.074400
  H    -11.252900  -11.689900   90.179300
  C    -12.524200  -12.986100   88.886300
  H    -13.556900  -13.314900   88.858900
  H    -12.014600  -13.874200   89.097600
  H    -12.137400  -12.578900   87.938000
  H    -17.281500   -5.916440   88.658200
  H    -10.952100   -8.652090   93.590500

 Total Charge           Charge          ....    0
 Multiplicity           Mult            ....    1
 Number of Electrons    NEL             ....  134
 Basis Dimension        Dim             ....  322

ORBITAL ENERGIES
----------------

  NO   OCC          E(Eh)            E(eV)
   0   2.0000     -88.965674     -2420.8791
   1   2.0000     -88.962706     -2420.7983
   2   2.0000     -10.334414      -281.2137
   3   2.0000     -10.329095      -281.0690
   4   2.0000     -10.318686      -280.7857
   5   2.0000     -10.314151      -280.6623
   6   2.0000     -10.310975      -280.5759
   7   2.0000     -10.302334      -280.3408
   8   2.0000     -10.302000      -280.3317
   9   2.0000     -10.299022      -280.2506
  10   2.0000     -10.296898      -280.1929
  11   2.0000     -10.295197      -280.1466
  12   2.0000     -10.293497      -280.1003
  13   2.0000     -10.289593      -279.9941
  14   2.0000     -10.279103      -279.7086
  15   2.0000     -10.268732      -279.4264
  16   2.0000      -8.080034      -219.8689
  17   2.0000      -8.077123      -219.7897
  18   2.0000      -6.038668      -164.3205
  19   2.0000      -6.035879      -164.2446
  20   2.0000      -6.034880      -164.2174
  21   2.0000      -6.031672      -164.1301
  22   2.0000      -6.030368      -164.0947
  23   2.0000      -6.027632      -164.0202
  24   2.0000      -1.001955       -27.2646
  25   2.0000      -0.982368       -26.7316
  26   2.0000      -0.911413       -24.8008
  27   2.0000      -0.896356       -24.3911
  28   2.0000      -0.867926       -23.6175
  29   2.0000      -0.846456       -23.0332
  30   2.0000      -0.842698       -22.9310
  31   2.0000      -0.821666       -22.3587
  32   2.0000      -0.777710       -21.1626
  33   2.0000      -0.765961       -20.8429
  34   2.0000      -0.706250       -19.2181
  35   2.0000      -0.702154       -19.1066
  36   2.0000      -0.696131       -18.9427
  37   2.0000      -0.650181       -17.6923
  38   2.0000      -0.636115       -17.3096
  39   2.0000      -0.614964       -16.7340
  40   2.0000      -0.591692       -16.1007
  41   2.0000      -0.567798       -15.4506
  42   2.0000      -0.559452       -15.2235
  43   2.0000      -0.559183       -15.2161
  44   2.0000      -0.523864       -14.2551
  45   2.0000      -0.519947       -14.1485
  46   2.0000      -0.514920       -14.0117
  47   2.0000      -0.512948       -13.9580
  48   2.0000      -0.505715       -13.7612
  49   2.0000      -0.498836       -13.5740
  50   2.0000      -0.491478       -13.3738
  51   2.0000      -0.478974       -13.0335
  52   2.0000      -0.469894       -12.7865
  53   2.0000      -0.465032       -12.6542
  54   2.0000      -0.459546       -12.5049
  55   2.0000      -0.454237       -12.3604
  56   2.0000      -0.448327       -12.1996
  57   2.0000      -0.437478       -11.9044
  58   2.0000      -0.428951       -11.6724
  59   2.0000      -0.425025       -11.5655
  60   2.0000      -0.419082       -11.4038
  61   2.0000      -0.414303       -11.2738
  62   2.0000      -0.405280       -11.0282
  63   2.0000      -0.348099        -9.4723
  64   2.0000      -0.328741        -8.9455
  65   2.0000      -0.319080        -8.6826
  66   2.0000      -0.294502        -8.0138
  67   0.0000       0.030260         0.8234
  68   0.0000       0.059721         1.6251
  69   0.0000       0.102382         2.7860
  70   0.0000       0.119827         3.2607
  71   0.0000       0.133749         3.6395

MULLIKEN ATOMIC CHARGES
-----------------------
   0 S :    0.095507
   1 C :   -0.133539
   2 C :   -0.111828
   3 C :    0.038902
   4 C :   -0.147294
   5 H :    0.039124
   6 C :    0.086114
   7 H :    0.044725
   8 H :    0.008854
   9 C :   -0.124948
  10 H :    0.040112
  11 H :    0.036034
  12 C :   -0.004935
  13 H :    0.020882
  14 H :    0.016041
  15 H :    0.011119
  16 S :    0.111212
  17 C :   -0.062716
  18 C :   -0.048976
  19 C :   -0.039051
  20 C :   -0.163392
  21 H :    0.017363
  22 C :    0.043299
  23 H :    0.049971
  24 H :    0.042558
  25 C :   -0.154320
  26 H :    0.038072
  27 H :    0.036960
  28 C :   -0.003334
  29 H :    0.029297
  30 H :    0.014380
  31 H :    0.047540
  32 H :    0.073001
  33 H :    0.053266
Sum of atomic charges:   -0.0000000

LOEWDIN ATOMIC CHARGES
----------------------
   0 S :    0.381480
   1 C :   -0.210452
   2 C :   -0.067416
   3 C :   -0.064051
   4 C :   -0.178011
   5 H :    0.043717
   6 C :   -0.034852
   7 H :    0.036689
   8 H :    0.026944
   9 C :   -0.039066
  10 H :    0.024681
  11 H :    0.029957
  12 C :   -0.060635
  13 H :    0.018533
  14 H :    0.021158
  15 H :    0.016394
  16 S :    0.394252
  17 C :   -0.177414
  18 C :   -0.070287
  19 C :   -0.050142
  20 C :   -0.202601
  21 H :    0.028759
  22 C :   -0.041045
  23 H :    0.045242
  24 H :    0.031905
  25 C :   -0.051617
  26 H :    0.023441
  27 H :    0.025923
  28 C :   -0.059718
  29 H :    0.026589
  30 H :    0.019584
  31 H :    0.030869
  32 H :    0.047573
  33 H :    0.033616

  Mayer bond orders larger than 0.100000
B(  0-S ,  1-C ) :   1.1121 B(  0-S ,  4-C ) :   1.1335 B(  1-C ,  2-C ) :   1.6443
B(  1-C , 32-H ) :   0.9600 B(  2-C ,  3-C ) :   1.1964 B(  2-C ,  6-C ) :   1.0411
B(  3-C ,  4-C ) :   1.6289 B(  3-C ,  5-H ) :   0.9819 B(  4-C , 20-C ) :   1.0215
B(  6-C ,  7-H ) :   0.9378 B(  6-C ,  8-H ) :   0.9383 B(  6-C ,  9-C ) :   1.0522
B(  9-C , 10-H ) :   0.9585 B(  9-C , 11-H ) :   0.9627 B(  9-C , 12-C ) :   1.0699
B( 12-C , 13-H ) :   0.9766 B( 12-C , 14-H ) :   0.9756 B( 12-C , 15-H ) :   0.9723
B( 16-S , 17-C ) :   1.1407 B( 16-S , 20-C ) :   1.1289 B( 17-C , 18-C ) :   1.6246
B( 17-C , 33-H ) :   0.9567 B( 18-C , 19-C ) :   1.2392 B( 18-C , 21-H ) :   0.9884
B( 19-C , 20-C ) :   1.6028 B( 19-C , 22-C ) :   1.0171 B( 22-C , 23-H ) :   0.9405
B( 22-C , 24-H ) :   0.9404 B( 22-C , 25-C ) :   1.0634 B( 25-C , 26-H ) :   0.9551
B( 25-C , 27-H ) :   0.9519 B( 25-C , 28-C ) :   1.0813 B( 28-C , 29-H ) :   0.9733
B( 28-C , 30-H ) :   0.9705 B( 28-C , 31-H ) :   0.9762

Dispersion correction           -0.013321294
FINAL SINGLE POINT ENERGY     -1339.851375276766

DIPOLE MOMENT
-------------
                                X             Y             Z
Electronic contribution:     15.20724      22.96873       9.90985
Nuclear contribution   :    -15.48623     -23.69778      -9.95506
                        -----------------------------------------
Total Dipole Moment    :     -0.27899      -0.72905      -0.04521
                        -----------------------------------------
Magnitude (a.u.)       :      0.78192
Magnitude (Debye)      :      1.98747

Rotational constants in cm-1:     0.017285     0.007837     0.006000
Rotational constants in MHz :   518.193288   234.937828   179.884868

                             ****ORCA TERMINATED NORMALLY****
TOTAL RUN TIME: 0 days 0 hours 0 minutes 31 seconds 62 msec
