                         Program Version 4.2.1 -  RELEASE  -
|  1> ! wB97X-D3 SP def2-SVP
|  2> %pal
|  3> nprocs 16
|  4> end
|  5>
|  6> * xyz 0 1
|  7> S 	 -94.9828 	 55.2292 	 127.405
|  8> C 	 -93.7563 	 54.1457 	 128
|  9> C 	 -93.6727 	 53.0143 	 127.18
| 10> C 	 -94.793 	 52.9541 	 126.287
| 11> C 	 -95.4892 	 54.1113 	 126.171
| 12> H 	 -95.0016 	 52.2122 	 125.572
| 13> C 	 -92.684 	 51.8314 	 127.428
| 14> H 	 -93.0842 	 50.795 	 127.345
| 15> H 	 -92.2591 	 52.0665 	 128.405
| 16> C 	 -91.4633 	 51.7547 	 126.534
| 17> H 	 -90.7138 	 52.5318 	 126.905
| 18> H 	 -90.9557 	 50.8574 	 126.717
| 19> C 	 -91.669 	 51.8873 	 125.032
| 20> H 	 -92.5408 	 51.4148 	 124.753
| 21> H 	 -91.7692 	 52.9222 	 124.864
| 22> H 	 -90.7927 	 51.5163 	 124.513
| 23> S 	 -98.062 	 54.4505 	 126.182
| 24> C 	 -98.9852 	 54.3726 	 124.739
| 25> C 	 -98.1581 	 54.3225 	 123.633
| 26> C 	 -96.7674 	 54.276 	 123.907
| 27> C 	 -96.6052 	 54.3632 	 125.32
| 28> H 	 -98.6343 	 54.2336 	 122.689
| 29> C 	 -95.7172 	 54.1451 	 122.85
| 30> H 	 -94.758 	 54.3542 	 123.268
| 31> H 	 -95.8343 	 54.93 	 122.108
| 32> C 	 -95.6965 	 52.7203 	 122.327
| 33> H 	 -96.63 	 52.2245 	 122.281
| 34> H 	 -95.1383 	 52.0085 	 122.974
| 35> C 	 -94.9781 	 52.5457 	 120.909
| 36> H 	 -93.9346 	 52.8303 	 120.974
| 37> H 	 -95.4849 	 53.2104 	 120.183
| 38> H 	 -95.104 	 51.49 	 120.6
| 39> H 	 -93.083 	 54.2407 	 128.873
| 40> H 	 -100.057 	 54.2731 	 124.679
| 41> *
| 42>
| 43>                          ****END OF INPUT****

CARTESIAN COORDINATES (ANGSTROEM)
---------------------------------
  S    -94.982800   55.229200  127.405000
  C    -93.756300   54.145700  128.000000
  C    -93.672700   53.014300  127.180000
  C    -94.793000   52.954100  126.287000
  C    -95.489200   54.111300  126.171000
  H    -95.001600   52.212200  125.572000
  C    -92.684000   51.831400  127.428000
  H    -93.084200   50.795000  127.345000
  H    -92.259100   52.066500  128.405000
  C    -91.463300   51.754700  126.534000
  H    -90.713800   52.531800  126.905000
  H    -90.955700   50.857400  126.717000
  C    -91.669000   51.887300  125.032000
  H    -92.540800   51.414800  124.753000
  H    -91.769200   52.922200  124.864000
  H    -90.792700   51.516300  124.513000
  S    -98.062000   54.450500  126.182000
  C    -98.985200   54.372600  124.739000
  C    -98.158100   54.322500  123.633000
  C    -96.767400   54.276000  123.907000
  C    -96.605200   54.363200  125.320000
  H    -98.634300   54.233600  122.689000
  C    -95.717200   54.145100  122.850000
  H    -94.758000   54.354200  123.268000
  H    -95.834300   54.930000  122.108000
  C    -95.696500   52.720300  122.327000
  H    -96.630000   52.224500  122.281000
  H    -95.138300   52.008500  122.974000
  C    -94.978100   52.545700  120.909000
  H    -93.934600   52.830300  120.974000
  H    -95.484900   53.210400  120.183000
  H    -95.104000   51.490000  120.600000
  H    -93.083000   54.240700  128.873000
  H    -100.057000   54.273100  124.679000

 Total Charge           Charge          ....    0
 Multiplicity           Mult            ....    1
 Number of Electrons    NEL             ....  134
 Basis Dimension        Dim             ....  322

ORBITAL ENERGIES
----------------

  NO   OCC          E(Eh)            E(eV)
   0   2.0000     -88.966245     -2420.8946
   1   2.0000     -88.965237     -2420.8672
   2   2.0000     -10.320928      -280.8467
   3   2.0000     -10.320411      -280.8327
   4   2.0000     -10.316964      -280.7389
   5   2.0000     -10.312068      -280.6056
   6   2.0000     -10.307205      -280.4733
   7   2.0000     -10.304668      -280.4043
   8   2.0000     -10.295439      -280.1531
   9   2.0000     -10.291503      -280.0460
  10   2.0000     -10.288948      -279.9765
  11   2.0000     -10.288650      -279.9684
  12   2.0000     -10.285270      -279.8764
  13   2.0000     -10.284369      -279.8519
  14   2.0000     -10.278488      -279.6919
  15   2.0000     -10.263614      -279.2871
  16   2.0000      -8.082596      -219.9386
  17   2.0000      -8.080206      -219.8736
  18   2.0000      -6.040871      -164.3805
  19   2.0000      -6.038747      -164.3227
  20   2.0000      -6.036722      -164.2676
  21   2.0000      -6.034605      -164.2100
  22   2.0000      -6.033634      -164.1835
  23   2.0000      -6.030980      -164.1113
  24   2.0000      -1.016286       -27.6545
  25   2.0000      -0.987859       -26.8810
  26   2.0000      -0.914322       -24.8800
  27   2.0000      -0.911501       -24.8032
  28   2.0000      -0.875014       -23.8103
  29   2.0000      -0.850012       -23.1300
  30   2.0000      -0.844186       -22.9715
  31   2.0000      -0.817138       -22.2355
  32   2.0000      -0.788485       -21.4558
  33   2.0000      -0.774024       -21.0623
  34   2.0000      -0.707416       -19.2498
  35   2.0000      -0.699341       -19.0300
  36   2.0000      -0.692204       -18.8358
  37   2.0000      -0.663076       -18.0432
  38   2.0000      -0.640598       -17.4316
  39   2.0000      -0.617142       -16.7933
  40   2.0000      -0.600629       -16.3439
  41   2.0000      -0.577949       -15.7268
  42   2.0000      -0.558213       -15.1898
  43   2.0000      -0.547569       -14.9001
  44   2.0000      -0.545687       -14.8489
  45   2.0000      -0.533431       -14.5154
  46   2.0000      -0.516671       -14.0593
  47   2.0000      -0.514273       -13.9941
  48   2.0000      -0.509975       -13.8771
  49   2.0000      -0.502825       -13.6826
  50   2.0000      -0.494124       -13.4458
  51   2.0000      -0.477712       -12.9992
  52   2.0000      -0.473588       -12.8870
  53   2.0000      -0.470200       -12.7948
  54   2.0000      -0.462253       -12.5786
  55   2.0000      -0.452132       -12.3031
  56   2.0000      -0.444283       -12.0896
  57   2.0000      -0.438091       -11.9211
  58   2.0000      -0.430532       -11.7154
  59   2.0000      -0.427107       -11.6222
  60   2.0000      -0.419248       -11.4083
  61   2.0000      -0.412724       -11.2308
  62   2.0000      -0.408454       -11.1146
  63   2.0000      -0.344622        -9.3776
  64   2.0000      -0.328748        -8.9457
  65   2.0000      -0.326513        -8.8849
  66   2.0000      -0.297068        -8.0836
  67   0.0000       0.038343         1.0434
  68   0.0000       0.066135         1.7996
  69   0.0000       0.117733         3.2037
  70   0.0000       0.122404         3.3308
  71   0.0000       0.124776         3.3953

MULLIKEN ATOMIC CHARGES
-----------------------
   0 S :    0.115924
   1 C :   -0.122608
   2 C :   -0.099154
   3 C :    0.071080
   4 C :   -0.176946
   5 H :   -0.016186
   6 C :    0.065329
   7 H :    0.043988
   8 H :    0.016010
   9 C :   -0.112552
  10 H :    0.021203
  11 H :    0.012644
  12 C :    0.015361
  13 H :    0.004618
  14 H :    0.029540
  15 H :    0.033560
  16 S :    0.136121
  17 C :   -0.090850
  18 C :   -0.043367
  19 C :   -0.029681
  20 C :   -0.178398
  21 H :    0.003534
  22 C :    0.146595
  23 H :    0.015085
  24 H :    0.032563
  25 C :   -0.111959
  26 H :    0.024138
  27 H :    0.030759
  28 C :   -0.064360
  29 H :    0.038873
  30 H :    0.034765
  31 H :    0.042075
  32 H :    0.059408
  33 H :    0.052887
Sum of atomic charges:    0.0000000

LOEWDIN ATOMIC CHARGES
----------------------
   0 S :    0.410510
   1 C :   -0.207936
   2 C :   -0.062446
   3 C :   -0.060559
   4 C :   -0.206795
   5 H :    0.020610
   6 C :   -0.032195
   7 H :    0.036668
   8 H :    0.031977
   9 C :   -0.045246
  10 H :    0.023913
  11 H :    0.012475
  12 C :   -0.052816
  13 H :    0.010603
  14 H :    0.024189
  15 H :    0.029602
  16 S :    0.460245
  17 C :   -0.200385
  18 C :   -0.068647
  19 C :   -0.045390
  20 C :   -0.223068
  21 H :    0.024890
  22 C :   -0.028086
  23 H :    0.032141
  24 H :    0.035370
  25 C :   -0.039339
  26 H :    0.016636
  27 H :    0.026851
  28 C :   -0.065032
  29 H :    0.022677
  30 H :    0.023321
  31 H :    0.029437
  32 H :    0.037087
  33 H :    0.028734

  Mayer bond orders larger than 0.100000
B(  0-S ,  1-C ) :   1.1429 B(  0-S ,  4-C ) :   1.1393 B(  1-C ,  2-C ) :   1.6144
B(  1-C , 32-H ) :   0.9592 B(  2-C ,  3-C ) :   1.2212 B(  2-C ,  6-C ) :   1.0190
B(  3-C ,  4-C ) :   1.6073 B(  3-C ,  5-H ) :   0.9973 B(  4-C , 20-C ) :   1.0120
B(  6-C ,  7-H ) :   0.9505 B(  6-C ,  8-H ) :   0.9393 B(  6-C ,  9-C ) :   1.0781
B(  9-C , 10-H ) :   0.9557 B(  9-C , 11-H ) :   0.9582 B(  9-C , 12-C ) :   1.0787
B( 12-C , 13-H ) :   0.9750 B( 12-C , 14-H ) :   0.9703 B( 12-C , 15-H ) :   0.9727
B( 16-S , 17-C ) :   1.1709 B( 16-S , 20-C ) :   1.1977 B( 17-C , 18-C ) :   1.5863
B( 17-C , 20-C ) :   0.1031 B( 17-C , 33-H ) :   0.9706 B( 18-C , 19-C ) :   1.2569
B( 18-C , 21-H ) :   0.9957 B( 19-C , 20-C ) :   1.5386 B( 19-C , 22-C ) :   1.0546
B( 22-C , 23-H ) :   0.9178 B( 22-C , 24-H ) :   0.9422 B( 22-C , 25-C ) :   1.0398
B( 25-C , 26-H ) :   0.9689 B( 25-C , 27-H ) :   0.9487 B( 25-C , 28-C ) :   1.0735
B( 28-C , 29-H ) :   0.9768 B( 28-C , 30-H ) :   0.9801 B( 28-C , 31-H ) :   0.9762

Dispersion correction           -0.014888233
FINAL SINGLE POINT ENERGY     -1339.866702248251

DIPOLE MOMENT
-------------
                                X             Y             Z
Electronic contribution:    -19.20091      16.24529      18.36415
Nuclear contribution   :     19.38120     -16.74764     -18.79194
                        -----------------------------------------
Total Dipole Moment    :      0.18030      -0.50235      -0.42779
                        -----------------------------------------
Magnitude (a.u.)       :      0.68401
Magnitude (Debye)      :      1.73862

Rotational constants in cm-1:     0.016360     0.010646     0.007023
Rotational constants in MHz :   490.469428   319.165866   210.553004

                             ****ORCA TERMINATED NORMALLY****
TOTAL RUN TIME: 0 days 0 hours 0 minutes 33 seconds 467 msec
