                         Program Version 4.2.1 -  RELEASE  -
|  1> ! wB97X-D3 SP def2-SVP
|  2> %pal
|  3> nprocs 16
|  4> end
|  5>
|  6> * xyz 0 1
|  7> S 	 -22.7714 	 -0.568477 	 78.1493
|  8> C 	 -21.0766 	 -0.932851 	 77.8382
|  9> C 	 -20.2278 	 -0.243529 	 78.7029
| 10> C 	 -21.0234 	 0.509274 	 79.6653
| 11> C 	 -22.3938 	 0.474456 	 79.4158
| 12> H 	 -20.5621 	 1.07054 	 80.485
| 13> C 	 -18.7023 	 -0.418454 	 78.7614
| 14> H 	 -18.2909 	 0.563554 	 78.7824
| 15> H 	 -18.4162 	 -0.843048 	 77.7757
| 16> C 	 -18.1068 	 -1.20748 	 80.0223
| 17> H 	 -19.0508 	 -1.3714 	 80.6571
| 18> H 	 -17.8335 	 -2.29771 	 79.9311
| 19> C 	 -17.2701 	 -0.413057 	 81.0407
| 20> H 	 -16.1831 	 -0.257348 	 80.8702
| 21> H 	 -17.6836 	 0.548063 	 81.011
| 22> H 	 -17.4527 	 -0.764601 	 82.0333
| 23> S 	 -24.6406 	 2.0069 	 79.2319
| 24> C 	 -25.3555 	 2.62128 	 80.6571
| 25> C 	 -24.5938 	 2.28628 	 81.7615
| 26> C 	 -23.4611 	 1.44699 	 81.531
| 27> C 	 -23.4703 	 1.09087 	 80.1653
| 28> H 	 -24.7941 	 2.76439 	 82.7325
| 29> C 	 -22.6401 	 0.82057 	 82.6611
| 30> H 	 -22.1747 	 1.64621 	 83.1477
| 31> H 	 -21.8314 	 0.231516 	 82.2059
| 32> C 	 -23.4223 	 0.010557 	 83.664
| 33> H 	 -23.9031 	 -0.948866 	 83.3106
| 34> H 	 -24.1935 	 0.696837 	 84.0927
| 35> C 	 -22.5082 	 -0.597394 	 84.7482
| 36> H 	 -23.1634 	 -0.931255 	 85.555
| 37> H 	 -21.848 	 0.240609 	 85.1433
| 38> H 	 -21.8537 	 -1.44972 	 84.453
| 39> H 	 -20.6794 	 -1.72109 	 77.0967
| 40> H 	 -26.2564 	 3.14522 	 80.7358
| 41> *
| 42>
| 43>                          ****END OF INPUT****

CARTESIAN COORDINATES (ANGSTROEM)
---------------------------------
  S    -22.771400   -0.568477   78.149300
  C    -21.076600   -0.932851   77.838200
  C    -20.227800   -0.243529   78.702900
  C    -21.023400    0.509274   79.665300
  C    -22.393800    0.474456   79.415800
  H    -20.562100    1.070540   80.485000
  C    -18.702300   -0.418454   78.761400
  H    -18.290900    0.563554   78.782400
  H    -18.416200   -0.843048   77.775700
  C    -18.106800   -1.207480   80.022300
  H    -19.050800   -1.371400   80.657100
  H    -17.833500   -2.297710   79.931100
  C    -17.270100   -0.413057   81.040700
  H    -16.183100   -0.257348   80.870200
  H    -17.683600    0.548063   81.011000
  H    -17.452700   -0.764601   82.033300
  S    -24.640600    2.006900   79.231900
  C    -25.355500    2.621280   80.657100
  C    -24.593800    2.286280   81.761500
  C    -23.461100    1.446990   81.531000
  C    -23.470300    1.090870   80.165300
  H    -24.794100    2.764390   82.732500
  C    -22.640100    0.820570   82.661100
  H    -22.174700    1.646210   83.147700
  H    -21.831400    0.231516   82.205900
  C    -23.422300    0.010557   83.664000
  H    -23.903100   -0.948866   83.310600
  H    -24.193500    0.696837   84.092700
  C    -22.508200   -0.597394   84.748200
  H    -23.163400   -0.931255   85.555000
  H    -21.848000    0.240609   85.143300
  H    -21.853700   -1.449720   84.453000
  H    -20.679400   -1.721090   77.096700
  H    -26.256400    3.145220   80.735800

 Total Charge           Charge          ....    0
 Multiplicity           Mult            ....    1
 Number of Electrons    NEL             ....  134
 Basis Dimension        Dim             ....  322

ORBITAL ENERGIES
----------------

  NO   OCC          E(Eh)            E(eV)
   0   2.0000     -88.967110     -2420.9181
   1   2.0000     -88.966170     -2420.8926
   2   2.0000     -10.326352      -280.9943
   3   2.0000     -10.324687      -280.9490
   4   2.0000     -10.320328      -280.8304
   5   2.0000     -10.311500      -280.5902
   6   2.0000     -10.306088      -280.4429
   7   2.0000     -10.305585      -280.4292
   8   2.0000     -10.302254      -280.3386
   9   2.0000     -10.301343      -280.3138
  10   2.0000     -10.296881      -280.1924
  11   2.0000     -10.293978      -280.1134
  12   2.0000     -10.293760      -280.1075
  13   2.0000     -10.293536      -280.1013
  14   2.0000     -10.286371      -279.9064
  15   2.0000     -10.278151      -279.6827
  16   2.0000      -8.082518      -219.9365
  17   2.0000      -8.081986      -219.9220
  18   2.0000      -6.040931      -164.3821
  19   2.0000      -6.040352      -164.3663
  20   2.0000      -6.036894      -164.2722
  21   2.0000      -6.036319      -164.2566
  22   2.0000      -6.033375      -164.1765
  23   2.0000      -6.032829      -164.1616
  24   2.0000      -1.011479       -27.5237
  25   2.0000      -0.985732       -26.8231
  26   2.0000      -0.913893       -24.8683
  27   2.0000      -0.905451       -24.6386
  28   2.0000      -0.868881       -23.6434
  29   2.0000      -0.854254       -23.2454
  30   2.0000      -0.843311       -22.9477
  31   2.0000      -0.810230       -22.0475
  32   2.0000      -0.786435       -21.4000
  33   2.0000      -0.773355       -21.0441
  34   2.0000      -0.705039       -19.1851
  35   2.0000      -0.695242       -18.9185
  36   2.0000      -0.694229       -18.8909
  37   2.0000      -0.658084       -17.9074
  38   2.0000      -0.632277       -17.2051
  39   2.0000      -0.619981       -16.8705
  40   2.0000      -0.599234       -16.3060
  41   2.0000      -0.568448       -15.4683
  42   2.0000      -0.564895       -15.3716
  43   2.0000      -0.547772       -14.9056
  44   2.0000      -0.529666       -14.4130
  45   2.0000      -0.526003       -14.3133
  46   2.0000      -0.518510       -14.1094
  47   2.0000      -0.510258       -13.8848
  48   2.0000      -0.506240       -13.7755
  49   2.0000      -0.496716       -13.5163
  50   2.0000      -0.493109       -13.4182
  51   2.0000      -0.485821       -13.2199
  52   2.0000      -0.469688       -12.7809
  53   2.0000      -0.463130       -12.6024
  54   2.0000      -0.456232       -12.4147
  55   2.0000      -0.450739       -12.2652
  56   2.0000      -0.448628       -12.2078
  57   2.0000      -0.439455       -11.9582
  58   2.0000      -0.436692       -11.8830
  59   2.0000      -0.429432       -11.6855
  60   2.0000      -0.425859       -11.5882
  61   2.0000      -0.406932       -11.0732
  62   2.0000      -0.401323       -10.9206
  63   2.0000      -0.348525        -9.4838
  64   2.0000      -0.333204        -9.0669
  65   2.0000      -0.329510        -8.9664
  66   2.0000      -0.288397        -7.8477
  67   0.0000       0.027948         0.7605
  68   0.0000       0.077428         2.1069
  69   0.0000       0.108924         2.9640
  70   0.0000       0.114387         3.1126
  71   0.0000       0.127262         3.4630

MULLIKEN ATOMIC CHARGES
-----------------------
   0 S :    0.117683
   1 C :   -0.149340
   2 C :   -0.129786
   3 C :    0.005657
   4 C :   -0.140843
   5 H :    0.017899
   6 C :    0.115101
   7 H :    0.023814
   8 H :    0.026956
   9 C :   -0.141931
  10 H :    0.038601
  11 H :    0.047533
  12 C :   -0.023005
  13 H :    0.044988
  14 H :    0.004668
  15 H :    0.030597
  16 S :    0.114452
  17 C :   -0.058847
  18 C :   -0.064982
  19 C :   -0.044751
  20 C :   -0.135905
  21 H :    0.023410
  22 C :    0.094611
  23 H :    0.018551
  24 H :    0.020128
  25 C :   -0.090784
  26 H :    0.048268
  27 H :    0.037233
  28 C :   -0.082343
  29 H :    0.039021
  30 H :    0.026975
  31 H :    0.051730
  32 H :    0.076052
  33 H :    0.038589
Sum of atomic charges:    0.0000000

LOEWDIN ATOMIC CHARGES
----------------------
   0 S :    0.432690
   1 C :   -0.214758
   2 C :   -0.065367
   3 C :   -0.074113
   4 C :   -0.217310
   5 H :    0.029372
   6 C :   -0.027817
   7 H :    0.028902
   8 H :    0.034558
   9 C :   -0.059160
  10 H :    0.037609
  11 H :    0.031483
  12 C :   -0.065526
  13 H :    0.026867
  14 H :    0.016838
  15 H :    0.026325
  16 S :    0.425773
  17 C :   -0.193573
  18 C :   -0.072917
  19 C :   -0.051035
  20 C :   -0.201872
  21 H :    0.030441
  22 C :   -0.031958
  23 H :    0.029650
  24 H :    0.030966
  25 C :   -0.045899
  26 H :    0.036367
  27 H :    0.027701
  28 C :   -0.073379
  29 H :    0.027704
  30 H :    0.024454
  31 H :    0.029951
  32 H :    0.045776
  33 H :    0.021256

  Mayer bond orders larger than 0.100000
B(  0-S ,  1-C ) :   1.1379 B(  0-S ,  4-C ) :   1.1737 B(  1-C ,  2-C ) :   1.6189
B(  1-C , 32-H ) :   0.9543 B(  2-C ,  3-C ) :   1.2424 B(  2-C ,  6-C ) :   1.0416
B(  3-C ,  4-C ) :   1.5594 B(  3-C ,  5-H ) :   0.9874 B(  4-C , 20-C ) :   1.0154
B(  6-C ,  7-H ) :   0.9392 B(  6-C ,  8-H ) :   0.9415 B(  6-C ,  9-C ) :   1.0206
B(  9-C , 10-H ) :   0.9673 B(  9-C , 11-H ) :   0.9595 B(  9-C , 12-C ) :   1.0619
B( 12-C , 13-H ) :   0.9744 B( 12-C , 14-H ) :   0.9714 B( 12-C , 15-H ) :   0.9764
B( 16-S , 17-C ) :   1.1578 B( 16-S , 20-C ) :   1.1628 B( 17-C , 18-C ) :   1.5937
B( 17-C , 20-C ) :   0.1028 B( 17-C , 33-H ) :   0.9754 B( 18-C , 19-C ) :   1.2579
B( 18-C , 21-H ) :   0.9822 B( 19-C , 20-C ) :   1.5689 B( 19-C , 22-C ) :   1.0401
B( 22-C , 23-H ) :   0.9176 B( 22-C , 24-H ) :   0.9357 B( 22-C , 25-C ) :   1.0788
B( 25-C , 26-H ) :   0.9554 B( 25-C , 27-H ) :   0.9503 B( 25-C , 28-C ) :   1.0749
B( 28-C , 29-H ) :   0.9741 B( 28-C , 30-H ) :   0.9732 B( 28-C , 31-H ) :   0.9761

Dispersion correction           -0.013791251
FINAL SINGLE POINT ENERGY     -1339.861220468432

DIPOLE MOMENT
-------------
                                X             Y             Z
Electronic contribution:    -21.34321       7.24915     -22.63940
Nuclear contribution   :     21.68511      -7.25786      23.26343
                        -----------------------------------------
Total Dipole Moment    :      0.34190      -0.00871       0.62403
                        -----------------------------------------
Magnitude (a.u.)       :      0.71161
Magnitude (Debye)      :      1.80876

Rotational constants in cm-1:     0.015975     0.009582     0.006696
Rotational constants in MHz :   478.928185   287.258824   200.741882

                             ****ORCA TERMINATED NORMALLY****
TOTAL RUN TIME: 0 days 0 hours 0 minutes 33 seconds 876 msec
