                         Program Version 4.2.1 -  RELEASE  -
|  1> ! wB97X-D3 SP def2-SVP
|  2> %pal
|  3> nprocs 16
|  4> end
|  5>
|  6> * xyz 0 1
|  7> S 	 -45.9141 	 39.1207 	 85.5147
|  8> C 	 -47.4705 	 38.3496 	 85.6723
|  9> C 	 -48.1513 	 38.4129 	 84.5053
| 10> C 	 -47.5586 	 39.2095 	 83.5393
| 11> C 	 -46.3904 	 39.7741 	 83.9739
| 12> H 	 -47.9117 	 39.3177 	 82.5677
| 13> C 	 -49.4572 	 37.7385 	 84.1354
| 14> H 	 -48.9851 	 36.7729 	 83.9627
| 15> H 	 -49.8661 	 38.1133 	 83.215
| 16> C 	 -50.5671 	 37.8175 	 85.2096
| 17> H 	 -51.3466 	 37.0685 	 85.0792
| 18> H 	 -50.0881 	 37.6755 	 86.1206
| 19> C 	 -51.2123 	 39.2 	 85.1666
| 20> H 	 -52.0002 	 39.3195 	 84.4064
| 21> H 	 -51.9236 	 39.3411 	 85.9925
| 22> H 	 -50.381 	 39.9742 	 85.1547
| 23> S 	 -43.9268 	 40.9487 	 83.7008
| 24> C 	 -43.6147 	 42.0665 	 82.4129
| 25> C 	 -44.7656 	 42.4067 	 81.7959
| 26> C 	 -45.9189 	 41.7399 	 82.3239
| 27> C 	 -45.5996 	 40.7975 	 83.3066
| 28> H 	 -44.7043 	 43.1284 	 81.0219
| 29> C 	 -47.3295 	 42.0915 	 81.8841
| 30> H 	 -47.7273 	 41.1721 	 81.5575
| 31> H 	 -47.1666 	 42.7932 	 81.0304
| 32> C 	 -48.3571 	 42.5742 	 83.01
| 33> H 	 -48.4102 	 41.8095 	 83.8203
| 34> H 	 -49.3375 	 42.5918 	 82.5714
| 35> C 	 -47.9526 	 43.9208 	 83.535
| 36> H 	 -48.6206 	 44.2938 	 84.3106
| 37> H 	 -47.9851 	 44.764 	 82.7881
| 38> H 	 -46.9847 	 43.9533 	 83.9965
| 39> H 	 -47.8241 	 37.7832 	 86.4742
| 40> H 	 -42.6273 	 42.4109 	 82.1957
| 41> *
| 42>
| 43>                          ****END OF INPUT****

CARTESIAN COORDINATES (ANGSTROEM)
---------------------------------
  S    -45.914100   39.120700   85.514700
  C    -47.470500   38.349600   85.672300
  C    -48.151300   38.412900   84.505300
  C    -47.558600   39.209500   83.539300
  C    -46.390400   39.774100   83.973900
  H    -47.911700   39.317700   82.567700
  C    -49.457200   37.738500   84.135400
  H    -48.985100   36.772900   83.962700
  H    -49.866100   38.113300   83.215000
  C    -50.567100   37.817500   85.209600
  H    -51.346600   37.068500   85.079200
  H    -50.088100   37.675500   86.120600
  C    -51.212300   39.200000   85.166600
  H    -52.000200   39.319500   84.406400
  H    -51.923600   39.341100   85.992500
  H    -50.381000   39.974200   85.154700
  S    -43.926800   40.948700   83.700800
  C    -43.614700   42.066500   82.412900
  C    -44.765600   42.406700   81.795900
  C    -45.918900   41.739900   82.323900
  C    -45.599600   40.797500   83.306600
  H    -44.704300   43.128400   81.021900
  C    -47.329500   42.091500   81.884100
  H    -47.727300   41.172100   81.557500
  H    -47.166600   42.793200   81.030400
  C    -48.357100   42.574200   83.010000
  H    -48.410200   41.809500   83.820300
  H    -49.337500   42.591800   82.571400
  C    -47.952600   43.920800   83.535000
  H    -48.620600   44.293800   84.310600
  H    -47.985100   44.764000   82.788100
  H    -46.984700   43.953300   83.996500
  H    -47.824100   37.783200   86.474200
  H    -42.627300   42.410900   82.195700

 Total Charge           Charge          ....    0
 Multiplicity           Mult            ....    1
 Number of Electrons    NEL             ....  134
 Basis Dimension        Dim             ....  322

ORBITAL ENERGIES
----------------

  NO   OCC          E(Eh)            E(eV)
   0   2.0000     -88.966946     -2420.9137
   1   2.0000     -88.960733     -2420.7446
   2   2.0000     -10.329424      -281.0779
   3   2.0000     -10.324491      -280.9437
   4   2.0000     -10.312370      -280.6138
   5   2.0000     -10.304034      -280.3870
   6   2.0000     -10.302991      -280.3586
   7   2.0000     -10.292600      -280.0759
   8   2.0000     -10.291790      -280.0538
   9   2.0000     -10.289518      -279.9920
  10   2.0000     -10.289329      -279.9869
  11   2.0000     -10.288853      -279.9739
  12   2.0000     -10.284867      -279.8655
  13   2.0000     -10.283693      -279.8335
  14   2.0000     -10.281806      -279.7822
  15   2.0000     -10.271163      -279.4926
  16   2.0000      -8.082005      -219.9225
  17   2.0000      -8.076694      -219.7780
  18   2.0000      -6.040581      -164.3726
  19   2.0000      -6.036612      -164.2646
  20   2.0000      -6.035119      -164.2239
  21   2.0000      -6.032540      -164.1538
  22   2.0000      -6.031040      -164.1129
  23   2.0000      -6.027486      -164.0162
  24   2.0000      -1.016259       -27.6538
  25   2.0000      -0.993825       -27.0433
  26   2.0000      -0.917596       -24.9691
  27   2.0000      -0.903601       -24.5882
  28   2.0000      -0.873706       -23.7748
  29   2.0000      -0.856819       -23.3152
  30   2.0000      -0.846571       -23.0364
  31   2.0000      -0.819669       -22.3043
  32   2.0000      -0.782246       -21.2860
  33   2.0000      -0.772561       -21.0225
  34   2.0000      -0.717541       -19.5253
  35   2.0000      -0.706626       -19.2283
  36   2.0000      -0.691710       -18.8224
  37   2.0000      -0.668134       -18.1808
  38   2.0000      -0.643169       -17.5015
  39   2.0000      -0.617340       -16.7987
  40   2.0000      -0.587837       -15.9959
  41   2.0000      -0.582170       -15.8417
  42   2.0000      -0.571112       -15.5407
  43   2.0000      -0.554225       -15.0812
  44   2.0000      -0.548176       -14.9166
  45   2.0000      -0.540041       -14.6953
  46   2.0000      -0.513414       -13.9707
  47   2.0000      -0.510369       -13.8878
  48   2.0000      -0.505961       -13.7679
  49   2.0000      -0.496511       -13.5108
  50   2.0000      -0.485921       -13.2226
  51   2.0000      -0.482794       -13.1375
  52   2.0000      -0.474585       -12.9141
  53   2.0000      -0.469561       -12.7774
  54   2.0000      -0.460074       -12.5192
  55   2.0000      -0.454302       -12.3622
  56   2.0000      -0.447441       -12.1755
  57   2.0000      -0.439193       -11.9511
  58   2.0000      -0.430826       -11.7234
  59   2.0000      -0.419173       -11.4063
  60   2.0000      -0.418689       -11.3931
  61   2.0000      -0.416236       -11.3264
  62   2.0000      -0.409746       -11.1497
  63   2.0000      -0.361749        -9.8437
  64   2.0000      -0.335896        -9.1402
  65   2.0000      -0.324337        -8.8256
  66   2.0000      -0.280823        -7.6416
  67   0.0000       0.019019         0.5175
  68   0.0000       0.086048         2.3415
  69   0.0000       0.098978         2.6933
  70   0.0000       0.130572         3.5530
  71   0.0000       0.135059         3.6751

MULLIKEN ATOMIC CHARGES
-----------------------
   0 S :    0.111987
   1 C :   -0.114140
   2 C :   -0.092844
   3 C :   -0.015179
   4 C :   -0.083041
   5 H :   -0.017577
   6 C :    0.072308
   7 H :    0.046886
   8 H :    0.013496
   9 C :   -0.014509
  10 H :    0.028318
  11 H :    0.008348
  12 C :   -0.088505
  13 H :    0.027107
  14 H :    0.025694
  15 H :    0.062630
  16 S :    0.085305
  17 C :   -0.078182
  18 C :   -0.016335
  19 C :   -0.084987
  20 C :   -0.123547
  21 H :    0.002976
  22 C :    0.077576
  23 H :    0.011168
  24 H :    0.025259
  25 C :   -0.054000
  26 H :    0.057327
  27 H :    0.025890
  28 C :   -0.053289
  29 H :    0.023588
  30 H :    0.025281
  31 H :    0.038080
  32 H :    0.017440
  33 H :    0.049470
Sum of atomic charges:    0.0000000

LOEWDIN ATOMIC CHARGES
----------------------
   0 S :    0.408741
   1 C :   -0.203005
   2 C :   -0.061548
   3 C :   -0.065771
   4 C :   -0.177035
   5 H :    0.020836
   6 C :   -0.025462
   7 H :    0.040911
   8 H :    0.022912
   9 C :   -0.031923
  10 H :    0.025669
  11 H :    0.012606
  12 C :   -0.075736
  13 H :    0.026729
  14 H :    0.027543
  15 H :    0.036047
  16 S :    0.410177
  17 C :   -0.178038
  18 C :   -0.071786
  19 C :   -0.058759
  20 C :   -0.204433
  21 H :    0.027760
  22 C :   -0.028516
  23 H :    0.019987
  24 H :    0.034105
  25 C :   -0.033846
  26 H :    0.032927
  27 H :    0.022905
  28 C :   -0.073038
  29 H :    0.024355
  30 H :    0.027359
  31 H :    0.025190
  32 H :    0.015947
  33 H :    0.026189

  Mayer bond orders larger than 0.100000
B(  0-S ,  1-C ) :   1.1140 B(  0-S ,  4-C ) :   1.1596 B(  1-C ,  2-C ) :   1.6175
B(  1-C , 32-H ) :   0.9740 B(  2-C ,  3-C ) :   1.2550 B(  2-C ,  6-C ) :   0.9820
B(  3-C ,  4-C ) :   1.5314 B(  3-C ,  5-H ) :   1.0190 B(  4-C , 20-C ) :   1.0768
B(  6-C ,  7-H ) :   0.9325 B(  6-C ,  8-H ) :   0.9505 B(  6-C ,  9-C ) :   1.0687
B(  9-C , 10-H ) :   0.9526 B(  9-C , 11-H ) :   0.9591 B(  9-C , 12-C ) :   1.0802
B( 12-C , 13-H ) :   0.9704 B( 12-C , 14-H ) :   0.9689 B( 12-C , 15-H ) :   0.9737
B( 16-S , 17-C ) :   1.1604 B( 16-S , 20-C ) :   1.1411 B( 17-C , 18-C ) :   1.5980
B( 17-C , 33-H ) :   0.9725 B( 18-C , 19-C ) :   1.2452 B( 18-C , 21-H ) :   1.0027
B( 19-C , 20-C ) :   1.5585 B( 19-C , 22-C ) :   1.0332 B( 22-C , 23-H ) :   0.9276
B( 22-C , 24-H ) :   0.9371 B( 22-C , 25-C ) :   1.0671 B( 25-C , 26-H ) :   0.9476
B( 25-C , 27-H ) :   0.9542 B( 25-C , 28-C ) :   1.0808 B( 28-C , 29-H ) :   0.9711
B( 28-C , 30-H ) :   0.9737 B( 28-C , 31-H ) :   0.9760

Dispersion correction           -0.015446029
FINAL SINGLE POINT ENERGY     -1339.867617771298

DIPOLE MOMENT
-------------
                                X             Y             Z
Electronic contribution:     27.65250      -5.57885       2.84994
Nuclear contribution   :    -28.23604       5.61667      -3.18253
                        -----------------------------------------
Total Dipole Moment    :     -0.58354       0.03781      -0.33258
                        -----------------------------------------
Magnitude (a.u.)       :      0.67273
Magnitude (Debye)      :      1.70993

Rotational constants in cm-1:     0.021362     0.009473     0.007338
Rotational constants in MHz :   640.402282   283.991811   219.978538

                             ****ORCA TERMINATED NORMALLY****
TOTAL RUN TIME: 0 days 0 hours 0 minutes 32 seconds 462 msec
