                         Program Version 4.2.1 -  RELEASE  -
|  1> ! wB97X-D3 SP def2-SVP
|  2> %pal
|  3> nprocs 16
|  4> end
|  5>
|  6> * xyz 0 1
|  7> S 	 -33.2012 	 61.8576 	 109.699
|  8> C 	 -32.6946 	 60.4371 	 108.9
|  9> C 	 -31.9411 	 59.6721 	 109.799
| 10> C 	 -31.6459 	 60.3983 	 110.975
| 11> C 	 -32.1647 	 61.6941 	 111.079
| 12> H 	 -31.2157 	 59.9201 	 111.817
| 13> C 	 -31.4298 	 58.3222 	 109.451
| 14> H 	 -31.7355 	 58.0057 	 108.412
| 15> H 	 -31.7783 	 57.5727 	 110.088
| 16> C 	 -29.8996 	 58.1005 	 109.604
| 17> H 	 -29.2905 	 58.6425 	 108.984
| 18> H 	 -29.6827 	 58.5756 	 110.569
| 19> C 	 -29.4449 	 56.6212 	 109.671
| 20> H 	 -29.8245 	 56.0911 	 110.522
| 21> H 	 -29.7284 	 56.085 	 108.774
| 22> H 	 -28.3512 	 56.5143 	 109.669
| 23> S 	 -33.5144 	 63.5268 	 112.52
| 24> C 	 -32.7428 	 64.4098 	 113.823
| 25> C 	 -31.4645 	 63.9725 	 114.033
| 26> C 	 -31.1094 	 62.9223 	 113.143
| 27> C 	 -32.0791 	 62.6392 	 112.16
| 28> H 	 -30.9788 	 64.3387 	 114.917
| 29> C 	 -29.7502 	 62.2719 	 113.349
| 30> H 	 -29.5284 	 61.5337 	 112.533
| 31> H 	 -29.6665 	 61.6956 	 114.293
| 32> C 	 -28.7095 	 63.2588 	 113.381
| 33> H 	 -28.9056 	 63.957 	 114.19
| 34> H 	 -28.7834 	 63.78 	 112.447
| 35> C 	 -27.3899 	 62.666 	 113.352
| 36> H 	 -26.5635 	 63.3374 	 113.5
| 37> H 	 -27.2745 	 62.0136 	 112.449
| 38> H 	 -27.3849 	 61.8633 	 114.101
| 39> H 	 -33.0916 	 60.063 	 107.957
| 40> H 	 -33.1086 	 65.2849 	 114.323
| 41> *
| 42>
| 43>                          ****END OF INPUT****

CARTESIAN COORDINATES (ANGSTROEM)
---------------------------------
  S    -33.201200   61.857600  109.699000
  C    -32.694600   60.437100  108.900000
  C    -31.941100   59.672100  109.799000
  C    -31.645900   60.398300  110.975000
  C    -32.164700   61.694100  111.079000
  H    -31.215700   59.920100  111.817000
  C    -31.429800   58.322200  109.451000
  H    -31.735500   58.005700  108.412000
  H    -31.778300   57.572700  110.088000
  C    -29.899600   58.100500  109.604000
  H    -29.290500   58.642500  108.984000
  H    -29.682700   58.575600  110.569000
  C    -29.444900   56.621200  109.671000
  H    -29.824500   56.091100  110.522000
  H    -29.728400   56.085000  108.774000
  H    -28.351200   56.514300  109.669000
  S    -33.514400   63.526800  112.520000
  C    -32.742800   64.409800  113.823000
  C    -31.464500   63.972500  114.033000
  C    -31.109400   62.922300  113.143000
  C    -32.079100   62.639200  112.160000
  H    -30.978800   64.338700  114.917000
  C    -29.750200   62.271900  113.349000
  H    -29.528400   61.533700  112.533000
  H    -29.666500   61.695600  114.293000
  C    -28.709500   63.258800  113.381000
  H    -28.905600   63.957000  114.190000
  H    -28.783400   63.780000  112.447000
  C    -27.389900   62.666000  113.352000
  H    -26.563500   63.337400  113.500000
  H    -27.274500   62.013600  112.449000
  H    -27.384900   61.863300  114.101000
  H    -33.091600   60.063000  107.957000
  H    -33.108600   65.284900  114.323000

 Total Charge           Charge          ....    0
 Multiplicity           Mult            ....    1
 Number of Electrons    NEL             ....  134
 Basis Dimension        Dim             ....  322

ORBITAL ENERGIES
----------------

  NO   OCC          E(Eh)            E(eV)
   0   2.0000     -88.966612     -2420.9046
   1   2.0000     -88.966531     -2420.9024
   2   2.0000     -10.333414      -281.1865
   3   2.0000     -10.331820      -281.1431
   4   2.0000     -10.315484      -280.6986
   5   2.0000     -10.315408      -280.6965
   6   2.0000     -10.306799      -280.4623
   7   2.0000     -10.300958      -280.3033
   8   2.0000     -10.292051      -280.0609
   9   2.0000     -10.292020      -280.0601
  10   2.0000     -10.291266      -280.0396
  11   2.0000     -10.287625      -279.9405
  12   2.0000     -10.281044      -279.7614
  13   2.0000     -10.279243      -279.7124
  14   2.0000     -10.272789      -279.5368
  15   2.0000     -10.266685      -279.3707
  16   2.0000      -8.082112      -219.9254
  17   2.0000      -8.081808      -219.9172
  18   2.0000      -6.040585      -164.3727
  19   2.0000      -6.040364      -164.3667
  20   2.0000      -6.036292      -164.2559
  21   2.0000      -6.036182      -164.2529
  22   2.0000      -6.033049      -164.1676
  23   2.0000      -6.032551      -164.1541
  24   2.0000      -1.015346       -27.6290
  25   2.0000      -0.992872       -27.0174
  26   2.0000      -0.936004       -25.4700
  27   2.0000      -0.914315       -24.8798
  28   2.0000      -0.878029       -23.8924
  29   2.0000      -0.855140       -23.2695
  30   2.0000      -0.847537       -23.0627
  31   2.0000      -0.820908       -22.3380
  32   2.0000      -0.783160       -21.3109
  33   2.0000      -0.772880       -21.0311
  34   2.0000      -0.716838       -19.5062
  35   2.0000      -0.700199       -19.0534
  36   2.0000      -0.696366       -18.9491
  37   2.0000      -0.662370       -18.0240
  38   2.0000      -0.643465       -17.5096
  39   2.0000      -0.630074       -17.1452
  40   2.0000      -0.605606       -16.4794
  41   2.0000      -0.581668       -15.8280
  42   2.0000      -0.580045       -15.7838
  43   2.0000      -0.561519       -15.2797
  44   2.0000      -0.534668       -14.5490
  45   2.0000      -0.527553       -14.3555
  46   2.0000      -0.520833       -14.1726
  47   2.0000      -0.515984       -14.0406
  48   2.0000      -0.505031       -13.7426
  49   2.0000      -0.503588       -13.7033
  50   2.0000      -0.497177       -13.5289
  51   2.0000      -0.488242       -13.2857
  52   2.0000      -0.472406       -12.8548
  53   2.0000      -0.467032       -12.7086
  54   2.0000      -0.461558       -12.5596
  55   2.0000      -0.453544       -12.3415
  56   2.0000      -0.447226       -12.1696
  57   2.0000      -0.440239       -11.9795
  58   2.0000      -0.435648       -11.8546
  59   2.0000      -0.427458       -11.6317
  60   2.0000      -0.415047       -11.2940
  61   2.0000      -0.412202       -11.2166
  62   2.0000      -0.404898       -11.0178
  63   2.0000      -0.360835        -9.8188
  64   2.0000      -0.332734        -9.0541
  65   2.0000      -0.326434        -8.8827
  66   2.0000      -0.285685        -7.7739
  67   0.0000       0.018625         0.5068
  68   0.0000       0.079460         2.1622
  69   0.0000       0.102937         2.8010
  70   0.0000       0.124782         3.3955
  71   0.0000       0.131440         3.5767

MULLIKEN ATOMIC CHARGES
-----------------------
   0 S :    0.111780
   1 C :   -0.114465
   2 C :   -0.091118
   3 C :    0.008388
   4 C :   -0.127411
   5 H :    0.010834
   6 C :    0.109070
   7 H :    0.021080
   8 H :    0.008479
   9 C :   -0.071394
  10 H :    0.008158
  11 H :    0.012691
  12 C :   -0.051734
  13 H :    0.032044
  14 H :    0.026805
  15 H :    0.033468
  16 S :    0.099638
  17 C :   -0.079482
  18 C :   -0.048833
  19 C :   -0.032731
  20 C :   -0.123602
  21 H :    0.027032
  22 C :    0.036364
  23 H :    0.014122
  24 H :    0.031071
  25 C :   -0.073166
  26 H :    0.026818
  27 H :    0.022594
  28 C :    0.005348
  29 H :    0.038370
  30 H :    0.022873
  31 H :   -0.002659
  32 H :    0.057505
  33 H :    0.052063
Sum of atomic charges:   -0.0000000

LOEWDIN ATOMIC CHARGES
----------------------
   0 S :    0.436388
   1 C :   -0.207985
   2 C :   -0.066936
   3 C :   -0.067120
   4 C :   -0.201147
   5 H :    0.022998
   6 C :   -0.028519
   7 H :    0.032503
   8 H :    0.025236
   9 C :   -0.033688
  10 H :    0.010162
  11 H :    0.022643
  12 C :   -0.064929
  13 H :    0.021724
  14 H :    0.023138
  15 H :    0.030982
  16 S :    0.416086
  17 C :   -0.179087
  18 C :   -0.070915
  19 C :   -0.050653
  20 C :   -0.203266
  21 H :    0.034243
  22 C :   -0.035759
  23 H :    0.029391
  24 H :    0.031423
  25 C :   -0.055283
  26 H :    0.022182
  27 H :    0.027589
  28 C :   -0.060664
  29 H :    0.024915
  30 H :    0.031811
  31 H :    0.019482
  32 H :    0.034167
  33 H :    0.028885

  Mayer bond orders larger than 0.100000
B(  0-S ,  1-C ) :   1.1700 B(  0-S ,  4-C ) :   1.1702 B(  1-C ,  2-C ) :   1.5375
B(  1-C ,  4-C ) :   0.1091 B(  1-C , 32-H ) :   0.9698 B(  2-C ,  3-C ) :   1.3052
B(  2-C ,  6-C ) :   1.0496 B(  3-C ,  4-C ) :   1.4981 B(  3-C ,  5-H ) :   0.9911
B(  4-C , 20-C ) :   1.0860 B(  6-C ,  7-H ) :   0.9421 B(  6-C ,  8-H ) :   0.9264
B(  6-C ,  9-C ) :   1.0452 B(  9-C , 10-H ) :   0.9590 B(  9-C , 11-H ) :   0.9536
B(  9-C , 12-C ) :   1.0840 B( 12-C , 13-H ) :   0.9748 B( 12-C , 14-H ) :   0.9760
B( 12-C , 15-H ) :   0.9736 B( 16-S , 17-C ) :   1.1554 B( 16-S , 20-C ) :   1.1430
B( 17-C , 18-C ) :   1.6218 B( 17-C , 33-H ) :   0.9644 B( 18-C , 19-C ) :   1.2390
B( 18-C , 21-H ) :   0.9881 B( 19-C , 20-C ) :   1.5692 B( 19-C , 22-C ) :   1.0424
B( 22-C , 23-H ) :   0.9372 B( 22-C , 24-H ) :   0.9229 B( 22-C , 25-C ) :   1.0771
B( 25-C , 26-H ) :   0.9422 B( 25-C , 27-H ) :   0.9444 B( 25-C , 28-C ) :   1.1056
B( 28-C , 29-H ) :   0.9690 B( 28-C , 30-H ) :   0.9628 B( 28-C , 31-H ) :   0.9597

Dispersion correction           -0.013168948
FINAL SINGLE POINT ENERGY     -1339.859636158031

DIPOLE MOMENT
-------------
                                X             Y             Z
Electronic contribution:    -26.98051      17.35198      -2.26671
Nuclear contribution   :     27.43103     -17.71835       2.53222
                        -----------------------------------------
Total Dipole Moment    :      0.45052      -0.36637       0.26551
                        -----------------------------------------
Magnitude (a.u.)       :      0.63850
Magnitude (Debye)      :      1.62295

Rotational constants in cm-1:     0.016873     0.009034     0.006243
Rotational constants in MHz :   505.831500   270.829143   187.154344

                             ****ORCA TERMINATED NORMALLY****
TOTAL RUN TIME: 0 days 0 hours 0 minutes 29 seconds 685 msec
