                         Program Version 4.2.1 -  RELEASE  -
|  1> ! wB97X-D3 SP def2-SVP
|  2> %pal
|  3> nprocs 16
|  4> end
|  5>
|  6> * xyz 0 1
|  7> S 	 -9.78432 	 -7.15224 	 86.4881
|  8> C 	 -10.0454 	 -6.67105 	 88.1199
|  9> C 	 -11.0704 	 -7.34019 	 88.7891
| 10> C 	 -11.4611 	 -8.44298 	 88.0248
| 11> C 	 -10.9252 	 -8.49397 	 86.752
| 12> H 	 -12.1172 	 -9.22045 	 88.4946
| 13> C 	 -11.5276 	 -7.15651 	 90.2498
| 14> H 	 -12.2705 	 -7.8918 	 90.4477
| 15> H 	 -11.9596 	 -6.19559 	 90.3659
| 16> C 	 -10.423 	 -7.43772 	 91.2869
| 17> H 	 -10.0435 	 -8.44113 	 91.256
| 18> H 	 -9.62821 	 -6.78412 	 91.0577
| 19> C 	 -10.9108 	 -7.08779 	 92.6981
| 20> H 	 -9.98797 	 -6.8903 	 93.2244
| 21> H 	 -11.6396 	 -6.22753 	 92.6996
| 22> H 	 -11.5153 	 -7.82943 	 93.2948
| 23> S 	 -12.6565 	 -10.2646 	 85.7191
| 24> C 	 -12.2138 	 -11.4111 	 84.5396
| 25> C 	 -10.9466 	 -11.1749 	 84.1143
| 26> C 	 -10.1743 	 -10.2407 	 84.9009
| 27> C 	 -10.9913 	 -9.63114 	 85.8928
| 28> H 	 -10.6845 	 -11.8172 	 83.2341
| 29> C 	 -8.71567 	 -9.88109 	 84.47
| 30> H 	 -8.36585 	 -8.9902 	 85.0105
| 31> H 	 -8.69446 	 -9.52003 	 83.4077
| 32> C 	 -7.64862 	 -10.9482 	 84.5766
| 33> H 	 -6.74484 	 -10.4372 	 84.3275
| 34> H 	 -7.86938 	 -11.7576 	 83.8633
| 35> C 	 -7.49392 	 -11.558 	 85.9873
| 36> H 	 -6.6369 	 -12.1331 	 86.0128
| 37> H 	 -8.42235 	 -12.0599 	 86.3796
| 38> H 	 -7.20459 	 -10.8272 	 86.7512
| 39> H 	 -9.48746 	 -5.91187 	 88.5027
| 40> H 	 -12.909 	 -12.0477 	 83.9986
| 41> *
| 42>
| 43>                          ****END OF INPUT****

CARTESIAN COORDINATES (ANGSTROEM)
---------------------------------
  S     -9.784320   -7.152240   86.488100
  C    -10.045400   -6.671050   88.119900
  C    -11.070400   -7.340190   88.789100
  C    -11.461100   -8.442980   88.024800
  C    -10.925200   -8.493970   86.752000
  H    -12.117200   -9.220450   88.494600
  C    -11.527600   -7.156510   90.249800
  H    -12.270500   -7.891800   90.447700
  H    -11.959600   -6.195590   90.365900
  C    -10.423000   -7.437720   91.286900
  H    -10.043500   -8.441130   91.256000
  H     -9.628210   -6.784120   91.057700
  C    -10.910800   -7.087790   92.698100
  H     -9.987970   -6.890300   93.224400
  H    -11.639600   -6.227530   92.699600
  H    -11.515300   -7.829430   93.294800
  S    -12.656500  -10.264600   85.719100
  C    -12.213800  -11.411100   84.539600
  C    -10.946600  -11.174900   84.114300
  C    -10.174300  -10.240700   84.900900
  C    -10.991300   -9.631140   85.892800
  H    -10.684500  -11.817200   83.234100
  C     -8.715670   -9.881090   84.470000
  H     -8.365850   -8.990200   85.010500
  H     -8.694460   -9.520030   83.407700
  C     -7.648620  -10.948200   84.576600
  H     -6.744840  -10.437200   84.327500
  H     -7.869380  -11.757600   83.863300
  C     -7.493920  -11.558000   85.987300
  H     -6.636900  -12.133100   86.012800
  H     -8.422350  -12.059900   86.379600
  H     -7.204590  -10.827200   86.751200
  H     -9.487460   -5.911870   88.502700
  H    -12.909000  -12.047700   83.998600

 Total Charge           Charge          ....    0
 Multiplicity           Mult            ....    1
 Number of Electrons    NEL             ....  134
 Basis Dimension        Dim             ....  322

ORBITAL ENERGIES
----------------

  NO   OCC          E(Eh)            E(eV)
   0   2.0000     -88.971146     -2421.0280
   1   2.0000     -88.957998     -2420.6702
   2   2.0000     -10.330649      -281.1112
   3   2.0000     -10.327606      -281.0285
   4   2.0000     -10.312253      -280.6107
   5   2.0000     -10.308366      -280.5049
   6   2.0000     -10.308329      -280.5039
   7   2.0000     -10.299158      -280.2543
   8   2.0000     -10.294673      -280.1323
   9   2.0000     -10.293454      -280.0991
  10   2.0000     -10.292222      -280.0656
  11   2.0000     -10.289503      -279.9916
  12   2.0000     -10.284702      -279.8610
  13   2.0000     -10.283777      -279.8358
  14   2.0000     -10.282239      -279.7939
  15   2.0000     -10.268001      -279.4065
  16   2.0000      -8.085565      -220.0194
  17   2.0000      -8.073276      -219.6850
  18   2.0000      -6.043937      -164.4639
  19   2.0000      -6.040177      -164.3616
  20   2.0000      -6.036435      -164.2598
  21   2.0000      -6.031695      -164.1308
  22   2.0000      -6.027767      -164.0239
  23   2.0000      -6.024011      -163.9217
  24   2.0000      -1.006848       -27.3977
  25   2.0000      -0.984112       -26.7790
  26   2.0000      -0.914053       -24.8726
  27   2.0000      -0.904169       -24.6037
  28   2.0000      -0.873146       -23.7595
  29   2.0000      -0.856832       -23.3156
  30   2.0000      -0.839363       -22.8402
  31   2.0000      -0.807988       -21.9865
  32   2.0000      -0.783860       -21.3299
  33   2.0000      -0.773325       -21.0433
  34   2.0000      -0.711824       -19.3697
  35   2.0000      -0.703775       -19.1507
  36   2.0000      -0.686557       -18.6822
  37   2.0000      -0.659432       -17.9441
  38   2.0000      -0.635125       -17.2826
  39   2.0000      -0.619368       -16.8538
  40   2.0000      -0.595619       -16.2076
  41   2.0000      -0.572837       -15.5877
  42   2.0000      -0.562315       -15.3014
  43   2.0000      -0.546733       -14.8774
  44   2.0000      -0.538889       -14.6639
  45   2.0000      -0.530004       -14.4221
  46   2.0000      -0.515204       -14.0194
  47   2.0000      -0.507363       -13.8061
  48   2.0000      -0.505212       -13.7475
  49   2.0000      -0.497929       -13.5493
  50   2.0000      -0.489624       -13.3234
  51   2.0000      -0.475486       -12.9386
  52   2.0000      -0.473182       -12.8759
  53   2.0000      -0.463887       -12.6230
  54   2.0000      -0.456674       -12.4267
  55   2.0000      -0.451403       -12.2833
  56   2.0000      -0.438551       -11.9336
  57   2.0000      -0.435821       -11.8593
  58   2.0000      -0.431154       -11.7323
  59   2.0000      -0.428290       -11.6544
  60   2.0000      -0.416235       -11.3263
  61   2.0000      -0.413578       -11.2540
  62   2.0000      -0.409880       -11.1534
  63   2.0000      -0.355418        -9.6714
  64   2.0000      -0.335254        -9.1227
  65   2.0000      -0.325317        -8.8523
  66   2.0000      -0.280573        -7.6348
  67   0.0000       0.019488         0.5303
  68   0.0000       0.081162         2.2085
  69   0.0000       0.104103         2.8328
  70   0.0000       0.119205         3.2437
  71   0.0000       0.127135         3.4595

MULLIKEN ATOMIC CHARGES
-----------------------
   0 S :    0.122390
   1 C :   -0.114466
   2 C :   -0.061657
   3 C :   -0.028303
   4 C :   -0.108444
   5 H :    0.038925
   6 C :    0.094668
   7 H :    0.008866
   8 H :    0.027185
   9 C :   -0.046777
  10 H :    0.033841
  11 H :    0.015663
  12 C :   -0.080638
  13 H :    0.039261
  14 H :    0.031742
  15 H :    0.041538
  16 S :    0.081562
  17 C :   -0.085145
  18 C :   -0.074009
  19 C :   -0.033374
  20 C :   -0.144021
  21 H :    0.035911
  22 C :    0.041159
  23 H :    0.011575
  24 H :    0.040347
  25 C :   -0.057932
  26 H :    0.023036
  27 H :    0.034149
  28 C :   -0.043071
  29 H :    0.011995
  30 H :    0.057319
  31 H :    0.016160
  32 H :    0.010275
  33 H :    0.060273
Sum of atomic charges:   -0.0000000

LOEWDIN ATOMIC CHARGES
----------------------
   0 S :    0.422278
   1 C :   -0.182371
   2 C :   -0.061627
   3 C :   -0.062038
   4 C :   -0.198233
   5 H :    0.039666
   6 C :   -0.019901
   7 H :    0.024719
   8 H :    0.026988
   9 C :   -0.030124
  10 H :    0.027049
  11 H :    0.016652
  12 C :   -0.075080
  13 H :    0.027727
  14 H :    0.028681
  15 H :    0.029105
  16 S :    0.407774
  17 C :   -0.205039
  18 C :   -0.083010
  19 C :   -0.061831
  20 C :   -0.177784
  21 H :    0.039533
  22 C :   -0.039738
  23 H :    0.015581
  24 H :    0.038730
  25 C :   -0.038026
  26 H :    0.024695
  27 H :    0.024011
  28 C :   -0.069197
  29 H :    0.014604
  30 H :    0.035790
  31 H :    0.026389
  32 H :    0.001149
  33 H :    0.032877

  Mayer bond orders larger than 0.100000
B(  0-S ,  1-C ) :   1.1722 B(  0-S ,  4-C ) :   1.1287 B(  1-C ,  2-C ) :   1.5604
B(  1-C , 32-H ) :   0.9812 B(  2-C ,  3-C ) :   1.2933 B(  2-C ,  6-C ) :   1.0228
B(  3-C ,  4-C ) :   1.5291 B(  3-C ,  5-H ) :   0.9748 B(  4-C , 20-C ) :   1.0937
B(  6-C ,  7-H ) :   0.9435 B(  6-C ,  8-H ) :   0.9321 B(  6-C ,  9-C ) :   1.0755
B(  9-C , 10-H ) :   0.9541 B(  9-C , 11-H ) :   0.9607 B(  9-C , 12-C ) :   1.0689
B( 12-C , 13-H ) :   0.9762 B( 12-C , 14-H ) :   0.9746 B( 12-C , 15-H ) :   0.9767
B( 16-S , 17-C ) :   1.1483 B( 16-S , 20-C ) :   1.1460 B( 17-C , 18-C ) :   1.6374
B( 17-C , 33-H ) :   0.9637 B( 18-C , 19-C ) :   1.2187 B( 18-C , 21-H ) :   0.9816
B( 19-C , 20-C ) :   1.5551 B( 19-C , 22-C ) :   1.0257 B( 22-C , 23-H ) :   0.9355
B( 22-C , 24-H ) :   0.9398 B( 22-C , 25-C ) :   1.0846 B( 25-C , 26-H ) :   0.9500
B( 25-C , 27-H ) :   0.9564 B( 25-C , 28-C ) :   1.0843 B( 28-C , 29-H ) :   0.9718
B( 28-C , 30-H ) :   0.9725 B( 28-C , 31-H ) :   0.9702

Dispersion correction           -0.013839089
FINAL SINGLE POINT ENERGY     -1339.861212703018

DIPOLE MOMENT
-------------
                                X             Y             Z
Electronic contribution:    -12.03570       2.69569     -15.93552
Nuclear contribution   :     12.32451      -2.67840      16.18873
                        -----------------------------------------
Total Dipole Moment    :      0.28881       0.01729       0.25321
                        -----------------------------------------
Magnitude (a.u.)       :      0.38448
Magnitude (Debye)      :      0.97728

Rotational constants in cm-1:     0.021028     0.007444     0.006584
Rotational constants in MHz :   630.398980   223.159690   197.372124

                             ****ORCA TERMINATED NORMALLY****
TOTAL RUN TIME: 0 days 0 hours 0 minutes 35 seconds 375 msec
