                         Program Version 4.2.1 -  RELEASE  -
|  1> ! wB97X-D3 SP def2-SVP
|  2> %pal
|  3> nprocs 16
|  4> end
|  5>
|  6> * xyz 0 1
|  7> S 	 8.60408 	 -18.5453 	 82.0255
|  8> C 	 9.31262 	 -19.7136 	 83.1591
|  9> C 	 9.69462 	 -18.9973 	 84.3191
| 10> C 	 9.65128 	 -17.5794 	 84.1749
| 11> C 	 9.11583 	 -17.1697 	 82.9685
| 12> H 	 9.92377 	 -16.8634 	 84.9113
| 13> C 	 10.3301 	 -19.6323 	 85.5403
| 14> H 	 10.8376 	 -18.8563 	 86.03
| 15> H 	 10.9877 	 -20.3889 	 85.2226
| 16> C 	 9.363 	 -20.2021 	 86.5654
| 17> H 	 8.84114 	 -19.3512 	 86.8879
| 18> H 	 8.71819 	 -20.931 	 86.1448
| 19> C 	 10.1306 	 -20.9572 	 87.6557
| 20> H 	 9.52533 	 -21.2849 	 88.4597
| 21> H 	 10.5891 	 -21.7958 	 87.1347
| 22> H 	 10.8922 	 -20.2854 	 88.0583
| 23> S 	 7.25595 	 -15.1275 	 82.3603
| 24> C 	 7.92638 	 -13.5597 	 81.9699
| 25> C 	 9.29086 	 -13.5533 	 81.9359
| 26> C 	 9.91486 	 -14.8086 	 82.3867
| 27> C 	 8.96243 	 -15.8037 	 82.5069
| 28> H 	 9.82842 	 -12.6433 	 81.6057
| 29> C 	 11.4095 	 -14.9539 	 82.3345
| 30> H 	 11.7668 	 -14.2082 	 81.6444
| 31> H 	 11.6698 	 -15.8924 	 81.9922
| 32> C 	 12.1293 	 -14.6248 	 83.7288
| 33> H 	 13.1642 	 -14.6538 	 83.6888
| 34> H 	 11.8843 	 -15.3793 	 84.4893
| 35> C 	 11.8468 	 -13.2883 	 84.4135
| 36> H 	 12.4965 	 -12.5617 	 83.9983
| 37> H 	 11.9828 	 -13.2017 	 85.5569
| 38> H 	 10.7067 	 -12.9952 	 84.3587
| 39> H 	 9.4263 	 -20.7677 	 82.9374
| 40> H 	 7.32304 	 -12.7492 	 81.6799
| 41> *
| 42>
| 43>                          ****END OF INPUT****

CARTESIAN COORDINATES (ANGSTROEM)
---------------------------------
  S      8.604080  -18.545300   82.025500
  C      9.312620  -19.713600   83.159100
  C      9.694620  -18.997300   84.319100
  C      9.651280  -17.579400   84.174900
  C      9.115830  -17.169700   82.968500
  H      9.923770  -16.863400   84.911300
  C     10.330100  -19.632300   85.540300
  H     10.837600  -18.856300   86.030000
  H     10.987700  -20.388900   85.222600
  C      9.363000  -20.202100   86.565400
  H      8.841140  -19.351200   86.887900
  H      8.718190  -20.931000   86.144800
  C     10.130600  -20.957200   87.655700
  H      9.525330  -21.284900   88.459700
  H     10.589100  -21.795800   87.134700
  H     10.892200  -20.285400   88.058300
  S      7.255950  -15.127500   82.360300
  C      7.926380  -13.559700   81.969900
  C      9.290860  -13.553300   81.935900
  C      9.914860  -14.808600   82.386700
  C      8.962430  -15.803700   82.506900
  H      9.828420  -12.643300   81.605700
  C     11.409500  -14.953900   82.334500
  H     11.766800  -14.208200   81.644400
  H     11.669800  -15.892400   81.992200
  C     12.129300  -14.624800   83.728800
  H     13.164200  -14.653800   83.688800
  H     11.884300  -15.379300   84.489300
  C     11.846800  -13.288300   84.413500
  H     12.496500  -12.561700   83.998300
  H     11.982800  -13.201700   85.556900
  H     10.706700  -12.995200   84.358700
  H      9.426300  -20.767700   82.937400
  H      7.323040  -12.749200   81.679900

 Total Charge           Charge          ....    0
 Multiplicity           Mult            ....    1
 Number of Electrons    NEL             ....  134
 Basis Dimension        Dim             ....  322

ORBITAL ENERGIES
----------------

  NO   OCC          E(Eh)            E(eV)
   0   2.0000     -88.966160     -2420.8923
   1   2.0000     -88.963072     -2420.8082
   2   2.0000     -10.332215      -281.1539
   3   2.0000     -10.328204      -281.0447
   4   2.0000     -10.320725      -280.8412
   5   2.0000     -10.313867      -280.6546
   6   2.0000     -10.309251      -280.5290
   7   2.0000     -10.304589      -280.4021
   8   2.0000     -10.297221      -280.2016
   9   2.0000     -10.293540      -280.1015
  10   2.0000     -10.293111      -280.0898
  11   2.0000     -10.285727      -279.8889
  12   2.0000     -10.285587      -279.8850
  13   2.0000     -10.279519      -279.7199
  14   2.0000     -10.274212      -279.5755
  15   2.0000     -10.273898      -279.5670
  16   2.0000      -8.080501      -219.8816
  17   2.0000      -8.076876      -219.7830
  18   2.0000      -6.039042      -164.3307
  19   2.0000      -6.035547      -164.2356
  20   2.0000      -6.034895      -164.2179
  21   2.0000      -6.031705      -164.1310
  22   2.0000      -6.031418      -164.1232
  23   2.0000      -6.027337      -164.0122
  24   2.0000      -1.000687       -27.2301
  25   2.0000      -0.976974       -26.5848
  26   2.0000      -0.918352       -24.9896
  27   2.0000      -0.904422       -24.6106
  28   2.0000      -0.868853       -23.6427
  29   2.0000      -0.850865       -23.1532
  30   2.0000      -0.844963       -22.9926
  31   2.0000      -0.812311       -22.1041
  32   2.0000      -0.784933       -21.3591
  33   2.0000      -0.771726       -20.9997
  34   2.0000      -0.707637       -19.2558
  35   2.0000      -0.702136       -19.1061
  36   2.0000      -0.691481       -18.8161
  37   2.0000      -0.659518       -17.9464
  38   2.0000      -0.647008       -17.6060
  39   2.0000      -0.619261       -16.8510
  40   2.0000      -0.593360       -16.1462
  41   2.0000      -0.583256       -15.8712
  42   2.0000      -0.563194       -15.3253
  43   2.0000      -0.558706       -15.2032
  44   2.0000      -0.544916       -14.8279
  45   2.0000      -0.524483       -14.2719
  46   2.0000      -0.520101       -14.1527
  47   2.0000      -0.507996       -13.8233
  48   2.0000      -0.506381       -13.7793
  49   2.0000      -0.499445       -13.5906
  50   2.0000      -0.488201       -13.2846
  51   2.0000      -0.481080       -13.0909
  52   2.0000      -0.474233       -12.9045
  53   2.0000      -0.459271       -12.4974
  54   2.0000      -0.455531       -12.3956
  55   2.0000      -0.448039       -12.1918
  56   2.0000      -0.443238       -12.0611
  57   2.0000      -0.438091       -11.9211
  58   2.0000      -0.436227       -11.8703
  59   2.0000      -0.430548       -11.7158
  60   2.0000      -0.419113       -11.4046
  61   2.0000      -0.413534       -11.2528
  62   2.0000      -0.408236       -11.1087
  63   2.0000      -0.340199        -9.2573
  64   2.0000      -0.332024        -9.0348
  65   2.0000      -0.327001        -8.8982
  66   2.0000      -0.296566        -8.0700
  67   0.0000       0.031247         0.8503
  68   0.0000       0.057194         1.5563
  69   0.0000       0.111416         3.0318
  70   0.0000       0.119176         3.2430
  71   0.0000       0.123638         3.3644

MULLIKEN ATOMIC CHARGES
-----------------------
   0 S :    0.108653
   1 C :   -0.132911
   2 C :   -0.087086
   3 C :    0.048181
   4 C :   -0.162655
   5 H :    0.007798
   6 C :    0.088313
   7 H :   -0.000878
   8 H :    0.009416
   9 C :   -0.048975
  10 H :    0.015185
  11 H :    0.019281
  12 C :   -0.022663
  13 H :    0.032681
  14 H :    0.027872
  15 H :    0.022179
  16 S :    0.086396
  17 C :   -0.071876
  18 C :   -0.041096
  19 C :   -0.043937
  20 C :   -0.152856
  21 H :    0.034086
  22 C :    0.137455
  23 H :    0.020170
  24 H :    0.020893
  25 C :   -0.047507
  26 H :    0.013926
  27 H :    0.019800
  28 C :   -0.131501
  29 H :    0.029707
  30 H :    0.044750
  31 H :    0.055843
  32 H :    0.058364
  33 H :    0.042992
Sum of atomic charges:    0.0000000

LOEWDIN ATOMIC CHARGES
----------------------
   0 S :    0.404784
   1 C :   -0.192600
   2 C :   -0.054223
   3 C :   -0.058595
   4 C :   -0.199677
   5 H :    0.027921
   6 C :   -0.022211
   7 H :    0.021664
   8 H :    0.021826
   9 C :   -0.029326
  10 H :    0.016016
  11 H :    0.017495
  12 C :   -0.055813
  13 H :    0.020875
  14 H :    0.026340
  15 H :    0.023150
  16 S :    0.358928
  17 C :   -0.173006
  18 C :   -0.073976
  19 C :   -0.046385
  20 C :   -0.171406
  21 H :    0.036552
  22 C :   -0.009364
  23 H :    0.032160
  24 H :    0.024951
  25 C :   -0.038691
  26 H :    0.014979
  27 H :    0.022642
  28 C :   -0.085297
  29 H :    0.014805
  30 H :    0.036333
  31 H :    0.037796
  32 H :    0.030504
  33 H :    0.020848

  Mayer bond orders larger than 0.100000
B(  0-S ,  1-C ) :   1.1425 B(  0-S ,  4-C ) :   1.1620 B(  1-C ,  2-C ) :   1.5628
B(  1-C ,  4-C ) :   0.1059 B(  1-C , 32-H ) :   0.9788 B(  2-C ,  3-C ) :   1.2566
B(  2-C ,  6-C ) :   1.0270 B(  3-C ,  4-C ) :   1.5574 B(  3-C ,  5-H ) :   0.9969
B(  4-C , 20-C ) :   1.0271 B(  6-C ,  7-H ) :   0.9383 B(  6-C ,  8-H ) :   0.9423
B(  6-C ,  9-C ) :   1.0639 B(  9-C , 10-H ) :   0.9549 B(  9-C , 11-H ) :   0.9604
B(  9-C , 12-C ) :   1.0815 B( 12-C , 13-H ) :   0.9750 B( 12-C , 14-H ) :   0.9757
B( 12-C , 15-H ) :   0.9740 B( 16-S , 17-C ) :   1.1350 B( 16-S , 20-C ) :   1.1064
B( 17-C , 18-C ) :   1.6668 B( 17-C , 33-H ) :   0.9687 B( 18-C , 19-C ) :   1.1750
B( 18-C , 21-H ) :   0.9787 B( 19-C , 20-C ) :   1.6561 B( 19-C , 22-C ) :   1.0410
B( 22-C , 23-H ) :   0.9407 B( 22-C , 24-H ) :   0.9375 B( 22-C , 25-C ) :   1.0489
B( 25-C , 26-H ) :   0.9589 B( 25-C , 27-H ) :   0.9586 B( 25-C , 28-C ) :   1.0678
B( 28-C , 29-H ) :   0.9806 B( 28-C , 30-H ) :   0.9743 B( 28-C , 31-H ) :   0.9688

Dispersion correction           -0.014351024
FINAL SINGLE POINT ENERGY     -1339.861786926492

DIPOLE MOMENT
-------------
                                X             Y             Z
Electronic contribution:    -18.38697       2.28102     -20.60389
Nuclear contribution   :     18.97902      -2.22571      20.92355
                        -----------------------------------------
Total Dipole Moment    :      0.59206       0.05532       0.31966
                        -----------------------------------------
Magnitude (a.u.)       :      0.67511
Magnitude (Debye)      :      1.71599

Rotational constants in cm-1:     0.019302     0.008013     0.006545
Rotational constants in MHz :   578.660753   240.214721   196.205889

                             ****ORCA TERMINATED NORMALLY****
TOTAL RUN TIME: 0 days 0 hours 0 minutes 32 seconds 207 msec
