                         Program Version 4.2.1 -  RELEASE  -
|  1> ! wB97X-D3 SP def2-SVP
|  2> %pal
|  3> nprocs 16
|  4> end
|  5>
|  6> * xyz 0 1
|  7> S 	 0.0172675 	 -12.8515 	 92.6179
|  8> C 	 0.469717 	 -12.0295 	 94.057
|  9> C 	 -0.540266 	 -11.3113 	 94.5812
| 10> C 	 -1.7703 	 -11.3897 	 93.7956
| 11> C 	 -1.54572 	 -12.0288 	 92.5874
| 12> H 	 -2.74652 	 -10.9191 	 94.0604
| 13> C 	 -0.461172 	 -10.7456 	 95.9746
| 14> H 	 0.499092 	 -10.4582 	 96.2454
| 15> H 	 -0.631832 	 -11.5718 	 96.5667
| 16> C 	 -1.44662 	 -9.61771 	 96.2845
| 17> H 	 -1.39809 	 -8.98861 	 95.449
| 18> H 	 -2.4688 	 -10.0002 	 96.2901
| 19> C 	 -1.20975 	 -8.95313 	 97.6143
| 20> H 	 -1.169 	 -9.7335 	 98.3302
| 21> H 	 -0.232877 	 -8.4953 	 97.4989
| 22> H 	 -1.94821 	 -8.20506 	 98.0703
| 23> S 	 -3.64397 	 -10.9359 	 91.1875
| 24> C 	 -4.06943 	 -11.6183 	 89.6427
| 25> C 	 -3.45247 	 -12.8287 	 89.4264
| 26> C 	 -2.565 	 -13.14 	 90.5091
| 27> C 	 -2.41977 	 -12.1207 	 91.4273
| 28> H 	 -3.68744 	 -13.5099 	 88.6506
| 29> C 	 -1.8348 	 -14.4916 	 90.5132
| 30> H 	 -2.68463 	 -15.2106 	 90.3217
| 31> H 	 -1.36163 	 -14.6229 	 91.5585
| 32> C 	 -0.791523 	 -14.4632 	 89.3825
| 33> H 	 -0.285721 	 -13.4809 	 89.4056
| 34> H 	 -1.36896 	 -14.4786 	 88.4173
| 35> C 	 0.172089 	 -15.6324 	 89.4086
| 36> H 	 0.589475 	 -15.8464 	 90.3918
| 37> H 	 0.955685 	 -15.4595 	 88.6783
| 38> H 	 -0.315445 	 -16.5842 	 89.09
| 39> H 	 1.43615 	 -12.0293 	 94.4599
| 40> H 	 -4.63209 	 -11.1949 	 88.8743
| 41> *
| 42>
| 43>                          ****END OF INPUT****

CARTESIAN COORDINATES (ANGSTROEM)
---------------------------------
  S      0.017267  -12.851500   92.617900
  C      0.469717  -12.029500   94.057000
  C     -0.540266  -11.311300   94.581200
  C     -1.770300  -11.389700   93.795600
  C     -1.545720  -12.028800   92.587400
  H     -2.746520  -10.919100   94.060400
  C     -0.461172  -10.745600   95.974600
  H      0.499092  -10.458200   96.245400
  H     -0.631832  -11.571800   96.566700
  C     -1.446620   -9.617710   96.284500
  H     -1.398090   -8.988610   95.449000
  H     -2.468800  -10.000200   96.290100
  C     -1.209750   -8.953130   97.614300
  H     -1.169000   -9.733500   98.330200
  H     -0.232877   -8.495300   97.498900
  H     -1.948210   -8.205060   98.070300
  S     -3.643970  -10.935900   91.187500
  C     -4.069430  -11.618300   89.642700
  C     -3.452470  -12.828700   89.426400
  C     -2.565000  -13.140000   90.509100
  C     -2.419770  -12.120700   91.427300
  H     -3.687440  -13.509900   88.650600
  C     -1.834800  -14.491600   90.513200
  H     -2.684630  -15.210600   90.321700
  H     -1.361630  -14.622900   91.558500
  C     -0.791523  -14.463200   89.382500
  H     -0.285721  -13.480900   89.405600
  H     -1.368960  -14.478600   88.417300
  C      0.172089  -15.632400   89.408600
  H      0.589475  -15.846400   90.391800
  H      0.955685  -15.459500   88.678300
  H     -0.315445  -16.584200   89.090000
  H      1.436150  -12.029300   94.459900
  H     -4.632090  -11.194900   88.874300

 Total Charge           Charge          ....    0
 Multiplicity           Mult            ....    1
 Number of Electrons    NEL             ....  134
 Basis Dimension        Dim             ....  322

ORBITAL ENERGIES
----------------

  NO   OCC          E(Eh)            E(eV)
   0   2.0000     -88.966455     -2420.9003
   1   2.0000     -88.964933     -2420.8589
   2   2.0000     -10.333313      -281.1838
   3   2.0000     -10.322355      -280.8856
   4   2.0000     -10.313294      -280.6390
   5   2.0000     -10.300909      -280.3020
   6   2.0000     -10.299288      -280.2579
   7   2.0000     -10.298349      -280.2323
   8   2.0000     -10.298200      -280.2283
   9   2.0000     -10.298070      -280.2247
  10   2.0000     -10.290489      -280.0185
  11   2.0000     -10.288415      -279.9620
  12   2.0000     -10.279011      -279.7061
  13   2.0000     -10.278626      -279.6956
  14   2.0000     -10.277845      -279.6744
  15   2.0000     -10.275467      -279.6097
  16   2.0000      -8.081692      -219.9140
  17   2.0000      -8.079699      -219.8598
  18   2.0000      -6.040267      -164.3640
  19   2.0000      -6.038321      -164.3111
  20   2.0000      -6.036270      -164.2553
  21   2.0000      -6.034311      -164.2019
  22   2.0000      -6.032239      -164.1456
  23   2.0000      -6.030239      -164.0912
  24   2.0000      -1.011507       -27.5245
  25   2.0000      -0.989596       -26.9283
  26   2.0000      -0.919532       -25.0217
  27   2.0000      -0.907089       -24.6831
  28   2.0000      -0.876300       -23.8453
  29   2.0000      -0.852390       -23.1947
  30   2.0000      -0.844044       -22.9676
  31   2.0000      -0.820208       -22.3190
  32   2.0000      -0.781754       -21.2726
  33   2.0000      -0.769449       -20.9378
  34   2.0000      -0.715802       -19.4780
  35   2.0000      -0.695053       -18.9134
  36   2.0000      -0.688712       -18.7408
  37   2.0000      -0.672666       -18.3042
  38   2.0000      -0.636706       -17.3256
  39   2.0000      -0.618602       -16.8330
  40   2.0000      -0.591420       -16.0934
  41   2.0000      -0.578971       -15.7546
  42   2.0000      -0.571893       -15.5620
  43   2.0000      -0.560582       -15.2542
  44   2.0000      -0.530206       -14.4276
  45   2.0000      -0.523611       -14.2482
  46   2.0000      -0.521019       -14.1776
  47   2.0000      -0.512781       -13.9535
  48   2.0000      -0.509544       -13.8654
  49   2.0000      -0.498998       -13.5784
  50   2.0000      -0.490799       -13.3553
  51   2.0000      -0.486286       -13.2325
  52   2.0000      -0.474095       -12.9008
  53   2.0000      -0.465652       -12.6710
  54   2.0000      -0.464005       -12.6262
  55   2.0000      -0.454952       -12.3799
  56   2.0000      -0.440932       -11.9984
  57   2.0000      -0.436001       -11.8642
  58   2.0000      -0.428718       -11.6660
  59   2.0000      -0.422118       -11.4864
  60   2.0000      -0.419708       -11.4208
  61   2.0000      -0.415241       -11.2993
  62   2.0000      -0.409957       -11.1555
  63   2.0000      -0.361835        -9.8460
  64   2.0000      -0.328953        -8.9513
  65   2.0000      -0.326743        -8.8911
  66   2.0000      -0.282540        -7.6883
  67   0.0000       0.023684         0.6445
  68   0.0000       0.078642         2.1400
  69   0.0000       0.100723         2.7408
  70   0.0000       0.126061         3.4303
  71   0.0000       0.138633         3.7724

MULLIKEN ATOMIC CHARGES
-----------------------
   0 S :    0.090869
   1 C :   -0.094435
   2 C :   -0.090148
   3 C :   -0.028084
   4 C :   -0.129864
   5 H :    0.038950
   6 C :    0.110002
   7 H :   -0.008646
   8 H :    0.019696
   9 C :   -0.074672
  10 H :    0.019263
  11 H :    0.024853
  12 C :   -0.035565
  13 H :    0.017095
  14 H :    0.028339
  15 H :    0.051240
  16 S :    0.107512
  17 C :   -0.049832
  18 C :   -0.019628
  19 C :   -0.100004
  20 C :   -0.101421
  21 H :    0.010139
  22 C :    0.011500
  23 H :    0.045681
  24 H :    0.048974
  25 C :   -0.101802
  26 H :    0.043400
  27 H :    0.030802
  28 C :   -0.011293
  29 H :    0.030479
  30 H :    0.032975
  31 H :    0.024746
  32 H :    0.024393
  33 H :    0.034486
Sum of atomic charges:    0.0000000

LOEWDIN ATOMIC CHARGES
----------------------
   0 S :    0.418015
   1 C :   -0.202399
   2 C :   -0.054061
   3 C :   -0.079029
   4 C :   -0.169530
   5 H :    0.036505
   6 C :   -0.018777
   7 H :    0.019848
   8 H :    0.027432
   9 C :   -0.039669
  10 H :    0.015424
  11 H :    0.021846
  12 C :   -0.065916
  13 H :    0.019326
  14 H :    0.024817
  15 H :    0.037663
  16 S :    0.420925
  17 C :   -0.173718
  18 C :   -0.063452
  19 C :   -0.058078
  20 C :   -0.213458
  21 H :    0.026511
  22 C :   -0.046653
  23 H :    0.038338
  24 H :    0.021826
  25 C :   -0.048988
  26 H :    0.026810
  27 H :    0.028269
  28 C :   -0.068003
  29 H :    0.023778
  30 H :    0.026633
  31 H :    0.028243
  32 H :    0.019517
  33 H :    0.020004

  Mayer bond orders larger than 0.100000
B(  0-S ,  1-C ) :   1.1147 B(  0-S ,  4-C ) :   1.1405 B(  1-C ,  2-C ) :   1.6560
B(  1-C , 32-H ) :   0.9744 B(  2-C ,  3-C ) :   1.2078 B(  2-C ,  6-C ) :   1.0223
B(  3-C ,  4-C ) :   1.5770 B(  3-C ,  5-H ) :   0.9783 B(  4-C , 20-C ) :   1.0784
B(  6-C ,  7-H ) :   0.9373 B(  6-C ,  8-H ) :   0.9245 B(  6-C ,  9-C ) :   1.0622
B(  9-C , 10-H ) :   0.9677 B(  9-C , 11-H ) :   0.9425 B(  9-C , 12-C ) :   1.0789
B( 12-C , 13-H ) :   0.9710 B( 12-C , 14-H ) :   0.9753 B( 12-C , 15-H ) :   0.9743
B( 16-S , 17-C ) :   1.1553 B( 16-S , 20-C ) :   1.1283 B( 17-C , 18-C ) :   1.6049
B( 17-C , 33-H ) :   0.9720 B( 18-C , 19-C ) :   1.2455 B( 18-C , 21-H ) :   0.9928
B( 19-C , 20-C ) :   1.5695 B( 19-C , 22-C ) :   1.0366 B( 22-C , 23-H ) :   0.9289
B( 22-C , 24-H ) :   0.9299 B( 22-C , 25-C ) :   1.0503 B( 25-C , 26-H ) :   0.9584
B( 25-C , 27-H ) :   0.9492 B( 25-C , 28-C ) :   1.0893 B( 28-C , 29-H ) :   0.9746
B( 28-C , 30-H ) :   0.9731 B( 28-C , 31-H ) :   0.9699

Dispersion correction           -0.013975345
FINAL SINGLE POINT ENERGY     -1339.868944351284

DIPOLE MOMENT
-------------
                                X             Y             Z
Electronic contribution:     -6.58190       2.57583      -8.73518
Nuclear contribution   :      6.57396      -2.71913       8.84898
                        -----------------------------------------
Total Dipole Moment    :     -0.00794      -0.14330       0.11381
                        -----------------------------------------
Magnitude (a.u.)       :      0.18317
Magnitude (Debye)      :      0.46557

Rotational constants in cm-1:     0.022675     0.007944     0.006025
Rotational constants in MHz :   679.788273   238.163606   180.614673

                             ****ORCA TERMINATED NORMALLY****
TOTAL RUN TIME: 0 days 0 hours 0 minutes 33 seconds 688 msec
