                         Program Version 4.2.1 -  RELEASE  -
|  1> ! wB97X-D3 SP def2-SVP
|  2> %pal
|  3> nprocs 16
|  4> end
|  5>
|  6> * xyz 0 1
|  7> S 	 -1.63483 	 62.5626 	 47.9505
|  8> C 	 -2.37736 	 61.7403 	 49.3358
|  9> C 	 -3.09525 	 60.611 	 48.8793
| 10> C 	 -3.20915 	 60.5405 	 47.4796
| 11> C 	 -2.38791 	 61.4687 	 46.8315
| 12> H 	 -3.7866 	 59.8418 	 46.947
| 13> C 	 -3.80228 	 59.6747 	 49.7062
| 14> H 	 -3.08578 	 58.9872 	 50.0737
| 15> H 	 -4.51184 	 59.1151 	 49.1306
| 16> C 	 -4.57884 	 60.3308 	 50.8996
| 17> H 	 -3.95364 	 60.9038 	 51.4995
| 18> H 	 -5.35591 	 60.9022 	 50.3603
| 19> C 	 -5.23752 	 59.2576 	 51.79
| 20> H 	 -4.7106 	 58.3083 	 51.9029
| 21> H 	 -5.59833 	 59.5746 	 52.6864
| 22> H 	 -6.16079 	 58.9579 	 51.3235
| 23> S 	 -2.23226 	 63.3197 	 44.7605
| 24> C 	 -1.91079 	 62.8343 	 43.1297
| 25> C 	 -1.79614 	 61.4682 	 43.1731
| 26> C 	 -2.01959 	 60.7881 	 44.4125
| 27> C 	 -2.29161 	 61.7501 	 45.4114
| 28> H 	 -1.4804 	 60.9707 	 42.2724
| 29> C 	 -1.90645 	 59.2979 	 44.5443
| 30> H 	 -1.50797 	 58.9406 	 45.5234
| 31> H 	 -1.13117 	 59.0349 	 43.8842
| 32> C 	 -3.1714 	 58.547 	 44.0651
| 33> H 	 -2.85955 	 58.3387 	 43.0485
| 34> H 	 -4.09559 	 59.1503 	 44.1109
| 35> C 	 -3.24112 	 57.1531 	 44.6055
| 36> H 	 -3.8262 	 57.2083 	 45.5619
| 37> H 	 -2.23907 	 56.7744 	 44.8577
| 38> H 	 -3.70615 	 56.4207 	 43.9226
| 39> H 	 -2.33718 	 62.0587 	 50.3678
| 40> H 	 -1.5517 	 63.4317 	 42.2659
| 41> *
| 42>
| 43>                          ****END OF INPUT****

CARTESIAN COORDINATES (ANGSTROEM)
---------------------------------
  S     -1.634830   62.562600   47.950500
  C     -2.377360   61.740300   49.335800
  C     -3.095250   60.611000   48.879300
  C     -3.209150   60.540500   47.479600
  C     -2.387910   61.468700   46.831500
  H     -3.786600   59.841800   46.947000
  C     -3.802280   59.674700   49.706200
  H     -3.085780   58.987200   50.073700
  H     -4.511840   59.115100   49.130600
  C     -4.578840   60.330800   50.899600
  H     -3.953640   60.903800   51.499500
  H     -5.355910   60.902200   50.360300
  C     -5.237520   59.257600   51.790000
  H     -4.710600   58.308300   51.902900
  H     -5.598330   59.574600   52.686400
  H     -6.160790   58.957900   51.323500
  S     -2.232260   63.319700   44.760500
  C     -1.910790   62.834300   43.129700
  C     -1.796140   61.468200   43.173100
  C     -2.019590   60.788100   44.412500
  C     -2.291610   61.750100   45.411400
  H     -1.480400   60.970700   42.272400
  C     -1.906450   59.297900   44.544300
  H     -1.507970   58.940600   45.523400
  H     -1.131170   59.034900   43.884200
  C     -3.171400   58.547000   44.065100
  H     -2.859550   58.338700   43.048500
  H     -4.095590   59.150300   44.110900
  C     -3.241120   57.153100   44.605500
  H     -3.826200   57.208300   45.561900
  H     -2.239070   56.774400   44.857700
  H     -3.706150   56.420700   43.922600
  H     -2.337180   62.058700   50.367800
  H     -1.551700   63.431700   42.265900

 Total Charge           Charge          ....    0
 Multiplicity           Mult            ....    1
 Number of Electrons    NEL             ....  134
 Basis Dimension        Dim             ....  322

ORBITAL ENERGIES
----------------

  NO   OCC          E(Eh)            E(eV)
   0   2.0000     -88.967773     -2420.9362
   1   2.0000     -88.965254     -2420.8676
   2   2.0000     -10.328726      -281.0589
   3   2.0000     -10.324096      -280.9329
   4   2.0000     -10.315883      -280.7094
   5   2.0000     -10.314279      -280.6658
   6   2.0000     -10.301180      -280.3094
   7   2.0000     -10.295697      -280.1602
   8   2.0000     -10.289410      -279.9891
   9   2.0000     -10.289322      -279.9867
  10   2.0000     -10.289044      -279.9791
  11   2.0000     -10.286753      -279.9168
  12   2.0000     -10.284271      -279.8492
  13   2.0000     -10.282560      -279.8027
  14   2.0000     -10.280735      -279.7530
  15   2.0000     -10.268255      -279.4134
  16   2.0000      -8.081992      -219.9222
  17   2.0000      -8.080815      -219.8902
  18   2.0000      -6.040499      -164.3703
  19   2.0000      -6.039312      -164.3380
  20   2.0000      -6.036438      -164.2598
  21   2.0000      -6.035001      -164.2207
  22   2.0000      -6.032936      -164.1645
  23   2.0000      -6.031716      -164.1313
  24   2.0000      -1.011127       -27.5142
  25   2.0000      -0.986366       -26.8404
  26   2.0000      -0.918876       -25.0039
  27   2.0000      -0.916357       -24.9353
  28   2.0000      -0.868545       -23.6343
  29   2.0000      -0.856633       -23.3102
  30   2.0000      -0.849843       -23.1254
  31   2.0000      -0.816150       -22.2086
  32   2.0000      -0.783025       -21.3072
  33   2.0000      -0.770095       -20.9553
  34   2.0000      -0.717762       -19.5313
  35   2.0000      -0.700338       -19.0572
  36   2.0000      -0.692703       -18.8494
  37   2.0000      -0.659885       -17.9564
  38   2.0000      -0.637667       -17.3518
  39   2.0000      -0.620281       -16.8787
  40   2.0000      -0.598800       -16.2942
  41   2.0000      -0.581379       -15.8201
  42   2.0000      -0.570905       -15.5351
  43   2.0000      -0.564239       -15.3537
  44   2.0000      -0.526555       -14.3283
  45   2.0000      -0.524344       -14.2681
  46   2.0000      -0.520811       -14.1720
  47   2.0000      -0.519035       -14.1237
  48   2.0000      -0.510396       -13.8886
  49   2.0000      -0.505507       -13.7556
  50   2.0000      -0.496771       -13.5178
  51   2.0000      -0.482743       -13.1361
  52   2.0000      -0.476393       -12.9633
  53   2.0000      -0.462348       -12.5811
  54   2.0000      -0.454538       -12.3686
  55   2.0000      -0.451956       -12.2983
  56   2.0000      -0.445612       -12.1257
  57   2.0000      -0.435114       -11.8401
  58   2.0000      -0.432057       -11.7569
  59   2.0000      -0.428588       -11.6625
  60   2.0000      -0.426680       -11.6106
  61   2.0000      -0.417141       -11.3510
  62   2.0000      -0.400508       -10.8984
  63   2.0000      -0.347809        -9.4644
  64   2.0000      -0.329994        -8.9796
  65   2.0000      -0.327462        -8.9107
  66   2.0000      -0.285791        -7.7768
  67   0.0000       0.022844         0.6216
  68   0.0000       0.080048         2.1782
  69   0.0000       0.112710         3.0670
  70   0.0000       0.123522         3.3612
  71   0.0000       0.133799         3.6409

MULLIKEN ATOMIC CHARGES
-----------------------
   0 S :    0.113888
   1 C :   -0.136523
   2 C :   -0.071213
   3 C :    0.028977
   4 C :   -0.141256
   5 H :   -0.011901
   6 C :    0.090680
   7 H :    0.028955
   8 H :    0.008506
   9 C :   -0.092100
  10 H :    0.023250
  11 H :    0.045655
  12 C :    0.005060
  13 H :    0.026597
  14 H :    0.005797
  15 H :    0.007240
  16 S :    0.111570
  17 C :   -0.105427
  18 C :   -0.042889
  19 C :   -0.056775
  20 C :   -0.138736
  21 H :    0.007348
  22 C :    0.076569
  23 H :    0.034735
  24 H :    0.006276
  25 C :   -0.073153
  26 H :    0.021842
  27 H :    0.055317
  28 C :   -0.063279
  29 H :    0.033709
  30 H :    0.030792
  31 H :    0.042753
  32 H :    0.049169
  33 H :    0.078566
Sum of atomic charges:   -0.0000000

LOEWDIN ATOMIC CHARGES
----------------------
   0 S :    0.412657
   1 C :   -0.202991
   2 C :   -0.058206
   3 C :   -0.057472
   4 C :   -0.185786
   5 H :    0.023692
   6 C :   -0.029340
   7 H :    0.031076
   8 H :    0.025985
   9 C :   -0.023041
  10 H :    0.009994
  11 H :    0.033852
  12 C :   -0.063408
  13 H :    0.027108
  14 H :    0.012164
  15 H :    0.025986
  16 S :    0.436605
  17 C :   -0.213402
  18 C :   -0.071893
  19 C :   -0.056822
  20 C :   -0.220716
  21 H :    0.024092
  22 C :   -0.033217
  23 H :    0.030999
  24 H :    0.025893
  25 C :   -0.047395
  26 H :    0.028026
  27 H :    0.028701
  28 C :   -0.068160
  29 H :    0.026809
  30 H :    0.026832
  31 H :    0.027692
  32 H :    0.026210
  33 H :    0.047476

  Mayer bond orders larger than 0.100000
B(  0-S ,  1-C ) :   1.1349 B(  0-S ,  4-C ) :   1.1719 B(  1-C ,  2-C ) :   1.5534
B(  1-C ,  4-C ) :   0.1029 B(  1-C , 32-H ) :   0.9736 B(  2-C ,  3-C ) :   1.2773
B(  2-C ,  6-C ) :   1.0419 B(  3-C ,  4-C ) :   1.5215 B(  3-C ,  5-H ) :   1.0022
B(  4-C , 20-C ) :   1.0632 B(  6-C ,  7-H ) :   0.9101 B(  6-C ,  8-H ) :   0.9468
B(  6-C ,  9-C ) :   1.0647 B(  9-C , 10-H ) :   0.9585 B(  9-C , 11-H ) :   0.9647
B(  9-C , 12-C ) :   1.0821 B( 12-C , 13-H ) :   0.9750 B( 12-C , 14-H ) :   0.9715
B( 12-C , 15-H ) :   0.9687 B( 16-S , 17-C ) :   1.1497 B( 16-S , 20-C ) :   1.1718
B( 17-C , 18-C ) :   1.5853 B( 17-C , 33-H ) :   0.9632 B( 18-C , 19-C ) :   1.2921
B( 18-C , 21-H ) :   0.9848 B( 19-C , 20-C ) :   1.5096 B( 19-C , 22-C ) :   1.0582
B( 22-C , 23-H ) :   0.9367 B( 22-C , 24-H ) :   0.9227 B( 22-C , 25-C ) :   1.0348
B( 25-C , 26-H ) :   0.9536 B( 25-C , 27-H ) :   0.9681 B( 25-C , 28-C ) :   1.0810
B( 28-C , 29-H ) :   0.9762 B( 28-C , 30-H ) :   0.9678 B( 28-C , 31-H ) :   0.9758

Dispersion correction           -0.013928486
FINAL SINGLE POINT ENERGY     -1339.859395256768

DIPOLE MOMENT
-------------
                                X             Y             Z
Electronic contribution:     12.20135      26.22612      -9.11448
Nuclear contribution   :    -12.31906     -26.89784       9.08531
                        -----------------------------------------
Total Dipole Moment    :     -0.11771      -0.67172      -0.02917
                        -----------------------------------------
Magnitude (a.u.)       :      0.68258
Magnitude (Debye)      :      1.73498

Rotational constants in cm-1:     0.019266     0.008400     0.006207
Rotational constants in MHz :   577.566486   251.812565   186.069074

                             ****ORCA TERMINATED NORMALLY****
TOTAL RUN TIME: 0 days 0 hours 0 minutes 32 seconds 4 msec
