                         Program Version 4.2.1 -  RELEASE  -
|  1> ! wB97X-D3 SP def2-SVP
|  2> %pal
|  3> nprocs 16
|  4> end
|  5>
|  6> * xyz 0 1
|  7> S 	 -69.9732 	 50.2028 	 123.877
|  8> C 	 -69.1679 	 51.7973 	 123.446
|  9> C 	 -70.0648 	 52.8671 	 123.443
| 10> C 	 -71.3795 	 52.4414 	 123.757
| 11> C 	 -71.5369 	 51.0608 	 124.039
| 12> H 	 -72.2968 	 53.0641 	 123.723
| 13> C 	 -69.7381 	 54.2674 	 122.93
| 14> H 	 -70.6222 	 54.7087 	 122.443
| 15> H 	 -69.0669 	 54.1601 	 122.077
| 16> C 	 -69.047 	 55.1236 	 123.9
| 17> H 	 -69.4606 	 54.8302 	 124.87
| 18> H 	 -67.9748 	 54.8581 	 124.025
| 19> C 	 -69.3561 	 56.5965 	 123.62
| 20> H 	 -69.2328 	 57.1472 	 124.553
| 21> H 	 -68.7606 	 56.9592 	 122.766
| 22> H 	 -70.4414 	 56.6055 	 123.392
| 23> S 	 -72.6727 	 48.5934 	 124.234
| 24> C 	 -74.4121 	 48.4398 	 124.252
| 25> C 	 -74.9958 	 49.6635 	 124.477
| 26> C 	 -74.0525 	 50.7853 	 124.532
| 27> C 	 -72.8126 	 50.3767 	 124.248
| 28> H 	 -76.0258 	 49.7278 	 124.633
| 29> C 	 -74.5445 	 52.1795 	 124.748
| 30> H 	 -73.7827 	 52.6488 	 125.293
| 31> H 	 -75.4112 	 52.0983 	 125.486
| 32> C 	 -75.0335 	 52.9728 	 123.525
| 33> H 	 -75.9307 	 52.5539 	 123.099
| 34> H 	 -74.3046 	 53.1144 	 122.712
| 35> C 	 -75.2805 	 54.3934 	 123.964
| 36> H 	 -75.49 	 55.0221 	 123.099
| 37> H 	 -74.3748 	 54.8369 	 124.238
| 38> H 	 -76.1317 	 54.4609 	 124.573
| 39> H 	 -68.0994 	 51.8077 	 123.099
| 40> H 	 -74.9957 	 47.554 	 124.34
| 41> *
| 42>
| 43>                          ****END OF INPUT****

CARTESIAN COORDINATES (ANGSTROEM)
---------------------------------
  S    -69.973200   50.202800  123.877000
  C    -69.167900   51.797300  123.446000
  C    -70.064800   52.867100  123.443000
  C    -71.379500   52.441400  123.757000
  C    -71.536900   51.060800  124.039000
  H    -72.296800   53.064100  123.723000
  C    -69.738100   54.267400  122.930000
  H    -70.622200   54.708700  122.443000
  H    -69.066900   54.160100  122.077000
  C    -69.047000   55.123600  123.900000
  H    -69.460600   54.830200  124.870000
  H    -67.974800   54.858100  124.025000
  C    -69.356100   56.596500  123.620000
  H    -69.232800   57.147200  124.553000
  H    -68.760600   56.959200  122.766000
  H    -70.441400   56.605500  123.392000
  S    -72.672700   48.593400  124.234000
  C    -74.412100   48.439800  124.252000
  C    -74.995800   49.663500  124.477000
  C    -74.052500   50.785300  124.532000
  C    -72.812600   50.376700  124.248000
  H    -76.025800   49.727800  124.633000
  C    -74.544500   52.179500  124.748000
  H    -73.782700   52.648800  125.293000
  H    -75.411200   52.098300  125.486000
  C    -75.033500   52.972800  123.525000
  H    -75.930700   52.553900  123.099000
  H    -74.304600   53.114400  122.712000
  C    -75.280500   54.393400  123.964000
  H    -75.490000   55.022100  123.099000
  H    -74.374800   54.836900  124.238000
  H    -76.131700   54.460900  124.573000
  H    -68.099400   51.807700  123.099000
  H    -74.995700   47.554000  124.340000

 Total Charge           Charge          ....    0
 Multiplicity           Mult            ....    1
 Number of Electrons    NEL             ....  134
 Basis Dimension        Dim             ....  322

ORBITAL ENERGIES
----------------

  NO   OCC          E(Eh)            E(eV)
   0   2.0000     -88.970303     -2421.0050
   1   2.0000     -88.960864     -2420.7482
   2   2.0000     -10.338160      -281.3156
   3   2.0000     -10.327078      -281.0141
   4   2.0000     -10.326222      -280.9908
   5   2.0000     -10.314083      -280.6605
   6   2.0000     -10.306745      -280.4608
   7   2.0000     -10.299917      -280.2750
   8   2.0000     -10.299777      -280.2712
   9   2.0000     -10.295213      -280.1470
  10   2.0000     -10.290003      -280.0052
  11   2.0000     -10.289924      -280.0031
  12   2.0000     -10.289480      -279.9910
  13   2.0000     -10.283562      -279.8299
  14   2.0000     -10.282422      -279.7989
  15   2.0000     -10.270103      -279.4637
  16   2.0000      -8.082792      -219.9440
  17   2.0000      -8.075611      -219.7485
  18   2.0000      -6.041550      -164.3989
  19   2.0000      -6.037752      -164.2956
  20   2.0000      -6.034392      -164.2042
  21   2.0000      -6.033295      -164.1743
  22   2.0000      -6.030375      -164.0948
  23   2.0000      -6.025840      -163.9715
  24   2.0000      -1.002629       -27.2829
  25   2.0000      -0.974577       -26.5196
  26   2.0000      -0.921369       -25.0717
  27   2.0000      -0.918871       -25.0038
  28   2.0000      -0.869853       -23.6699
  29   2.0000      -0.860887       -23.4259
  30   2.0000      -0.840360       -22.8674
  31   2.0000      -0.811068       -22.0703
  32   2.0000      -0.784424       -21.3453
  33   2.0000      -0.774171       -21.0663
  34   2.0000      -0.709225       -19.2990
  35   2.0000      -0.701450       -19.0874
  36   2.0000      -0.696519       -18.9533
  37   2.0000      -0.670130       -18.2352
  38   2.0000      -0.636757       -17.3270
  39   2.0000      -0.618568       -16.8321
  40   2.0000      -0.596473       -16.2309
  41   2.0000      -0.583675       -15.8826
  42   2.0000      -0.568124       -15.4594
  43   2.0000      -0.564093       -15.3498
  44   2.0000      -0.532060       -14.4781
  45   2.0000      -0.530168       -14.4266
  46   2.0000      -0.523960       -14.2577
  47   2.0000      -0.515809       -14.0359
  48   2.0000      -0.499402       -13.5894
  49   2.0000      -0.496136       -13.5006
  50   2.0000      -0.491408       -13.3719
  51   2.0000      -0.484924       -13.1954
  52   2.0000      -0.471046       -12.8178
  53   2.0000      -0.465552       -12.6683
  54   2.0000      -0.457919       -12.4606
  55   2.0000      -0.451976       -12.2989
  56   2.0000      -0.446904       -12.1609
  57   2.0000      -0.439119       -11.9490
  58   2.0000      -0.433272       -11.7899
  59   2.0000      -0.426872       -11.6158
  60   2.0000      -0.420688       -11.4475
  61   2.0000      -0.413277       -11.2458
  62   2.0000      -0.407564       -11.0904
  63   2.0000      -0.360943        -9.8217
  64   2.0000      -0.338078        -9.1996
  65   2.0000      -0.325102        -8.8465
  66   2.0000      -0.280867        -7.6428
  67   0.0000       0.014972         0.4074
  68   0.0000       0.074277         2.0212
  69   0.0000       0.091405         2.4873
  70   0.0000       0.111619         3.0373
  71   0.0000       0.133246         3.6258

MULLIKEN ATOMIC CHARGES
-----------------------
   0 S :    0.089979
   1 C :   -0.156519
   2 C :   -0.045342
   3 C :   -0.027456
   4 C :   -0.098374
   5 H :   -0.002353
   6 C :    0.049493
   7 H :    0.024422
   8 H :    0.022989
   9 C :   -0.078658
  10 H :    0.024016
  11 H :    0.035645
  12 C :   -0.042271
  13 H :    0.041085
  14 H :    0.047303
  15 H :    0.027091
  16 S :    0.073663
  17 C :   -0.052430
  18 C :   -0.022310
  19 C :   -0.064264
  20 C :   -0.102033
  21 H :   -0.007859
  22 C :    0.035211
  23 H :    0.014708
  24 H :    0.031961
  25 C :   -0.055588
  26 H :    0.024548
  27 H :    0.034599
  28 C :    0.002125
  29 H :    0.016112
  30 H :    0.012293
  31 H :    0.027571
  32 H :    0.073219
  33 H :    0.047423
Sum of atomic charges:    0.0000000

LOEWDIN ATOMIC CHARGES
----------------------
   0 S :    0.353822
   1 C :   -0.178354
   2 C :   -0.059079
   3 C :   -0.073863
   4 C :   -0.171680
   5 H :    0.032882
   6 C :   -0.035588
   7 H :    0.030600
   8 H :    0.032265
   9 C :   -0.051325
  10 H :    0.023366
  11 H :    0.028076
  12 C :   -0.061702
  13 H :    0.028746
  14 H :    0.029737
  15 H :    0.027608
  16 S :    0.371683
  17 C :   -0.176380
  18 C :   -0.060089
  19 C :   -0.059853
  20 C :   -0.169246
  21 H :    0.018649
  22 C :   -0.034304
  23 H :    0.021903
  24 H :    0.042343
  25 C :   -0.034709
  26 H :    0.023976
  27 H :    0.025985
  28 C :   -0.055523
  29 H :    0.028202
  30 H :    0.017613
  31 H :    0.018684
  32 H :    0.037725
  33 H :    0.027832

  Mayer bond orders larger than 0.100000
B(  0-S ,  1-C ) :   1.1169 B(  0-S ,  4-C ) :   1.1329 B(  1-C ,  2-C ) :   1.6086
B(  1-C ,  4-C ) :   0.1044 B(  1-C , 32-H ) :   0.9609 B(  2-C ,  3-C ) :   1.2508
B(  2-C ,  6-C ) :   1.0164 B(  3-C ,  4-C ) :   1.5636 B(  3-C ,  5-H ) :   0.9807
B(  4-C , 20-C ) :   1.0949 B(  6-C ,  7-H ) :   0.9519 B(  6-C ,  8-H ) :   0.9350
B(  6-C ,  9-C ) :   1.0509 B(  9-C , 10-H ) :   0.9606 B(  9-C , 11-H ) :   0.9478
B(  9-C , 12-C ) :   1.0764 B( 12-C , 13-H ) :   0.9753 B( 12-C , 14-H ) :   0.9747
B( 12-C , 15-H ) :   0.9774 B( 16-S , 17-C ) :   1.1290 B( 16-S , 20-C ) :   1.0954
B( 17-C , 18-C ) :   1.6586 B( 17-C , 33-H ) :   0.9683 B( 18-C , 19-C ) :   1.1856
B( 18-C , 21-H ) :   0.9959 B( 19-C , 20-C ) :   1.6586 B( 19-C , 22-C ) :   1.0508
B( 22-C , 23-H ) :   0.9298 B( 22-C , 24-H ) :   0.9260 B( 22-C , 25-C ) :   1.0637
B( 25-C , 26-H ) :   0.9497 B( 25-C , 27-H ) :   0.9558 B( 25-C , 28-C ) :   1.0918
B( 28-C , 29-H ) :   0.9665 B( 28-C , 30-H ) :   0.9708 B( 28-C , 31-H ) :   0.9744

Dispersion correction           -0.013886445
FINAL SINGLE POINT ENERGY     -1339.859863873643

DIPOLE MOMENT
-------------
                                X             Y             Z
Electronic contribution:      5.37694     -32.86742       2.31666
Nuclear contribution   :     -5.76779      33.60532      -2.45440
                        -----------------------------------------
Total Dipole Moment    :     -0.39085       0.73791      -0.13775
                        -----------------------------------------
Magnitude (a.u.)       :      0.84631
Magnitude (Debye)      :      2.15116

Rotational constants in cm-1:     0.018140     0.009166     0.006249
Rotational constants in MHz :   543.814973   274.783289   187.345374

                             ****ORCA TERMINATED NORMALLY****
TOTAL RUN TIME: 0 days 0 hours 0 minutes 32 seconds 551 msec
