                         Program Version 4.2.1 -  RELEASE  -
|  1> ! wB97X-D3 SP def2-SVP
|  2> %pal
|  3> nprocs 16
|  4> end
|  5>
|  6> * xyz 0 1
|  7> S 	 -38.0956 	 53.7189 	 101.877
|  8> C 	 -39.0057 	 52.6586 	 100.838
|  9> C 	 -39.9988 	 53.3088 	 100.195
| 10> C 	 -39.7051 	 54.7176 	 100.11
| 11> C 	 -38.7219 	 55.0889 	 101.02
| 12> H 	 -40.2843 	 55.3719 	 99.4399
| 13> C 	 -41.249 	 52.7518 	 99.5307
| 14> H 	 -41.4907 	 53.4174 	 98.8075
| 15> H 	 -42.0651 	 52.7485 	 100.331
| 16> C 	 -41.0905 	 51.3177 	 98.9769
| 17> H 	 -41.6763 	 51.2292 	 98.007
| 18> H 	 -40.1034 	 51.2933 	 98.3818
| 19> C 	 -41.2863 	 50.194 	 99.9766
| 20> H 	 -40.9488 	 49.3048 	 99.4702
| 21> H 	 -40.5153 	 50.2071 	 100.691
| 22> H 	 -42.3237 	 50.0547 	 100.261
| 23> S 	 -39.0545 	 56.7663 	 103.185
| 24> C 	 -38.6146 	 58.4977 	 103.131
| 25> C 	 -38.0051 	 58.7756 	 101.942
| 26> C 	 -37.9285 	 57.6283 	 100.988
| 27> C 	 -38.4532 	 56.4636 	 101.546
| 28> H 	 -37.6821 	 59.8385 	 101.786
| 29> C 	 -37.3095 	 57.7358 	 99.6236
| 30> H 	 -36.6933 	 58.6834 	 99.6235
| 31> H 	 -38.0016 	 57.8757 	 98.8691
| 32> C 	 -36.3743 	 56.6295 	 99.1217
| 33> H 	 -36.9545 	 55.6464 	 98.9255
| 34> H 	 -35.6473 	 56.2909 	 99.9032
| 35> C 	 -35.4921 	 57.0187 	 97.9204
| 36> H 	 -34.8626 	 57.8625 	 98.2245
| 37> H 	 -36.0699 	 57.1857 	 97.0257
| 38> H 	 -34.7485 	 56.199 	 97.7402
| 39> H 	 -38.9588 	 51.6226 	 100.868
| 40> H 	 -38.6142 	 59.1714 	 103.955
| 41> *
| 42>
| 43>                          ****END OF INPUT****

CARTESIAN COORDINATES (ANGSTROEM)
---------------------------------
  S    -38.095600   53.718900  101.877000
  C    -39.005700   52.658600  100.838000
  C    -39.998800   53.308800  100.195000
  C    -39.705100   54.717600  100.110000
  C    -38.721900   55.088900  101.020000
  H    -40.284300   55.371900   99.439900
  C    -41.249000   52.751800   99.530700
  H    -41.490700   53.417400   98.807500
  H    -42.065100   52.748500  100.331000
  C    -41.090500   51.317700   98.976900
  H    -41.676300   51.229200   98.007000
  H    -40.103400   51.293300   98.381800
  C    -41.286300   50.194000   99.976600
  H    -40.948800   49.304800   99.470200
  H    -40.515300   50.207100  100.691000
  H    -42.323700   50.054700  100.261000
  S    -39.054500   56.766300  103.185000
  C    -38.614600   58.497700  103.131000
  C    -38.005100   58.775600  101.942000
  C    -37.928500   57.628300  100.988000
  C    -38.453200   56.463600  101.546000
  H    -37.682100   59.838500  101.786000
  C    -37.309500   57.735800   99.623600
  H    -36.693300   58.683400   99.623500
  H    -38.001600   57.875700   98.869100
  C    -36.374300   56.629500   99.121700
  H    -36.954500   55.646400   98.925500
  H    -35.647300   56.290900   99.903200
  C    -35.492100   57.018700   97.920400
  H    -34.862600   57.862500   98.224500
  H    -36.069900   57.185700   97.025700
  H    -34.748500   56.199000   97.740200
  H    -38.958800   51.622600  100.868000
  H    -38.614200   59.171400  103.955000

 Total Charge           Charge          ....    0
 Multiplicity           Mult            ....    1
 Number of Electrons    NEL             ....  134
 Basis Dimension        Dim             ....  322

ORBITAL ENERGIES
----------------

  NO   OCC          E(Eh)            E(eV)
   0   2.0000     -88.965714     -2420.8802
   1   2.0000     -88.959185     -2420.7025
   2   2.0000     -10.332171      -281.1527
   3   2.0000     -10.330821      -281.1159
   4   2.0000     -10.315128      -280.6889
   5   2.0000     -10.309197      -280.5275
   6   2.0000     -10.303730      -280.3787
   7   2.0000     -10.301141      -280.3083
   8   2.0000     -10.298307      -280.2312
   9   2.0000     -10.298173      -280.2275
  10   2.0000     -10.296835      -280.1911
  11   2.0000     -10.292649      -280.0772
  12   2.0000     -10.287422      -279.9350
  13   2.0000     -10.287197      -279.9289
  14   2.0000     -10.279466      -279.7185
  15   2.0000     -10.278761      -279.6993
  16   2.0000      -8.080958      -219.8940
  17   2.0000      -8.073224      -219.6836
  18   2.0000      -6.039488      -164.3428
  19   2.0000      -6.035562      -164.2360
  20   2.0000      -6.031997      -164.1390
  21   2.0000      -6.031488      -164.1251
  22   2.0000      -6.027825      -164.0254
  23   2.0000      -6.023734      -163.9141
  24   2.0000      -1.005803       -27.3693
  25   2.0000      -0.977400       -26.5964
  26   2.0000      -0.913437       -24.8559
  27   2.0000      -0.902180       -24.5496
  28   2.0000      -0.866029       -23.5659
  29   2.0000      -0.852090       -23.1866
  30   2.0000      -0.840168       -22.8621
  31   2.0000      -0.814345       -22.1595
  32   2.0000      -0.791299       -21.5323
  33   2.0000      -0.770841       -20.9756
  34   2.0000      -0.707561       -19.2537
  35   2.0000      -0.701719       -19.0947
  36   2.0000      -0.681133       -18.5346
  37   2.0000      -0.655051       -17.8248
  38   2.0000      -0.640241       -17.4218
  39   2.0000      -0.613763       -16.7013
  40   2.0000      -0.593743       -16.1566
  41   2.0000      -0.574316       -15.6279
  42   2.0000      -0.561054       -15.2671
  43   2.0000      -0.558293       -15.1919
  44   2.0000      -0.541324       -14.7302
  45   2.0000      -0.520288       -14.1578
  46   2.0000      -0.516859       -14.0644
  47   2.0000      -0.510030       -13.8786
  48   2.0000      -0.503510       -13.7012
  49   2.0000      -0.498427       -13.5629
  50   2.0000      -0.489575       -13.3220
  51   2.0000      -0.482466       -13.1286
  52   2.0000      -0.476291       -12.9605
  53   2.0000      -0.462672       -12.5900
  54   2.0000      -0.457258       -12.4426
  55   2.0000      -0.449424       -12.2294
  56   2.0000      -0.442101       -12.0302
  57   2.0000      -0.440907       -11.9977
  58   2.0000      -0.424566       -11.5530
  59   2.0000      -0.423435       -11.5222
  60   2.0000      -0.413193       -11.2435
  61   2.0000      -0.407341       -11.0843
  62   2.0000      -0.404470       -11.0062
  63   2.0000      -0.341185        -9.2841
  64   2.0000      -0.326847        -8.8939
  65   2.0000      -0.321007        -8.7350
  66   2.0000      -0.298068        -8.1109
  67   0.0000       0.039148         1.0653
  68   0.0000       0.061758         1.6805
  69   0.0000       0.107014         2.9120
  70   0.0000       0.125557         3.4166
  71   0.0000       0.131260         3.5718

MULLIKEN ATOMIC CHARGES
-----------------------
   0 S :    0.118212
   1 C :   -0.090032
   2 C :   -0.125282
   3 C :    0.034521
   4 C :   -0.149065
   5 H :    0.023721
   6 C :    0.137829
   7 H :   -0.010921
   8 H :    0.056349
   9 C :   -0.168935
  10 H :    0.029072
  11 H :    0.030278
  12 C :    0.032000
  13 H :    0.016224
  14 H :    0.011233
  15 H :    0.053226
  16 S :    0.081993
  17 C :   -0.082873
  18 C :   -0.050487
  19 C :   -0.031194
  20 C :   -0.147884
  21 H :    0.039811
  22 C :    0.096666
  23 H :    0.015541
  24 H :    0.017752
  25 C :   -0.143408
  26 H :    0.052760
  27 H :    0.032672
  28 C :   -0.050451
  29 H :    0.032429
  30 H :    0.036985
  31 H :    0.039099
  32 H :    0.010969
  33 H :    0.051192
Sum of atomic charges:   -0.0000000

LOEWDIN ATOMIC CHARGES
----------------------
   0 S :    0.418246
   1 C :   -0.191755
   2 C :   -0.055800
   3 C :   -0.057197
   4 C :   -0.201625
   5 H :    0.034834
   6 C :   -0.024408
   7 H :    0.013100
   8 H :    0.046994
   9 C :   -0.061012
  10 H :    0.029906
  11 H :    0.032366
  12 C :   -0.061769
  13 H :    0.033116
  14 H :    0.019885
  15 H :    0.033375
  16 S :    0.371024
  17 C :   -0.175486
  18 C :   -0.074022
  19 C :   -0.058336
  20 C :   -0.186689
  21 H :    0.040148
  22 C :   -0.036643
  23 H :    0.036026
  24 H :    0.022724
  25 C :   -0.054710
  26 H :    0.031660
  27 H :    0.026595
  28 C :   -0.066884
  29 H :    0.025636
  30 H :    0.020522
  31 H :    0.034145
  32 H :    0.008636
  33 H :    0.027399

  Mayer bond orders larger than 0.100000
B(  0-S ,  1-C ) :   1.1252 B(  0-S ,  4-C ) :   1.1609 B(  1-C ,  2-C ) :   1.6398
B(  1-C , 32-H ) :   0.9736 B(  2-C ,  3-C ) :   1.2382 B(  2-C ,  6-C ) :   1.0168
B(  3-C ,  4-C ) :   1.5718 B(  3-C ,  5-H ) :   0.9891 B(  4-C , 20-C ) :   1.0025
B(  6-C ,  7-H ) :   0.9298 B(  6-C ,  8-H ) :   0.9310 B(  6-C ,  9-C ) :   1.0705
B(  9-C , 10-H ) :   0.9555 B(  9-C , 11-H ) :   0.9555 B(  9-C , 12-C ) :   1.0706
B( 12-C , 13-H ) :   0.9591 B( 12-C , 14-H ) :   0.9712 B( 12-C , 15-H ) :   0.9718
B( 16-S , 17-C ) :   1.1217 B( 16-S , 20-C ) :   1.1294 B( 17-C , 18-C ) :   1.6753
B( 17-C , 33-H ) :   0.9667 B( 18-C , 19-C ) :   1.1953 B( 18-C , 21-H ) :   0.9766
B( 19-C , 20-C ) :   1.6406 B( 19-C , 22-C ) :   1.0469 B( 22-C , 23-H ) :   0.9367
B( 22-C , 24-H ) :   0.9210 B( 22-C , 25-C ) :   1.0590 B( 25-C , 26-H ) :   0.9450
B( 25-C , 27-H ) :   0.9605 B( 25-C , 28-C ) :   1.0872 B( 28-C , 29-H ) :   0.9721
B( 28-C , 30-H ) :   0.9768 B( 28-C , 31-H ) :   0.9736

Dispersion correction           -0.014219615
FINAL SINGLE POINT ENERGY     -1339.848559851107

DIPOLE MOMENT
-------------
                                X             Y             Z
Electronic contribution:      0.05333       8.42021      21.15986
Nuclear contribution   :     -0.29326      -8.52878     -21.71792
                        -----------------------------------------
Total Dipole Moment    :     -0.23993      -0.10857      -0.55806
                        -----------------------------------------
Magnitude (a.u.)       :      0.61708
Magnitude (Debye)      :      1.56849

Rotational constants in cm-1:     0.020360     0.007930     0.006506
Rotational constants in MHz :   610.365991   237.747572   195.056946

                             ****ORCA TERMINATED NORMALLY****
TOTAL RUN TIME: 0 days 0 hours 0 minutes 30 seconds 1 msec
