                         Program Version 4.2.1 -  RELEASE  -
|  1> ! wB97X-D3 SP def2-SVP
|  2> %pal
|  3> nprocs 16
|  4> end
|  5>
|  6> * xyz 0 1
|  7> S 	 68.2249 	 21.7081 	 76.1729
|  8> C 	 69.0488 	 21.0656 	 77.6054
|  9> C 	 69.8961 	 22.0035 	 78.1231
| 10> C 	 69.8436 	 23.235 	 77.3536
| 11> C 	 68.9121 	 23.2343 	 76.3291
| 12> H 	 70.242 	 24.1633 	 77.6235
| 13> C 	 70.8232 	 21.8991 	 79.3306
| 14> H 	 71.8443 	 22.0746 	 78.9004
| 15> H 	 70.971 	 20.9495 	 79.6507
| 16> C 	 70.6436 	 22.9104 	 80.5114
| 17> H 	 71.0937 	 23.8095 	 80.2171
| 18> H 	 69.5024 	 23.1182 	 80.6306
| 19> C 	 71.2738 	 22.3463 	 81.7695
| 20> H 	 70.7897 	 21.4585 	 82.1486
| 21> H 	 72.3213 	 22.0497 	 81.6551
| 22> H 	 71.218 	 23.0525 	 82.5699
| 23> S 	 68.7386 	 24.4986 	 73.7834
| 24> C 	 67.789 	 25.9952 	 73.6356
| 25> C 	 67.1622 	 26.304 	 74.8496
| 26> C 	 67.5413 	 25.4315 	 75.9521
| 27> C 	 68.3439 	 24.3816 	 75.586
| 28> H 	 66.4131 	 27.0683 	 75.0657
| 29> C 	 66.8548 	 25.5017 	 77.3176
| 30> H 	 66.7842 	 24.5254 	 77.763
| 31> H 	 65.8216 	 25.8065 	 77.2213
| 32> C 	 67.5201 	 26.4007 	 78.3027
| 33> H 	 67.4159 	 27.4566 	 77.9722
| 34> H 	 68.6401 	 26.2266 	 78.3086
| 35> C 	 66.9246 	 26.238 	 79.6433
| 36> H 	 67.3234 	 26.9861 	 80.3375
| 37> H 	 67.1119 	 25.3386 	 80.1452
| 38> H 	 65.9305 	 26.4967 	 79.6438
| 39> H 	 68.9081 	 20.0719 	 77.981
| 40> H 	 67.372 	 26.3515 	 72.6835
| 41> *
| 42>
| 43>                          ****END OF INPUT****

CARTESIAN COORDINATES (ANGSTROEM)
---------------------------------
  S     68.224900   21.708100   76.172900
  C     69.048800   21.065600   77.605400
  C     69.896100   22.003500   78.123100
  C     69.843600   23.235000   77.353600
  C     68.912100   23.234300   76.329100
  H     70.242000   24.163300   77.623500
  C     70.823200   21.899100   79.330600
  H     71.844300   22.074600   78.900400
  H     70.971000   20.949500   79.650700
  C     70.643600   22.910400   80.511400
  H     71.093700   23.809500   80.217100
  H     69.502400   23.118200   80.630600
  C     71.273800   22.346300   81.769500
  H     70.789700   21.458500   82.148600
  H     72.321300   22.049700   81.655100
  H     71.218000   23.052500   82.569900
  S     68.738600   24.498600   73.783400
  C     67.789000   25.995200   73.635600
  C     67.162200   26.304000   74.849600
  C     67.541300   25.431500   75.952100
  C     68.343900   24.381600   75.586000
  H     66.413100   27.068300   75.065700
  C     66.854800   25.501700   77.317600
  H     66.784200   24.525400   77.763000
  H     65.821600   25.806500   77.221300
  C     67.520100   26.400700   78.302700
  H     67.415900   27.456600   77.972200
  H     68.640100   26.226600   78.308600
  C     66.924600   26.238000   79.643300
  H     67.323400   26.986100   80.337500
  H     67.111900   25.338600   80.145200
  H     65.930500   26.496700   79.643800
  H     68.908100   20.071900   77.981000
  H     67.372000   26.351500   72.683500

 Total Charge           Charge          ....    0
 Multiplicity           Mult            ....    1
 Number of Electrons    NEL             ....  134
 Basis Dimension        Dim             ....  322

ORBITAL ENERGIES
----------------

  NO   OCC          E(Eh)            E(eV)
   0   2.0000     -88.963550     -2420.8213
   1   2.0000     -88.962680     -2420.7976
   2   2.0000     -10.334864      -281.2260
   3   2.0000     -10.326863      -281.0082
   4   2.0000     -10.325678      -280.9760
   5   2.0000     -10.315271      -280.6928
   6   2.0000     -10.306077      -280.4426
   7   2.0000     -10.305960      -280.4394
   8   2.0000     -10.302089      -280.3341
   9   2.0000     -10.295475      -280.1541
  10   2.0000     -10.290915      -280.0300
  11   2.0000     -10.290090      -280.0076
  12   2.0000     -10.285123      -279.8724
  13   2.0000     -10.284197      -279.8472
  14   2.0000     -10.278842      -279.7015
  15   2.0000     -10.263593      -279.2866
  16   2.0000      -8.079392      -219.8514
  17   2.0000      -8.075804      -219.7538
  18   2.0000      -6.037865      -164.2987
  19   2.0000      -6.034549      -164.2084
  20   2.0000      -6.033589      -164.1823
  21   2.0000      -6.030582      -164.1005
  22   2.0000      -6.030242      -164.0912
  23   2.0000      -6.026352      -163.9854
  24   2.0000      -1.006106       -27.3775
  25   2.0000      -0.975488       -26.5444
  26   2.0000      -0.918497       -24.9936
  27   2.0000      -0.912986       -24.8436
  28   2.0000      -0.870166       -23.6784
  29   2.0000      -0.852189       -23.1892
  30   2.0000      -0.843680       -22.9577
  31   2.0000      -0.811972       -22.0949
  32   2.0000      -0.787112       -21.4184
  33   2.0000      -0.778261       -21.1776
  34   2.0000      -0.711615       -19.3640
  35   2.0000      -0.699684       -19.0394
  36   2.0000      -0.691342       -18.8124
  37   2.0000      -0.662195       -18.0193
  38   2.0000      -0.651086       -17.7170
  39   2.0000      -0.619047       -16.8451
  40   2.0000      -0.598201       -16.2779
  41   2.0000      -0.574317       -15.6280
  42   2.0000      -0.566985       -15.4284
  43   2.0000      -0.559146       -15.2151
  44   2.0000      -0.527573       -14.3560
  45   2.0000      -0.522246       -14.2110
  46   2.0000      -0.519285       -14.1305
  47   2.0000      -0.515485       -14.0271
  48   2.0000      -0.514280       -13.9943
  49   2.0000      -0.501306       -13.6412
  50   2.0000      -0.490906       -13.3582
  51   2.0000      -0.484035       -13.1713
  52   2.0000      -0.475032       -12.9263
  53   2.0000      -0.467808       -12.7297
  54   2.0000      -0.454428       -12.3656
  55   2.0000      -0.448692       -12.2095
  56   2.0000      -0.447717       -12.1830
  57   2.0000      -0.439150       -11.9499
  58   2.0000      -0.430551       -11.7159
  59   2.0000      -0.426467       -11.6048
  60   2.0000      -0.419519       -11.4157
  61   2.0000      -0.414487       -11.2788
  62   2.0000      -0.410976       -11.1832
  63   2.0000      -0.334695        -9.1075
  64   2.0000      -0.329574        -8.9682
  65   2.0000      -0.325084        -8.8460
  66   2.0000      -0.311348        -8.4722
  67   0.0000       0.035716         0.9719
  68   0.0000       0.057916         1.5760
  69   0.0000       0.107406         2.9227
  70   0.0000       0.118153         3.2151
  71   0.0000       0.127334         3.4649

MULLIKEN ATOMIC CHARGES
-----------------------
   0 S :    0.113071
   1 C :   -0.127312
   2 C :   -0.078126
   3 C :    0.063402
   4 C :   -0.157659
   5 H :   -0.013015
   6 C :    0.090894
   7 H :    0.034145
   8 H :   -0.021100
   9 C :   -0.073917
  10 H :    0.024353
  11 H :    0.052313
  12 C :   -0.036638
  13 H :    0.028439
  14 H :    0.030296
  15 H :    0.027106
  16 S :    0.075966
  17 C :   -0.080940
  18 C :   -0.034147
  19 C :   -0.007553
  20 C :   -0.175188
  21 H :    0.024826
  22 C :    0.064448
  23 H :    0.022543
  24 H :    0.014573
  25 C :   -0.104079
  26 H :    0.023765
  27 H :    0.031928
  28 C :    0.024033
  29 H :    0.016118
  30 H :    0.024528
  31 H :    0.004503
  32 H :    0.040305
  33 H :    0.078117
Sum of atomic charges:    0.0000000

LOEWDIN ATOMIC CHARGES
----------------------
   0 S :    0.427684
   1 C :   -0.187317
   2 C :   -0.058541
   3 C :   -0.056120
   4 C :   -0.218903
   5 H :    0.018515
   6 C :   -0.030404
   7 H :    0.043440
   8 H :    0.009700
   9 C :   -0.035006
  10 H :    0.015402
  11 H :    0.035641
  12 C :   -0.063816
  13 H :    0.025345
  14 H :    0.027920
  15 H :    0.023701
  16 S :    0.349234
  17 C :   -0.182173
  18 C :   -0.067235
  19 C :   -0.049438
  20 C :   -0.167884
  21 H :    0.032481
  22 C :   -0.029189
  23 H :    0.029483
  24 H :    0.028413
  25 C :   -0.045181
  26 H :    0.024933
  27 H :    0.026468
  28 C :   -0.057984
  29 H :    0.031208
  30 H :    0.020028
  31 H :    0.016113
  32 H :    0.025961
  33 H :    0.037520

  Mayer bond orders larger than 0.100000
B(  0-S ,  1-C ) :   1.1317 B(  0-S ,  4-C ) :   1.1775 B(  1-C ,  2-C ) :   1.6210
B(  1-C , 32-H ) :   0.9758 B(  2-C ,  3-C ) :   1.2129 B(  2-C ,  6-C ) :   1.0246
B(  3-C ,  4-C ) :   1.5911 B(  3-C ,  5-H ) :   1.0055 B(  4-C , 20-C ) :   0.9845
B(  6-C ,  7-H ) :   0.9300 B(  6-C ,  8-H ) :   0.9471 B(  6-C ,  9-C ) :   1.0378
B(  9-C , 10-H ) :   0.9521 B(  9-C , 11-H ) :   0.9621 B(  9-C , 12-C ) :   1.0894
B( 12-C , 13-H ) :   0.9749 B( 12-C , 14-H ) :   0.9714 B( 12-C , 15-H ) :   0.9726
B( 16-S , 17-C ) :   1.1438 B( 16-S , 20-C ) :   1.1058 B( 17-C , 18-C ) :   1.6206
B( 17-C , 33-H ) :   0.9578 B( 18-C , 19-C ) :   1.2274 B( 18-C , 21-H ) :   0.9784
B( 19-C , 20-C ) :   1.6570 B( 19-C , 22-C ) :   1.0334 B( 22-C , 23-H ) :   0.9405
B( 22-C , 24-H ) :   0.9346 B( 22-C , 25-C ) :   1.0646 B( 25-C , 26-H ) :   0.9494
B( 25-C , 27-H ) :   0.9518 B( 25-C , 28-C ) :   1.1025 B( 28-C , 29-H ) :   0.9631
B( 28-C , 30-H ) :   0.9708 B( 28-C , 31-H ) :   0.9622

Dispersion correction           -0.014561344
FINAL SINGLE POINT ENERGY     -1339.864371124300

DIPOLE MOMENT
-------------
                                X             Y             Z
Electronic contribution:     -3.17428      -7.34386     -31.32153
Nuclear contribution   :      3.02697       7.50705      32.16746
                        -----------------------------------------
Total Dipole Moment    :     -0.14731       0.16319       0.84592
                        -----------------------------------------
Magnitude (a.u.)       :      0.87402
Magnitude (Debye)      :      2.22159

Rotational constants in cm-1:     0.018609     0.008860     0.006781
Rotational constants in MHz :   557.879572   265.612689   203.285294

                             ****ORCA TERMINATED NORMALLY****
TOTAL RUN TIME: 0 days 0 hours 0 minutes 30 seconds 556 msec
