                         Program Version 4.2.1 -  RELEASE  -
|  1> ! wB97X-D3 SP def2-SVP
|  2> %pal
|  3> nprocs 16
|  4> end
|  5>
|  6> * xyz 0 1
|  7> S 	 0.536613 	 -0.376055 	 79.9069
|  8> C 	 0.740227 	 -0.0645964 	 81.6169
|  9> C 	 0.707769 	 -1.20075 	 82.4239
| 10> C 	 0.840053 	 -2.35875 	 81.5484
| 11> C 	 0.66854 	 -2.07398 	 80.2008
| 12> H 	 1.05008 	 -3.31486 	 81.8198
| 13> C 	 0.841978 	 -1.35881 	 83.947
| 14> H 	 0.0351031 	 -2.01435 	 84.1688
| 15> H 	 0.550713 	 -0.318054 	 84.3197
| 16> C 	 2.09929 	 -1.96754 	 84.5034
| 17> H 	 1.91763 	 -2.07502 	 85.5541
| 18> H 	 2.20662 	 -2.95883 	 84.054
| 19> C 	 3.28895 	 -1.05513 	 84.46
| 20> H 	 4.21848 	 -1.56753 	 84.67
| 21> H 	 3.37054 	 -0.596093 	 83.4735
| 22> H 	 3.11425 	 -0.250103 	 85.1869
| 23> S 	 -0.500145 	 -2.55578 	 77.6843
| 24> C 	 -0.157935 	 -4.03094 	 76.8353
| 25> C 	 0.524379 	 -4.93792 	 77.5992
| 26> C 	 0.884671 	 -4.40486 	 78.9007
| 27> C 	 0.438784 	 -3.13525 	 79.1171
| 28> H 	 0.730561 	 -5.88531 	 77.1055
| 29> C 	 1.55389 	 -5.34982 	 79.868
| 30> H 	 2.31629 	 -4.65923 	 80.332
| 31> H 	 2.11536 	 -6.06097 	 79.2586
| 32> C 	 0.542403 	 -6.14718 	 80.7476
| 33> H 	 -0.123455 	 -5.48918 	 81.2982
| 34> H 	 1.08329 	 -6.61501 	 81.5709
| 35> C 	 -0.292509 	 -7.1818 	 79.9769
| 36> H 	 -0.789584 	 -7.79032 	 80.7398
| 37> H 	 0.315573 	 -7.93216 	 79.5104
| 38> H 	 -1.12292 	 -6.68976 	 79.4132
| 39> H 	 0.747865 	 0.942541 	 82.0143
| 40> H 	 -0.504764 	 -4.07298 	 75.8475
| 41> *
| 42>
| 43>                          ****END OF INPUT****

CARTESIAN COORDINATES (ANGSTROEM)
---------------------------------
  S      0.536613   -0.376055   79.906900
  C      0.740227   -0.064596   81.616900
  C      0.707769   -1.200750   82.423900
  C      0.840053   -2.358750   81.548400
  C      0.668540   -2.073980   80.200800
  H      1.050080   -3.314860   81.819800
  C      0.841978   -1.358810   83.947000
  H      0.035103   -2.014350   84.168800
  H      0.550713   -0.318054   84.319700
  C      2.099290   -1.967540   84.503400
  H      1.917630   -2.075020   85.554100
  H      2.206620   -2.958830   84.054000
  C      3.288950   -1.055130   84.460000
  H      4.218480   -1.567530   84.670000
  H      3.370540   -0.596093   83.473500
  H      3.114250   -0.250103   85.186900
  S     -0.500145   -2.555780   77.684300
  C     -0.157935   -4.030940   76.835300
  C      0.524379   -4.937920   77.599200
  C      0.884671   -4.404860   78.900700
  C      0.438784   -3.135250   79.117100
  H      0.730561   -5.885310   77.105500
  C      1.553890   -5.349820   79.868000
  H      2.316290   -4.659230   80.332000
  H      2.115360   -6.060970   79.258600
  C      0.542403   -6.147180   80.747600
  H     -0.123455   -5.489180   81.298200
  H      1.083290   -6.615010   81.570900
  C     -0.292509   -7.181800   79.976900
  H     -0.789584   -7.790320   80.739800
  H      0.315573   -7.932160   79.510400
  H     -1.122920   -6.689760   79.413200
  H      0.747865    0.942541   82.014300
  H     -0.504764   -4.072980   75.847500

 Total Charge           Charge          ....    0
 Multiplicity           Mult            ....    1
 Number of Electrons    NEL             ....  134
 Basis Dimension        Dim             ....  322

ORBITAL ENERGIES
----------------

  NO   OCC          E(Eh)            E(eV)
   0   2.0000     -88.969329     -2420.9785
   1   2.0000     -88.958062     -2420.6719
   2   2.0000     -10.332987      -281.1749
   3   2.0000     -10.332887      -281.1721
   4   2.0000     -10.316043      -280.7138
   5   2.0000     -10.310520      -280.5635
   6   2.0000     -10.306170      -280.4451
   7   2.0000     -10.301895      -280.3288
   8   2.0000     -10.297052      -280.1970
   9   2.0000     -10.296568      -280.1839
  10   2.0000     -10.293452      -280.0991
  11   2.0000     -10.291558      -280.0475
  12   2.0000     -10.287097      -279.9262
  13   2.0000     -10.284809      -279.8639
  14   2.0000     -10.281675      -279.7786
  15   2.0000     -10.274508      -279.5836
  16   2.0000      -8.084188      -219.9819
  17   2.0000      -8.072910      -219.6751
  18   2.0000      -6.042728      -164.4310
  19   2.0000      -6.038785      -164.3237
  20   2.0000      -6.034799      -164.2152
  21   2.0000      -6.031474      -164.1248
  22   2.0000      -6.027478      -164.0160
  23   2.0000      -6.023569      -163.9096
  24   2.0000      -1.001548       -27.2535
  25   2.0000      -0.981938       -26.7199
  26   2.0000      -0.919563       -25.0226
  27   2.0000      -0.907347       -24.6902
  28   2.0000      -0.863196       -23.4888
  29   2.0000      -0.853690       -23.2301
  30   2.0000      -0.843868       -22.9628
  31   2.0000      -0.813157       -22.1271
  32   2.0000      -0.785439       -21.3729
  33   2.0000      -0.777406       -21.1543
  34   2.0000      -0.707622       -19.2554
  35   2.0000      -0.701978       -19.1018
  36   2.0000      -0.685783       -18.6611
  37   2.0000      -0.664981       -18.0951
  38   2.0000      -0.641939       -17.4681
  39   2.0000      -0.618497       -16.8302
  40   2.0000      -0.588611       -16.0169
  41   2.0000      -0.568510       -15.4700
  42   2.0000      -0.560049       -15.2397
  43   2.0000      -0.553096       -15.0505
  44   2.0000      -0.549539       -14.9537
  45   2.0000      -0.547869       -14.9083
  46   2.0000      -0.522141       -14.2082
  47   2.0000      -0.505371       -13.7518
  48   2.0000      -0.498302       -13.5595
  49   2.0000      -0.493291       -13.4231
  50   2.0000      -0.489095       -13.3089
  51   2.0000      -0.474063       -12.8999
  52   2.0000      -0.471537       -12.8312
  53   2.0000      -0.466963       -12.7067
  54   2.0000      -0.452697       -12.3185
  55   2.0000      -0.450211       -12.2509
  56   2.0000      -0.442829       -12.0500
  57   2.0000      -0.438725       -11.9383
  58   2.0000      -0.435786       -11.8583
  59   2.0000      -0.431310       -11.7365
  60   2.0000      -0.423013       -11.5108
  61   2.0000      -0.413057       -11.2399
  62   2.0000      -0.407454       -11.0874
  63   2.0000      -0.354416        -9.6441
  64   2.0000      -0.331074        -9.0090
  65   2.0000      -0.327383        -8.9086
  66   2.0000      -0.286802        -7.8043
  67   0.0000       0.030308         0.8247
  68   0.0000       0.077941         2.1209
  69   0.0000       0.103921         2.8278
  70   0.0000       0.117638         3.2011
  71   0.0000       0.133524         3.6334

MULLIKEN ATOMIC CHARGES
-----------------------
   0 S :    0.116045
   1 C :   -0.123599
   2 C :   -0.087323
   3 C :    0.019348
   4 C :   -0.099768
   5 H :   -0.043128
   6 C :    0.052680
   7 H :    0.026749
   8 H :    0.026476
   9 C :   -0.041228
  10 H :    0.025653
  11 H :    0.031962
  12 C :   -0.035257
  13 H :    0.035662
  14 H :    0.033355
  15 H :    0.026375
  16 S :    0.059438
  17 C :   -0.084070
  18 C :   -0.022020
  19 C :   -0.091578
  20 C :   -0.116047
  21 H :    0.025625
  22 C :    0.051413
  23 H :    0.044755
  24 H :    0.017218
  25 C :   -0.061572
  26 H :    0.026974
  27 H :    0.025847
  28 C :   -0.043999
  29 H :    0.023235
  30 H :    0.027926
  31 H :    0.065460
  32 H :    0.045301
  33 H :    0.042090
Sum of atomic charges:   -0.0000000

LOEWDIN ATOMIC CHARGES
----------------------
   0 S :    0.413124
   1 C :   -0.198761
   2 C :   -0.056224
   3 C :   -0.058367
   4 C :   -0.192423
   5 H :    0.005846
   6 C :   -0.031069
   7 H :    0.031315
   8 H :    0.035299
   9 C :   -0.042299
  10 H :    0.027381
  11 H :    0.025885
  12 C :   -0.061336
  13 H :    0.026126
  14 H :    0.025075
  15 H :    0.028043
  16 S :    0.365427
  17 C :   -0.170624
  18 C :   -0.075083
  19 C :   -0.065198
  20 C :   -0.168598
  21 H :    0.036321
  22 C :   -0.038466
  23 H :    0.038181
  24 H :    0.028517
  25 C :   -0.039134
  26 H :    0.023001
  27 H :    0.023623
  28 C :   -0.068022
  29 H :    0.030696
  30 H :    0.022674
  31 H :    0.038890
  32 H :    0.024136
  33 H :    0.016042

  Mayer bond orders larger than 0.100000
B(  0-S ,  1-C ) :   1.1377 B(  0-S ,  4-C ) :   1.1478 B(  1-C ,  2-C ) :   1.6177
B(  1-C , 32-H ) :   0.9658 B(  2-C ,  3-C ) :   1.2099 B(  2-C ,  6-C ) :   1.0200
B(  3-C ,  4-C ) :   1.5908 B(  3-C ,  5-H ) :   1.0029 B(  4-C , 20-C ) :   1.0195
B(  6-C ,  7-H ) :   0.9269 B(  6-C ,  8-H ) :   0.9416 B(  6-C ,  9-C ) :   1.0857
B(  9-C , 10-H ) :   0.9491 B(  9-C , 11-H ) :   0.9480 B(  9-C , 12-C ) :   1.0757
B( 12-C , 13-H ) :   0.9728 B( 12-C , 14-H ) :   0.9791 B( 12-C , 15-H ) :   0.9729
B( 16-S , 17-C ) :   1.1544 B( 16-S , 20-C ) :   1.1130 B( 17-C , 18-C ) :   1.6258
B( 17-C , 33-H ) :   0.9749 B( 18-C , 19-C ) :   1.1968 B( 18-C , 21-H ) :   0.9937
B( 19-C , 20-C ) :   1.6612 B( 19-C , 22-C ) :   1.0318 B( 22-C , 23-H ) :   0.9338
B( 22-C , 24-H ) :   0.9368 B( 22-C , 25-C ) :   1.0518 B( 25-C , 26-H ) :   0.9542
B( 25-C , 27-H ) :   0.9583 B( 25-C , 28-C ) :   1.0887 B( 28-C , 29-H ) :   0.9671
B( 28-C , 30-H ) :   0.9730 B( 28-C , 31-H ) :   0.9698

Dispersion correction           -0.014689536
FINAL SINGLE POINT ENERGY     -1339.868470368611

DIPOLE MOMENT
-------------
                                X             Y             Z
Electronic contribution:     -8.02085      15.13152     -21.65219
Nuclear contribution   :      8.16546     -15.67994      22.18555
                        -----------------------------------------
Total Dipole Moment    :      0.14461      -0.54842       0.53336
                        -----------------------------------------
Magnitude (a.u.)       :      0.77855
Magnitude (Debye)      :      1.97893

Rotational constants in cm-1:     0.019570     0.008928     0.006585
Rotational constants in MHz :   586.685719   267.659631   197.410473

                             ****ORCA TERMINATED NORMALLY****
TOTAL RUN TIME: 0 days 0 hours 0 minutes 35 seconds 327 msec
