                         Program Version 4.2.1 -  RELEASE  -
|  1> ! wB97X-D3 SP def2-SVP
|  2> %pal
|  3> nprocs 16
|  4> end
|  5>
|  6> * xyz 0 1
|  7> S 	 0.825272 	 -25.2963 	 82.8857
|  8> C 	 2.47464 	 -25.934 	 82.8603
|  9> C 	 3.43478 	 -25.0585 	 83.302
| 10> C 	 2.81752 	 -23.7939 	 83.7347
| 11> C 	 1.48616 	 -23.699 	 83.4965
| 12> H 	 3.31042 	 -22.898 	 84.103
| 13> C 	 4.90234 	 -25.3305 	 83.5701
| 14> H 	 5.46996 	 -24.8103 	 82.7838
| 15> H 	 5.18125 	 -26.3872 	 83.3452
| 16> C 	 5.56236 	 -24.8784 	 84.8229
| 17> H 	 6.57714 	 -25.2052 	 84.9208
| 18> H 	 5.53191 	 -23.8192 	 84.8909
| 19> C 	 4.76477 	 -25.4255 	 86.019
| 20> H 	 5.33247 	 -25.2465 	 86.9048
| 21> H 	 3.72899 	 -25.1005 	 86.104
| 22> H 	 4.66915 	 -26.525 	 85.9071
| 23> S 	 -1.08886 	 -23.3052 	 84.3846
| 24> C 	 -1.67807 	 -21.7984 	 84.9753
| 25> C 	 -0.705943 	 -20.8637 	 84.7992
| 26> C 	 0.532781 	 -21.246 	 84.2325
| 27> C 	 0.507466 	 -22.6796 	 84.0165
| 28> H 	 -0.907847 	 -19.9055 	 85.2521
| 29> C 	 1.70016 	 -20.2881 	 83.9927
| 30> H 	 2.26306 	 -20.6095 	 83.1483
| 31> H 	 2.45158 	 -20.3857 	 84.8313
| 32> C 	 1.23977 	 -18.8175 	 83.8812
| 33> H 	 2.14959 	 -18.3048 	 83.8769
| 34> H 	 0.700767 	 -18.4974 	 84.7744
| 35> C 	 0.599482 	 -18.403 	 82.5735
| 36> H 	 -0.0710009 	 -17.579 	 82.4126
| 37> H 	 -0.112911 	 -19.1863 	 82.3584
| 38> H 	 1.24673 	 -18.4007 	 81.6791
| 39> H 	 2.67565 	 -26.9252 	 82.4102
| 40> H 	 -2.56333 	 -21.5918 	 85.5141
| 41> *
| 42>
| 43>                          ****END OF INPUT****

CARTESIAN COORDINATES (ANGSTROEM)
---------------------------------
  S      0.825272  -25.296300   82.885700
  C      2.474640  -25.934000   82.860300
  C      3.434780  -25.058500   83.302000
  C      2.817520  -23.793900   83.734700
  C      1.486160  -23.699000   83.496500
  H      3.310420  -22.898000   84.103000
  C      4.902340  -25.330500   83.570100
  H      5.469960  -24.810300   82.783800
  H      5.181250  -26.387200   83.345200
  C      5.562360  -24.878400   84.822900
  H      6.577140  -25.205200   84.920800
  H      5.531910  -23.819200   84.890900
  C      4.764770  -25.425500   86.019000
  H      5.332470  -25.246500   86.904800
  H      3.728990  -25.100500   86.104000
  H      4.669150  -26.525000   85.907100
  S     -1.088860  -23.305200   84.384600
  C     -1.678070  -21.798400   84.975300
  C     -0.705943  -20.863700   84.799200
  C      0.532781  -21.246000   84.232500
  C      0.507466  -22.679600   84.016500
  H     -0.907847  -19.905500   85.252100
  C      1.700160  -20.288100   83.992700
  H      2.263060  -20.609500   83.148300
  H      2.451580  -20.385700   84.831300
  C      1.239770  -18.817500   83.881200
  H      2.149590  -18.304800   83.876900
  H      0.700767  -18.497400   84.774400
  C      0.599482  -18.403000   82.573500
  H     -0.071001  -17.579000   82.412600
  H     -0.112911  -19.186300   82.358400
  H      1.246730  -18.400700   81.679100
  H      2.675650  -26.925200   82.410200
  H     -2.563330  -21.591800   85.514100

 Total Charge           Charge          ....    0
 Multiplicity           Mult            ....    1
 Number of Electrons    NEL             ....  134
 Basis Dimension        Dim             ....  322

ORBITAL ENERGIES
----------------

  NO   OCC          E(Eh)            E(eV)
   0   2.0000     -88.965957     -2420.8868
   1   2.0000     -88.964616     -2420.8503
   2   2.0000     -10.339369      -281.3485
   3   2.0000     -10.338031      -281.3121
   4   2.0000     -10.320403      -280.8324
   5   2.0000     -10.310983      -280.5761
   6   2.0000     -10.310205      -280.5549
   7   2.0000     -10.310063      -280.5511
   8   2.0000     -10.302077      -280.3338
   9   2.0000     -10.299775      -280.2711
  10   2.0000     -10.293261      -280.0939
  11   2.0000     -10.288374      -279.9609
  12   2.0000     -10.286783      -279.9176
  13   2.0000     -10.281836      -279.7830
  14   2.0000     -10.272745      -279.5356
  15   2.0000     -10.269498      -279.4472
  16   2.0000      -8.080873      -219.8917
  17   2.0000      -8.078169      -219.8182
  18   2.0000      -6.039331      -164.3386
  19   2.0000      -6.036994      -164.2750
  20   2.0000      -6.035194      -164.2260
  21   2.0000      -6.033099      -164.1690
  22   2.0000      -6.031830      -164.1344
  23   2.0000      -6.028396      -164.0410
  24   2.0000      -1.002411       -27.2770
  25   2.0000      -0.980483       -26.6803
  26   2.0000      -0.918040       -24.9811
  27   2.0000      -0.913867       -24.8676
  28   2.0000      -0.868213       -23.6253
  29   2.0000      -0.850615       -23.1464
  30   2.0000      -0.839381       -22.8407
  31   2.0000      -0.818960       -22.2850
  32   2.0000      -0.786112       -21.3912
  33   2.0000      -0.775773       -21.1098
  34   2.0000      -0.713887       -19.4259
  35   2.0000      -0.702738       -19.1225
  36   2.0000      -0.694559       -18.8999
  37   2.0000      -0.652145       -17.7458
  38   2.0000      -0.640077       -17.4174
  39   2.0000      -0.624051       -16.9813
  40   2.0000      -0.606095       -16.4927
  41   2.0000      -0.564795       -15.3689
  42   2.0000      -0.555840       -15.1252
  43   2.0000      -0.553937       -15.0734
  44   2.0000      -0.546439       -14.8694
  45   2.0000      -0.538731       -14.6596
  46   2.0000      -0.520838       -14.1727
  47   2.0000      -0.507439       -13.8081
  48   2.0000      -0.501869       -13.6565
  49   2.0000      -0.497169       -13.5287
  50   2.0000      -0.487598       -13.2682
  51   2.0000      -0.477425       -12.9914
  52   2.0000      -0.475677       -12.9438
  53   2.0000      -0.465982       -12.6800
  54   2.0000      -0.458294       -12.4708
  55   2.0000      -0.453529       -12.3411
  56   2.0000      -0.447129       -12.1670
  57   2.0000      -0.441418       -12.0116
  58   2.0000      -0.430467       -11.7136
  59   2.0000      -0.423646       -11.5280
  60   2.0000      -0.419074       -11.4036
  61   2.0000      -0.414318       -11.2742
  62   2.0000      -0.402789       -10.9604
  63   2.0000      -0.361175        -9.8281
  64   2.0000      -0.334148        -9.0926
  65   2.0000      -0.324500        -8.8301
  66   2.0000      -0.285724        -7.7750
  67   0.0000       0.021889         0.5956
  68   0.0000       0.075254         2.0478
  69   0.0000       0.097796         2.6612
  70   0.0000       0.120755         3.2859
  71   0.0000       0.136761         3.7215

MULLIKEN ATOMIC CHARGES
-----------------------
   0 S :    0.071506
   1 C :   -0.136495
   2 C :   -0.059893
   3 C :   -0.015368
   4 C :   -0.094007
   5 H :    0.018160
   6 C :    0.053850
   7 H :    0.029972
   8 H :    0.021026
   9 C :   -0.039705
  10 H :    0.030751
  11 H :    0.018674
  12 C :   -0.062150
  13 H :    0.026118
  14 H :    0.048758
  15 H :    0.020287
  16 S :    0.094564
  17 C :   -0.060605
  18 C :   -0.058389
  19 C :   -0.038353
  20 C :   -0.153935
  21 H :    0.010436
  22 C :    0.039389
  23 H :    0.024439
  24 H :    0.053236
  25 C :   -0.023361
  26 H :    0.011977
  27 H :    0.036692
  28 C :   -0.048054
  29 H :    0.029488
  30 H :    0.015278
  31 H :    0.029338
  32 H :    0.063809
  33 H :    0.042568
Sum of atomic charges:   -0.0000000

LOEWDIN ATOMIC CHARGES
----------------------
   0 S :    0.345976
   1 C :   -0.184366
   2 C :   -0.059768
   3 C :   -0.064102
   4 C :   -0.157648
   5 H :    0.032696
   6 C :   -0.040562
   7 H :    0.035219
   8 H :    0.032493
   9 C :   -0.036609
  10 H :    0.029357
  11 H :    0.017132
  12 C :   -0.065325
  13 H :    0.018630
  14 H :    0.028427
  15 H :    0.025825
  16 S :    0.420170
  17 C :   -0.195261
  18 C :   -0.077717
  19 C :   -0.061799
  20 C :   -0.190549
  21 H :    0.027413
  22 C :   -0.028199
  23 H :    0.027634
  24 H :    0.041461
  25 C :   -0.037002
  26 H :    0.020846
  27 H :    0.027842
  28 C :   -0.079619
  29 H :    0.028217
  30 H :    0.026616
  31 H :    0.029472
  32 H :    0.034735
  33 H :    0.028363

  Mayer bond orders larger than 0.100000
B(  0-S ,  1-C ) :   1.1164 B(  0-S ,  4-C ) :   1.1047 B(  1-C ,  2-C ) :   1.6729
B(  1-C , 32-H ) :   0.9572 B(  2-C ,  3-C ) :   1.1695 B(  2-C ,  6-C ) :   1.0218
B(  3-C ,  4-C ) :   1.6618 B(  3-C ,  5-H ) :   0.9819 B(  4-C , 20-C ) :   1.0433
B(  6-C ,  7-H ) :   0.9249 B(  6-C ,  8-H ) :   0.9444 B(  6-C ,  9-C ) :   1.0968
B(  9-C , 10-H ) :   0.9486 B(  9-C , 11-H ) :   0.9431 B(  9-C , 12-C ) :   1.0864
B( 12-C , 13-H ) :   0.9761 B( 12-C , 14-H ) :   0.9714 B( 12-C , 15-H ) :   0.9745
B( 16-S , 17-C ) :   1.1537 B( 16-S , 20-C ) :   1.1743 B( 17-C , 18-C ) :   1.6006
B( 17-C , 20-C ) :   0.1013 B( 17-C , 33-H ) :   0.9689 B( 18-C , 19-C ) :   1.2793
B( 18-C , 21-H ) :   0.9823 B( 19-C , 20-C ) :   1.5236 B( 19-C , 22-C ) :   1.0330
B( 22-C , 23-H ) :   0.9321 B( 22-C , 24-H ) :   0.9311 B( 22-C , 25-C ) :   1.0860
B( 25-C , 26-H ) :   0.9477 B( 25-C , 27-H ) :   0.9490 B( 25-C , 28-C ) :   1.0624
B( 28-C , 29-H ) :   0.9756 B( 28-C , 30-H ) :   0.9730 B( 28-C , 31-H ) :   0.9734

Dispersion correction           -0.014176046
FINAL SINGLE POINT ENERGY     -1339.861292454802

DIPOLE MOMENT
-------------
                                X             Y             Z
Electronic contribution:    -19.12625     -13.19931      -3.93235
Nuclear contribution   :     19.72798      13.61290       4.17040
                        -----------------------------------------
Total Dipole Moment    :      0.60173       0.41359       0.23805
                        -----------------------------------------
Magnitude (a.u.)       :      0.76799
Magnitude (Debye)      :      1.95207

Rotational constants in cm-1:     0.019371     0.008252     0.006762
Rotational constants in MHz :   580.727290   247.386769   202.713767

                             ****ORCA TERMINATED NORMALLY****
TOTAL RUN TIME: 0 days 0 hours 0 minutes 34 seconds 272 msec
