                         Program Version 4.2.1 -  RELEASE  -
|  1> ! wB97X-D3 SP def2-SVP
|  2> %pal
|  3> nprocs 16
|  4> end
|  5>
|  6> * xyz 0 1
|  7> S 	 15.8035 	 20.0274 	 38.5509
|  8> C 	 15.6832 	 18.423 	 37.734
|  9> C 	 14.4507 	 18.2716 	 37.1825
| 10> C 	 13.6144 	 19.3802 	 37.4285
| 11> C 	 14.1246 	 20.3843 	 38.2027
| 12> H 	 12.625 	 19.4876 	 37.0575
| 13> C 	 14.1243 	 17.2109 	 36.1659
| 14> H 	 12.9985 	 17.1379 	 36.2312
| 15> H 	 14.4843 	 16.2533 	 36.5168
| 16> C 	 14.6376 	 17.4403 	 34.7001
| 17> H 	 14.4359 	 18.453 	 34.3337
| 18> H 	 15.7444 	 17.4039 	 34.7475
| 19> C 	 13.9997 	 16.477 	 33.7092
| 20> H 	 14.1819 	 15.4292 	 33.8276
| 21> H 	 12.8591 	 16.5157 	 33.6875
| 22> H 	 14.4361 	 16.7308 	 32.7186
| 23> S 	 13.2306 	 22.7792 	 37.1594
| 24> C 	 12.1185 	 23.7728 	 38.1739
| 25> C 	 11.8649 	 23.147 	 39.3781
| 26> C 	 12.3903 	 21.8501 	 39.4381
| 27> C 	 13.3846 	 21.6032 	 38.4698
| 28> H 	 11.0706 	 23.6706 	 39.9218
| 29> C 	 12.0314 	 20.8281 	 40.5244
| 30> H 	 12.4459 	 21.0846 	 41.4407
| 31> H 	 12.4795 	 19.8162 	 40.3277
| 32> C 	 10.5111 	 20.5778 	 40.7371
| 33> H 	 10.0483 	 21.4491 	 41.1336
| 34> H 	 10.4713 	 19.8412 	 41.5071
| 35> C 	 9.87289 	 19.8188 	 39.5876
| 36> H 	 10.4593 	 18.982 	 39.3158
| 37> H 	 9.71134 	 20.3733 	 38.6373
| 38> H 	 8.95067 	 19.3873 	 39.9678
| 39> H 	 16.5496 	 17.7487 	 37.4782
| 40> H 	 11.8198 	 24.757 	 37.9993
| 41> *
| 42>
| 43>                          ****END OF INPUT****

CARTESIAN COORDINATES (ANGSTROEM)
---------------------------------
  S     15.803500   20.027400   38.550900
  C     15.683200   18.423000   37.734000
  C     14.450700   18.271600   37.182500
  C     13.614400   19.380200   37.428500
  C     14.124600   20.384300   38.202700
  H     12.625000   19.487600   37.057500
  C     14.124300   17.210900   36.165900
  H     12.998500   17.137900   36.231200
  H     14.484300   16.253300   36.516800
  C     14.637600   17.440300   34.700100
  H     14.435900   18.453000   34.333700
  H     15.744400   17.403900   34.747500
  C     13.999700   16.477000   33.709200
  H     14.181900   15.429200   33.827600
  H     12.859100   16.515700   33.687500
  H     14.436100   16.730800   32.718600
  S     13.230600   22.779200   37.159400
  C     12.118500   23.772800   38.173900
  C     11.864900   23.147000   39.378100
  C     12.390300   21.850100   39.438100
  C     13.384600   21.603200   38.469800
  H     11.070600   23.670600   39.921800
  C     12.031400   20.828100   40.524400
  H     12.445900   21.084600   41.440700
  H     12.479500   19.816200   40.327700
  C     10.511100   20.577800   40.737100
  H     10.048300   21.449100   41.133600
  H     10.471300   19.841200   41.507100
  C      9.872890   19.818800   39.587600
  H     10.459300   18.982000   39.315800
  H      9.711340   20.373300   38.637300
  H      8.950670   19.387300   39.967800
  H     16.549600   17.748700   37.478200
  H     11.819800   24.757000   37.999300

 Total Charge           Charge          ....    0
 Multiplicity           Mult            ....    1
 Number of Electrons    NEL             ....  134
 Basis Dimension        Dim             ....  322

ORBITAL ENERGIES
----------------

  NO   OCC          E(Eh)            E(eV)
   0   2.0000     -88.965620     -2420.8776
   1   2.0000     -88.965520     -2420.8749
   2   2.0000     -10.327136      -281.0156
   3   2.0000     -10.325228      -280.9637
   4   2.0000     -10.318716      -280.7865
   5   2.0000     -10.317516      -280.7539
   6   2.0000     -10.306880      -280.4645
   7   2.0000     -10.295700      -280.1602
   8   2.0000     -10.295011      -280.1415
   9   2.0000     -10.294595      -280.1302
  10   2.0000     -10.294588      -280.1300
  11   2.0000     -10.285947      -279.8948
  12   2.0000     -10.285584      -279.8850
  13   2.0000     -10.285153      -279.8732
  14   2.0000     -10.280671      -279.7513
  15   2.0000     -10.272669      -279.5335
  16   2.0000      -8.079293      -219.8487
  17   2.0000      -8.079188      -219.8459
  18   2.0000      -6.037920      -164.3002
  19   2.0000      -6.037720      -164.2947
  20   2.0000      -6.033967      -164.1926
  21   2.0000      -6.033903      -164.1909
  22   2.0000      -6.029933      -164.0828
  23   2.0000      -6.029920      -164.0825
  24   2.0000      -1.003986       -27.3198
  25   2.0000      -0.981235       -26.7008
  26   2.0000      -0.908456       -24.7204
  27   2.0000      -0.906287       -24.6613
  28   2.0000      -0.871848       -23.7242
  29   2.0000      -0.848160       -23.0796
  30   2.0000      -0.845111       -22.9966
  31   2.0000      -0.815030       -22.1781
  32   2.0000      -0.781373       -21.2622
  33   2.0000      -0.771126       -20.9834
  34   2.0000      -0.708879       -19.2896
  35   2.0000      -0.703922       -19.1547
  36   2.0000      -0.698180       -18.9985
  37   2.0000      -0.652901       -17.7663
  38   2.0000      -0.637483       -17.3468
  39   2.0000      -0.618668       -16.8348
  40   2.0000      -0.596583       -16.2339
  41   2.0000      -0.568527       -15.4704
  42   2.0000      -0.554623       -15.0921
  43   2.0000      -0.551720       -15.0131
  44   2.0000      -0.543407       -14.7869
  45   2.0000      -0.528392       -14.3783
  46   2.0000      -0.518689       -14.1143
  47   2.0000      -0.512706       -13.9514
  48   2.0000      -0.505392       -13.7524
  49   2.0000      -0.495983       -13.4964
  50   2.0000      -0.489625       -13.3234
  51   2.0000      -0.472947       -12.8695
  52   2.0000      -0.467337       -12.7169
  53   2.0000      -0.464079       -12.6282
  54   2.0000      -0.456717       -12.4279
  55   2.0000      -0.449171       -12.2226
  56   2.0000      -0.440241       -11.9796
  57   2.0000      -0.436901       -11.8887
  58   2.0000      -0.433790       -11.8040
  59   2.0000      -0.421432       -11.4677
  60   2.0000      -0.420492       -11.4422
  61   2.0000      -0.414892       -11.2898
  62   2.0000      -0.413305       -11.2466
  63   2.0000      -0.337662        -9.1882
  64   2.0000      -0.329204        -8.9581
  65   2.0000      -0.319631        -8.6976
  66   2.0000      -0.308527        -8.3954
  67   0.0000       0.039793         1.0828
  68   0.0000       0.045836         1.2473
  69   0.0000       0.107589         2.9276
  70   0.0000       0.119000         3.2382
  71   0.0000       0.127690         3.4746

MULLIKEN ATOMIC CHARGES
-----------------------
   0 S :    0.102102
   1 C :   -0.152501
   2 C :   -0.051446
   3 C :    0.031937
   4 C :   -0.161411
   5 H :   -0.001672
   6 C :    0.038497
   7 H :    0.025108
   8 H :    0.021501
   9 C :   -0.047619
  10 H :    0.033012
  11 H :    0.029172
  12 C :   -0.063298
  13 H :    0.024858
  14 H :    0.042848
  15 H :    0.039525
  16 S :    0.100107
  17 C :   -0.089724
  18 C :   -0.023925
  19 C :   -0.016423
  20 C :   -0.161619
  21 H :    0.034528
  22 C :    0.061475
  23 H :    0.017880
  24 H :    0.029635
  25 C :   -0.063419
  26 H :    0.024402
  27 H :    0.015847
  28 C :   -0.030529
  29 H :    0.012282
  30 H :    0.044157
  31 H :    0.026879
  32 H :    0.069509
  33 H :    0.038325
Sum of atomic charges:    0.0000000

LOEWDIN ATOMIC CHARGES
----------------------
   0 S :    0.385090
   1 C :   -0.185642
   2 C :   -0.075548
   3 C :   -0.055978
   4 C :   -0.203295
   5 H :    0.025156
   6 C :   -0.034199
   7 H :    0.032416
   8 H :    0.027243
   9 C :   -0.038532
  10 H :    0.027865
  11 H :    0.027096
  12 C :   -0.072800
  13 H :    0.018529
  14 H :    0.034491
  15 H :    0.032511
  16 S :    0.381776
  17 C :   -0.156581
  18 C :   -0.075322
  19 C :   -0.046784
  20 C :   -0.196572
  21 H :    0.040375
  22 C :   -0.027222
  23 H :    0.021211
  24 H :    0.035465
  25 C :   -0.034961
  26 H :    0.016562
  27 H :    0.025851
  28 C :   -0.062565
  29 H :    0.020110
  30 H :    0.027915
  31 H :    0.026693
  32 H :    0.042065
  33 H :    0.017581

  Mayer bond orders larger than 0.100000
B(  0-S ,  1-C ) :   1.1315 B(  0-S ,  4-C ) :   1.1302 B(  1-C ,  2-C ) :   1.6176
B(  1-C , 32-H ) :   0.9604 B(  2-C ,  3-C ) :   1.2375 B(  2-C ,  6-C ) :   1.0302
B(  3-C ,  4-C ) :   1.5872 B(  3-C ,  5-H ) :   1.0025 B(  4-C , 20-C ) :   1.0267
B(  6-C ,  7-H ) :   0.9436 B(  6-C ,  8-H ) :   0.9367 B(  6-C ,  9-C ) :   1.0507
B(  9-C , 10-H ) :   0.9586 B(  9-C , 11-H ) :   0.9522 B(  9-C , 12-C ) :   1.0763
B( 12-C , 13-H ) :   0.9765 B( 12-C , 14-H ) :   0.9741 B( 12-C , 15-H ) :   0.9730
B( 16-S , 17-C ) :   1.1506 B( 16-S , 20-C ) :   1.1376 B( 17-C , 18-C ) :   1.6348
B( 17-C , 20-C ) :   0.1118 B( 17-C , 33-H ) :   0.9679 B( 18-C , 19-C ) :   1.2325
B( 18-C , 21-H ) :   0.9809 B( 19-C , 20-C ) :   1.5874 B( 19-C , 22-C ) :   1.0351
B( 22-C , 23-H ) :   0.9375 B( 22-C , 24-H ) :   0.9356 B( 22-C , 25-C ) :   1.0901
B( 25-C , 26-H ) :   0.9573 B( 25-C , 27-H ) :   0.9518 B( 25-C , 28-C ) :   1.0707
B( 28-C , 29-H ) :   0.9686 B( 28-C , 30-H ) :   0.9759 B( 28-C , 31-H ) :   0.9748

Dispersion correction           -0.014715539
FINAL SINGLE POINT ENERGY     -1339.861471503017

DIPOLE MOMENT
-------------
                                X             Y             Z
Electronic contribution:     13.96890      18.58375       5.04102
Nuclear contribution   :    -14.43978     -18.94362      -5.13273
                        -----------------------------------------
Total Dipole Moment    :     -0.47088      -0.35987      -0.09171
                        -----------------------------------------
Magnitude (a.u.)       :      0.59971
Magnitude (Debye)      :      1.52433

Rotational constants in cm-1:     0.019078     0.007823     0.007311
Rotational constants in MHz :   571.949693   234.525250   219.173869

                             ****ORCA TERMINATED NORMALLY****
TOTAL RUN TIME: 0 days 0 hours 0 minutes 34 seconds 528 msec
