                         Program Version 4.2.1 -  RELEASE  -
|  1> ! wB97X-D3 SP def2-SVP
|  2> %pal
|  3> nprocs 16
|  4> end
|  5>
|  6> * xyz 0 1
|  7> S 	 -100.376 	 53.7736 	 121.995
|  8> C 	 -100.048 	 52.5842 	 120.777
|  9> C 	 -100.765 	 52.645 	 119.633
| 10> C 	 -101.666 	 53.7611 	 119.714
| 11> C 	 -101.668 	 54.4078 	 120.964
| 12> H 	 -102.361 	 54.1142 	 118.893
| 13> C 	 -100.535 	 51.748 	 118.422
| 14> H 	 -99.4795 	 51.7797 	 118.196
| 15> H 	 -101.23 	 52.0957 	 117.711
| 16> C 	 -100.766 	 50.2437 	 118.679
| 17> H 	 -100.118 	 49.9844 	 119.483
| 18> H 	 -101.731 	 50.1317 	 119.081
| 19> C 	 -100.55 	 49.4076 	 117.446
| 20> H 	 -100.398 	 48.3316 	 117.666
| 21> H 	 -101.357 	 49.4595 	 116.606
| 22> H 	 -99.6076 	 49.6988 	 116.946
| 23> S 	 -101.5 	 56.9646 	 121.812
| 24> C 	 -102.917 	 57.8597 	 122.036
| 25> C 	 -104.06 	 57.1613 	 121.901
| 26> C 	 -103.835 	 55.7918 	 121.456
| 27> C 	 -102.482 	 55.5115 	 121.376
| 28> H 	 -105.017 	 57.5558 	 122.063
| 29> C 	 -104.942 	 54.9455 	 120.894
| 30> H 	 -104.793 	 54.9472 	 119.804
| 31> H 	 -105.921 	 55.3488 	 120.958
| 32> C 	 -105.016 	 53.5371 	 121.433
| 33> H 	 -104.043 	 53.0427 	 121.331
| 34> H 	 -105.725 	 53.0863 	 120.764
| 35> C 	 -105.523 	 53.4169 	 122.876
| 36> H 	 -105.158 	 52.4678 	 123.328
| 37> H 	 -106.556 	 53.7132 	 123.118
| 38> H 	 -104.939 	 54.2027 	 123.482
| 39> H 	 -99.3328 	 51.7614 	 120.856
| 40> H 	 -102.984 	 58.9319 	 122.356
| 41> *
| 42>
| 43>                          ****END OF INPUT****

CARTESIAN COORDINATES (ANGSTROEM)
---------------------------------
  S    -100.376000   53.773600  121.995000
  C    -100.048000   52.584200  120.777000
  C    -100.765000   52.645000  119.633000
  C    -101.666000   53.761100  119.714000
  C    -101.668000   54.407800  120.964000
  H    -102.361000   54.114200  118.893000
  C    -100.535000   51.748000  118.422000
  H    -99.479500   51.779700  118.196000
  H    -101.230000   52.095700  117.711000
  C    -100.766000   50.243700  118.679000
  H    -100.118000   49.984400  119.483000
  H    -101.731000   50.131700  119.081000
  C    -100.550000   49.407600  117.446000
  H    -100.398000   48.331600  117.666000
  H    -101.357000   49.459500  116.606000
  H    -99.607600   49.698800  116.946000
  S    -101.500000   56.964600  121.812000
  C    -102.917000   57.859700  122.036000
  C    -104.060000   57.161300  121.901000
  C    -103.835000   55.791800  121.456000
  C    -102.482000   55.511500  121.376000
  H    -105.017000   57.555800  122.063000
  C    -104.942000   54.945500  120.894000
  H    -104.793000   54.947200  119.804000
  H    -105.921000   55.348800  120.958000
  C    -105.016000   53.537100  121.433000
  H    -104.043000   53.042700  121.331000
  H    -105.725000   53.086300  120.764000
  C    -105.523000   53.416900  122.876000
  H    -105.158000   52.467800  123.328000
  H    -106.556000   53.713200  123.118000
  H    -104.939000   54.202700  123.482000
  H    -99.332800   51.761400  120.856000
  H    -102.984000   58.931900  122.356000

 Total Charge           Charge          ....    0
 Multiplicity           Mult            ....    1
 Number of Electrons    NEL             ....  134
 Basis Dimension        Dim             ....  322

ORBITAL ENERGIES
----------------

  NO   OCC          E(Eh)            E(eV)
   0   2.0000     -88.969805     -2420.9915
   1   2.0000     -88.961419     -2420.7633
   2   2.0000     -10.329762      -281.0871
   3   2.0000     -10.324709      -280.9496
   4   2.0000     -10.312028      -280.6045
   5   2.0000     -10.308309      -280.5034
   6   2.0000     -10.304955      -280.4121
   7   2.0000     -10.302218      -280.3376
   8   2.0000     -10.297042      -280.1967
   9   2.0000     -10.290360      -280.0149
  10   2.0000     -10.290346      -280.0146
  11   2.0000     -10.286810      -279.9183
  12   2.0000     -10.285140      -279.8729
  13   2.0000     -10.281746      -279.7805
  14   2.0000     -10.281096      -279.7628
  15   2.0000     -10.278637      -279.6959
  16   2.0000      -8.084363      -219.9867
  17   2.0000      -8.076883      -219.7832
  18   2.0000      -6.042814      -164.4333
  19   2.0000      -6.039048      -164.3309
  20   2.0000      -6.035421      -164.2321
  21   2.0000      -6.035038      -164.2217
  22   2.0000      -6.031378      -164.1222
  23   2.0000      -6.027467      -164.0157
  24   2.0000      -1.006693       -27.3935
  25   2.0000      -0.985301       -26.8114
  26   2.0000      -0.918288       -24.9879
  27   2.0000      -0.913172       -24.8487
  28   2.0000      -0.872114       -23.7314
  29   2.0000      -0.850431       -23.1414
  30   2.0000      -0.844821       -22.9887
  31   2.0000      -0.810412       -22.0524
  32   2.0000      -0.785021       -21.3615
  33   2.0000      -0.772551       -21.0222
  34   2.0000      -0.710975       -19.3466
  35   2.0000      -0.706277       -19.2188
  36   2.0000      -0.685598       -18.6561
  37   2.0000      -0.661469       -17.9995
  38   2.0000      -0.633985       -17.2516
  39   2.0000      -0.615341       -16.7443
  40   2.0000      -0.601356       -16.3637
  41   2.0000      -0.577597       -15.7172
  42   2.0000      -0.564248       -15.3540
  43   2.0000      -0.550444       -14.9783
  44   2.0000      -0.539338       -14.6761
  45   2.0000      -0.520647       -14.1675
  46   2.0000      -0.516447       -14.0532
  47   2.0000      -0.509630       -13.8677
  48   2.0000      -0.502850       -13.6833
  49   2.0000      -0.496844       -13.5198
  50   2.0000      -0.493413       -13.4265
  51   2.0000      -0.473338       -12.8802
  52   2.0000      -0.468484       -12.7481
  53   2.0000      -0.466914       -12.7054
  54   2.0000      -0.462679       -12.5901
  55   2.0000      -0.453161       -12.3311
  56   2.0000      -0.438146       -11.9226
  57   2.0000      -0.435368       -11.8470
  58   2.0000      -0.433417       -11.7939
  59   2.0000      -0.430034       -11.7018
  60   2.0000      -0.426662       -11.6101
  61   2.0000      -0.420559       -11.4440
  62   2.0000      -0.402195       -10.9443
  63   2.0000      -0.342441        -9.3183
  64   2.0000      -0.333858        -9.0847
  65   2.0000      -0.328119        -8.9286
  66   2.0000      -0.291248        -7.9253
  67   0.0000       0.032828         0.8933
  68   0.0000       0.062979         1.7138
  69   0.0000       0.111980         3.0471
  70   0.0000       0.121641         3.3100
  71   0.0000       0.128184         3.4881

MULLIKEN ATOMIC CHARGES
-----------------------
   0 S :    0.129626
   1 C :   -0.120241
   2 C :   -0.101038
   3 C :    0.008086
   4 C :   -0.172768
   5 H :    0.033698
   6 C :    0.112302
   7 H :    0.034869
   8 H :    0.009339
   9 C :   -0.047939
  10 H :    0.013937
  11 H :    0.017268
  12 C :   -0.074454
  13 H :    0.040935
  14 H :    0.049147
  15 H :    0.023896
  16 S :    0.100731
  17 C :   -0.077256
  18 C :   -0.022383
  19 C :   -0.014031
  20 C :   -0.184092
  21 H :   -0.007719
  22 C :    0.055818
  23 H :    0.038078
  24 H :   -0.000132
  25 C :   -0.052248
  26 H :    0.049504
  27 H :    0.018034
  28 C :   -0.080189
  29 H :    0.046009
  30 H :    0.037505
  31 H :    0.028833
  32 H :    0.038540
  33 H :    0.068335
Sum of atomic charges:    0.0000000

LOEWDIN ATOMIC CHARGES
----------------------
   0 S :    0.406965
   1 C :   -0.201378
   2 C :   -0.069888
   3 C :   -0.063526
   4 C :   -0.200755
   5 H :    0.039601
   6 C :   -0.016802
   7 H :    0.034634
   8 H :    0.023755
   9 C :   -0.036768
  10 H :    0.019175
  11 H :    0.018758
  12 C :   -0.077202
  13 H :    0.030464
  14 H :    0.036484
  15 H :    0.024870
  16 S :    0.400653
  17 C :   -0.202939
  18 C :   -0.073126
  19 C :   -0.044945
  20 C :   -0.185749
  21 H :    0.021436
  22 C :   -0.033653
  23 H :    0.038290
  24 H :    0.024027
  25 C :   -0.041166
  26 H :    0.029935
  27 H :    0.020909
  28 C :   -0.080241
  29 H :    0.033305
  30 H :    0.025283
  31 H :    0.032265
  32 H :    0.025766
  33 H :    0.041561

  Mayer bond orders larger than 0.100000
B(  0-S ,  1-C ) :   1.1336 B(  0-S ,  4-C ) :   1.1389 B(  1-C ,  2-C ) :   1.6440
B(  1-C , 32-H ) :   0.9558 B(  2-C ,  3-C ) :   1.2382 B(  2-C ,  6-C ) :   1.0161
B(  3-C ,  4-C ) :   1.5736 B(  3-C ,  5-H ) :   0.9814 B(  4-C , 20-C ) :   1.0549
B(  6-C ,  7-H ) :   0.9356 B(  6-C ,  8-H ) :   0.9387 B(  6-C ,  9-C ) :   1.0705
B(  9-C , 10-H ) :   0.9530 B(  9-C , 11-H ) :   0.9533 B(  9-C , 12-C ) :   1.0855
B( 12-C , 13-H ) :   0.9726 B( 12-C , 14-H ) :   0.9739 B( 12-C , 15-H ) :   0.9694
B( 16-S , 17-C ) :   1.1533 B( 16-S , 20-C ) :   1.1184 B( 17-C , 18-C ) :   1.6415
B( 17-C , 33-H ) :   0.9530 B( 18-C , 19-C ) :   1.2028 B( 18-C , 21-H ) :   0.9991
B( 19-C , 20-C ) :   1.6244 B( 19-C , 22-C ) :   1.0412 B( 22-C , 23-H ) :   0.9333
B( 22-C , 24-H ) :   0.9327 B( 22-C , 25-C ) :   1.0753 B( 25-C , 26-H ) :   0.9548
B( 25-C , 27-H ) :   0.9505 B( 25-C , 28-C ) :   1.0727 B( 28-C , 29-H ) :   0.9737
B( 28-C , 30-H ) :   0.9729 B( 28-C , 31-H ) :   0.9737

Dispersion correction           -0.014444773
FINAL SINGLE POINT ENERGY     -1339.871668794476

DIPOLE MOMENT
-------------
                                X             Y             Z
Electronic contribution:     11.65956      21.87561      11.71046
Nuclear contribution   :    -12.01037     -22.15528     -12.15337
                        -----------------------------------------
Total Dipole Moment    :     -0.35081      -0.27967      -0.44291
                        -----------------------------------------
Magnitude (a.u.)       :      0.63044
Magnitude (Debye)      :      1.60244

Rotational constants in cm-1:     0.021548     0.007927     0.006650
Rotational constants in MHz :   645.984798   237.635410   199.352052

                             ****ORCA TERMINATED NORMALLY****
TOTAL RUN TIME: 0 days 0 hours 0 minutes 35 seconds 472 msec
