                         Program Version 4.2.1 -  RELEASE  -
|  1> ! wB97X-D3 SP def2-SVP
|  2> %pal
|  3> nprocs 16
|  4> end
|  5>
|  6> * xyz 0 1
|  7> S 	 42.0246 	 27.9632 	 51.6089
|  8> C 	 42.3874 	 29.7341 	 51.7335
|  9> C 	 41.3271 	 30.4467 	 52.2803
| 10> C 	 40.1939 	 29.6074 	 52.4539
| 11> C 	 40.4488 	 28.2901 	 52.1313
| 12> H 	 39.2512 	 29.8385 	 52.8962
| 13> C 	 41.2878 	 31.901 	 52.5715
| 14> H 	 42.3746 	 32.2416 	 52.5576
| 15> H 	 40.9472 	 31.9105 	 53.6066
| 16> C 	 40.5146 	 32.7865 	 51.537
| 17> H 	 39.5124 	 32.3795 	 51.4982
| 18> H 	 40.3922 	 33.6758 	 52.1467
| 19> C 	 41.0642 	 32.9092 	 50.1657
| 20> H 	 41.0618 	 31.8854 	 49.6703
| 21> H 	 40.3967 	 33.409 	 49.4743
| 22> H 	 42.0846 	 33.3442 	 50.156
| 23> S 	 39.8338 	 25.9297 	 53.4253
| 24> C 	 38.2029 	 25.2951 	 53.2718
| 25> C 	 37.4598 	 26.0982 	 52.4421
| 26> C 	 38.1407 	 27.1704 	 51.8038
| 27> C 	 39.4496 	 27.2395 	 52.2843
| 28> H 	 36.4232 	 25.7685 	 52.2321
| 29> C 	 37.4106 	 28.2268 	 50.9836
| 30> H 	 36.9084 	 27.7348 	 50.1503
| 31> H 	 38.2283 	 28.8343 	 50.5355
| 32> C 	 36.4671 	 29.0891 	 51.8332
| 33> H 	 37.0042 	 29.6446 	 52.5864
| 34> H 	 35.7289 	 28.4985 	 52.3803
| 35> C 	 35.6975 	 30.0951 	 51.0216
| 36> H 	 36.4065 	 30.6374 	 50.3319
| 37> H 	 35.3108 	 30.9017 	 51.5717
| 38> H 	 35.0422 	 29.5959 	 50.3721
| 39> H 	 43.4146 	 30.1755 	 51.492
| 40> H 	 37.8546 	 24.3528 	 53.7284
| 41> *
| 42>
| 43>                          ****END OF INPUT****

CARTESIAN COORDINATES (ANGSTROEM)
---------------------------------
  S     42.024600   27.963200   51.608900
  C     42.387400   29.734100   51.733500
  C     41.327100   30.446700   52.280300
  C     40.193900   29.607400   52.453900
  C     40.448800   28.290100   52.131300
  H     39.251200   29.838500   52.896200
  C     41.287800   31.901000   52.571500
  H     42.374600   32.241600   52.557600
  H     40.947200   31.910500   53.606600
  C     40.514600   32.786500   51.537000
  H     39.512400   32.379500   51.498200
  H     40.392200   33.675800   52.146700
  C     41.064200   32.909200   50.165700
  H     41.061800   31.885400   49.670300
  H     40.396700   33.409000   49.474300
  H     42.084600   33.344200   50.156000
  S     39.833800   25.929700   53.425300
  C     38.202900   25.295100   53.271800
  C     37.459800   26.098200   52.442100
  C     38.140700   27.170400   51.803800
  C     39.449600   27.239500   52.284300
  H     36.423200   25.768500   52.232100
  C     37.410600   28.226800   50.983600
  H     36.908400   27.734800   50.150300
  H     38.228300   28.834300   50.535500
  C     36.467100   29.089100   51.833200
  H     37.004200   29.644600   52.586400
  H     35.728900   28.498500   52.380300
  C     35.697500   30.095100   51.021600
  H     36.406500   30.637400   50.331900
  H     35.310800   30.901700   51.571700
  H     35.042200   29.595900   50.372100
  H     43.414600   30.175500   51.492000
  H     37.854600   24.352800   53.728400

 Total Charge           Charge          ....    0
 Multiplicity           Mult            ....    1
 Number of Electrons    NEL             ....  134
 Basis Dimension        Dim             ....  322

ORBITAL ENERGIES
----------------

  NO   OCC          E(Eh)            E(eV)
   0   2.0000     -88.967870     -2420.9388
   1   2.0000     -88.963172     -2420.8110
   2   2.0000     -10.326124      -280.9881
   3   2.0000     -10.322343      -280.8852
   4   2.0000     -10.321050      -280.8500
   5   2.0000     -10.317183      -280.7448
   6   2.0000     -10.302417      -280.3430
   7   2.0000     -10.299246      -280.2567
   8   2.0000     -10.296762      -280.1891
   9   2.0000     -10.295928      -280.1664
  10   2.0000     -10.292088      -280.0620
  11   2.0000     -10.288287      -279.9585
  12   2.0000     -10.288155      -279.9549
  13   2.0000     -10.285886      -279.8932
  14   2.0000     -10.284704      -279.8610
  15   2.0000     -10.271856      -279.5114
  16   2.0000      -8.082730      -219.9423
  17   2.0000      -8.077549      -219.8013
  18   2.0000      -6.041138      -164.3877
  19   2.0000      -6.037327      -164.2840
  20   2.0000      -6.036050      -164.2493
  21   2.0000      -6.033485      -164.1795
  22   2.0000      -6.032152      -164.1432
  23   2.0000      -6.028296      -164.0383
  24   2.0000      -1.006649       -27.3923
  25   2.0000      -0.980941       -26.6928
  26   2.0000      -0.916700       -24.9447
  27   2.0000      -0.912617       -24.8336
  28   2.0000      -0.867694       -23.6112
  29   2.0000      -0.855796       -23.2874
  30   2.0000      -0.847424       -23.0596
  31   2.0000      -0.810206       -22.0468
  32   2.0000      -0.785916       -21.3859
  33   2.0000      -0.772337       -21.0163
  34   2.0000      -0.707844       -19.2614
  35   2.0000      -0.702178       -19.1072
  36   2.0000      -0.692817       -18.8525
  37   2.0000      -0.655099       -17.8262
  38   2.0000      -0.635818       -17.3015
  39   2.0000      -0.617676       -16.8078
  40   2.0000      -0.593543       -16.1511
  41   2.0000      -0.572481       -15.5780
  42   2.0000      -0.563246       -15.3267
  43   2.0000      -0.556709       -15.1488
  44   2.0000      -0.536654       -14.6031
  45   2.0000      -0.530244       -14.4287
  46   2.0000      -0.515519       -14.0280
  47   2.0000      -0.514388       -13.9972
  48   2.0000      -0.511514       -13.9190
  49   2.0000      -0.492398       -13.3988
  50   2.0000      -0.488748       -13.2995
  51   2.0000      -0.476632       -12.9698
  52   2.0000      -0.472855       -12.8671
  53   2.0000      -0.460575       -12.5329
  54   2.0000      -0.456451       -12.4207
  55   2.0000      -0.454414       -12.3652
  56   2.0000      -0.442613       -12.0441
  57   2.0000      -0.441432       -12.0120
  58   2.0000      -0.438506       -11.9323
  59   2.0000      -0.423646       -11.5280
  60   2.0000      -0.420043       -11.4300
  61   2.0000      -0.418056       -11.3759
  62   2.0000      -0.410283       -11.1644
  63   2.0000      -0.337904        -9.1948
  64   2.0000      -0.334440        -9.1006
  65   2.0000      -0.328809        -8.9474
  66   2.0000      -0.293938        -7.9985
  67   0.0000       0.034408         0.9363
  68   0.0000       0.070664         1.9229
  69   0.0000       0.106669         2.9026
  70   0.0000       0.120610         3.2820
  71   0.0000       0.126084         3.4309

MULLIKEN ATOMIC CHARGES
-----------------------
   0 S :    0.116811
   1 C :   -0.161951
   2 C :   -0.070920
   3 C :    0.027283
   4 C :   -0.153985
   5 H :   -0.008984
   6 C :    0.031730
   7 H :    0.022046
   8 H :    0.040622
   9 C :   -0.040718
  10 H :    0.014910
  11 H :    0.028642
  12 C :   -0.045808
  13 H :    0.044799
  14 H :    0.035296
  15 H :    0.042631
  16 S :    0.098816
  17 C :   -0.102920
  18 C :   -0.055888
  19 C :   -0.016854
  20 C :   -0.172989
  21 H :    0.025870
  22 C :    0.063662
  23 H :    0.028586
  24 H :    0.036560
  25 C :   -0.066124
  26 H :    0.017365
  27 H :    0.028867
  28 C :   -0.002665
  29 H :    0.012681
  30 H :    0.026430
  31 H :    0.020519
  32 H :    0.068673
  33 H :    0.067008
Sum of atomic charges:    0.0000000

LOEWDIN ATOMIC CHARGES
----------------------
   0 S :    0.408389
   1 C :   -0.198771
   2 C :   -0.064864
   3 C :   -0.063608
   4 C :   -0.211221
   5 H :    0.024999
   6 C :   -0.035816
   7 H :    0.033440
   8 H :    0.037246
   9 C :   -0.042326
  10 H :    0.021960
  11 H :    0.025558
  12 C :   -0.071422
  13 H :    0.040081
  14 H :    0.029710
  15 H :    0.029624
  16 S :    0.385577
  17 C :   -0.189319
  18 C :   -0.077406
  19 C :   -0.058944
  20 C :   -0.187365
  21 H :    0.033702
  22 C :   -0.028910
  23 H :    0.031430
  24 H :    0.036158
  25 C :   -0.037164
  26 H :    0.019959
  27 H :    0.024959
  28 C :   -0.058566
  29 H :    0.028347
  30 H :    0.021197
  31 H :    0.017576
  32 H :    0.039546
  33 H :    0.036246

  Mayer bond orders larger than 0.100000
B(  0-S ,  1-C ) :   1.1175 B(  0-S ,  4-C ) :   1.1727 B(  1-C ,  2-C ) :   1.6134
B(  1-C , 32-H ) :   0.9579 B(  2-C ,  3-C ) :   1.2206 B(  2-C ,  6-C ) :   1.0234
B(  3-C ,  4-C ) :   1.5694 B(  3-C ,  5-H ) :   0.9983 B(  4-C , 20-C ) :   1.0121
B(  6-C ,  7-H ) :   0.9386 B(  6-C ,  8-H ) :   0.9355 B(  6-C ,  9-C ) :   1.0589
B(  9-C , 10-H ) :   0.9522 B(  9-C , 11-H ) :   0.9548 B(  9-C , 12-C ) :   1.0828
B( 12-C , 13-H ) :   0.9653 B( 12-C , 14-H ) :   0.9680 B( 12-C , 15-H ) :   0.9733
B( 16-S , 17-C ) :   1.1360 B( 16-S , 20-C ) :   1.1486 B( 17-C , 18-C ) :   1.6316
B( 17-C , 20-C ) :   0.1008 B( 17-C , 33-H ) :   0.9649 B( 18-C , 19-C ) :   1.2226
B( 18-C , 21-H ) :   0.9805 B( 19-C , 20-C ) :   1.6002 B( 19-C , 22-C ) :   1.0539
B( 22-C , 23-H ) :   0.9314 B( 22-C , 24-H ) :   0.9257 B( 22-C , 25-C ) :   1.0635
B( 25-C , 26-H ) :   0.9512 B( 25-C , 27-H ) :   0.9526 B( 25-C , 28-C ) :   1.0921
B( 28-C , 29-H ) :   0.9681 B( 28-C , 30-H ) :   0.9729 B( 28-C , 31-H ) :   0.9743

Dispersion correction           -0.015036672
FINAL SINGLE POINT ENERGY     -1339.882821223732

DIPOLE MOMENT
-------------
                                X             Y             Z
Electronic contribution:     14.39103     -25.94642       8.48607
Nuclear contribution   :    -14.87940      26.50654      -8.55579
                        -----------------------------------------
Total Dipole Moment    :     -0.48837       0.56013      -0.06972
                        -----------------------------------------
Magnitude (a.u.)       :      0.74640
Magnitude (Debye)      :      1.89719

Rotational constants in cm-1:     0.017585     0.010103     0.007005
Rotational constants in MHz :   527.189294   302.886451   210.000654

                             ****ORCA TERMINATED NORMALLY****
TOTAL RUN TIME: 0 days 0 hours 0 minutes 35 seconds 944 msec
