                         Program Version 4.2.1 -  RELEASE  -
|  1> ! wB97X-D3 SP def2-SVP
|  2> %pal
|  3> nprocs 16
|  4> end
|  5>
|  6> * xyz 0 1
|  7> S 	 7.50539 	 -10.4194 	 64.6431
|  8> C 	 7.69702 	 -10.2638 	 66.3388
|  9> C 	 8.77904 	 -10.8884 	 66.8665
| 10> C 	 9.42915 	 -11.7039 	 65.8676
| 11> C 	 8.83405 	 -11.5329 	 64.6243
| 12> H 	 10.3033 	 -12.3231 	 66.1115
| 13> C 	 9.09142 	 -11.0012 	 68.359
| 14> H 	 9.40893 	 -12.0112 	 68.6534
| 15> H 	 8.18403 	 -10.8784 	 68.918
| 16> C 	 10.1339 	 -9.95468 	 68.8973
| 17> H 	 10.3535 	 -10.3606 	 69.8642
| 18> H 	 11.1243 	 -10.0049 	 68.4514
| 19> C 	 9.68756 	 -8.48022 	 68.8816
| 20> H 	 9.78823 	 -8.04231 	 67.8667
| 21> H 	 8.75098 	 -8.32013 	 69.3823
| 22> H 	 10.3165 	 -7.86154 	 69.5333
| 23> S 	 10.7204 	 -11.5393 	 62.621
| 24> C 	 10.4873 	 -12.5367 	 61.2538
| 25> C 	 9.42683 	 -13.4137 	 61.4301
| 26> C 	 8.81748 	 -13.3279 	 62.703
| 27> C 	 9.284 	 -12.1638 	 63.3726
| 28> H 	 9.09324 	 -14.0537 	 60.6306
| 29> C 	 7.63908 	 -14.0994 	 63.1834
| 30> H 	 7.10332 	 -14.3848 	 62.2875
| 31> H 	 6.97348 	 -13.4213 	 63.7434
| 32> C 	 7.94264 	 -15.3245 	 64.0421
| 33> H 	 8.15824 	 -15.0328 	 65.0501
| 34> H 	 8.76739 	 -15.9396 	 63.7059
| 35> C 	 6.7119 	 -16.2523 	 64.1663
| 36> H 	 5.86497 	 -15.7972 	 64.6268
| 37> H 	 7.08434 	 -17.1905 	 64.6179
| 38> H 	 6.26054 	 -16.5312 	 63.2138
| 39> H 	 6.96759 	 -9.73642 	 66.9625
| 40> H 	 11.212 	 -12.6533 	 60.494
| 41> *
| 42>
| 43>                          ****END OF INPUT****

CARTESIAN COORDINATES (ANGSTROEM)
---------------------------------
  S      7.505390  -10.419400   64.643100
  C      7.697020  -10.263800   66.338800
  C      8.779040  -10.888400   66.866500
  C      9.429150  -11.703900   65.867600
  C      8.834050  -11.532900   64.624300
  H     10.303300  -12.323100   66.111500
  C      9.091420  -11.001200   68.359000
  H      9.408930  -12.011200   68.653400
  H      8.184030  -10.878400   68.918000
  C     10.133900   -9.954680   68.897300
  H     10.353500  -10.360600   69.864200
  H     11.124300  -10.004900   68.451400
  C      9.687560   -8.480220   68.881600
  H      9.788230   -8.042310   67.866700
  H      8.750980   -8.320130   69.382300
  H     10.316500   -7.861540   69.533300
  S     10.720400  -11.539300   62.621000
  C     10.487300  -12.536700   61.253800
  C      9.426830  -13.413700   61.430100
  C      8.817480  -13.327900   62.703000
  C      9.284000  -12.163800   63.372600
  H      9.093240  -14.053700   60.630600
  C      7.639080  -14.099400   63.183400
  H      7.103320  -14.384800   62.287500
  H      6.973480  -13.421300   63.743400
  C      7.942640  -15.324500   64.042100
  H      8.158240  -15.032800   65.050100
  H      8.767390  -15.939600   63.705900
  C      6.711900  -16.252300   64.166300
  H      5.864970  -15.797200   64.626800
  H      7.084340  -17.190500   64.617900
  H      6.260540  -16.531200   63.213800
  H      6.967590   -9.736420   66.962500
  H     11.212000  -12.653300   60.494000

 Total Charge           Charge          ....    0
 Multiplicity           Mult            ....    1
 Number of Electrons    NEL             ....  134
 Basis Dimension        Dim             ....  322

ORBITAL ENERGIES
----------------

  NO   OCC          E(Eh)            E(eV)
   0   2.0000     -88.967760     -2420.9358
   1   2.0000     -88.962510     -2420.7930
   2   2.0000     -10.325956      -280.9836
   3   2.0000     -10.320114      -280.8246
   4   2.0000     -10.307869      -280.4914
   5   2.0000     -10.307364      -280.4776
   6   2.0000     -10.299139      -280.2538
   7   2.0000     -10.296358      -280.1782
   8   2.0000     -10.296012      -280.1687
   9   2.0000     -10.295108      -280.1441
  10   2.0000     -10.289195      -279.9832
  11   2.0000     -10.286345      -279.9057
  12   2.0000     -10.285466      -279.8817
  13   2.0000     -10.280054      -279.7345
  14   2.0000     -10.278697      -279.6976
  15   2.0000     -10.272918      -279.5403
  16   2.0000      -8.083289      -219.9575
  17   2.0000      -8.078144      -219.8175
  18   2.0000      -6.041599      -164.4003
  19   2.0000      -6.037769      -164.2960
  20   2.0000      -6.036369      -164.2580
  21   2.0000      -6.034138      -164.1972
  22   2.0000      -6.032417      -164.1504
  23   2.0000      -6.029273      -164.0649
  24   2.0000      -1.008248       -27.4358
  25   2.0000      -0.987832       -26.8803
  26   2.0000      -0.909161       -24.7395
  27   2.0000      -0.905021       -24.6269
  28   2.0000      -0.863812       -23.5055
  29   2.0000      -0.852174       -23.1888
  30   2.0000      -0.848811       -23.0973
  31   2.0000      -0.809086       -22.0164
  32   2.0000      -0.784704       -21.3529
  33   2.0000      -0.769678       -20.9440
  34   2.0000      -0.706457       -19.2237
  35   2.0000      -0.700635       -19.0653
  36   2.0000      -0.689934       -18.7741
  37   2.0000      -0.657914       -17.9027
  38   2.0000      -0.640384       -17.4257
  39   2.0000      -0.618761       -16.8373
  40   2.0000      -0.597071       -16.2471
  41   2.0000      -0.567707       -15.4481
  42   2.0000      -0.559580       -15.2269
  43   2.0000      -0.542609       -14.7651
  44   2.0000      -0.541051       -14.7227
  45   2.0000      -0.529056       -14.3964
  46   2.0000      -0.514284       -13.9944
  47   2.0000      -0.507289       -13.8040
  48   2.0000      -0.503578       -13.7031
  49   2.0000      -0.493275       -13.4227
  50   2.0000      -0.484135       -13.1740
  51   2.0000      -0.480285       -13.0692
  52   2.0000      -0.472780       -12.8650
  53   2.0000      -0.461003       -12.5445
  54   2.0000      -0.454897       -12.3784
  55   2.0000      -0.450780       -12.2663
  56   2.0000      -0.445220       -12.1151
  57   2.0000      -0.441889       -12.0244
  58   2.0000      -0.437501       -11.9050
  59   2.0000      -0.427186       -11.6243
  60   2.0000      -0.418643       -11.3918
  61   2.0000      -0.413951       -11.2642
  62   2.0000      -0.412447       -11.2232
  63   2.0000      -0.335295        -9.1238
  64   2.0000      -0.327720        -8.9177
  65   2.0000      -0.318527        -8.6676
  66   2.0000      -0.304961        -8.2984
  67   0.0000       0.045164         1.2290
  68   0.0000       0.059774         1.6265
  69   0.0000       0.115875         3.1531
  70   0.0000       0.121420         3.3040
  71   0.0000       0.128325         3.4919

MULLIKEN ATOMIC CHARGES
-----------------------
   0 S :    0.136566
   1 C :   -0.131319
   2 C :   -0.062401
   3 C :    0.037539
   4 C :   -0.179279
   5 H :    0.023564
   6 C :    0.045635
   7 H :    0.025269
   8 H :    0.016296
   9 C :   -0.058807
  10 H :    0.014124
  11 H :    0.024964
  12 C :   -0.048796
  13 H :    0.056704
  14 H :    0.021100
  15 H :    0.024242
  16 S :    0.128689
  17 C :   -0.077505
  18 C :   -0.048547
  19 C :    0.007355
  20 C :   -0.201047
  21 H :    0.014960
  22 C :    0.066377
  23 H :    0.011406
  24 H :    0.028633
  25 C :   -0.047245
  26 H :    0.025479
  27 H :    0.027442
  28 C :   -0.048001
  29 H :    0.024059
  30 H :    0.039285
  31 H :    0.012875
  32 H :    0.046841
  33 H :    0.043543
Sum of atomic charges:   -0.0000000

LOEWDIN ATOMIC CHARGES
----------------------
   0 S :    0.430225
   1 C :   -0.206326
   2 C :   -0.069565
   3 C :   -0.054149
   4 C :   -0.209281
   5 H :    0.036851
   6 C :   -0.026693
   7 H :    0.031651
   8 H :    0.026871
   9 C :   -0.040958
  10 H :    0.019555
  11 H :    0.024252
  12 C :   -0.071384
  13 H :    0.035371
  14 H :    0.020799
  15 H :    0.029151
  16 S :    0.436613
  17 C :   -0.199717
  18 C :   -0.071840
  19 C :   -0.050646
  20 C :   -0.213806
  21 H :    0.029151
  22 C :   -0.033666
  23 H :    0.027284
  24 H :    0.033496
  25 C :   -0.032693
  26 H :    0.023678
  27 H :    0.023279
  28 C :   -0.066142
  29 H :    0.020382
  30 H :    0.030873
  31 H :    0.019389
  32 H :    0.027658
  33 H :    0.020338

  Mayer bond orders larger than 0.100000
B(  0-S ,  1-C ) :   1.1451 B(  0-S ,  4-C ) :   1.1581 B(  1-C ,  2-C ) :   1.6331
B(  1-C , 32-H ) :   0.9596 B(  2-C ,  3-C ) :   1.2354 B(  2-C ,  6-C ) :   1.0149
B(  3-C ,  4-C ) :   1.5894 B(  3-C ,  5-H ) :   0.9943 B(  4-C , 20-C ) :   1.0027
B(  6-C ,  7-H ) :   0.9491 B(  6-C ,  8-H ) :   0.9469 B(  6-C ,  9-C ) :   1.0642
B(  9-C , 10-H ) :   0.9557 B(  9-C , 11-H ) :   0.9576 B(  9-C , 12-C ) :   1.0768
B( 12-C , 13-H ) :   0.9741 B( 12-C , 14-H ) :   0.9750 B( 12-C , 15-H ) :   0.9707
B( 16-S , 17-C ) :   1.1775 B( 16-S , 20-C ) :   1.1781 B( 17-C , 18-C ) :   1.5674
B( 17-C , 20-C ) :   0.1104 B( 17-C , 33-H ) :   0.9709 B( 18-C , 19-C ) :   1.2798
B( 18-C , 21-H ) :   0.9912 B( 19-C , 20-C ) :   1.5365 B( 19-C , 22-C ) :   1.0495
B( 22-C , 23-H ) :   0.9410 B( 22-C , 24-H ) :   0.9249 B( 22-C , 25-C ) :   1.0619
B( 25-C , 26-H ) :   0.9487 B( 25-C , 27-H ) :   0.9618 B( 25-C , 28-C ) :   1.0835
B( 28-C , 29-H ) :   0.9735 B( 28-C , 30-H ) :   0.9758 B( 28-C , 31-H ) :   0.9747

Dispersion correction           -0.014266506
FINAL SINGLE POINT ENERGY     -1339.883808344794

DIPOLE MOMENT
-------------
                                X             Y             Z
Electronic contribution:      4.29476       9.20956     -17.82937
Nuclear contribution   :     -4.31823      -9.51746      18.26960
                        -----------------------------------------
Total Dipole Moment    :     -0.02347      -0.30790       0.44024
                        -----------------------------------------
Magnitude (a.u.)       :      0.53774
Magnitude (Debye)      :      1.36682

Rotational constants in cm-1:     0.019628     0.008030     0.006711
Rotational constants in MHz :   588.419874   240.728037   201.179059

                             ****ORCA TERMINATED NORMALLY****
TOTAL RUN TIME: 0 days 0 hours 0 minutes 34 seconds 453 msec
