                         Program Version 4.2.1 -  RELEASE  -
|  1> ! wB97X-D3 SP def2-SVP
|  2> %pal
|  3> nprocs 16
|  4> end
|  5>
|  6> * xyz 0 1
|  7> S 	 44.3791 	 12.5377 	 99.4468
|  8> C 	 45.6218 	 13.742 	 99.0816
|  9> C 	 46.9098 	 13.1685 	 99.0889
| 10> C 	 46.8658 	 11.8685 	 99.4683
| 11> C 	 45.572 	 11.3551 	 99.7577
| 12> H 	 47.7314 	 11.2311 	 99.7226
| 13> C 	 48.2465 	 13.915 	 98.8943
| 14> H 	 48.0925 	 14.6977 	 98.1821
| 15> H 	 48.9649 	 13.3083 	 98.3713
| 16> C 	 48.784 	 14.5028 	 100.21
| 17> H 	 48.9952 	 13.729 	 100.937
| 18> H 	 49.735 	 14.9439 	 99.982
| 19> C 	 47.926 	 15.7007 	 100.704
| 20> H 	 48.3826 	 16.2748 	 101.516
| 21> H 	 47.9612 	 16.3115 	 99.8626
| 22> H 	 46.9215 	 15.4831 	 101.025
| 23> S 	 44.5098 	 10.0096 	 101.896
| 24> C 	 44.4324 	 8.28272 	 101.93
| 25> C 	 45.0805 	 7.78665 	 100.812
| 26> C 	 45.5463 	 8.73451 	 99.8635
| 27> C 	 45.1694 	 10.0069 	 100.219
| 28> H 	 45.0679 	 6.68596 	 100.713
| 29> C 	 45.9942 	 8.19471 	 98.4815
| 30> H 	 46.4632 	 7.19443 	 98.6249
| 31> H 	 46.7925 	 8.91542 	 98.2817
| 32> C 	 44.942 	 8.11081 	 97.2861
| 33> H 	 44.1403 	 7.36307 	 97.5476
| 34> H 	 45.3501 	 7.68879 	 96.4207
| 35> C 	 44.3915 	 9.49078 	 96.8623
| 36> H 	 43.7828 	 9.43395 	 95.8951
| 37> H 	 45.2468 	 10.1239 	 96.7326
| 38> H 	 43.923 	 9.86221 	 97.7273
| 39> H 	 45.5072 	 14.7753 	 98.7749
| 40> H 	 43.8516 	 7.73206 	 102.638
| 41> *
| 42>
| 43>                          ****END OF INPUT****

CARTESIAN COORDINATES (ANGSTROEM)
---------------------------------
  S     44.379100   12.537700   99.446800
  C     45.621800   13.742000   99.081600
  C     46.909800   13.168500   99.088900
  C     46.865800   11.868500   99.468300
  C     45.572000   11.355100   99.757700
  H     47.731400   11.231100   99.722600
  C     48.246500   13.915000   98.894300
  H     48.092500   14.697700   98.182100
  H     48.964900   13.308300   98.371300
  C     48.784000   14.502800  100.210000
  H     48.995200   13.729000  100.937000
  H     49.735000   14.943900   99.982000
  C     47.926000   15.700700  100.704000
  H     48.382600   16.274800  101.516000
  H     47.961200   16.311500   99.862600
  H     46.921500   15.483100  101.025000
  S     44.509800   10.009600  101.896000
  C     44.432400    8.282720  101.930000
  C     45.080500    7.786650  100.812000
  C     45.546300    8.734510   99.863500
  C     45.169400   10.006900  100.219000
  H     45.067900    6.685960  100.713000
  C     45.994200    8.194710   98.481500
  H     46.463200    7.194430   98.624900
  H     46.792500    8.915420   98.281700
  C     44.942000    8.110810   97.286100
  H     44.140300    7.363070   97.547600
  H     45.350100    7.688790   96.420700
  C     44.391500    9.490780   96.862300
  H     43.782800    9.433950   95.895100
  H     45.246800   10.123900   96.732600
  H     43.923000    9.862210   97.727300
  H     45.507200   14.775300   98.774900
  H     43.851600    7.732060  102.638000

 Total Charge           Charge          ....    0
 Multiplicity           Mult            ....    1
 Number of Electrons    NEL             ....  134
 Basis Dimension        Dim             ....  322

ORBITAL ENERGIES
----------------

  NO   OCC          E(Eh)            E(eV)
   0   2.0000     -88.973499     -2421.0920
   1   2.0000     -88.960920     -2420.7497
   2   2.0000     -10.331618      -281.1376
   3   2.0000     -10.329623      -281.0833
   4   2.0000     -10.316179      -280.7175
   5   2.0000     -10.315237      -280.6919
   6   2.0000     -10.306438      -280.4524
   7   2.0000     -10.300686      -280.2959
   8   2.0000     -10.297902      -280.2201
   9   2.0000     -10.293118      -280.0900
  10   2.0000     -10.292631      -280.0767
  11   2.0000     -10.291434      -280.0441
  12   2.0000     -10.287480      -279.9365
  13   2.0000     -10.286402      -279.9072
  14   2.0000     -10.271489      -279.5014
  15   2.0000     -10.270391      -279.4716
  16   2.0000      -8.087797      -220.0801
  17   2.0000      -8.075696      -219.7509
  18   2.0000      -6.046091      -164.5225
  19   2.0000      -6.042152      -164.4153
  20   2.0000      -6.039015      -164.3300
  21   2.0000      -6.034196      -164.1988
  22   2.0000      -6.030152      -164.0888
  23   2.0000      -6.026494      -163.9892
  24   2.0000      -1.007256       -27.4088
  25   2.0000      -0.985672       -26.8215
  26   2.0000      -0.913843       -24.8669
  27   2.0000      -0.898416       -24.4471
  28   2.0000      -0.865045       -23.5391
  29   2.0000      -0.851392       -23.1676
  30   2.0000      -0.845036       -22.9946
  31   2.0000      -0.805235       -21.9116
  32   2.0000      -0.785852       -21.3841
  33   2.0000      -0.774008       -21.0618
  34   2.0000      -0.708355       -19.2753
  35   2.0000      -0.700595       -19.0642
  36   2.0000      -0.693629       -18.8746
  37   2.0000      -0.658866       -17.9287
  38   2.0000      -0.639568       -17.4035
  39   2.0000      -0.619072       -16.8458
  40   2.0000      -0.587510       -15.9870
  41   2.0000      -0.570463       -15.5231
  42   2.0000      -0.553295       -15.0559
  43   2.0000      -0.551869       -15.0171
  44   2.0000      -0.544010       -14.8033
  45   2.0000      -0.534207       -14.5365
  46   2.0000      -0.516292       -14.0490
  47   2.0000      -0.506957       -13.7950
  48   2.0000      -0.499145       -13.5824
  49   2.0000      -0.496580       -13.5126
  50   2.0000      -0.481917       -13.1136
  51   2.0000      -0.475091       -12.9279
  52   2.0000      -0.472734       -12.8638
  53   2.0000      -0.462707       -12.5909
  54   2.0000      -0.453359       -12.3365
  55   2.0000      -0.446326       -12.1451
  56   2.0000      -0.441811       -12.0223
  57   2.0000      -0.438284       -11.9263
  58   2.0000      -0.430283       -11.7086
  59   2.0000      -0.426350       -11.6016
  60   2.0000      -0.424017       -11.5381
  61   2.0000      -0.420585       -11.4447
  62   2.0000      -0.406625       -11.0648
  63   2.0000      -0.341567        -9.2945
  64   2.0000      -0.335129        -9.1193
  65   2.0000      -0.330004        -8.9799
  66   2.0000      -0.294455        -8.0125
  67   0.0000       0.025384         0.6907
  68   0.0000       0.062906         1.7118
  69   0.0000       0.112844         3.0706
  70   0.0000       0.114684         3.1207
  71   0.0000       0.133335         3.6282

MULLIKEN ATOMIC CHARGES
-----------------------
   0 S :    0.141762
   1 C :   -0.120592
   2 C :   -0.093786
   3 C :    0.029180
   4 C :   -0.191524
   5 H :    0.021906
   6 C :    0.074448
   7 H :    0.006254
   8 H :    0.022187
   9 C :   -0.041652
  10 H :    0.030709
  11 H :    0.020105
  12 C :   -0.037631
  13 H :    0.032142
  14 H :    0.006334
  15 H :    0.046161
  16 S :    0.089762
  17 C :   -0.081598
  18 C :   -0.060350
  19 C :   -0.010646
  20 C :   -0.171958
  21 H :    0.026461
  22 C :    0.040553
  23 H :    0.032937
  24 H :    0.025310
  25 C :   -0.044893
  26 H :    0.029578
  27 H :    0.014611
  28 C :   -0.039935
  29 H :    0.054029
  30 H :    0.024744
  31 H :    0.026385
  32 H :    0.043204
  33 H :    0.055805
Sum of atomic charges:   -0.0000000

LOEWDIN ATOMIC CHARGES
----------------------
   0 S :    0.443990
   1 C :   -0.201714
   2 C :   -0.064495
   3 C :   -0.068540
   4 C :   -0.219331
   5 H :    0.035908
   6 C :   -0.024089
   7 H :    0.023910
   8 H :    0.029514
   9 C :   -0.029381
  10 H :    0.020664
  11 H :    0.022827
  12 C :   -0.058441
  13 H :    0.028667
  14 H :    0.015803
  15 H :    0.023440
  16 S :    0.392228
  17 C :   -0.184513
  18 C :   -0.076551
  19 C :   -0.061946
  20 C :   -0.189766
  21 H :    0.033375
  22 C :   -0.028941
  23 H :    0.034967
  24 H :    0.029097
  25 C :   -0.034293
  26 H :    0.026508
  27 H :    0.014501
  28 C :   -0.063784
  29 H :    0.038062
  30 H :    0.023118
  31 H :    0.015033
  32 H :    0.027029
  33 H :    0.027143

  Mayer bond orders larger than 0.100000
B(  0-S ,  1-C ) :   1.1649 B(  0-S ,  4-C ) :   1.1954 B(  1-C ,  2-C ) :   1.5481
B(  1-C ,  4-C ) :   0.1212 B(  1-C , 32-H ) :   0.9649 B(  2-C ,  3-C ) :   1.3239
B(  2-C ,  6-C ) :   1.0199 B(  3-C ,  4-C ) :   1.5056 B(  3-C ,  5-H ) :   0.9917
B(  4-C , 20-C ) :   1.0013 B(  6-C ,  7-H ) :   0.9357 B(  6-C ,  8-H ) :   0.9414
B(  6-C ,  9-C ) :   1.0765 B(  9-C , 10-H ) :   0.9592 B(  9-C , 11-H ) :   0.9539
B(  9-C , 12-C ) :   1.0631 B( 12-C , 13-H ) :   0.9744 B( 12-C , 14-H ) :   0.9754
B( 12-C , 15-H ) :   0.9768 B( 16-S , 17-C ) :   1.1580 B( 16-S , 20-C ) :   1.1439
B( 17-C , 18-C ) :   1.6069 B( 17-C , 20-C ) :   0.1056 B( 17-C , 33-H ) :   0.9713
B( 18-C , 19-C ) :   1.2269 B( 18-C , 21-H ) :   0.9855 B( 19-C , 20-C ) :   1.6024
B( 19-C , 22-C ) :   1.0288 B( 22-C , 23-H ) :   0.9400 B( 22-C , 24-H ) :   0.9373
B( 22-C , 25-C ) :   1.0592 B( 25-C , 26-H ) :   0.9566 B( 25-C , 27-H ) :   0.9551
B( 25-C , 28-C ) :   1.0693 B( 28-C , 29-H ) :   0.9720 B( 28-C , 30-H ) :   0.9730
B( 28-C , 31-H ) :   0.9757

Dispersion correction           -0.015521257
FINAL SINGLE POINT ENERGY     -1339.863367242533

DIPOLE MOMENT
-------------
                                X             Y             Z
Electronic contribution:    -12.89727      -4.94525      11.58120
Nuclear contribution   :     13.35207       4.86079     -11.84365
                        -----------------------------------------
Total Dipole Moment    :      0.45480      -0.08446      -0.26246
                        -----------------------------------------
Magnitude (a.u.)       :      0.53185
Magnitude (Debye)      :      1.35185

Rotational constants in cm-1:     0.021551     0.008389     0.007411
Rotational constants in MHz :   646.077572   251.504019   222.176076

                             ****ORCA TERMINATED NORMALLY****
TOTAL RUN TIME: 0 days 0 hours 0 minutes 30 seconds 590 msec
