                         Program Version 4.2.1 -  RELEASE  -
|  1> ! wB97X-D3 SP def2-SVP
|  2> %pal
|  3> nprocs 16
|  4> end
|  5>
|  6> * xyz 0 1
|  7> S 	 -57.3574 	 26.4869 	 99.2673
|  8> C 	 -56.3279 	 26.6746 	 100.587
|  9> C 	 -56.3837 	 25.584 	 101.452
| 10> C 	 -57.195 	 24.5562 	 100.912
| 11> C 	 -57.9774 	 24.9906 	 99.8759
| 12> H 	 -57.4935 	 23.6335 	 101.278
| 13> C 	 -55.5356 	 25.3128 	 102.718
| 14> H 	 -54.9426 	 24.4489 	 102.463
| 15> H 	 -56.188 	 25.201 	 103.602
| 16> C 	 -54.5044 	 26.4161 	 103.035
| 17> H 	 -53.9294 	 26.5696 	 102.121
| 18> H 	 -55.1083 	 27.2889 	 103.286
| 19> C 	 -53.4701 	 25.921 	 104.051
| 20> H 	 -52.7928 	 26.7331 	 104.317
| 21> H 	 -53.9753 	 25.6287 	 104.981
| 22> H 	 -52.9504 	 25.0002 	 103.637
| 23> S 	 -60.4908 	 24.0449 	 100.108
| 24> C 	 -61.1103 	 22.9471 	 98.842
| 25> C 	 -60.251 	 22.8838 	 97.7086
| 26> C 	 -59.0825 	 23.6698 	 97.935
| 27> C 	 -59.0229 	 24.2826 	 99.1774
| 28> H 	 -60.4195 	 22.1531 	 96.923
| 29> C 	 -58.0711 	 23.8389 	 96.848
| 30> H 	 -57.209 	 24.3065 	 97.3528
| 31> H 	 -58.3894 	 24.6997 	 96.1525
| 32> C 	 -57.6703 	 22.604 	 96.067
| 33> H 	 -58.5274 	 22.0888 	 95.5793
| 34> H 	 -57.1798 	 21.7804 	 96.5809
| 35> C 	 -56.7269 	 22.9827 	 94.8937
| 36> H 	 -57.36 	 23.4821 	 94.0201
| 37> H 	 -56.3591 	 22.1413 	 94.3656
| 38> H 	 -55.8712 	 23.5414 	 95.166
| 39> H 	 -55.8554 	 27.5864 	 100.863
| 40> H 	 -61.9581 	 22.286 	 98.9313
| 41> *
| 42>
| 43>                          ****END OF INPUT****

CARTESIAN COORDINATES (ANGSTROEM)
---------------------------------
  S    -57.357400   26.486900   99.267300
  C    -56.327900   26.674600  100.587000
  C    -56.383700   25.584000  101.452000
  C    -57.195000   24.556200  100.912000
  C    -57.977400   24.990600   99.875900
  H    -57.493500   23.633500  101.278000
  C    -55.535600   25.312800  102.718000
  H    -54.942600   24.448900  102.463000
  H    -56.188000   25.201000  103.602000
  C    -54.504400   26.416100  103.035000
  H    -53.929400   26.569600  102.121000
  H    -55.108300   27.288900  103.286000
  C    -53.470100   25.921000  104.051000
  H    -52.792800   26.733100  104.317000
  H    -53.975300   25.628700  104.981000
  H    -52.950400   25.000200  103.637000
  S    -60.490800   24.044900  100.108000
  C    -61.110300   22.947100   98.842000
  C    -60.251000   22.883800   97.708600
  C    -59.082500   23.669800   97.935000
  C    -59.022900   24.282600   99.177400
  H    -60.419500   22.153100   96.923000
  C    -58.071100   23.838900   96.848000
  H    -57.209000   24.306500   97.352800
  H    -58.389400   24.699700   96.152500
  C    -57.670300   22.604000   96.067000
  H    -58.527400   22.088800   95.579300
  H    -57.179800   21.780400   96.580900
  C    -56.726900   22.982700   94.893700
  H    -57.360000   23.482100   94.020100
  H    -56.359100   22.141300   94.365600
  H    -55.871200   23.541400   95.166000
  H    -55.855400   27.586400  100.863000
  H    -61.958100   22.286000   98.931300

 Total Charge           Charge          ....    0
 Multiplicity           Mult            ....    1
 Number of Electrons    NEL             ....  134
 Basis Dimension        Dim             ....  322

ORBITAL ENERGIES
----------------

  NO   OCC          E(Eh)            E(eV)
   0   2.0000     -88.968272     -2420.9498
   1   2.0000     -88.963212     -2420.8121
   2   2.0000     -10.322427      -280.8875
   3   2.0000     -10.322158      -280.8802
   4   2.0000     -10.321194      -280.8540
   5   2.0000     -10.307410      -280.4789
   6   2.0000     -10.301523      -280.3187
   7   2.0000     -10.301031      -280.3053
   8   2.0000     -10.297346      -280.2050
   9   2.0000     -10.293421      -280.0982
  10   2.0000     -10.293393      -280.0975
  11   2.0000     -10.289883      -280.0019
  12   2.0000     -10.285696      -279.8880
  13   2.0000     -10.285439      -279.8810
  14   2.0000     -10.285432      -279.8808
  15   2.0000     -10.279215      -279.7116
  16   2.0000      -8.082074      -219.9244
  17   2.0000      -8.079416      -219.8521
  18   2.0000      -6.040613      -164.3734
  19   2.0000      -6.037647      -164.2927
  20   2.0000      -6.036682      -164.2665
  21   2.0000      -6.033616      -164.1830
  22   2.0000      -6.032898      -164.1635
  23   2.0000      -6.030481      -164.0977
  24   2.0000      -1.012978       -27.5645
  25   2.0000      -0.983072       -26.7508
  26   2.0000      -0.911787       -24.8110
  27   2.0000      -0.906863       -24.6770
  28   2.0000      -0.869806       -23.6686
  29   2.0000      -0.854726       -23.2583
  30   2.0000      -0.848062       -23.0770
  31   2.0000      -0.812240       -22.1022
  32   2.0000      -0.778880       -21.1944
  33   2.0000      -0.765012       -20.8170
  34   2.0000      -0.708706       -19.2849
  35   2.0000      -0.700499       -19.0615
  36   2.0000      -0.690477       -18.7888
  37   2.0000      -0.659753       -17.9528
  38   2.0000      -0.651109       -17.7176
  39   2.0000      -0.607204       -16.5229
  40   2.0000      -0.593946       -16.1621
  41   2.0000      -0.583313       -15.8727
  42   2.0000      -0.568473       -15.4689
  43   2.0000      -0.558025       -15.1846
  44   2.0000      -0.531763       -14.4700
  45   2.0000      -0.520829       -14.1725
  46   2.0000      -0.517195       -14.0736
  47   2.0000      -0.512024       -13.9329
  48   2.0000      -0.504491       -13.7279
  49   2.0000      -0.497254       -13.5310
  50   2.0000      -0.490999       -13.3608
  51   2.0000      -0.477638       -12.9972
  52   2.0000      -0.470860       -12.8128
  53   2.0000      -0.463755       -12.6194
  54   2.0000      -0.460464       -12.5299
  55   2.0000      -0.449867       -12.2415
  56   2.0000      -0.442688       -12.0461
  57   2.0000      -0.433774       -11.8036
  58   2.0000      -0.430294       -11.7089
  59   2.0000      -0.422381       -11.4936
  60   2.0000      -0.419770       -11.4225
  61   2.0000      -0.415904       -11.3173
  62   2.0000      -0.411704       -11.2030
  63   2.0000      -0.339273        -9.2321
  64   2.0000      -0.334133        -9.0922
  65   2.0000      -0.323215        -8.7951
  66   2.0000      -0.297244        -8.0884
  67   0.0000       0.035343         0.9617
  68   0.0000       0.063759         1.7350
  69   0.0000       0.111541         3.0352
  70   0.0000       0.113585         3.0908
  71   0.0000       0.132474         3.6048

MULLIKEN ATOMIC CHARGES
-----------------------
   0 S :    0.127035
   1 C :   -0.104689
   2 C :   -0.106686
   3 C :    0.086753
   4 C :   -0.208696
   5 H :   -0.015765
   6 C :    0.059053
   7 H :    0.030764
   8 H :    0.046263
   9 C :   -0.118373
  10 H :    0.032471
  11 H :    0.038590
  12 C :   -0.041316
  13 H :    0.042161
  14 H :    0.025980
  15 H :    0.044106
  16 S :    0.114817
  17 C :   -0.099238
  18 C :   -0.042536
  19 C :    0.007091
  20 C :   -0.175387
  21 H :    0.031758
  22 C :    0.052475
  23 H :    0.017906
  24 H :    0.056217
  25 C :   -0.088019
  26 H :    0.029541
  27 H :    0.035204
  28 C :   -0.062278
  29 H :    0.037668
  30 H :    0.016945
  31 H :    0.033079
  32 H :    0.042462
  33 H :    0.054644
Sum of atomic charges:    0.0000000

LOEWDIN ATOMIC CHARGES
----------------------
   0 S :    0.443510
   1 C :   -0.219041
   2 C :   -0.062872
   3 C :   -0.049468
   4 C :   -0.205757
   5 H :    0.021132
   6 C :   -0.027918
   7 H :    0.031465
   8 H :    0.034404
   9 C :   -0.049185
  10 H :    0.023919
  11 H :    0.022538
  12 C :   -0.065739
  13 H :    0.027705
  14 H :    0.022694
  15 H :    0.034496
  16 S :    0.401085
  17 C :   -0.174611
  18 C :   -0.067760
  19 C :   -0.056969
  20 C :   -0.207420
  21 H :    0.034010
  22 C :   -0.044554
  23 H :    0.026073
  24 H :    0.047883
  25 C :   -0.045221
  26 H :    0.025693
  27 H :    0.026816
  28 C :   -0.067085
  29 H :    0.036212
  30 H :    0.017871
  31 H :    0.018142
  32 H :    0.022567
  33 H :    0.025388

  Mayer bond orders larger than 0.100000
B(  0-S ,  1-C ) :   1.1623 B(  0-S ,  4-C ) :   1.1565 B(  1-C ,  2-C ) :   1.5981
B(  1-C , 32-H ) :   0.9636 B(  2-C ,  3-C ) :   1.2439 B(  2-C ,  6-C ) :   1.0048
B(  3-C ,  4-C ) :   1.5962 B(  3-C ,  5-H ) :   0.9969 B(  4-C , 20-C ) :   1.0058
B(  6-C ,  7-H ) :   0.9444 B(  6-C ,  8-H ) :   0.9371 B(  6-C ,  9-C ) :   1.0898
B(  9-C , 10-H ) :   0.9517 B(  9-C , 11-H ) :   0.9531 B(  9-C , 12-C ) :   1.0832
B( 12-C , 13-H ) :   0.9726 B( 12-C , 14-H ) :   0.9740 B( 12-C , 15-H ) :   0.9725
B( 16-S , 17-C ) :   1.1557 B( 16-S , 20-C ) :   1.1360 B( 17-C , 18-C ) :   1.6098
B( 17-C , 20-C ) :   0.1044 B( 17-C , 33-H ) :   0.9659 B( 18-C , 19-C ) :   1.2324
B( 18-C , 21-H ) :   0.9844 B( 19-C , 20-C ) :   1.6019 B( 19-C , 22-C ) :   1.0485
B( 22-C , 23-H ) :   0.9219 B( 22-C , 24-H ) :   0.9358 B( 22-C , 25-C ) :   1.0538
B( 25-C , 26-H ) :   0.9512 B( 25-C , 27-H ) :   0.9583 B( 25-C , 28-C ) :   1.0885
B( 28-C , 29-H ) :   0.9746 B( 28-C , 30-H ) :   0.9726 B( 28-C , 31-H ) :   0.9764

Dispersion correction           -0.013490888
FINAL SINGLE POINT ENERGY     -1339.865835251187

DIPOLE MOMENT
-------------
                                X             Y             Z
Electronic contribution:    -20.58962       4.84821       1.22155
Nuclear contribution   :     20.96542      -5.18918      -1.17026
                        -----------------------------------------
Total Dipole Moment    :      0.37580      -0.34097       0.05129
                        -----------------------------------------
Magnitude (a.u.)       :      0.51002
Magnitude (Debye)      :      1.29636

Rotational constants in cm-1:     0.020849     0.007086     0.005989
Rotational constants in MHz :   625.047568   212.435261   179.537758

                             ****ORCA TERMINATED NORMALLY****
TOTAL RUN TIME: 0 days 0 hours 0 minutes 28 seconds 483 msec
