                         Program Version 4.2.1 -  RELEASE  -
|  1> ! wB97X-D3 SP def2-SVP
|  2> %pal
|  3> nprocs 16
|  4> end
|  5>
|  6> * xyz 0 1
|  7> S 	 16.3919 	 33.6887 	 61.0101
|  8> C 	 18.1052 	 33.8113 	 61.0041
|  9> C 	 18.5006 	 35.1186 	 61.3426
| 10> C 	 17.3462 	 35.9942 	 61.5718
| 11> C 	 16.151 	 35.3299 	 61.3975
| 12> H 	 17.4082 	 37.0428 	 61.8251
| 13> C 	 19.9522 	 35.6337 	 61.4352
| 14> H 	 20.6177 	 34.8372 	 61.8758
| 15> H 	 20.1247 	 36.385 	 62.1709
| 16> C 	 20.5638 	 36.299 	 60.171
| 17> H 	 19.7893 	 37.0292 	 59.7616
| 18> H 	 21.4789 	 36.8174 	 60.4868
| 19> C 	 20.8431 	 35.2873 	 59.0426
| 20> H 	 19.9991 	 34.5206 	 58.9491
| 21> H 	 20.9232 	 35.816 	 58.0726
| 22> H 	 21.7359 	 34.8271 	 59.3912
| 23> S 	 13.927 	 34.7115 	 62.9481
| 24> C 	 12.5654 	 35.8346 	 62.8111
| 25> C 	 12.9436 	 37.0565 	 62.2765
| 26> C 	 14.2249 	 36.9727 	 61.6579
| 27> C 	 14.7935 	 35.7265 	 61.7809
| 28> H 	 12.3329 	 37.9239 	 62.3554
| 29> C 	 14.7854 	 38.1302 	 60.8689
| 30> H 	 15.6599 	 37.8693 	 60.4068
| 31> H 	 14.7938 	 38.9554 	 61.5842
| 32> C 	 13.8822 	 38.6522 	 59.8009
| 33> H 	 14.4272 	 39.5882 	 59.4628
| 34> H 	 12.9351 	 39.0254 	 60.1935
| 35> C 	 13.6222 	 37.7781 	 58.6814
| 36> H 	 14.4201 	 37.6208 	 57.922
| 37> H 	 12.7616 	 38.1635 	 58.1561
| 38> H 	 13.2883 	 36.814 	 59.0353
| 39> H 	 18.7913 	 33.0191 	 60.6543
| 40> H 	 11.715 	 35.7674 	 63.46
| 41> *
| 42>
| 43>                          ****END OF INPUT****

CARTESIAN COORDINATES (ANGSTROEM)
---------------------------------
  S     16.391900   33.688700   61.010100
  C     18.105200   33.811300   61.004100
  C     18.500600   35.118600   61.342600
  C     17.346200   35.994200   61.571800
  C     16.151000   35.329900   61.397500
  H     17.408200   37.042800   61.825100
  C     19.952200   35.633700   61.435200
  H     20.617700   34.837200   61.875800
  H     20.124700   36.385000   62.170900
  C     20.563800   36.299000   60.171000
  H     19.789300   37.029200   59.761600
  H     21.478900   36.817400   60.486800
  C     20.843100   35.287300   59.042600
  H     19.999100   34.520600   58.949100
  H     20.923200   35.816000   58.072600
  H     21.735900   34.827100   59.391200
  S     13.927000   34.711500   62.948100
  C     12.565400   35.834600   62.811100
  C     12.943600   37.056500   62.276500
  C     14.224900   36.972700   61.657900
  C     14.793500   35.726500   61.780900
  H     12.332900   37.923900   62.355400
  C     14.785400   38.130200   60.868900
  H     15.659900   37.869300   60.406800
  H     14.793800   38.955400   61.584200
  C     13.882200   38.652200   59.800900
  H     14.427200   39.588200   59.462800
  H     12.935100   39.025400   60.193500
  C     13.622200   37.778100   58.681400
  H     14.420100   37.620800   57.922000
  H     12.761600   38.163500   58.156100
  H     13.288300   36.814000   59.035300
  H     18.791300   33.019100   60.654300
  H     11.715000   35.767400   63.460000

 Total Charge           Charge          ....    0
 Multiplicity           Mult            ....    1
 Number of Electrons    NEL             ....  134
 Basis Dimension        Dim             ....  322

ORBITAL ENERGIES
----------------

  NO   OCC          E(Eh)            E(eV)
   0   2.0000     -88.966551     -2420.9029
   1   2.0000     -88.964977     -2420.8601
   2   2.0000     -10.325758      -280.9782
   3   2.0000     -10.324773      -280.9514
   4   2.0000     -10.317827      -280.7623
   5   2.0000     -10.316848      -280.7357
   6   2.0000     -10.310644      -280.5669
   7   2.0000     -10.298145      -280.2268
   8   2.0000     -10.297309      -280.2040
   9   2.0000     -10.294885      -280.1381
  10   2.0000     -10.294319      -280.1227
  11   2.0000     -10.292869      -280.0832
  12   2.0000     -10.281322      -279.7690
  13   2.0000     -10.280155      -279.7372
  14   2.0000     -10.278740      -279.6987
  15   2.0000     -10.265766      -279.3457
  16   2.0000      -8.081199      -219.9006
  17   2.0000      -8.080653      -219.8858
  18   2.0000      -6.039540      -164.3442
  19   2.0000      -6.039172      -164.3342
  20   2.0000      -6.035610      -164.2373
  21   2.0000      -6.035346      -164.2301
  22   2.0000      -6.032183      -164.1440
  23   2.0000      -6.031052      -164.1133
  24   2.0000      -1.010769       -27.5044
  25   2.0000      -0.984992       -26.8030
  26   2.0000      -0.924780       -25.1645
  27   2.0000      -0.906169       -24.6581
  28   2.0000      -0.867885       -23.6164
  29   2.0000      -0.854853       -23.2617
  30   2.0000      -0.843266       -22.9464
  31   2.0000      -0.812898       -22.1201
  32   2.0000      -0.788532       -21.4571
  33   2.0000      -0.776739       -21.1361
  34   2.0000      -0.701853       -19.0984
  35   2.0000      -0.692505       -18.8440
  36   2.0000      -0.685610       -18.6564
  37   2.0000      -0.658867       -17.9287
  38   2.0000      -0.642010       -17.4700
  39   2.0000      -0.619535       -16.8584
  40   2.0000      -0.602761       -16.4020
  41   2.0000      -0.572556       -15.5800
  42   2.0000      -0.565275       -15.3819
  43   2.0000      -0.551205       -14.9990
  44   2.0000      -0.543455       -14.7882
  45   2.0000      -0.534581       -14.5467
  46   2.0000      -0.523094       -14.2341
  47   2.0000      -0.514108       -13.9896
  48   2.0000      -0.502071       -13.6620
  49   2.0000      -0.495687       -13.4883
  50   2.0000      -0.492307       -13.3964
  51   2.0000      -0.475874       -12.9492
  52   2.0000      -0.468187       -12.7400
  53   2.0000      -0.464620       -12.6429
  54   2.0000      -0.459496       -12.5035
  55   2.0000      -0.451140       -12.2761
  56   2.0000      -0.446502       -12.1499
  57   2.0000      -0.437862       -11.9148
  58   2.0000      -0.428558       -11.6617
  59   2.0000      -0.422598       -11.4995
  60   2.0000      -0.421473       -11.4689
  61   2.0000      -0.407730       -11.0949
  62   2.0000      -0.404612       -11.0101
  63   2.0000      -0.352287        -9.5862
  64   2.0000      -0.331105        -9.0098
  65   2.0000      -0.326817        -8.8932
  66   2.0000      -0.290969        -7.9177
  67   0.0000       0.027926         0.7599
  68   0.0000       0.069193         1.8829
  69   0.0000       0.097824         2.6619
  70   0.0000       0.119749         3.2585
  71   0.0000       0.128275         3.4905

MULLIKEN ATOMIC CHARGES
-----------------------
   0 S :    0.114206
   1 C :   -0.121089
   2 C :   -0.100652
   3 C :    0.040215
   4 C :   -0.178843
   5 H :    0.017678
   6 C :    0.035523
   7 H :    0.028777
   8 H :    0.013628
   9 C :   -0.099096
  10 H :    0.036082
  11 H :    0.038635
  12 C :   -0.057217
  13 H :    0.041827
  14 H :    0.044823
  15 H :    0.024661
  16 S :    0.103707
  17 C :   -0.071337
  18 C :   -0.041766
  19 C :   -0.072633
  20 C :   -0.115595
  21 H :    0.012891
  22 C :    0.154579
  23 H :   -0.002740
  24 H :    0.027263
  25 C :   -0.101929
  26 H :    0.025735
  27 H :    0.016368
  28 C :   -0.018807
  29 H :    0.037257
  30 H :    0.020805
  31 H :    0.028265
  32 H :    0.068075
  33 H :    0.050704
Sum of atomic charges:    0.0000000

LOEWDIN ATOMIC CHARGES
----------------------
   0 S :    0.442745
   1 C :   -0.217231
   2 C :   -0.058452
   3 C :   -0.062655
   4 C :   -0.210095
   5 H :    0.031374
   6 C :   -0.043527
   7 H :    0.033907
   8 H :    0.026385
   9 C :   -0.042602
  10 H :    0.027879
  11 H :    0.024836
  12 C :   -0.072373
  13 H :    0.031805
  14 H :    0.029007
  15 H :    0.018667
  16 S :    0.386163
  17 C :   -0.173452
  18 C :   -0.059071
  19 C :   -0.055289
  20 C :   -0.196823
  21 H :    0.027145
  22 C :   -0.021969
  23 H :    0.016697
  24 H :    0.039954
  25 C :   -0.047114
  26 H :    0.030210
  27 H :    0.020022
  28 C :   -0.068795
  29 H :    0.029811
  30 H :    0.028101
  31 H :    0.026327
  32 H :    0.036062
  33 H :    0.022350

  Mayer bond orders larger than 0.100000
B(  0-S ,  1-C ) :   1.1517 B(  0-S ,  4-C ) :   1.1779 B(  1-C ,  2-C ) :   1.5856
B(  1-C , 32-H ) :   0.9654 B(  2-C ,  3-C ) :   1.2546 B(  2-C ,  6-C ) :   1.0257
B(  3-C ,  4-C ) :   1.5442 B(  3-C ,  5-H ) :   0.9936 B(  4-C , 20-C ) :   1.0235
B(  6-C ,  7-H ) :   0.9450 B(  6-C ,  8-H ) :   0.9422 B(  6-C ,  9-C ) :   1.0624
B(  9-C , 10-H ) :   0.9571 B(  9-C , 11-H ) :   0.9593 B(  9-C , 12-C ) :   1.0652
B( 12-C , 13-H ) :   0.9745 B( 12-C , 14-H ) :   0.9758 B( 12-C , 15-H ) :   0.9784
B( 16-S , 17-C ) :   1.1403 B( 16-S , 20-C ) :   1.1317 B( 17-C , 18-C ) :   1.6255
B( 17-C , 33-H ) :   0.9656 B( 18-C , 19-C ) :   1.2170 B( 18-C , 21-H ) :   0.9952
B( 19-C , 20-C ) :   1.6146 B( 19-C , 22-C ) :   1.0532 B( 22-C , 23-H ) :   0.9272
B( 22-C , 24-H ) :   0.9181 B( 22-C , 25-C ) :   1.0899 B( 25-C , 26-H ) :   0.9459
B( 25-C , 27-H ) :   0.9487 B( 25-C , 28-C ) :   1.0988 B( 28-C , 29-H ) :   0.9691
B( 28-C , 30-H ) :   0.9662 B( 28-C , 31-H ) :   0.9668

Dispersion correction           -0.014493188
FINAL SINGLE POINT ENERGY     -1339.866863963507

DIPOLE MOMENT
-------------
                                X             Y             Z
Electronic contribution:    -13.20407     -16.46936      14.82174
Nuclear contribution   :     13.44902      17.13985     -14.79965
                        -----------------------------------------
Total Dipole Moment    :      0.24494       0.67049       0.02209
                        -----------------------------------------
Magnitude (a.u.)       :      0.71417
Magnitude (Debye)      :      1.81527

Rotational constants in cm-1:     0.020905     0.008439     0.006834
Rotational constants in MHz :   626.725880   252.997733   204.885986

                             ****ORCA TERMINATED NORMALLY****
TOTAL RUN TIME: 0 days 0 hours 0 minutes 35 seconds 64 msec
