                         Program Version 4.2.1 -  RELEASE  -
|  1> ! wB97X-D3 SP def2-SVP
|  2> %pal
|  3> nprocs 16
|  4> end
|  5>
|  6> * xyz 0 1
|  7> S 	 17.3699 	 19.5752 	 38.9457
|  8> C 	 17.6234 	 19.3023 	 37.2615
|  9> C 	 16.4954 	 19.5523 	 36.514
| 10> C 	 15.505 	 20.142 	 37.3357
| 11> C 	 15.7655 	 20.2169 	 38.6855
| 12> H 	 14.5404 	 20.3494 	 36.9357
| 13> C 	 16.4942 	 19.4913 	 34.9849
| 14> H 	 15.8027 	 18.7801 	 34.4893
| 15> H 	 17.4635 	 19.0025 	 34.6999
| 16> C 	 16.3402 	 20.857 	 34.326
| 17> H 	 16.341 	 20.6916 	 33.2785
| 18> H 	 15.373 	 21.3073 	 34.62
| 19> C 	 17.36 	 21.9555 	 34.7099
| 20> H 	 18.4279 	 21.7798 	 34.4033
| 21> H 	 17.1116 	 22.9415 	 34.1917
| 22> H 	 17.2802 	 22.2388 	 35.7269
| 23> S 	 15.7852 	 21.9623 	 40.8234
| 24> C 	 14.2572 	 22.3013 	 41.6506
| 25> C 	 13.2322 	 21.462 	 41.1782
| 26> C 	 13.6189 	 20.7124 	 40.0257
| 27> C 	 14.9554 	 20.8673 	 39.6835
| 28> H 	 12.2903 	 21.6296 	 41.6096
| 29> C 	 12.5064 	 20.093 	 39.1931
| 30> H 	 12.3847 	 20.7997 	 38.3727
| 31> H 	 11.4508 	 20.0554 	 39.6475
| 32> C 	 12.7473 	 18.6592 	 38.8284
| 33> H 	 13.5059 	 18.6398 	 38.0405
| 34> H 	 11.9236 	 18.2298 	 38.2596
| 35> C 	 12.9519 	 17.7375 	 40.0647
| 36> H 	 13.9722 	 17.865 	 40.5467
| 37> H 	 12.8182 	 16.6737 	 39.712
| 38> H 	 12.1641 	 17.9023 	 40.7975
| 39> H 	 18.4573 	 18.7453 	 36.8239
| 40> H 	 14.1185 	 22.9043 	 42.4981
| 41> *
| 42>
| 43>                          ****END OF INPUT****

CARTESIAN COORDINATES (ANGSTROEM)
---------------------------------
  S     17.369900   19.575200   38.945700
  C     17.623400   19.302300   37.261500
  C     16.495400   19.552300   36.514000
  C     15.505000   20.142000   37.335700
  C     15.765500   20.216900   38.685500
  H     14.540400   20.349400   36.935700
  C     16.494200   19.491300   34.984900
  H     15.802700   18.780100   34.489300
  H     17.463500   19.002500   34.699900
  C     16.340200   20.857000   34.326000
  H     16.341000   20.691600   33.278500
  H     15.373000   21.307300   34.620000
  C     17.360000   21.955500   34.709900
  H     18.427900   21.779800   34.403300
  H     17.111600   22.941500   34.191700
  H     17.280200   22.238800   35.726900
  S     15.785200   21.962300   40.823400
  C     14.257200   22.301300   41.650600
  C     13.232200   21.462000   41.178200
  C     13.618900   20.712400   40.025700
  C     14.955400   20.867300   39.683500
  H     12.290300   21.629600   41.609600
  C     12.506400   20.093000   39.193100
  H     12.384700   20.799700   38.372700
  H     11.450800   20.055400   39.647500
  C     12.747300   18.659200   38.828400
  H     13.505900   18.639800   38.040500
  H     11.923600   18.229800   38.259600
  C     12.951900   17.737500   40.064700
  H     13.972200   17.865000   40.546700
  H     12.818200   16.673700   39.712000
  H     12.164100   17.902300   40.797500
  H     18.457300   18.745300   36.823900
  H     14.118500   22.904300   42.498100

 Total Charge           Charge          ....    0
 Multiplicity           Mult            ....    1
 Number of Electrons    NEL             ....  134
 Basis Dimension        Dim             ....  322

ORBITAL ENERGIES
----------------

  NO   OCC          E(Eh)            E(eV)
   0   2.0000     -88.968672     -2420.9606
   1   2.0000     -88.968401     -2420.9533
   2   2.0000     -10.331140      -281.1246
   3   2.0000     -10.329331      -281.0754
   4   2.0000     -10.317958      -280.7659
   5   2.0000     -10.312069      -280.6057
   6   2.0000     -10.307433      -280.4795
   7   2.0000     -10.300115      -280.2804
   8   2.0000     -10.298922      -280.2479
   9   2.0000     -10.295675      -280.1596
  10   2.0000     -10.292621      -280.0765
  11   2.0000     -10.289445      -279.9900
  12   2.0000     -10.287744      -279.9437
  13   2.0000     -10.282804      -279.8093
  14   2.0000     -10.279355      -279.7155
  15   2.0000     -10.278583      -279.6945
  16   2.0000      -8.083443      -219.9617
  17   2.0000      -8.082321      -219.9311
  18   2.0000      -6.041907      -164.4086
  19   2.0000      -6.040935      -164.3822
  20   2.0000      -6.037863      -164.2986
  21   2.0000      -6.036925      -164.2731
  22   2.0000      -6.034270      -164.2008
  23   2.0000      -6.033099      -164.1690
  24   2.0000      -1.009494       -27.4697
  25   2.0000      -0.983517       -26.7629
  26   2.0000      -0.910877       -24.7862
  27   2.0000      -0.908549       -24.7229
  28   2.0000      -0.870693       -23.6928
  29   2.0000      -0.846722       -23.0405
  30   2.0000      -0.841501       -22.8984
  31   2.0000      -0.814217       -22.1560
  32   2.0000      -0.783160       -21.3109
  33   2.0000      -0.773422       -21.0459
  34   2.0000      -0.714463       -19.4415
  35   2.0000      -0.694822       -18.9071
  36   2.0000      -0.685740       -18.6599
  37   2.0000      -0.665695       -18.1145
  38   2.0000      -0.640625       -17.4323
  39   2.0000      -0.626510       -17.0482
  40   2.0000      -0.588565       -16.0157
  41   2.0000      -0.572427       -15.5765
  42   2.0000      -0.557693       -15.1756
  43   2.0000      -0.548622       -14.9288
  44   2.0000      -0.544153       -14.8072
  45   2.0000      -0.540235       -14.7005
  46   2.0000      -0.516911       -14.0659
  47   2.0000      -0.505245       -13.7484
  48   2.0000      -0.502503       -13.6738
  49   2.0000      -0.492191       -13.3932
  50   2.0000      -0.484654       -13.1881
  51   2.0000      -0.475735       -12.9454
  52   2.0000      -0.469858       -12.7855
  53   2.0000      -0.466125       -12.6839
  54   2.0000      -0.461262       -12.5516
  55   2.0000      -0.446336       -12.1454
  56   2.0000      -0.438564       -11.9339
  57   2.0000      -0.436227       -11.8703
  58   2.0000      -0.429658       -11.6916
  59   2.0000      -0.421885       -11.4801
  60   2.0000      -0.414962       -11.2917
  61   2.0000      -0.411966       -11.2102
  62   2.0000      -0.405951       -11.0465
  63   2.0000      -0.350308        -9.5324
  64   2.0000      -0.333541        -9.0761
  65   2.0000      -0.332406        -9.0452
  66   2.0000      -0.289266        -7.8713
  67   0.0000       0.024627         0.6701
  68   0.0000       0.066172         1.8006
  69   0.0000       0.111209         3.0262
  70   0.0000       0.119406         3.2492
  71   0.0000       0.130170         3.5421

MULLIKEN ATOMIC CHARGES
-----------------------
   0 S :    0.121689
   1 C :   -0.126229
   2 C :   -0.088687
   3 C :    0.019126
   4 C :   -0.139087
   5 H :    0.000546
   6 C :    0.062283
   7 H :    0.036798
   8 H :    0.011872
   9 C :   -0.062498
  10 H :    0.026542
  11 H :    0.032485
  12 C :   -0.075793
  13 H :    0.037762
  14 H :    0.030837
  15 H :    0.040571
  16 S :    0.103148
  17 C :   -0.079616
  18 C :   -0.027111
  19 C :   -0.002276
  20 C :   -0.150502
  21 H :    0.005978
  22 C :    0.011054
  23 H :    0.046671
  24 H :    0.032903
  25 C :   -0.064470
  26 H :    0.021082
  27 H :    0.015302
  28 C :   -0.068901
  29 H :    0.061993
  30 H :    0.040726
  31 H :    0.027796
  32 H :    0.056178
  33 H :    0.041828
Sum of atomic charges:   -0.0000000

LOEWDIN ATOMIC CHARGES
----------------------
   0 S :    0.420766
   1 C :   -0.204068
   2 C :   -0.068205
   3 C :   -0.062507
   4 C :   -0.197267
   5 H :    0.021374
   6 C :   -0.035813
   7 H :    0.034231
   8 H :    0.031165
   9 C :   -0.039736
  10 H :    0.020874
  11 H :    0.028178
  12 C :   -0.073019
  13 H :    0.026919
  14 H :    0.033447
  15 H :    0.021566
  16 S :    0.388637
  17 C :   -0.168773
  18 C :   -0.061500
  19 C :   -0.049311
  20 C :   -0.188239
  21 H :    0.024679
  22 C :   -0.038707
  23 H :    0.033502
  24 H :    0.038415
  25 C :   -0.055915
  26 H :    0.021630
  27 H :    0.022166
  28 C :   -0.067786
  29 H :    0.035790
  30 H :    0.032683
  31 H :    0.022405
  32 H :    0.032845
  33 H :    0.019576

  Mayer bond orders larger than 0.100000
B(  0-S ,  1-C ) :   1.1560 B(  0-S ,  4-C ) :   1.1476 B(  1-C ,  2-C ) :   1.5950
B(  1-C , 32-H ) :   0.9546 B(  2-C ,  3-C ) :   1.2758 B(  2-C ,  6-C ) :   1.0269
B(  3-C ,  4-C ) :   1.5486 B(  3-C ,  5-H ) :   0.9909 B(  4-C , 20-C ) :   1.0722
B(  6-C ,  7-H ) :   0.9388 B(  6-C ,  8-H ) :   0.9378 B(  6-C ,  9-C ) :   1.0724
B(  9-C , 10-H ) :   0.9555 B(  9-C , 11-H ) :   0.9545 B(  9-C , 12-C ) :   1.0751
B( 12-C , 13-H ) :   0.9766 B( 12-C , 14-H ) :   0.9723 B( 12-C , 15-H ) :   0.9736
B( 16-S , 17-C ) :   1.1516 B( 16-S , 20-C ) :   1.1222 B( 17-C , 18-C ) :   1.6182
B( 17-C , 20-C ) :   0.1050 B( 17-C , 33-H ) :   0.9706 B( 18-C , 19-C ) :   1.2349
B( 18-C , 21-H ) :   0.9968 B( 19-C , 20-C ) :   1.5887 B( 19-C , 22-C ) :   1.0126
B( 22-C , 23-H ) :   0.9415 B( 22-C , 24-H ) :   0.9464 B( 22-C , 25-C ) :   1.0772
B( 25-C , 26-H ) :   0.9461 B( 25-C , 27-H ) :   0.9526 B( 25-C , 28-C ) :   1.0649
B( 28-C , 29-H ) :   0.9715 B( 28-C , 30-H ) :   0.9763 B( 28-C , 31-H ) :   0.9751

Dispersion correction           -0.015564241
FINAL SINGLE POINT ENERGY     -1339.872911724878

DIPOLE MOMENT
-------------
                                X             Y             Z
Electronic contribution:     10.23597       5.52479      17.89611
Nuclear contribution   :    -10.75206      -5.59482     -18.33648
                        -----------------------------------------
Total Dipole Moment    :     -0.51609      -0.07004      -0.44037
                        -----------------------------------------
Magnitude (a.u.)       :      0.68204
Magnitude (Debye)      :      1.73361

Rotational constants in cm-1:     0.019846     0.009137     0.008019
Rotational constants in MHz :   594.956916   273.921664   240.417434

                             ****ORCA TERMINATED NORMALLY****
TOTAL RUN TIME: 0 days 0 hours 0 minutes 36 seconds 341 msec
