                         Program Version 4.2.1 -  RELEASE  -
|  1> ! wB97X-D3 SP def2-SVP
|  2> %pal
|  3> nprocs 16
|  4> end
|  5>
|  6> * xyz 0 1
|  7> S 	 -119.255 	 47.0156 	 133.726
|  8> C 	 -119.39 	 48.2647 	 134.934
|  9> C 	 -118.242 	 48.3516 	 135.71
| 10> C 	 -117.344 	 47.2449 	 135.501
| 11> C 	 -117.692 	 46.5587 	 134.368
| 12> H 	 -116.377 	 47.0139 	 136.057
| 13> C 	 -118.157 	 49.3451 	 136.814
| 14> H 	 -118.431 	 48.893 	 137.773
| 15> H 	 -118.928 	 50.1147 	 136.613
| 16> C 	 -116.794 	 49.9248 	 137.135
| 17> H 	 -116.827 	 50.2928 	 138.09
| 18> H 	 -116.067 	 49.1035 	 137.169
| 19> C 	 -116.324 	 50.8836 	 136.026
| 20> H 	 -115.889 	 50.2827 	 135.194
| 21> H 	 -117.145 	 51.4941 	 135.677
| 22> H 	 -115.635 	 51.5812 	 136.473
| 23> S 	 -118.091 	 43.9424 	 133.793
| 24> C 	 -116.719 	 42.9375 	 133.401
| 25> C 	 -115.572 	 43.6815 	 133.348
| 26> C 	 -115.798 	 45.0899 	 133.545
| 27> C 	 -117.1 	 45.3782 	 133.92
| 28> H 	 -114.61 	 43.1677 	 133.048
| 29> C 	 -114.603 	 46.0338 	 133.532
| 30> H 	 -113.714 	 45.4753 	 133.905
| 31> H 	 -114.817 	 46.7967 	 134.271
| 32> C 	 -114.373 	 46.7481 	 132.229
| 33> H 	 -114.117 	 46.0377 	 131.401
| 34> H 	 -113.393 	 47.3373 	 132.324
| 35> C 	 -115.555 	 47.725 	 131.917
| 36> H 	 -115.604 	 47.9994 	 130.847
| 37> H 	 -115.531 	 48.5229 	 132.61
| 38> H 	 -116.5 	 47.1643 	 132.059
| 39> H 	 -120.244 	 48.9095 	 135.106
| 40> H 	 -116.76 	 41.8521 	 133.345
| 41> *
| 42>
| 43>                          ****END OF INPUT****

CARTESIAN COORDINATES (ANGSTROEM)
---------------------------------
  S    -119.255000   47.015600  133.726000
  C    -119.390000   48.264700  134.934000
  C    -118.242000   48.351600  135.710000
  C    -117.344000   47.244900  135.501000
  C    -117.692000   46.558700  134.368000
  H    -116.377000   47.013900  136.057000
  C    -118.157000   49.345100  136.814000
  H    -118.431000   48.893000  137.773000
  H    -118.928000   50.114700  136.613000
  C    -116.794000   49.924800  137.135000
  H    -116.827000   50.292800  138.090000
  H    -116.067000   49.103500  137.169000
  C    -116.324000   50.883600  136.026000
  H    -115.889000   50.282700  135.194000
  H    -117.145000   51.494100  135.677000
  H    -115.635000   51.581200  136.473000
  S    -118.091000   43.942400  133.793000
  C    -116.719000   42.937500  133.401000
  C    -115.572000   43.681500  133.348000
  C    -115.798000   45.089900  133.545000
  C    -117.100000   45.378200  133.920000
  H    -114.610000   43.167700  133.048000
  C    -114.603000   46.033800  133.532000
  H    -113.714000   45.475300  133.905000
  H    -114.817000   46.796700  134.271000
  C    -114.373000   46.748100  132.229000
  H    -114.117000   46.037700  131.401000
  H    -113.393000   47.337300  132.324000
  C    -115.555000   47.725000  131.917000
  H    -115.604000   47.999400  130.847000
  H    -115.531000   48.522900  132.610000
  H    -116.500000   47.164300  132.059000
  H    -120.244000   48.909500  135.106000
  H    -116.760000   41.852100  133.345000

 Total Charge           Charge          ....    0
 Multiplicity           Mult            ....    1
 Number of Electrons    NEL             ....  134
 Basis Dimension        Dim             ....  322

ORBITAL ENERGIES
----------------

  NO   OCC          E(Eh)            E(eV)
   0   2.0000     -88.968165     -2420.9468
   1   2.0000     -88.962439     -2420.7910
   2   2.0000     -10.324428      -280.9420
   3   2.0000     -10.320228      -280.8277
   4   2.0000     -10.315527      -280.6998
   5   2.0000     -10.312998      -280.6309
   6   2.0000     -10.302176      -280.3365
   7   2.0000     -10.302006      -280.3318
   8   2.0000     -10.301107      -280.3074
   9   2.0000     -10.296253      -280.1753
  10   2.0000     -10.290790      -280.0266
  11   2.0000     -10.289651      -279.9956
  12   2.0000     -10.288080      -279.9529
  13   2.0000     -10.279363      -279.7157
  14   2.0000     -10.275917      -279.6219
  15   2.0000     -10.272252      -279.5222
  16   2.0000      -8.082862      -219.9459
  17   2.0000      -8.077566      -219.8017
  18   2.0000      -6.041299      -164.3921
  19   2.0000      -6.037435      -164.2870
  20   2.0000      -6.036121      -164.2512
  21   2.0000      -6.033636      -164.1836
  22   2.0000      -6.031984      -164.1386
  23   2.0000      -6.028265      -164.0374
  24   2.0000      -1.013721       -27.5848
  25   2.0000      -0.985004       -26.8033
  26   2.0000      -0.919116       -25.0104
  27   2.0000      -0.908244       -24.7146
  28   2.0000      -0.876900       -23.8617
  29   2.0000      -0.849666       -23.1206
  30   2.0000      -0.838898       -22.8276
  31   2.0000      -0.815570       -22.1928
  32   2.0000      -0.781919       -21.2771
  33   2.0000      -0.771443       -20.9920
  34   2.0000      -0.716622       -19.5003
  35   2.0000      -0.694556       -18.8998
  36   2.0000      -0.690285       -18.7836
  37   2.0000      -0.655902       -17.8480
  38   2.0000      -0.639668       -17.4063
  39   2.0000      -0.621501       -16.9119
  40   2.0000      -0.594815       -16.1857
  41   2.0000      -0.567864       -15.4524
  42   2.0000      -0.553169       -15.0525
  43   2.0000      -0.549801       -14.9609
  44   2.0000      -0.540713       -14.7135
  45   2.0000      -0.536220       -14.5913
  46   2.0000      -0.519634       -14.1399
  47   2.0000      -0.509714       -13.8700
  48   2.0000      -0.506785       -13.7903
  49   2.0000      -0.500717       -13.6252
  50   2.0000      -0.492315       -13.3966
  51   2.0000      -0.473062       -12.8727
  52   2.0000      -0.468242       -12.7415
  53   2.0000      -0.466271       -12.6879
  54   2.0000      -0.460903       -12.5418
  55   2.0000      -0.453356       -12.3364
  56   2.0000      -0.439174       -11.9505
  57   2.0000      -0.434730       -11.8296
  58   2.0000      -0.429095       -11.6763
  59   2.0000      -0.426023       -11.5927
  60   2.0000      -0.419929       -11.4268
  61   2.0000      -0.417929       -11.3724
  62   2.0000      -0.404894       -11.0177
  63   2.0000      -0.349800        -9.5185
  64   2.0000      -0.329770        -8.9735
  65   2.0000      -0.327328        -8.9071
  66   2.0000      -0.291355        -7.9282
  67   0.0000       0.028521         0.7761
  68   0.0000       0.069918         1.9026
  69   0.0000       0.107858         2.9350
  70   0.0000       0.113744         3.0951
  71   0.0000       0.124621         3.3911

MULLIKEN ATOMIC CHARGES
-----------------------
   0 S :    0.118117
   1 C :   -0.126108
   2 C :   -0.073459
   3 C :   -0.001109
   4 C :   -0.176389
   5 H :    0.059792
   6 C :    0.034671
   7 H :    0.035938
   8 H :    0.018742
   9 C :   -0.044058
  10 H :    0.005915
  11 H :    0.017099
  12 C :   -0.044261
  13 H :    0.053557
  14 H :    0.025343
  15 H :    0.029802
  16 S :    0.108010
  17 C :   -0.095724
  18 C :   -0.054037
  19 C :   -0.054580
  20 C :   -0.147270
  21 H :    0.041597
  22 C :    0.083919
  23 H :    0.031294
  24 H :   -0.000676
  25 C :   -0.091665
  26 H :    0.030414
  27 H :    0.034436
  28 C :   -0.037173
  29 H :    0.039606
  30 H :    0.032255
  31 H :    0.036363
  32 H :    0.049017
  33 H :    0.060624
Sum of atomic charges:   -0.0000000

LOEWDIN ATOMIC CHARGES
----------------------
   0 S :    0.408360
   1 C :   -0.199717
   2 C :   -0.062923
   3 C :   -0.062636
   4 C :   -0.194217
   5 H :    0.047226
   6 C :   -0.037039
   7 H :    0.035452
   8 H :    0.029150
   9 C :   -0.035893
  10 H :    0.011757
  11 H :    0.024058
  12 C :   -0.062466
  13 H :    0.033771
  14 H :    0.021940
  15 H :    0.024383
  16 S :    0.404676
  17 C :   -0.187669
  18 C :   -0.079600
  19 C :   -0.056443
  20 C :   -0.207913
  21 H :    0.042265
  22 C :   -0.036597
  23 H :    0.034770
  24 H :    0.023897
  25 C :   -0.046830
  26 H :    0.023459
  27 H :    0.028017
  28 C :   -0.063554
  29 H :    0.030977
  30 H :    0.019850
  31 H :    0.028802
  32 H :    0.028842
  33 H :    0.031845

  Mayer bond orders larger than 0.100000
B(  0-S ,  1-C ) :   1.1261 B(  0-S ,  4-C ) :   1.1366 B(  1-C ,  2-C ) :   1.6171
B(  1-C , 32-H ) :   0.9674 B(  2-C ,  3-C ) :   1.2147 B(  2-C ,  6-C ) :   1.0381
B(  3-C ,  4-C ) :   1.6003 B(  3-C ,  5-H ) :   0.9685 B(  4-C , 20-C ) :   1.0698
B(  6-C ,  7-H ) :   0.9323 B(  6-C ,  8-H ) :   0.9414 B(  6-C ,  9-C ) :   1.0875
B(  9-C , 10-H ) :   0.9543 B(  9-C , 11-H ) :   0.9512 B(  9-C , 12-C ) :   1.0648
B( 12-C , 13-H ) :   0.9751 B( 12-C , 14-H ) :   0.9790 B( 12-C , 15-H ) :   0.9755
B( 16-S , 17-C ) :   1.1478 B( 16-S , 20-C ) :   1.1329 B( 17-C , 18-C ) :   1.6262
B( 17-C , 33-H ) :   0.9659 B( 18-C , 19-C ) :   1.2343 B( 18-C , 21-H ) :   0.9786
B( 19-C , 20-C ) :   1.5905 B( 19-C , 22-C ) :   1.0337 B( 22-C , 23-H ) :   0.9361
B( 22-C , 24-H ) :   0.9281 B( 22-C , 25-C ) :   1.0750 B( 25-C , 26-H ) :   0.9568
B( 25-C , 27-H ) :   0.9546 B( 25-C , 28-C ) :   1.0621 B( 28-C , 29-H ) :   0.9718
B( 28-C , 30-H ) :   0.9751 B( 28-C , 31-H ) :   0.9722

Dispersion correction           -0.015801625
FINAL SINGLE POINT ENERGY     -1339.881244832444

DIPOLE MOMENT
-------------
                                X             Y             Z
Electronic contribution:    -16.80429     -20.25245      -4.15594
Nuclear contribution   :     17.21955      20.46790       4.57163
                        -----------------------------------------
Total Dipole Moment    :      0.41526       0.21545       0.41569
                        -----------------------------------------
Magnitude (a.u.)       :      0.62583
Magnitude (Debye)      :      1.59072

Rotational constants in cm-1:     0.020324     0.009759     0.007931
Rotational constants in MHz :   609.309156   292.575744   237.758516

                             ****ORCA TERMINATED NORMALLY****
TOTAL RUN TIME: 0 days 0 hours 0 minutes 36 seconds 440 msec
