                         Program Version 4.2.1 -  RELEASE  -
|  1> ! wB97X-D3 SP def2-SVP
|  2> %pal
|  3> nprocs 16
|  4> end
|  5>
|  6> * xyz 0 1
|  7> S 	 -71.4548 	 34.1609 	 116.441
|  8> C 	 -71.5106 	 34.4782 	 118.157
|  9> C 	 -70.3147 	 34.8713 	 118.652
| 10> C 	 -69.3344 	 35.0227 	 117.599
| 11> C 	 -69.8402 	 34.7957 	 116.365
| 12> H 	 -68.2814 	 35.2489 	 117.637
| 13> C 	 -70.0131 	 35.1298 	 120.097
| 14> H 	 -69.0224 	 34.7698 	 120.385
| 15> H 	 -70.7713 	 34.5219 	 120.614
| 16> C 	 -70.0548 	 36.5975 	 120.431
| 17> H 	 -69.2746 	 37.0919 	 119.948
| 18> H 	 -70.9968 	 37.058 	 120.089
| 19> C 	 -69.8679 	 37.0459 	 121.883
| 20> H 	 -70.6532 	 36.6624 	 122.57
| 21> H 	 -68.9304 	 36.7232 	 122.389
| 22> H 	 -69.9254 	 38.1565 	 121.94
| 23> S 	 -69.0331 	 33.2552 	 114.415
| 24> C 	 -68.0575 	 33.9441 	 113.122
| 25> C 	 -67.5592 	 35.2265 	 113.404
| 26> C 	 -68.1413 	 35.7946 	 114.583
| 27> C 	 -69.062 	 34.8683 	 115.148
| 28> H 	 -66.898 	 35.6934 	 112.749
| 29> C 	 -67.848 	 37.1432 	 115.144
| 30> H 	 -67.0332 	 37.7262 	 114.698
| 31> H 	 -67.5821 	 36.9393 	 116.154
| 32> C 	 -69.1055 	 38.0718 	 115.113
| 33> H 	 -69.9475 	 37.4841 	 115.29
| 34> H 	 -69.2579 	 38.2949 	 114.012
| 35> C 	 -69.0542 	 39.4389 	 115.79
| 36> H 	 -70.0491 	 39.9809 	 115.507
| 37> H 	 -68.1929 	 39.9912 	 115.458
| 38> H 	 -69.0491 	 39.3137 	 116.904
| 39> H 	 -72.4333 	 34.2077 	 118.767
| 40> H 	 -67.8439 	 33.4219 	 112.259
| 41> *
| 42>
| 43>                          ****END OF INPUT****

CARTESIAN COORDINATES (ANGSTROEM)
---------------------------------
  S    -71.454800   34.160900  116.441000
  C    -71.510600   34.478200  118.157000
  C    -70.314700   34.871300  118.652000
  C    -69.334400   35.022700  117.599000
  C    -69.840200   34.795700  116.365000
  H    -68.281400   35.248900  117.637000
  C    -70.013100   35.129800  120.097000
  H    -69.022400   34.769800  120.385000
  H    -70.771300   34.521900  120.614000
  C    -70.054800   36.597500  120.431000
  H    -69.274600   37.091900  119.948000
  H    -70.996800   37.058000  120.089000
  C    -69.867900   37.045900  121.883000
  H    -70.653200   36.662400  122.570000
  H    -68.930400   36.723200  122.389000
  H    -69.925400   38.156500  121.940000
  S    -69.033100   33.255200  114.415000
  C    -68.057500   33.944100  113.122000
  C    -67.559200   35.226500  113.404000
  C    -68.141300   35.794600  114.583000
  C    -69.062000   34.868300  115.148000
  H    -66.898000   35.693400  112.749000
  C    -67.848000   37.143200  115.144000
  H    -67.033200   37.726200  114.698000
  H    -67.582100   36.939300  116.154000
  C    -69.105500   38.071800  115.113000
  H    -69.947500   37.484100  115.290000
  H    -69.257900   38.294900  114.012000
  C    -69.054200   39.438900  115.790000
  H    -70.049100   39.980900  115.507000
  H    -68.192900   39.991200  115.458000
  H    -69.049100   39.313700  116.904000
  H    -72.433300   34.207700  118.767000
  H    -67.843900   33.421900  112.259000

 Total Charge           Charge          ....    0
 Multiplicity           Mult            ....    1
 Number of Electrons    NEL             ....  134
 Basis Dimension        Dim             ....  322

ORBITAL ENERGIES
----------------

  NO   OCC          E(Eh)            E(eV)
   0   2.0000     -88.966537     -2420.9026
   1   2.0000     -88.963780     -2420.8275
   2   2.0000     -10.326032      -280.9856
   3   2.0000     -10.320807      -280.8434
   4   2.0000     -10.315775      -280.7065
   5   2.0000     -10.312634      -280.6210
   6   2.0000     -10.311064      -280.5783
   7   2.0000     -10.299812      -280.2721
   8   2.0000     -10.293923      -280.1119
   9   2.0000     -10.291690      -280.0511
  10   2.0000     -10.291520      -280.0465
  11   2.0000     -10.288486      -279.9639
  12   2.0000     -10.288160      -279.9551
  13   2.0000     -10.283955      -279.8406
  14   2.0000     -10.281611      -279.7769
  15   2.0000     -10.281449      -279.7725
  16   2.0000      -8.080888      -219.8921
  17   2.0000      -8.079166      -219.8453
  18   2.0000      -6.039217      -164.3354
  19   2.0000      -6.037664      -164.2932
  20   2.0000      -6.035663      -164.2387
  21   2.0000      -6.033754      -164.1868
  22   2.0000      -6.031638      -164.1292
  23   2.0000      -6.029710      -164.0768
  24   2.0000      -1.010358       -27.4932
  25   2.0000      -0.981342       -26.7037
  26   2.0000      -0.917099       -24.9555
  27   2.0000      -0.908083       -24.7102
  28   2.0000      -0.871833       -23.7238
  29   2.0000      -0.851994       -23.1839
  30   2.0000      -0.847084       -23.0503
  31   2.0000      -0.814675       -22.1684
  32   2.0000      -0.783818       -21.3288
  33   2.0000      -0.769723       -20.9452
  34   2.0000      -0.705895       -19.2084
  35   2.0000      -0.697766       -18.9872
  36   2.0000      -0.689069       -18.7505
  37   2.0000      -0.669919       -18.2294
  38   2.0000      -0.644728       -17.5439
  39   2.0000      -0.616150       -16.7663
  40   2.0000      -0.597864       -16.2687
  41   2.0000      -0.576585       -15.6897
  42   2.0000      -0.566213       -15.4074
  43   2.0000      -0.550863       -14.9897
  44   2.0000      -0.529079       -14.3970
  45   2.0000      -0.521813       -14.1992
  46   2.0000      -0.515625       -14.0309
  47   2.0000      -0.509997       -13.8777
  48   2.0000      -0.507687       -13.8149
  49   2.0000      -0.496590       -13.5129
  50   2.0000      -0.493014       -13.4156
  51   2.0000      -0.487430       -13.2636
  52   2.0000      -0.471109       -12.8195
  53   2.0000      -0.463543       -12.6137
  54   2.0000      -0.456516       -12.4224
  55   2.0000      -0.452579       -12.3153
  56   2.0000      -0.446554       -12.1514
  57   2.0000      -0.437083       -11.8936
  58   2.0000      -0.434622       -11.8267
  59   2.0000      -0.425567       -11.5803
  60   2.0000      -0.421686       -11.4747
  61   2.0000      -0.417282       -11.3548
  62   2.0000      -0.407373       -11.0852
  63   2.0000      -0.342431        -9.3180
  64   2.0000      -0.331046        -9.0082
  65   2.0000      -0.328355        -8.9350
  66   2.0000      -0.290504        -7.9050
  67   0.0000       0.026891         0.7317
  68   0.0000       0.070408         1.9159
  69   0.0000       0.097933         2.6649
  70   0.0000       0.121525         3.3069
  71   0.0000       0.134329         3.6553

MULLIKEN ATOMIC CHARGES
-----------------------
   0 S :    0.110242
   1 C :   -0.157532
   2 C :   -0.073562
   3 C :    0.030917
   4 C :   -0.163083
   5 H :    0.012890
   6 C :    0.107151
   7 H :    0.021056
   8 H :    0.017887
   9 C :   -0.054280
  10 H :    0.013435
  11 H :    0.028668
  12 C :   -0.072971
  13 H :    0.028257
  14 H :    0.030463
  15 H :    0.040860
  16 S :    0.102250
  17 C :   -0.058895
  18 C :   -0.018807
  19 C :   -0.024977
  20 C :   -0.180681
  21 H :   -0.005665
  22 C :    0.114892
  23 H :    0.020479
  24 H :    0.008100
  25 C :   -0.099899
  26 H :    0.024432
  27 H :    0.021522
  28 C :   -0.052275
  29 H :    0.053993
  30 H :    0.035038
  31 H :    0.041012
  32 H :    0.072755
  33 H :    0.026328
Sum of atomic charges:   -0.0000000

LOEWDIN ATOMIC CHARGES
----------------------
   0 S :    0.401085
   1 C :   -0.205250
   2 C :   -0.062132
   3 C :   -0.062093
   4 C :   -0.211373
   5 H :    0.030791
   6 C :   -0.028937
   7 H :    0.031848
   8 H :    0.030747
   9 C :   -0.041099
  10 H :    0.017870
  11 H :    0.028836
  12 C :   -0.073546
  13 H :    0.023158
  14 H :    0.024014
  15 H :    0.031592
  16 S :    0.401273
  17 C :   -0.167644
  18 C :   -0.056310
  19 C :   -0.045335
  20 C :   -0.187241
  21 H :    0.021693
  22 C :   -0.031284
  23 H :    0.031488
  24 H :    0.023261
  25 C :   -0.042658
  26 H :    0.015120
  27 H :    0.029141
  28 C :   -0.069700
  29 H :    0.043534
  30 H :    0.021615
  31 H :    0.027000
  32 H :    0.042309
  33 H :    0.008227

  Mayer bond orders larger than 0.100000
B(  0-S ,  1-C ) :   1.1215 B(  0-S ,  4-C ) :   1.1394 B(  1-C ,  2-C ) :   1.6504
B(  1-C , 32-H ) :   0.9568 B(  2-C ,  3-C ) :   1.1904 B(  2-C ,  6-C ) :   1.0321
B(  3-C ,  4-C ) :   1.6077 B(  3-C ,  5-H ) :   0.9963 B(  4-C , 20-C ) :   1.0303
B(  6-C ,  7-H ) :   0.9331 B(  6-C ,  8-H ) :   0.9359 B(  6-C ,  9-C ) :   1.0697
B(  9-C , 10-H ) :   0.9526 B(  9-C , 11-H ) :   0.9530 B(  9-C , 12-C ) :   1.0866
B( 12-C , 13-H ) :   0.9749 B( 12-C , 14-H ) :   0.9728 B( 12-C , 15-H ) :   0.9744
B( 16-S , 17-C ) :   1.1515 B( 16-S , 20-C ) :   1.1599 B( 17-C , 18-C ) :   1.5992
B( 17-C , 20-C ) :   0.1116 B( 17-C , 33-H ) :   0.9794 B( 18-C , 19-C ) :   1.2333
B( 18-C , 21-H ) :   1.0042 B( 19-C , 20-C ) :   1.5720 B( 19-C , 22-C ) :   1.0462
B( 22-C , 23-H ) :   0.9348 B( 22-C , 24-H ) :   0.9230 B( 22-C , 25-C ) :   1.0548
B( 25-C , 26-H ) :   0.9628 B( 25-C , 27-H ) :   0.9502 B( 25-C , 28-C ) :   1.0786
B( 28-C , 29-H ) :   0.9717 B( 28-C , 30-H ) :   0.9723 B( 28-C , 31-H ) :   0.9748

Dispersion correction           -0.014306822
FINAL SINGLE POINT ENERGY     -1339.867474471352

DIPOLE MOMENT
-------------
                                X             Y             Z
Electronic contribution:     -4.52096     -24.20436     -18.49572
Nuclear contribution   :      4.86444      24.58297      18.78954
                        -----------------------------------------
Total Dipole Moment    :      0.34348       0.37861       0.29382
                        -----------------------------------------
Magnitude (a.u.)       :      0.58962
Magnitude (Debye)      :      1.49870

Rotational constants in cm-1:     0.018405     0.009095     0.006954
Rotational constants in MHz :   551.772288   272.657972   208.489714

                             ****ORCA TERMINATED NORMALLY****
TOTAL RUN TIME: 0 days 0 hours 0 minutes 34 seconds 861 msec
