                         Program Version 4.2.1 -  RELEASE  -
|  1> ! wB97X-D3 SP def2-SVP
|  2> %pal
|  3> nprocs 16
|  4> end
|  5>
|  6> * xyz 0 1
|  7> S 	 59.4593 	 22.1626 	 81.6663
|  8> C 	 59.965 	 22.1802 	 83.3049
|  9> C 	 59.2116 	 21.3307 	 84.0742
| 10> C 	 58.1366 	 20.7622 	 83.3496
| 11> C 	 58.0787 	 21.1581 	 82.0494
| 12> H 	 57.4385 	 19.9996 	 83.7359
| 13> C 	 59.354 	 21.061 	 85.5776
| 14> H 	 60.3829 	 21.32 	 85.8464
| 15> H 	 59.2299 	 20.0432 	 85.8451
| 16> C 	 58.5143 	 22.0176 	 86.4256
| 17> H 	 58.7082 	 21.7288 	 87.4249
| 18> H 	 58.829 	 23.1034 	 86.432
| 19> C 	 57.0196 	 21.9565 	 86.1443
| 20> H 	 56.8048 	 20.9351 	 86.2797
| 21> H 	 56.371 	 22.5476 	 86.8291
| 22> H 	 56.8023 	 22.2793 	 85.1165
| 23> S 	 57.8458 	 20.1806 	 79.4392
| 24> C 	 56.3231 	 19.4463 	 78.9675
| 25> C 	 55.3818 	 19.4339 	 80.0122
| 26> C 	 55.8831 	 20.1589 	 81.135
| 27> C 	 57.2439 	 20.5195 	 81.0355
| 28> H 	 54.3673 	 19.0004 	 79.9562
| 29> C 	 54.921 	 20.5256 	 82.2148
| 30> H 	 54.1453 	 21.0516 	 81.6264
| 31> H 	 55.2856 	 21.2902 	 82.8733
| 32> C 	 54.3178 	 19.2794 	 82.9542
| 33> H 	 55.0361 	 18.7767 	 83.5704
| 34> H 	 53.9983 	 18.5846 	 82.1853
| 35> C 	 52.9878 	 19.5587 	 83.7546
| 36> H 	 52.3478 	 18.6476 	 83.803
| 37> H 	 52.379 	 20.3137 	 83.2583
| 38> H 	 53.1815 	 19.9006 	 84.7646
| 39> H 	 60.6891 	 22.9259 	 83.7371
| 40> H 	 56.2011 	 19.0282 	 77.9951
| 41> *
| 42>
| 43>                          ****END OF INPUT****

CARTESIAN COORDINATES (ANGSTROEM)
---------------------------------
  S     59.459300   22.162600   81.666300
  C     59.965000   22.180200   83.304900
  C     59.211600   21.330700   84.074200
  C     58.136600   20.762200   83.349600
  C     58.078700   21.158100   82.049400
  H     57.438500   19.999600   83.735900
  C     59.354000   21.061000   85.577600
  H     60.382900   21.320000   85.846400
  H     59.229900   20.043200   85.845100
  C     58.514300   22.017600   86.425600
  H     58.708200   21.728800   87.424900
  H     58.829000   23.103400   86.432000
  C     57.019600   21.956500   86.144300
  H     56.804800   20.935100   86.279700
  H     56.371000   22.547600   86.829100
  H     56.802300   22.279300   85.116500
  S     57.845800   20.180600   79.439200
  C     56.323100   19.446300   78.967500
  C     55.381800   19.433900   80.012200
  C     55.883100   20.158900   81.135000
  C     57.243900   20.519500   81.035500
  H     54.367300   19.000400   79.956200
  C     54.921000   20.525600   82.214800
  H     54.145300   21.051600   81.626400
  H     55.285600   21.290200   82.873300
  C     54.317800   19.279400   82.954200
  H     55.036100   18.776700   83.570400
  H     53.998300   18.584600   82.185300
  C     52.987800   19.558700   83.754600
  H     52.347800   18.647600   83.803000
  H     52.379000   20.313700   83.258300
  H     53.181500   19.900600   84.764600
  H     60.689100   22.925900   83.737100
  H     56.201100   19.028200   77.995100

 Total Charge           Charge          ....    0
 Multiplicity           Mult            ....    1
 Number of Electrons    NEL             ....  134
 Basis Dimension        Dim             ....  322

ORBITAL ENERGIES
----------------

  NO   OCC          E(Eh)            E(eV)
   0   2.0000     -88.967347     -2420.9246
   1   2.0000     -88.966544     -2420.9027
   2   2.0000     -10.326450      -280.9970
   3   2.0000     -10.326053      -280.9862
   4   2.0000     -10.319295      -280.8023
   5   2.0000     -10.314629      -280.6753
   6   2.0000     -10.300305      -280.2856
   7   2.0000     -10.299224      -280.2561
   8   2.0000     -10.298031      -280.2237
   9   2.0000     -10.291855      -280.0556
  10   2.0000     -10.290940      -280.0307
  11   2.0000     -10.290538      -280.0198
  12   2.0000     -10.290463      -280.0177
  13   2.0000     -10.284571      -279.8574
  14   2.0000     -10.282059      -279.7890
  15   2.0000     -10.273080      -279.5447
  16   2.0000      -8.081976      -219.9217
  17   2.0000      -8.081914      -219.9201
  18   2.0000      -6.040439      -164.3687
  19   2.0000      -6.040403      -164.3677
  20   2.0000      -6.036513      -164.2619
  21   2.0000      -6.036382      -164.2583
  22   2.0000      -6.032810      -164.1611
  23   2.0000      -6.032616      -164.1558
  24   2.0000      -1.010711       -27.5028
  25   2.0000      -0.985985       -26.8300
  26   2.0000      -0.914820       -24.8935
  27   2.0000      -0.905253       -24.6332
  28   2.0000      -0.869295       -23.6547
  29   2.0000      -0.851155       -23.1611
  30   2.0000      -0.844507       -22.9802
  31   2.0000      -0.813728       -22.1427
  32   2.0000      -0.784806       -21.3557
  33   2.0000      -0.769386       -20.9361
  34   2.0000      -0.706796       -19.2329
  35   2.0000      -0.700194       -19.0533
  36   2.0000      -0.694297       -18.8928
  37   2.0000      -0.663607       -18.0577
  38   2.0000      -0.637372       -17.3438
  39   2.0000      -0.616684       -16.7808
  40   2.0000      -0.597501       -16.2588
  41   2.0000      -0.576427       -15.6854
  42   2.0000      -0.559380       -15.2215
  43   2.0000      -0.548578       -14.9276
  44   2.0000      -0.542556       -14.7637
  45   2.0000      -0.523690       -14.2503
  46   2.0000      -0.515397       -14.0247
  47   2.0000      -0.508893       -13.8477
  48   2.0000      -0.507386       -13.8067
  49   2.0000      -0.497611       -13.5407
  50   2.0000      -0.491777       -13.3819
  51   2.0000      -0.481625       -13.1057
  52   2.0000      -0.470998       -12.8165
  53   2.0000      -0.462717       -12.5912
  54   2.0000      -0.459349       -12.4995
  55   2.0000      -0.454224       -12.3601
  56   2.0000      -0.442426       -12.0390
  57   2.0000      -0.439724       -11.9655
  58   2.0000      -0.438095       -11.9212
  59   2.0000      -0.423864       -11.5339
  60   2.0000      -0.419864       -11.4251
  61   2.0000      -0.417418       -11.3585
  62   2.0000      -0.413324       -11.2471
  63   2.0000      -0.357017        -9.7149
  64   2.0000      -0.333336        -9.0705
  65   2.0000      -0.327847        -8.9212
  66   2.0000      -0.281907        -7.6711
  67   0.0000       0.027512         0.7486
  68   0.0000       0.076723         2.0877
  69   0.0000       0.106278         2.8920
  70   0.0000       0.119112         3.2412
  71   0.0000       0.130416         3.5488

MULLIKEN ATOMIC CHARGES
-----------------------
   0 S :    0.107256
   1 C :   -0.136217
   2 C :   -0.092340
   3 C :   -0.013350
   4 C :   -0.127555
   5 H :    0.023273
   6 C :    0.087992
   7 H :    0.015725
   8 H :    0.027792
   9 C :   -0.073134
  10 H :    0.014046
  11 H :    0.029665
  12 C :   -0.052459
  13 H :    0.009720
  14 H :    0.037402
  15 H :    0.058642
  16 S :    0.106758
  17 C :   -0.095680
  18 C :   -0.033282
  19 C :   -0.071888
  20 C :   -0.123219
  21 H :    0.040172
  22 C :    0.058517
  23 H :    0.033790
  24 H :    0.020806
  25 C :   -0.067928
  26 H :    0.030702
  27 H :    0.020711
  28 C :   -0.062063
  29 H :    0.039134
  30 H :    0.027136
  31 H :    0.036844
  32 H :    0.070076
  33 H :    0.052955
Sum of atomic charges:    0.0000000

LOEWDIN ATOMIC CHARGES
----------------------
   0 S :    0.414931
   1 C :   -0.214407
   2 C :   -0.066418
   3 C :   -0.064560
   4 C :   -0.192866
   5 H :    0.036665
   6 C :   -0.024208
   7 H :    0.033712
   8 H :    0.026894
   9 C :   -0.040259
  10 H :    0.016517
  11 H :    0.026782
  12 C :   -0.066345
  13 H :    0.014756
  14 H :    0.029570
  15 H :    0.027842
  16 S :    0.407626
  17 C :   -0.179016
  18 C :   -0.069480
  19 C :   -0.061924
  20 C :   -0.204280
  21 H :    0.038537
  22 C :   -0.034276
  23 H :    0.038621
  24 H :    0.024516
  25 C :   -0.032385
  26 H :    0.020032
  27 H :    0.022053
  28 C :   -0.069026
  29 H :    0.030393
  30 H :    0.023543
  31 H :    0.022292
  32 H :    0.042663
  33 H :    0.021502

  Mayer bond orders larger than 0.100000
B(  0-S ,  1-C ) :   1.1448 B(  0-S ,  4-C ) :   1.1484 B(  1-C ,  2-C ) :   1.6132
B(  1-C , 32-H ) :   0.9566 B(  2-C ,  3-C ) :   1.2571 B(  2-C ,  6-C ) :   1.0222
B(  3-C ,  4-C ) :   1.5544 B(  3-C ,  5-H ) :   0.9912 B(  4-C , 20-C ) :   1.0585
B(  6-C ,  7-H ) :   0.9331 B(  6-C ,  8-H ) :   0.9455 B(  6-C ,  9-C ) :   1.0756
B(  9-C , 10-H ) :   0.9540 B(  9-C , 11-H ) :   0.9565 B(  9-C , 12-C ) :   1.0814
B( 12-C , 13-H ) :   0.9733 B( 12-C , 14-H ) :   0.9711 B( 12-C , 15-H ) :   0.9677
B( 16-S , 17-C ) :   1.1661 B( 16-S , 20-C ) :   1.1330 B( 17-C , 18-C ) :   1.5778
B( 17-C , 33-H ) :   0.9732 B( 18-C , 19-C ) :   1.2616 B( 18-C , 21-H ) :   0.9820
B( 19-C , 20-C ) :   1.5700 B( 19-C , 22-C ) :   1.0448 B( 22-C , 23-H ) :   0.9333
B( 22-C , 24-H ) :   0.9372 B( 22-C , 25-C ) :   1.0506 B( 25-C , 26-H ) :   0.9591
B( 25-C , 27-H ) :   0.9607 B( 25-C , 28-C ) :   1.0691 B( 28-C , 29-H ) :   0.9788
B( 28-C , 30-H ) :   0.9765 B( 28-C , 31-H ) :   0.9788

Dispersion correction           -0.015005712
FINAL SINGLE POINT ENERGY     -1339.886036425113

DIPOLE MOMENT
-------------
                                X             Y             Z
Electronic contribution:     18.29869       2.55563     -25.96595
Nuclear contribution   :    -18.69667      -2.70536      26.53547
                        -----------------------------------------
Total Dipole Moment    :     -0.39798      -0.14973       0.56953
                        -----------------------------------------
Magnitude (a.u.)       :      0.71075
Magnitude (Debye)      :      1.80658

Rotational constants in cm-1:     0.016232     0.010893     0.006853
Rotational constants in MHz :   486.637662   326.561609   205.455090

                             ****ORCA TERMINATED NORMALLY****
TOTAL RUN TIME: 0 days 0 hours 0 minutes 30 seconds 156 msec
