                         Program Version 4.2.1 -  RELEASE  -
|  1> ! wB97X-D3 SP def2-SVP
|  2> %pal
|  3> nprocs 16
|  4> end
|  5>
|  6> * xyz 0 1
|  7> S 	 -28.5265 	 64.623 	 102.789
|  8> C 	 -26.9336 	 64.4942 	 102.137
|  9> C 	 -25.9793 	 64.3496 	 103.136
| 10> C 	 -26.5465 	 64.2199 	 104.453
| 11> C 	 -27.8963 	 64.4322 	 104.441
| 12> H 	 -26.0677 	 64.0319 	 105.444
| 13> C 	 -24.4602 	 64.3323 	 102.915
| 14> H 	 -24.1838 	 65.3648 	 103.283
| 15> H 	 -24.1853 	 64.421 	 101.872
| 16> C 	 -23.6682 	 63.2769 	 103.685
| 17> H 	 -22.6281 	 63.5937 	 103.714
| 18> H 	 -23.8727 	 63.1919 	 104.759
| 19> C 	 -23.8518 	 61.8883 	 102.983
| 20> H 	 -23.4518 	 61.857 	 101.941
| 21> H 	 -23.3616 	 61.1808 	 103.608
| 22> H 	 -24.9313 	 61.703 	 102.956
| 23> S 	 -30.1371 	 65.5692 	 105.479
| 24> C 	 -30.6362 	 65.1346 	 107.029
| 25> C 	 -29.8979 	 64.121 	 107.605
| 26> C 	 -28.7861 	 63.8227 	 106.818
| 27> C 	 -28.7773 	 64.4472 	 105.605
| 28> H 	 -30.1773 	 63.826 	 108.628
| 29> C 	 -27.7753 	 62.9477 	 107.512
| 30> H 	 -27.1009 	 62.5201 	 106.798
| 31> H 	 -28.3183 	 62.0856 	 107.947
| 32> C 	 -26.9651 	 63.4522 	 108.76
| 33> H 	 -26.4226 	 62.7132 	 109.364
| 34> H 	 -27.6476 	 64.0277 	 109.444
| 35> C 	 -26.0536 	 64.655 	 108.415
| 36> H 	 -26.4919 	 65.4562 	 107.884
| 37> H 	 -25.2979 	 64.3826 	 107.799
| 38> H 	 -25.727 	 64.9376 	 109.39
| 39> H 	 -26.5687 	 64.9077 	 101.226
| 40> H 	 -31.4816 	 65.5939 	 107.521
| 41> *
| 42>
| 43>                          ****END OF INPUT****

CARTESIAN COORDINATES (ANGSTROEM)
---------------------------------
  S    -28.526500   64.623000  102.789000
  C    -26.933600   64.494200  102.137000
  C    -25.979300   64.349600  103.136000
  C    -26.546500   64.219900  104.453000
  C    -27.896300   64.432200  104.441000
  H    -26.067700   64.031900  105.444000
  C    -24.460200   64.332300  102.915000
  H    -24.183800   65.364800  103.283000
  H    -24.185300   64.421000  101.872000
  C    -23.668200   63.276900  103.685000
  H    -22.628100   63.593700  103.714000
  H    -23.872700   63.191900  104.759000
  C    -23.851800   61.888300  102.983000
  H    -23.451800   61.857000  101.941000
  H    -23.361600   61.180800  103.608000
  H    -24.931300   61.703000  102.956000
  S    -30.137100   65.569200  105.479000
  C    -30.636200   65.134600  107.029000
  C    -29.897900   64.121000  107.605000
  C    -28.786100   63.822700  106.818000
  C    -28.777300   64.447200  105.605000
  H    -30.177300   63.826000  108.628000
  C    -27.775300   62.947700  107.512000
  H    -27.100900   62.520100  106.798000
  H    -28.318300   62.085600  107.947000
  C    -26.965100   63.452200  108.760000
  H    -26.422600   62.713200  109.364000
  H    -27.647600   64.027700  109.444000
  C    -26.053600   64.655000  108.415000
  H    -26.491900   65.456200  107.884000
  H    -25.297900   64.382600  107.799000
  H    -25.727000   64.937600  109.390000
  H    -26.568700   64.907700  101.226000
  H    -31.481600   65.593900  107.521000

 Total Charge           Charge          ....    0
 Multiplicity           Mult            ....    1
 Number of Electrons    NEL             ....  134
 Basis Dimension        Dim             ....  322

ORBITAL ENERGIES
----------------

  NO   OCC          E(Eh)            E(eV)
   0   2.0000     -88.966645     -2420.9055
   1   2.0000     -88.965915     -2420.8856
   2   2.0000     -10.330791      -281.1151
   3   2.0000     -10.326861      -281.0082
   4   2.0000     -10.312891      -280.6280
   5   2.0000     -10.305271      -280.4207
   6   2.0000     -10.304093      -280.3886
   7   2.0000     -10.303262      -280.3660
   8   2.0000     -10.296653      -280.1862
   9   2.0000     -10.295746      -280.1615
  10   2.0000     -10.294531      -280.1284
  11   2.0000     -10.293897      -280.1112
  12   2.0000     -10.290906      -280.0298
  13   2.0000     -10.290090      -280.0076
  14   2.0000     -10.277087      -279.6537
  15   2.0000     -10.262518      -279.2573
  16   2.0000      -8.082656      -219.9403
  17   2.0000      -8.080454      -219.8803
  18   2.0000      -6.040919      -164.3818
  19   2.0000      -6.039166      -164.3340
  20   2.0000      -6.036980      -164.2746
  21   2.0000      -6.035078      -164.2228
  22   2.0000      -6.033603      -164.1827
  23   2.0000      -6.030926      -164.1098
  24   2.0000      -1.014761       -27.6130
  25   2.0000      -0.988575       -26.9005
  26   2.0000      -0.911157       -24.7938
  27   2.0000      -0.907583       -24.6966
  28   2.0000      -0.871167       -23.7057
  29   2.0000      -0.861156       -23.4332
  30   2.0000      -0.843072       -22.9412
  31   2.0000      -0.814565       -22.1654
  32   2.0000      -0.788631       -21.4597
  33   2.0000      -0.772691       -21.0260
  34   2.0000      -0.712780       -19.3957
  35   2.0000      -0.699149       -19.0248
  36   2.0000      -0.693649       -18.8752
  37   2.0000      -0.664798       -18.0901
  38   2.0000      -0.637524       -17.3479
  39   2.0000      -0.621133       -16.9019
  40   2.0000      -0.600911       -16.3516
  41   2.0000      -0.565172       -15.3791
  42   2.0000      -0.555349       -15.1118
  43   2.0000      -0.553147       -15.0519
  44   2.0000      -0.538606       -14.6562
  45   2.0000      -0.529916       -14.4198
  46   2.0000      -0.527278       -14.3480
  47   2.0000      -0.514066       -13.9884
  48   2.0000      -0.504049       -13.7159
  49   2.0000      -0.503169       -13.6919
  50   2.0000      -0.491457       -13.3732
  51   2.0000      -0.480233       -13.0678
  52   2.0000      -0.468058       -12.7365
  53   2.0000      -0.460776       -12.5384
  54   2.0000      -0.460194       -12.5225
  55   2.0000      -0.457538       -12.4502
  56   2.0000      -0.449547       -12.2328
  57   2.0000      -0.442414       -12.0387
  58   2.0000      -0.431218       -11.7340
  59   2.0000      -0.423540       -11.5251
  60   2.0000      -0.422884       -11.5072
  61   2.0000      -0.411754       -11.2044
  62   2.0000      -0.407080       -11.0772
  63   2.0000      -0.356763        -9.7080
  64   2.0000      -0.335135        -9.1195
  65   2.0000      -0.327058        -8.8997
  66   2.0000      -0.286147        -7.7865
  67   0.0000       0.026943         0.7331
  68   0.0000       0.074719         2.0332
  69   0.0000       0.108306         2.9472
  70   0.0000       0.117358         3.1935
  71   0.0000       0.125916         3.4263

MULLIKEN ATOMIC CHARGES
-----------------------
   0 S :    0.103479
   1 C :   -0.080012
   2 C :   -0.123574
   3 C :   -0.014018
   4 C :   -0.108373
   5 H :    0.011719
   6 C :    0.055213
   7 H :    0.039610
   8 H :    0.013048
   9 C :   -0.075800
  10 H :    0.024153
  11 H :    0.029346
  12 C :   -0.044942
  13 H :    0.040076
  14 H :    0.028605
  15 H :    0.045470
  16 S :    0.112705
  17 C :   -0.087747
  18 C :   -0.051950
  19 C :   -0.025749
  20 C :   -0.150373
  21 H :    0.030435
  22 C :    0.059321
  23 H :    0.015048
  24 H :    0.032321
  25 C :   -0.098965
  26 H :    0.046706
  27 H :    0.028063
  28 C :   -0.008889
  29 H :    0.032094
  30 H :    0.005055
  31 H :    0.024442
  32 H :    0.041552
  33 H :    0.051928
Sum of atomic charges:    0.0000000

LOEWDIN ATOMIC CHARGES
----------------------
   0 S :    0.394117
   1 C :   -0.221947
   2 C :   -0.052934
   3 C :   -0.078409
   4 C :   -0.173233
   5 H :    0.037299
   6 C :   -0.036498
   7 H :    0.039699
   8 H :    0.026875
   9 C :   -0.043443
  10 H :    0.023866
  11 H :    0.024367
  12 C :   -0.060788
  13 H :    0.029848
  14 H :    0.019094
  15 H :    0.029913
  16 S :    0.426370
  17 C :   -0.193365
  18 C :   -0.074084
  19 C :   -0.058467
  20 C :   -0.192308
  21 H :    0.039032
  22 C :   -0.035228
  23 H :    0.020128
  24 H :    0.038431
  25 C :   -0.035909
  26 H :    0.029782
  27 H :    0.028161
  28 C :   -0.055511
  29 H :    0.024491
  30 H :    0.002547
  31 H :    0.025795
  32 H :    0.026066
  33 H :    0.026245

  Mayer bond orders larger than 0.100000
B(  0-S ,  1-C ) :   1.1128 B(  0-S ,  4-C ) :   1.1399 B(  1-C ,  2-C ) :   1.6473
B(  1-C , 32-H ) :   0.9551 B(  2-C ,  3-C ) :   1.2017 B(  2-C ,  6-C ) :   1.0183
B(  3-C ,  4-C ) :   1.6130 B(  3-C ,  5-H ) :   0.9818 B(  4-C , 20-C ) :   1.0483
B(  6-C ,  7-H ) :   0.9327 B(  6-C ,  8-H ) :   0.9449 B(  6-C ,  9-C ) :   1.0741
B(  9-C , 10-H ) :   0.9517 B(  9-C , 11-H ) :   0.9546 B(  9-C , 12-C ) :   1.0650
B( 12-C , 13-H ) :   0.9760 B( 12-C , 14-H ) :   0.9758 B( 12-C , 15-H ) :   0.9782
B( 16-S , 17-C ) :   1.1861 B( 16-S , 20-C ) :   1.1316 B( 17-C , 18-C ) :   1.5982
B( 17-C , 33-H ) :   0.9643 B( 18-C , 19-C ) :   1.2341 B( 18-C , 21-H ) :   0.9916
B( 19-C , 20-C ) :   1.6009 B( 19-C , 22-C ) :   1.0497 B( 22-C , 23-H ) :   0.9338
B( 22-C , 24-H ) :   0.9289 B( 22-C , 25-C ) :   1.0643 B( 25-C , 26-H ) :   0.9598
B( 25-C , 27-H ) :   0.9596 B( 25-C , 28-C ) :   1.0639 B( 28-C , 29-H ) :   0.9757
B( 28-C , 30-H ) :   0.9692 B( 28-C , 31-H ) :   0.9756

Dispersion correction           -0.015020116
FINAL SINGLE POINT ENERGY     -1339.861111525980

DIPOLE MOMENT
-------------
                                X             Y             Z
Electronic contribution:    -25.60642       9.83909     -10.56411
Nuclear contribution   :     26.10752      -9.84402      11.16590
                        -----------------------------------------
Total Dipole Moment    :      0.50111      -0.00493       0.60179
                        -----------------------------------------
Magnitude (a.u.)       :      0.78313
Magnitude (Debye)      :      1.99055

Rotational constants in cm-1:     0.018535     0.009904     0.007024
Rotational constants in MHz :   555.652257   296.925166   210.588880

                             ****ORCA TERMINATED NORMALLY****
TOTAL RUN TIME: 0 days 0 hours 0 minutes 31 seconds 436 msec
