                         Program Version 4.2.1 -  RELEASE  -
|  1> ! wB97X-D3 SP def2-SVP
|  2> %pal
|  3> nprocs 16
|  4> end
|  5>
|  6> * xyz 0 1
|  7> S 	 -94.3708 	 54.0827 	 124.638
|  8> C 	 -93.1885 	 52.9723 	 125.367
|  9> C 	 -93.7711 	 52.0155 	 126.154
| 10> C 	 -95.1808 	 52.0396 	 126.01
| 11> C 	 -95.6957 	 52.9895 	 125.138
| 12> H 	 -95.7138 	 51.3724 	 126.576
| 13> C 	 -93.1076 	 51.0913 	 127.144
| 14> H 	 -93.8111 	 50.4293 	 127.723
| 15> H 	 -92.7518 	 51.6619 	 127.995
| 16> C 	 -91.9723 	 50.1705 	 126.496
| 17> H 	 -91.2892 	 50.8734 	 126.068
| 18> H 	 -91.407 	 49.6747 	 127.252
| 19> C 	 -92.4862 	 49.0921 	 125.455
| 20> H 	 -93.2841 	 48.4771 	 125.876
| 21> H 	 -92.859 	 49.5653 	 124.57
| 22> H 	 -91.6589 	 48.4872 	 125.014
| 23> S 	 -97.5307 	 54.8412 	 124.764
| 24> C 	 -99.1009 	 54.4957 	 124.024
| 25> C 	 -99.2432 	 53.1154 	 123.876
| 26> C 	 -98.089 	 52.3505 	 124.274
| 27> C 	 -97.0795 	 53.1685 	 124.72
| 28> H 	 -100.132 	 52.6691 	 123.425
| 29> C 	 -97.9555 	 50.8708 	 124.059
| 30> H 	 -96.9073 	 50.7539 	 123.762
| 31> H 	 -98.5187 	 50.5079 	 123.255
| 32> C 	 -98.2898 	 50.0148 	 125.284
| 33> H 	 -99.2923 	 50.3347 	 125.707
| 34> H 	 -97.5777 	 50.0998 	 126.086
| 35> C 	 -98.2935 	 48.4716 	 124.982
| 36> H 	 -97.3064 	 48.177 	 124.624
| 37> H 	 -98.9699 	 48.2714 	 124.175
| 38> H 	 -98.5581 	 47.8905 	 125.844
| 39> H 	 -92.1161 	 53.1567 	 125.429
| 40> H 	 -99.8446 	 55.2525 	 123.809
| 41> *
| 42>
| 43>                          ****END OF INPUT****

CARTESIAN COORDINATES (ANGSTROEM)
---------------------------------
  S    -94.370800   54.082700  124.638000
  C    -93.188500   52.972300  125.367000
  C    -93.771100   52.015500  126.154000
  C    -95.180800   52.039600  126.010000
  C    -95.695700   52.989500  125.138000
  H    -95.713800   51.372400  126.576000
  C    -93.107600   51.091300  127.144000
  H    -93.811100   50.429300  127.723000
  H    -92.751800   51.661900  127.995000
  C    -91.972300   50.170500  126.496000
  H    -91.289200   50.873400  126.068000
  H    -91.407000   49.674700  127.252000
  C    -92.486200   49.092100  125.455000
  H    -93.284100   48.477100  125.876000
  H    -92.859000   49.565300  124.570000
  H    -91.658900   48.487200  125.014000
  S    -97.530700   54.841200  124.764000
  C    -99.100900   54.495700  124.024000
  C    -99.243200   53.115400  123.876000
  C    -98.089000   52.350500  124.274000
  C    -97.079500   53.168500  124.720000
  H    -100.132000   52.669100  123.425000
  C    -97.955500   50.870800  124.059000
  H    -96.907300   50.753900  123.762000
  H    -98.518700   50.507900  123.255000
  C    -98.289800   50.014800  125.284000
  H    -99.292300   50.334700  125.707000
  H    -97.577700   50.099800  126.086000
  C    -98.293500   48.471600  124.982000
  H    -97.306400   48.177000  124.624000
  H    -98.969900   48.271400  124.175000
  H    -98.558100   47.890500  125.844000
  H    -92.116100   53.156700  125.429000
  H    -99.844600   55.252500  123.809000

 Total Charge           Charge          ....    0
 Multiplicity           Mult            ....    1
 Number of Electrons    NEL             ....  134
 Basis Dimension        Dim             ....  322

ORBITAL ENERGIES
----------------

  NO   OCC          E(Eh)            E(eV)
   0   2.0000     -88.969739     -2420.9897
   1   2.0000     -88.962977     -2420.8057
   2   2.0000     -10.334072      -281.2044
   3   2.0000     -10.325025      -280.9582
   4   2.0000     -10.320513      -280.8354
   5   2.0000     -10.315436      -280.6973
   6   2.0000     -10.303211      -280.3646
   7   2.0000     -10.301423      -280.3160
   8   2.0000     -10.298660      -280.2408
   9   2.0000     -10.298461      -280.2354
  10   2.0000     -10.292600      -280.0759
  11   2.0000     -10.290260      -280.0122
  12   2.0000     -10.287312      -279.9320
  13   2.0000     -10.286837      -279.9191
  14   2.0000     -10.282195      -279.7927
  15   2.0000     -10.276513      -279.6381
  16   2.0000      -8.083188      -219.9547
  17   2.0000      -8.078037      -219.8146
  18   2.0000      -6.041982      -164.4107
  19   2.0000      -6.037989      -164.3020
  20   2.0000      -6.036608      -164.2645
  21   2.0000      -6.033595      -164.1825
  22   2.0000      -6.032436      -164.1509
  23   2.0000      -6.028780      -164.0514
  24   2.0000      -1.006449       -27.3869
  25   2.0000      -0.981808       -26.7164
  26   2.0000      -0.909030       -24.7360
  27   2.0000      -0.902895       -24.5690
  28   2.0000      -0.865117       -23.5410
  29   2.0000      -0.850658       -23.1476
  30   2.0000      -0.844044       -22.9676
  31   2.0000      -0.812250       -22.1024
  32   2.0000      -0.782445       -21.2914
  33   2.0000      -0.774260       -21.0687
  34   2.0000      -0.712513       -19.3885
  35   2.0000      -0.703805       -19.1515
  36   2.0000      -0.695787       -18.9333
  37   2.0000      -0.669843       -18.2273
  38   2.0000      -0.636299       -17.3146
  39   2.0000      -0.621376       -16.9085
  40   2.0000      -0.597049       -16.2465
  41   2.0000      -0.573058       -15.5937
  42   2.0000      -0.565583       -15.3903
  43   2.0000      -0.544918       -14.8280
  44   2.0000      -0.536307       -14.5937
  45   2.0000      -0.524398       -14.2696
  46   2.0000      -0.517535       -14.0829
  47   2.0000      -0.509521       -13.8648
  48   2.0000      -0.504690       -13.7333
  49   2.0000      -0.497830       -13.5467
  50   2.0000      -0.493236       -13.4216
  51   2.0000      -0.474886       -12.9223
  52   2.0000      -0.471165       -12.8211
  53   2.0000      -0.462335       -12.5808
  54   2.0000      -0.459046       -12.4913
  55   2.0000      -0.450163       -12.2496
  56   2.0000      -0.442366       -12.0374
  57   2.0000      -0.438413       -11.9298
  58   2.0000      -0.436498       -11.8777
  59   2.0000      -0.427497       -11.6328
  60   2.0000      -0.421367       -11.4660
  61   2.0000      -0.420061       -11.4304
  62   2.0000      -0.415553       -11.3078
  63   2.0000      -0.349342        -9.5061
  64   2.0000      -0.332540        -9.0489
  65   2.0000      -0.330526        -8.9941
  66   2.0000      -0.289451        -7.8764
  67   0.0000       0.023084         0.6282
  68   0.0000       0.066867         1.8195
  69   0.0000       0.100824         2.7436
  70   0.0000       0.126939         3.4542
  71   0.0000       0.131821         3.5870

MULLIKEN ATOMIC CHARGES
-----------------------
   0 S :    0.113172
   1 C :   -0.131409
   2 C :   -0.061951
   3 C :    0.060307
   4 C :   -0.113728
   5 H :   -0.043131
   6 C :    0.023863
   7 H :    0.022705
   8 H :    0.040600
   9 C :   -0.056851
  10 H :    0.019822
  11 H :    0.024419
  12 C :   -0.058468
  13 H :    0.038220
  14 H :    0.032046
  15 H :    0.041288
  16 S :    0.086727
  17 C :   -0.092492
  18 C :   -0.037612
  19 C :   -0.033180
  20 C :   -0.156622
  21 H :    0.022555
  22 C :    0.102142
  23 H :    0.032276
  24 H :   -0.000377
  25 C :   -0.100689
  26 H :    0.035426
  27 H :    0.025360
  28 C :   -0.029734
  29 H :    0.025434
  30 H :    0.021423
  31 H :    0.037491
  32 H :    0.049014
  33 H :    0.061955
Sum of atomic charges:   -0.0000000

LOEWDIN ATOMIC CHARGES
----------------------
   0 S :    0.382642
   1 C :   -0.187819
   2 C :   -0.065092
   3 C :   -0.048915
   4 C :   -0.183567
   5 H :    0.011954
   6 C :   -0.035529
   7 H :    0.031316
   8 H :    0.034752
   9 C :   -0.030180
  10 H :    0.017500
  11 H :    0.018815
  12 C :   -0.068329
  13 H :    0.025722
  14 H :    0.023355
  15 H :    0.033610
  16 S :    0.401796
  17 C :   -0.181080
  18 C :   -0.067168
  19 C :   -0.057331
  20 C :   -0.192937
  21 H :    0.032744
  22 C :   -0.027987
  23 H :    0.037682
  24 H :    0.021791
  25 C :   -0.037021
  26 H :    0.027985
  27 H :    0.016205
  28 C :   -0.060233
  29 H :    0.024542
  30 H :    0.018222
  31 H :    0.024710
  32 H :    0.027876
  33 H :    0.029969

  Mayer bond orders larger than 0.100000
B(  0-S ,  1-C ) :   1.1271 B(  0-S ,  4-C ) :   1.1297 B(  1-C ,  2-C ) :   1.6199
B(  1-C , 32-H ) :   0.9599 B(  2-C ,  3-C ) :   1.2602 B(  2-C ,  6-C ) :   1.0088
B(  3-C ,  4-C ) :   1.5402 B(  3-C ,  5-H ) :   1.0141 B(  4-C , 20-C ) :   1.0469
B(  6-C ,  7-H ) :   0.9493 B(  6-C ,  8-H ) :   0.9390 B(  6-C ,  9-C ) :   1.0627
B(  9-C , 10-H ) :   0.9616 B(  9-C , 11-H ) :   0.9604 B(  9-C , 12-C ) :   1.0627
B( 12-C , 13-H ) :   0.9784 B( 12-C , 14-H ) :   0.9761 B( 12-C , 15-H ) :   0.9753
B( 16-S , 17-C ) :   1.1407 B( 16-S , 20-C ) :   1.1465 B( 17-C , 18-C ) :   1.6020
B( 17-C , 33-H ) :   0.9727 B( 18-C , 19-C ) :   1.2317 B( 18-C , 21-H ) :   0.9874
B( 19-C , 20-C ) :   1.6057 B( 19-C , 22-C ) :   1.0477 B( 22-C , 23-H ) :   0.9257
B( 22-C , 24-H ) :   0.9347 B( 22-C , 25-C ) :   1.0588 B( 25-C , 26-H ) :   0.9566
B( 25-C , 27-H ) :   0.9549 B( 25-C , 28-C ) :   1.0798 B( 28-C , 29-H ) :   0.9741
B( 28-C , 30-H ) :   0.9768 B( 28-C , 31-H ) :   0.9759

Dispersion correction           -0.014412492
FINAL SINGLE POINT ENERGY     -1339.879625213316

DIPOLE MOMENT
-------------
                                X             Y             Z
Electronic contribution:     -4.56532      30.66000      -4.95728
Nuclear contribution   :      4.56822     -31.27360       5.15631
                        -----------------------------------------
Total Dipole Moment    :      0.00290      -0.61360       0.19902
                        -----------------------------------------
Magnitude (a.u.)       :      0.64508
Magnitude (Debye)      :      1.63966

Rotational constants in cm-1:     0.017624     0.009691     0.006662
Rotational constants in MHz :   528.341501   290.539898   199.722272

                             ****ORCA TERMINATED NORMALLY****
TOTAL RUN TIME: 0 days 0 hours 0 minutes 34 seconds 638 msec
