                         Program Version 4.2.1 -  RELEASE  -
|  1> ! wB97X-D3 SP def2-SVP
|  2> %pal
|  3> nprocs 16
|  4> end
|  5>
|  6> * xyz 0 1
|  7> S 	 -59.0798 	 52.1138 	 135.193
|  8> C 	 -59.2072 	 51.1156 	 136.596
|  9> C 	 -60.4963 	 51.2436 	 137.18
| 10> C 	 -61.3377 	 52.1653 	 136.468
| 11> C 	 -60.7049 	 52.7963 	 135.416
| 12> H 	 -62.3386 	 52.5149 	 136.698
| 13> C 	 -60.8956 	 50.7282 	 138.525
| 14> H 	 -60.1446 	 49.8929 	 138.841
| 15> H 	 -61.8929 	 50.168 	 138.499
| 16> C 	 -61.059 	 51.8215 	 139.622
| 17> H 	 -61.9122 	 52.4596 	 139.351
| 18> H 	 -61.4312 	 51.2995 	 140.503
| 19> C 	 -59.8029 	 52.6288 	 139.879
| 20> H 	 -59.2 	 52.7841 	 139.045
| 21> H 	 -60.0637 	 53.5956 	 140.302
| 22> H 	 -59.2011 	 52.1459 	 140.669
| 23> S 	 -61.0023 	 53.3965 	 132.742
| 24> C 	 -61.7304 	 54.9586 	 132.334
| 25> C 	 -62.2104 	 55.621 	 133.444
| 26> C 	 -61.9485 	 54.8932 	 134.67
| 27> C 	 -61.2724 	 53.6939 	 134.45
| 28> H 	 -62.7156 	 56.5572 	 133.297
| 29> C 	 -62.2344 	 55.5652 	 136.059
| 30> H 	 -62.6939 	 54.7838 	 136.726
| 31> H 	 -63.0361 	 56.2888 	 135.981
| 32> C 	 -61.0507 	 56.2732 	 136.756
| 33> H 	 -60.7365 	 57.0688 	 136.047
| 34> H 	 -60.1341 	 55.6163 	 136.954
| 35> C 	 -61.4262 	 57.0515 	 138.08
| 36> H 	 -62.091 	 56.5016 	 138.778
| 37> H 	 -61.9436 	 57.9745 	 137.763
| 38> H 	 -60.5824 	 57.4799 	 138.601
| 39> H 	 -58.3743 	 50.511 	 136.986
| 40> H 	 -61.8816 	 55.3216 	 131.344
| 41> *
| 42>
| 43>                          ****END OF INPUT****

CARTESIAN COORDINATES (ANGSTROEM)
---------------------------------
  S    -59.079800   52.113800  135.193000
  C    -59.207200   51.115600  136.596000
  C    -60.496300   51.243600  137.180000
  C    -61.337700   52.165300  136.468000
  C    -60.704900   52.796300  135.416000
  H    -62.338600   52.514900  136.698000
  C    -60.895600   50.728200  138.525000
  H    -60.144600   49.892900  138.841000
  H    -61.892900   50.168000  138.499000
  C    -61.059000   51.821500  139.622000
  H    -61.912200   52.459600  139.351000
  H    -61.431200   51.299500  140.503000
  C    -59.802900   52.628800  139.879000
  H    -59.200000   52.784100  139.045000
  H    -60.063700   53.595600  140.302000
  H    -59.201100   52.145900  140.669000
  S    -61.002300   53.396500  132.742000
  C    -61.730400   54.958600  132.334000
  C    -62.210400   55.621000  133.444000
  C    -61.948500   54.893200  134.670000
  C    -61.272400   53.693900  134.450000
  H    -62.715600   56.557200  133.297000
  C    -62.234400   55.565200  136.059000
  H    -62.693900   54.783800  136.726000
  H    -63.036100   56.288800  135.981000
  C    -61.050700   56.273200  136.756000
  H    -60.736500   57.068800  136.047000
  H    -60.134100   55.616300  136.954000
  C    -61.426200   57.051500  138.080000
  H    -62.091000   56.501600  138.778000
  H    -61.943600   57.974500  137.763000
  H    -60.582400   57.479900  138.601000
  H    -58.374300   50.511000  136.986000
  H    -61.881600   55.321600  131.344000

 Total Charge           Charge          ....    0
 Multiplicity           Mult            ....    1
 Number of Electrons    NEL             ....  134
 Basis Dimension        Dim             ....  322

ORBITAL ENERGIES
----------------

  NO   OCC          E(Eh)            E(eV)
   0   2.0000     -88.968826     -2420.9648
   1   2.0000     -88.966944     -2420.9136
   2   2.0000     -10.329404      -281.0774
   3   2.0000     -10.328842      -281.0621
   4   2.0000     -10.320590      -280.8375
   5   2.0000     -10.317532      -280.7543
   6   2.0000     -10.311068      -280.5784
   7   2.0000     -10.305883      -280.4373
   8   2.0000     -10.302268      -280.3390
   9   2.0000     -10.301349      -280.3140
  10   2.0000     -10.296861      -280.1918
  11   2.0000     -10.296741      -280.1886
  12   2.0000     -10.295366      -280.1512
  13   2.0000     -10.287622      -279.9404
  14   2.0000     -10.283488      -279.8279
  15   2.0000     -10.268961      -279.4326
  16   2.0000      -8.083093      -219.9522
  17   2.0000      -8.081548      -219.9101
  18   2.0000      -6.041677      -164.4024
  19   2.0000      -6.039986      -164.3564
  20   2.0000      -6.037696      -164.2941
  21   2.0000      -6.035977      -164.2473
  22   2.0000      -6.033764      -164.1871
  23   2.0000      -6.032484      -164.1522
  24   2.0000      -1.005107       -27.3504
  25   2.0000      -0.980126       -26.6706
  26   2.0000      -0.908273       -24.7154
  27   2.0000      -0.897143       -24.4125
  28   2.0000      -0.871435       -23.7130
  29   2.0000      -0.849401       -23.1134
  30   2.0000      -0.841876       -22.9086
  31   2.0000      -0.814294       -22.1581
  32   2.0000      -0.780547       -21.2398
  33   2.0000      -0.769882       -20.9496
  34   2.0000      -0.709507       -19.3067
  35   2.0000      -0.694880       -18.9087
  36   2.0000      -0.688719       -18.7410
  37   2.0000      -0.661859       -18.0101
  38   2.0000      -0.641100       -17.4452
  39   2.0000      -0.617210       -16.7951
  40   2.0000      -0.591460       -16.0944
  41   2.0000      -0.565430       -15.3861
  42   2.0000      -0.556608       -15.1461
  43   2.0000      -0.545858       -14.8536
  44   2.0000      -0.538029       -14.6405
  45   2.0000      -0.520067       -14.1517
  46   2.0000      -0.517393       -14.0790
  47   2.0000      -0.512167       -13.9368
  48   2.0000      -0.502815       -13.6823
  49   2.0000      -0.498244       -13.5579
  50   2.0000      -0.491998       -13.3879
  51   2.0000      -0.481785       -13.1100
  52   2.0000      -0.466903       -12.7051
  53   2.0000      -0.463069       -12.6007
  54   2.0000      -0.456102       -12.4112
  55   2.0000      -0.449117       -12.2211
  56   2.0000      -0.444701       -12.1009
  57   2.0000      -0.436015       -11.8646
  58   2.0000      -0.431219       -11.7341
  59   2.0000      -0.422632       -11.5004
  60   2.0000      -0.416886       -11.3440
  61   2.0000      -0.412970       -11.2375
  62   2.0000      -0.411554       -11.1989
  63   2.0000      -0.353553        -9.6207
  64   2.0000      -0.334691        -9.1074
  65   2.0000      -0.326946        -8.8966
  66   2.0000      -0.289052        -7.8655
  67   0.0000       0.025851         0.7034
  68   0.0000       0.067821         1.8455
  69   0.0000       0.109517         2.9801
  70   0.0000       0.116613         3.1732
  71   0.0000       0.123682         3.3656

MULLIKEN ATOMIC CHARGES
-----------------------
   0 S :    0.108255
   1 C :   -0.128903
   2 C :   -0.067442
   3 C :    0.033816
   4 C :   -0.162890
   5 H :    0.017816
   6 C :   -0.012243
   7 H :    0.033448
   8 H :    0.042253
   9 C :   -0.064623
  10 H :    0.024655
  11 H :    0.027556
  12 C :   -0.021737
  13 H :    0.033546
  14 H :    0.026320
  15 H :    0.028033
  16 S :    0.112267
  17 C :   -0.088486
  18 C :   -0.027819
  19 C :   -0.033196
  20 C :   -0.147437
  21 H :    0.019107
  22 C :    0.067588
  23 H :    0.019408
  24 H :    0.012912
  25 C :   -0.092497
  26 H :    0.032641
  27 H :    0.057600
  28 C :   -0.066305
  29 H :    0.041654
  30 H :    0.025077
  31 H :    0.036148
  32 H :    0.065843
  33 H :    0.047636
Sum of atomic charges:   -0.0000000

LOEWDIN ATOMIC CHARGES
----------------------
   0 S :    0.405227
   1 C :   -0.209445
   2 C :   -0.068860
   3 C :   -0.056654
   4 C :   -0.185228
   5 H :    0.032259
   6 C :   -0.046718
   7 H :    0.034245
   8 H :    0.038125
   9 C :   -0.041677
  10 H :    0.021992
  11 H :    0.025783
  12 C :   -0.062802
  13 H :    0.018017
  14 H :    0.028041
  15 H :    0.029875
  16 S :    0.397750
  17 C :   -0.173739
  18 C :   -0.066908
  19 C :   -0.053208
  20 C :   -0.198219
  21 H :    0.032228
  22 C :   -0.034650
  23 H :    0.028242
  24 H :    0.026907
  25 C :   -0.045374
  26 H :    0.027741
  27 H :    0.032969
  28 C :   -0.074494
  29 H :    0.025594
  30 H :    0.026027
  31 H :    0.027131
  32 H :    0.035682
  33 H :    0.024143

  Mayer bond orders larger than 0.100000
B(  0-S ,  1-C ) :   1.1516 B(  0-S ,  4-C ) :   1.1375 B(  1-C ,  2-C ) :   1.5695
B(  1-C ,  4-C ) :   0.1000 B(  1-C , 32-H ) :   0.9675 B(  2-C ,  3-C ) :   1.2304
B(  2-C ,  6-C ) :   1.0459 B(  3-C ,  4-C ) :   1.5788 B(  3-C ,  5-H ) :   0.9898
B(  4-C , 20-C ) :   1.0708 B(  6-C ,  7-H ) :   0.9470 B(  6-C ,  8-H ) :   0.9362
B(  6-C ,  9-C ) :   1.0666 B(  9-C , 10-H ) :   0.9560 B(  9-C , 11-H ) :   0.9553
B(  9-C , 12-C ) :   1.0663 B( 12-C , 13-H ) :   0.9790 B( 12-C , 14-H ) :   0.9726
B( 12-C , 15-H ) :   0.9743 B( 16-S , 17-C ) :   1.1387 B( 16-S , 20-C ) :   1.1360
B( 17-C , 18-C ) :   1.6326 B( 17-C , 33-H ) :   0.9690 B( 18-C , 19-C ) :   1.2278
B( 18-C , 21-H ) :   0.9925 B( 19-C , 20-C ) :   1.5986 B( 19-C , 22-C ) :   1.0404
B( 22-C , 23-H ) :   0.9326 B( 22-C , 24-H ) :   0.9378 B( 22-C , 25-C ) :   1.0540
B( 25-C , 26-H ) :   0.9566 B( 25-C , 27-H ) :   0.9601 B( 25-C , 28-C ) :   1.0664
B( 28-C , 29-H ) :   0.9790 B( 28-C , 30-H ) :   0.9757 B( 28-C , 31-H ) :   0.9747

Dispersion correction           -0.015256283
FINAL SINGLE POINT ENERGY     -1339.888823063326

DIPOLE MOMENT
-------------
                                X             Y             Z
Electronic contribution:      4.86598     -10.28946     -28.67081
Nuclear contribution   :     -5.14250      10.66990      29.16071
                        -----------------------------------------
Total Dipole Moment    :     -0.27652       0.38044       0.48989
                        -----------------------------------------
Magnitude (a.u.)       :      0.67911
Magnitude (Debye)      :      1.72616

Rotational constants in cm-1:     0.017743     0.010372     0.007358
Rotational constants in MHz :   531.921366   310.945666   220.577869

                             ****ORCA TERMINATED NORMALLY****
TOTAL RUN TIME: 0 days 0 hours 0 minutes 34 seconds 41 msec
