                         Program Version 4.2.1 -  RELEASE  -
|  1> ! wB97X-D3 SP def2-SVP
|  2> %pal
|  3> nprocs 16
|  4> end
|  5>
|  6> * xyz 0 1
|  7> S 	 43.2105 	 19.3444 	 87.3889
|  8> C 	 41.8075 	 20.4709 	 87.2769
|  9> C 	 41.212 	 20.4053 	 86.1117
| 10> C 	 41.7712 	 19.3806 	 85.2838
| 11> C 	 42.7644 	 18.6348 	 85.9018
| 12> H 	 41.364 	 19.1283 	 84.3408
| 13> C 	 40.1176 	 21.3468 	 85.5972
| 14> H 	 39.8098 	 21.0445 	 84.5732
| 15> H 	 40.5783 	 22.3304 	 85.4652
| 16> C 	 38.7513 	 21.3789 	 86.262
| 17> H 	 38.3196 	 20.4241 	 86.6389
| 18> H 	 38.8739 	 21.9836 	 87.1242
| 19> C 	 37.6554 	 22.0437 	 85.458
| 20> H 	 37.3708 	 21.3274 	 84.6267
| 21> H 	 36.8351 	 22.2999 	 86.1657
| 22> H 	 38.0476 	 23.0448 	 85.217
| 23> S 	 45.2627 	 17.5764 	 85.0961
| 24> C 	 45.3211 	 15.8742 	 84.5826
| 25> C 	 44.0096 	 15.4284 	 84.3627
| 26> C 	 42.9698 	 16.3052 	 84.8597
| 27> C 	 43.4788 	 17.5252 	 85.3848
| 28> H 	 43.8293 	 14.4965 	 83.9474
| 29> C 	 41.4783 	 15.9306 	 85.0172
| 30> H 	 41.2806 	 15.4377 	 84.0664
| 31> H 	 40.9385 	 16.8497 	 84.9881
| 32> C 	 40.9589 	 15.1212 	 86.1893
| 33> H 	 41.3282 	 15.6985 	 87.0015
| 34> H 	 41.4255 	 14.169 	 86.3617
| 35> C 	 39.4081 	 15.0052 	 86.1256
| 36> H 	 39.0725 	 14.7719 	 85.1379
| 37> H 	 38.9396 	 15.8895 	 86.4382
| 38> H 	 39.0053 	 14.3049 	 86.8675
| 39> H 	 41.5986 	 21.223 	 88.0185
| 40> H 	 46.2888 	 15.3458 	 84.3214
| 41> *
| 42>
| 43>                          ****END OF INPUT****

CARTESIAN COORDINATES (ANGSTROEM)
---------------------------------
  S     43.210500   19.344400   87.388900
  C     41.807500   20.470900   87.276900
  C     41.212000   20.405300   86.111700
  C     41.771200   19.380600   85.283800
  C     42.764400   18.634800   85.901800
  H     41.364000   19.128300   84.340800
  C     40.117600   21.346800   85.597200
  H     39.809800   21.044500   84.573200
  H     40.578300   22.330400   85.465200
  C     38.751300   21.378900   86.262000
  H     38.319600   20.424100   86.638900
  H     38.873900   21.983600   87.124200
  C     37.655400   22.043700   85.458000
  H     37.370800   21.327400   84.626700
  H     36.835100   22.299900   86.165700
  H     38.047600   23.044800   85.217000
  S     45.262700   17.576400   85.096100
  C     45.321100   15.874200   84.582600
  C     44.009600   15.428400   84.362700
  C     42.969800   16.305200   84.859700
  C     43.478800   17.525200   85.384800
  H     43.829300   14.496500   83.947400
  C     41.478300   15.930600   85.017200
  H     41.280600   15.437700   84.066400
  H     40.938500   16.849700   84.988100
  C     40.958900   15.121200   86.189300
  H     41.328200   15.698500   87.001500
  H     41.425500   14.169000   86.361700
  C     39.408100   15.005200   86.125600
  H     39.072500   14.771900   85.137900
  H     38.939600   15.889500   86.438200
  H     39.005300   14.304900   86.867500
  H     41.598600   21.223000   88.018500
  H     46.288800   15.345800   84.321400

 Total Charge           Charge          ....    0
 Multiplicity           Mult            ....    1
 Number of Electrons    NEL             ....  134
 Basis Dimension        Dim             ....  322

ORBITAL ENERGIES
----------------

  NO   OCC          E(Eh)            E(eV)
   0   2.0000     -88.964146     -2420.8375
   1   2.0000     -88.964112     -2420.8366
   2   2.0000     -10.329326      -281.0753
   3   2.0000     -10.329215      -281.0722
   4   2.0000     -10.325728      -280.9773
   5   2.0000     -10.309601      -280.5385
   6   2.0000     -10.309325      -280.5310
   7   2.0000     -10.297614      -280.2123
   8   2.0000     -10.296560      -280.1836
   9   2.0000     -10.296029      -280.1692
  10   2.0000     -10.291912      -280.0572
  11   2.0000     -10.288280      -279.9583
  12   2.0000     -10.286175      -279.9011
  13   2.0000     -10.283729      -279.8345
  14   2.0000     -10.279683      -279.7244
  15   2.0000     -10.273433      -279.5543
  16   2.0000      -8.079288      -219.8486
  17   2.0000      -8.077513      -219.8003
  18   2.0000      -6.037831      -164.2977
  19   2.0000      -6.036148      -164.2519
  20   2.0000      -6.033795      -164.1879
  21   2.0000      -6.032222      -164.1451
  22   2.0000      -6.029907      -164.0821
  23   2.0000      -6.028202      -164.0357
  24   2.0000      -1.008530       -27.4435
  25   2.0000      -0.975483       -26.5442
  26   2.0000      -0.918030       -24.9809
  27   2.0000      -0.905807       -24.6483
  28   2.0000      -0.878545       -23.9064
  29   2.0000      -0.849397       -23.1133
  30   2.0000      -0.841171       -22.8894
  31   2.0000      -0.811340       -22.0777
  32   2.0000      -0.785897       -21.3853
  33   2.0000      -0.773478       -21.0474
  34   2.0000      -0.713740       -19.4219
  35   2.0000      -0.700529       -19.0624
  36   2.0000      -0.693761       -18.8782
  37   2.0000      -0.659607       -17.9488
  38   2.0000      -0.641595       -17.4587
  39   2.0000      -0.619276       -16.8513
  40   2.0000      -0.591354       -16.0916
  41   2.0000      -0.580080       -15.7848
  42   2.0000      -0.569556       -15.4984
  43   2.0000      -0.561905       -15.2902
  44   2.0000      -0.530658       -14.4399
  45   2.0000      -0.523445       -14.2437
  46   2.0000      -0.520185       -14.1550
  47   2.0000      -0.510877       -13.9017
  48   2.0000      -0.505335       -13.7509
  49   2.0000      -0.499027       -13.5792
  50   2.0000      -0.492449       -13.4002
  51   2.0000      -0.481504       -13.1024
  52   2.0000      -0.476086       -12.9549
  53   2.0000      -0.461342       -12.5538
  54   2.0000      -0.459093       -12.4926
  55   2.0000      -0.447424       -12.1750
  56   2.0000      -0.444745       -12.1021
  57   2.0000      -0.439235       -11.9522
  58   2.0000      -0.434696       -11.8287
  59   2.0000      -0.420790       -11.4503
  60   2.0000      -0.420410       -11.4399
  61   2.0000      -0.409321       -11.1382
  62   2.0000      -0.407327       -11.0839
  63   2.0000      -0.345232        -9.3942
  64   2.0000      -0.333235        -9.0678
  65   2.0000      -0.326689        -8.8897
  66   2.0000      -0.294264        -8.0073
  67   0.0000       0.023984         0.6526
  68   0.0000       0.067454         1.8355
  69   0.0000       0.106524         2.8987
  70   0.0000       0.112564         3.0630
  71   0.0000       0.133218         3.6251

MULLIKEN ATOMIC CHARGES
-----------------------
   0 S :    0.104881
   1 C :   -0.136130
   2 C :   -0.045236
   3 C :    0.063418
   4 C :   -0.186729
   5 H :   -0.001600
   6 C :    0.060550
   7 H :    0.007916
   8 H :    0.045181
   9 C :   -0.074035
  10 H :    0.035819
  11 H :    0.008177
  12 C :   -0.074422
  13 H :    0.059629
  14 H :    0.040304
  15 H :    0.029040
  16 S :    0.091584
  17 C :   -0.122818
  18 C :    0.001420
  19 C :   -0.056452
  20 C :   -0.134845
  21 H :   -0.006720
  22 C :    0.071419
  23 H :    0.013296
  24 H :    0.001309
  25 C :   -0.013177
  26 H :    0.017433
  27 H :    0.019803
  28 C :   -0.022827
  29 H :    0.027046
  30 H :    0.017882
  31 H :    0.030543
  32 H :    0.037324
  33 H :    0.091017
Sum of atomic charges:   -0.0000000

LOEWDIN ATOMIC CHARGES
----------------------
   0 S :    0.402710
   1 C :   -0.170496
   2 C :   -0.067377
   3 C :   -0.050427
   4 C :   -0.207697
   5 H :    0.022229
   6 C :   -0.031121
   7 H :    0.028623
   8 H :    0.036853
   9 C :   -0.050731
  10 H :    0.028935
  11 H :    0.013681
  12 C :   -0.070022
  13 H :    0.034508
  14 H :    0.033676
  15 H :    0.026464
  16 S :    0.367503
  17 C :   -0.183207
  18 C :   -0.064092
  19 C :   -0.047582
  20 C :   -0.189730
  21 H :    0.018312
  22 C :   -0.031010
  23 H :    0.025367
  24 H :    0.024979
  25 C :   -0.033810
  26 H :    0.024346
  27 H :    0.020506
  28 C :   -0.056483
  29 H :    0.021936
  30 H :    0.020090
  31 H :    0.030712
  32 H :    0.025749
  33 H :    0.046608

  Mayer bond orders larger than 0.100000
B(  0-S ,  1-C ) :   1.1106 B(  0-S ,  4-C ) :   1.1514 B(  1-C ,  2-C ) :   1.6641
B(  1-C , 32-H ) :   0.9732 B(  2-C ,  3-C ) :   1.2338 B(  2-C ,  6-C ) :   1.0032
B(  3-C ,  4-C ) :   1.5625 B(  3-C ,  5-H ) :   0.9958 B(  4-C , 20-C ) :   1.0712
B(  6-C ,  7-H ) :   0.9477 B(  6-C ,  8-H ) :   0.9348 B(  6-C ,  9-C ) :   1.0542
B(  9-C , 10-H ) :   0.9585 B(  9-C , 11-H ) :   0.9489 B(  9-C , 12-C ) :   1.0978
B( 12-C , 13-H ) :   0.9727 B( 12-C , 14-H ) :   0.9718 B( 12-C , 15-H ) :   0.9717
B( 16-S , 17-C ) :   1.1469 B( 16-S , 20-C ) :   1.1266 B( 17-C , 18-C ) :   1.5899
B( 17-C , 20-C ) :   0.1058 B( 17-C , 33-H ) :   0.9608 B( 18-C , 19-C ) :   1.2466
B( 18-C , 21-H ) :   1.0005 B( 19-C , 20-C ) :   1.5680 B( 19-C , 22-C ) :   1.0453
B( 22-C , 23-H ) :   0.9245 B( 22-C , 24-H ) :   0.9265 B( 22-C , 25-C ) :   1.0623
B( 25-C , 26-H ) :   0.9507 B( 25-C , 27-H ) :   0.9580 B( 25-C , 28-C ) :   1.0711
B( 28-C , 29-H ) :   0.9786 B( 28-C , 30-H ) :   0.9740 B( 28-C , 31-H ) :   0.9735

Dispersion correction           -0.013699845
FINAL SINGLE POINT ENERGY     -1339.856328712561

DIPOLE MOMENT
-------------
                                X             Y             Z
Electronic contribution:     31.07229      -0.68377       2.22215
Nuclear contribution   :    -31.75055       0.71006      -2.38110
                        -----------------------------------------
Total Dipole Moment    :     -0.67826       0.02629      -0.15895
                        -----------------------------------------
Magnitude (a.u.)       :      0.69713
Magnitude (Debye)      :      1.77197

Rotational constants in cm-1:     0.018565     0.008190     0.006466
Rotational constants in MHz :   556.561679   245.519635   193.858830

                             ****ORCA TERMINATED NORMALLY****
TOTAL RUN TIME: 0 days 0 hours 0 minutes 30 seconds 69 msec
