                         Program Version 4.2.1 -  RELEASE  -
|  1> ! wB97X-D3 SP def2-SVP
|  2> %pal
|  3> nprocs 16
|  4> end
|  5>
|  6> * xyz 0 1
|  7> S 	 -64.6465 	 48.4082 	 124.727
|  8> C 	 -63.6839 	 47.0662 	 125.328
|  9> C 	 -63.0484 	 47.4111 	 126.504
| 10> C 	 -63.2746 	 48.7959 	 126.839
| 11> C 	 -64.197 	 49.4528 	 126.025
| 12> H 	 -62.9355 	 49.3842 	 127.677
| 13> C 	 -62.1207 	 46.4566 	 127.273
| 14> H 	 -61.2376 	 47.0909 	 127.537
| 15> H 	 -61.711 	 45.6898 	 126.624
| 16> C 	 -62.7017 	 45.655 	 128.467
| 17> H 	 -63.3356 	 46.2754 	 129.193
| 18> H 	 -63.3613 	 44.8851 	 128.082
| 19> C 	 -61.5791 	 44.9198 	 129.223
| 20> H 	 -60.693 	 45.5863 	 129.215
| 21> H 	 -61.7522 	 44.6453 	 130.232
| 22> H 	 -61.1829 	 44.0209 	 128.69
| 23> S 	 -63.6914 	 51.6941 	 124.635
| 24> C 	 -63.9868 	 53.2465 	 125.338
| 25> C 	 -64.5098 	 53.1607 	 126.644
| 26> C 	 -64.7811 	 51.7944 	 127.004
| 27> C 	 -64.3834 	 50.8962 	 126.027
| 28> H 	 -64.7387 	 54.052 	 127.198
| 29> C 	 -65.2936 	 51.3967 	 128.423
| 30> H 	 -65.2647 	 50.3246 	 128.33
| 31> H 	 -66.3561 	 51.5583 	 128.441
| 32> C 	 -64.5748 	 51.8427 	 129.658
| 33> H 	 -64.2993 	 52.8294 	 129.534
| 34> H 	 -63.6048 	 51.2696 	 129.857
| 35> C 	 -65.6057 	 51.7767 	 130.815
| 36> H 	 -66.3457 	 52.4668 	 130.759
| 37> H 	 -65.072 	 51.8438 	 131.844
| 38> H 	 -66.0071 	 50.6978 	 130.837
| 39> H 	 -63.5182 	 46.1423 	 124.839
| 40> H 	 -63.7939 	 54.1821 	 124.851
| 41> *
| 42>
| 43>                          ****END OF INPUT****

CARTESIAN COORDINATES (ANGSTROEM)
---------------------------------
  S    -64.646500   48.408200  124.727000
  C    -63.683900   47.066200  125.328000
  C    -63.048400   47.411100  126.504000
  C    -63.274600   48.795900  126.839000
  C    -64.197000   49.452800  126.025000
  H    -62.935500   49.384200  127.677000
  C    -62.120700   46.456600  127.273000
  H    -61.237600   47.090900  127.537000
  H    -61.711000   45.689800  126.624000
  C    -62.701700   45.655000  128.467000
  H    -63.335600   46.275400  129.193000
  H    -63.361300   44.885100  128.082000
  C    -61.579100   44.919800  129.223000
  H    -60.693000   45.586300  129.215000
  H    -61.752200   44.645300  130.232000
  H    -61.182900   44.020900  128.690000
  S    -63.691400   51.694100  124.635000
  C    -63.986800   53.246500  125.338000
  C    -64.509800   53.160700  126.644000
  C    -64.781100   51.794400  127.004000
  C    -64.383400   50.896200  126.027000
  H    -64.738700   54.052000  127.198000
  C    -65.293600   51.396700  128.423000
  H    -65.264700   50.324600  128.330000
  H    -66.356100   51.558300  128.441000
  C    -64.574800   51.842700  129.658000
  H    -64.299300   52.829400  129.534000
  H    -63.604800   51.269600  129.857000
  C    -65.605700   51.776700  130.815000
  H    -66.345700   52.466800  130.759000
  H    -65.072000   51.843800  131.844000
  H    -66.007100   50.697800  130.837000
  H    -63.518200   46.142300  124.839000
  H    -63.793900   54.182100  124.851000

 Total Charge           Charge          ....    0
 Multiplicity           Mult            ....    1
 Number of Electrons    NEL             ....  134
 Basis Dimension        Dim             ....  322

ORBITAL ENERGIES
----------------

  NO   OCC          E(Eh)            E(eV)
   0   2.0000     -88.966889     -2420.9121
   1   2.0000     -88.965845     -2420.8837
   2   2.0000     -10.326943      -281.0104
   3   2.0000     -10.325204      -280.9631
   4   2.0000     -10.316961      -280.7388
   5   2.0000     -10.313747      -280.6513
   6   2.0000     -10.306002      -280.4406
   7   2.0000     -10.305846      -280.4363
   8   2.0000     -10.299424      -280.2616
   9   2.0000     -10.295666      -280.1593
  10   2.0000     -10.295596      -280.1574
  11   2.0000     -10.295269      -280.1485
  12   2.0000     -10.287801      -279.9453
  13   2.0000     -10.285997      -279.8962
  14   2.0000     -10.285818      -279.8913
  15   2.0000     -10.280243      -279.7396
  16   2.0000      -8.081749      -219.9156
  17   2.0000      -8.081014      -219.8956
  18   2.0000      -6.040223      -164.3628
  19   2.0000      -6.039482      -164.3427
  20   2.0000      -6.036124      -164.2513
  21   2.0000      -6.035381      -164.2311
  22   2.0000      -6.032639      -164.1565
  23   2.0000      -6.031857      -164.1352
  24   2.0000      -1.008243       -27.4357
  25   2.0000      -0.982850       -26.7447
  26   2.0000      -0.913002       -24.8441
  27   2.0000      -0.907770       -24.7017
  28   2.0000      -0.870272       -23.6813
  29   2.0000      -0.851329       -23.1658
  30   2.0000      -0.844119       -22.9696
  31   2.0000      -0.811853       -22.0916
  32   2.0000      -0.779800       -21.2194
  33   2.0000      -0.770457       -20.9652
  34   2.0000      -0.708960       -19.2918
  35   2.0000      -0.700919       -19.0730
  36   2.0000      -0.698294       -19.0016
  37   2.0000      -0.661855       -18.0100
  38   2.0000      -0.646399       -17.5894
  39   2.0000      -0.614287       -16.7156
  40   2.0000      -0.595123       -16.1941
  41   2.0000      -0.569516       -15.4973
  42   2.0000      -0.567093       -15.4314
  43   2.0000      -0.556179       -15.1344
  44   2.0000      -0.525895       -14.3103
  45   2.0000      -0.523090       -14.2340
  46   2.0000      -0.518273       -14.1029
  47   2.0000      -0.516217       -14.0470
  48   2.0000      -0.505754       -13.7623
  49   2.0000      -0.499061       -13.5801
  50   2.0000      -0.496847       -13.5199
  51   2.0000      -0.479578       -13.0500
  52   2.0000      -0.467812       -12.7298
  53   2.0000      -0.460666       -12.5354
  54   2.0000      -0.457101       -12.4383
  55   2.0000      -0.449285       -12.2257
  56   2.0000      -0.446202       -12.1418
  57   2.0000      -0.441132       -12.0038
  58   2.0000      -0.435272       -11.8444
  59   2.0000      -0.422939       -11.5088
  60   2.0000      -0.417340       -11.3564
  61   2.0000      -0.415724       -11.3124
  62   2.0000      -0.413095       -11.2409
  63   2.0000      -0.341073        -9.2811
  64   2.0000      -0.332541        -9.0489
  65   2.0000      -0.328928        -8.9506
  66   2.0000      -0.298126        -8.1124
  67   0.0000       0.034096         0.9278
  68   0.0000       0.066809         1.8180
  69   0.0000       0.118054         3.2124
  70   0.0000       0.122958         3.3459
  71   0.0000       0.128208         3.4887

MULLIKEN ATOMIC CHARGES
-----------------------
   0 S :    0.109912
   1 C :   -0.106176
   2 C :   -0.065342
   3 C :    0.045755
   4 C :   -0.180481
   5 H :    0.007515
   6 C :    0.028206
   7 H :    0.038882
   8 H :    0.018674
   9 C :   -0.063466
  10 H :    0.043732
  11 H :    0.032309
  12 C :   -0.054882
  13 H :    0.020006
  14 H :    0.033752
  15 H :    0.032498
  16 S :    0.122366
  17 C :   -0.091982
  18 C :   -0.039881
  19 C :   -0.052497
  20 C :   -0.155151
  21 H :    0.018207
  22 C :    0.064604
  23 H :    0.011905
  24 H :    0.029221
  25 C :   -0.021516
  26 H :    0.008216
  27 H :    0.045777
  28 C :   -0.077089
  29 H :    0.027686
  30 H :    0.039569
  31 H :    0.041347
  32 H :    0.036693
  33 H :    0.051632
Sum of atomic charges:   -0.0000000

LOEWDIN ATOMIC CHARGES
----------------------
   0 S :    0.414117
   1 C :   -0.188041
   2 C :   -0.063214
   3 C :   -0.057561
   4 C :   -0.215098
   5 H :    0.029356
   6 C :   -0.035232
   7 H :    0.035448
   8 H :    0.029417
   9 C :   -0.043272
  10 H :    0.030977
  11 H :    0.024286
  12 C :   -0.071301
  13 H :    0.025252
  14 H :    0.021162
  15 H :    0.029113
  16 S :    0.423940
  17 C :   -0.187241
  18 C :   -0.071640
  19 C :   -0.054062
  20 C :   -0.204522
  21 H :    0.029008
  22 C :   -0.035708
  23 H :    0.028534
  24 H :    0.032533
  25 C :   -0.037076
  26 H :    0.010433
  27 H :    0.035166
  28 C :   -0.058626
  29 H :    0.007926
  30 H :    0.033650
  31 H :    0.034254
  32 H :    0.023622
  33 H :    0.024399

  Mayer bond orders larger than 0.100000
B(  0-S ,  1-C ) :   1.1443 B(  0-S ,  4-C ) :   1.1559 B(  1-C ,  2-C ) :   1.6006
B(  1-C , 32-H ) :   0.9738 B(  2-C ,  3-C ) :   1.2419 B(  2-C ,  6-C ) :   1.0208
B(  3-C ,  4-C ) :   1.5606 B(  3-C ,  5-H ) :   0.9941 B(  4-C , 20-C ) :   1.0187
B(  6-C ,  7-H ) :   0.9446 B(  6-C ,  8-H ) :   0.9445 B(  6-C ,  9-C ) :   1.0532
B(  9-C , 10-H ) :   0.9610 B(  9-C , 11-H ) :   0.9560 B(  9-C , 12-C ) :   1.0677
B( 12-C , 13-H ) :   0.9764 B( 12-C , 14-H ) :   0.9764 B( 12-C , 15-H ) :   0.9744
B( 16-S , 17-C ) :   1.1715 B( 16-S , 20-C ) :   1.1495 B( 17-C , 18-C ) :   1.5956
B( 17-C , 33-H ) :   0.9701 B( 18-C , 19-C ) :   1.2362 B( 18-C , 21-H ) :   0.9950
B( 19-C , 20-C ) :   1.6151 B( 19-C , 22-C ) :   1.0210 B( 22-C , 23-H ) :   0.9217
B( 22-C , 24-H ) :   0.9375 B( 22-C , 25-C ) :   1.0530 B( 25-C , 26-H ) :   0.9569
B( 25-C , 27-H ) :   0.9531 B( 25-C , 28-C ) :   1.0702 B( 28-C , 29-H ) :   0.9804
B( 28-C , 30-H ) :   0.9737 B( 28-C , 31-H ) :   0.9752

Dispersion correction           -0.013469470
FINAL SINGLE POINT ENERGY     -1339.867353653746

DIPOLE MOMENT
-------------
                                X             Y             Z
Electronic contribution:     -4.56759      10.07742     -29.22291
Nuclear contribution   :      4.82463     -10.12191      29.77860
                        -----------------------------------------
Total Dipole Moment    :      0.25705      -0.04450       0.55569
                        -----------------------------------------
Magnitude (a.u.)       :      0.61388
Magnitude (Debye)      :      1.56035

Rotational constants in cm-1:     0.016372     0.008606     0.006210
Rotational constants in MHz :   490.823510   258.012840   186.158024

                             ****ORCA TERMINATED NORMALLY****
TOTAL RUN TIME: 0 days 0 hours 0 minutes 32 seconds 389 msec
