                         Program Version 4.2.1 -  RELEASE  -
|  1> ! wB97X-D3 SP def2-SVP
|  2> %pal
|  3> nprocs 16
|  4> end
|  5>
|  6> * xyz 0 1
|  7> S 	 22.7035 	 1.79979 	 80.9935
|  8> C 	 24.3981 	 1.92411 	 81.2316
|  9> C 	 24.6626 	 3.05295 	 82.0399
| 10> C 	 23.4484 	 3.88797 	 82.1226
| 11> C 	 22.3068 	 3.34505 	 81.6304
| 12> H 	 23.3475 	 4.86661 	 82.4881
| 13> C 	 25.9328 	 3.1569 	 82.8078
| 14> H 	 25.9559 	 4.04427 	 83.4481
| 15> H 	 26.5844 	 3.37285 	 81.9427
| 16> C 	 26.336 	 1.87455 	 83.5844
| 17> H 	 25.594 	 1.83681 	 84.3302
| 18> H 	 26.2851 	 1.10797 	 82.8026
| 19> C 	 27.8136 	 1.8697 	 84.1839
| 20> H 	 27.785 	 2.66408 	 84.9465
| 21> H 	 28.1477 	 1.00047 	 84.5947
| 22> H 	 28.5382 	 2.02658 	 83.3113
| 23> S 	 20.5278 	 4.13851 	 79.7766
| 24> C 	 19.3961 	 5.42364 	 80.1604
| 25> C 	 19.4513 	 5.82507 	 81.4852
| 26> C 	 20.5222 	 5.15147 	 82.1368
| 27> C 	 21.1181 	 4.13731 	 81.3878
| 28> H 	 18.8334 	 6.6607 	 81.9308
| 29> C 	 20.8318 	 5.42027 	 83.5965
| 30> H 	 21.3601 	 6.38406 	 83.547
| 31> H 	 21.4867 	 4.77839 	 84.1012
| 32> C 	 19.7273 	 5.56432 	 84.5939
| 33> H 	 19.2703 	 4.57665 	 84.6995
| 34> H 	 18.911 	 6.30842 	 84.2688
| 35> C 	 20.1475 	 6.0445 	 85.9959
| 36> H 	 20.4176 	 7.15517 	 85.9929
| 37> H 	 20.8713 	 5.54199 	 86.5099
| 38> H 	 19.2674 	 6.0493 	 86.6321
| 39> H 	 25.1968 	 1.19701 	 80.9427
| 40> H 	 18.7187 	 5.79636 	 79.4461
| 41> *
| 42>
| 43>                          ****END OF INPUT****

CARTESIAN COORDINATES (ANGSTROEM)
---------------------------------
  S     22.703500    1.799790   80.993500
  C     24.398100    1.924110   81.231600
  C     24.662600    3.052950   82.039900
  C     23.448400    3.887970   82.122600
  C     22.306800    3.345050   81.630400
  H     23.347500    4.866610   82.488100
  C     25.932800    3.156900   82.807800
  H     25.955900    4.044270   83.448100
  H     26.584400    3.372850   81.942700
  C     26.336000    1.874550   83.584400
  H     25.594000    1.836810   84.330200
  H     26.285100    1.107970   82.802600
  C     27.813600    1.869700   84.183900
  H     27.785000    2.664080   84.946500
  H     28.147700    1.000470   84.594700
  H     28.538200    2.026580   83.311300
  S     20.527800    4.138510   79.776600
  C     19.396100    5.423640   80.160400
  C     19.451300    5.825070   81.485200
  C     20.522200    5.151470   82.136800
  C     21.118100    4.137310   81.387800
  H     18.833400    6.660700   81.930800
  C     20.831800    5.420270   83.596500
  H     21.360100    6.384060   83.547000
  H     21.486700    4.778390   84.101200
  C     19.727300    5.564320   84.593900
  H     19.270300    4.576650   84.699500
  H     18.911000    6.308420   84.268800
  C     20.147500    6.044500   85.995900
  H     20.417600    7.155170   85.992900
  H     20.871300    5.541990   86.509900
  H     19.267400    6.049300   86.632100
  H     25.196800    1.197010   80.942700
  H     18.718700    5.796360   79.446100

 Total Charge           Charge          ....    0
 Multiplicity           Mult            ....    1
 Number of Electrons    NEL             ....  134
 Basis Dimension        Dim             ....  322

ORBITAL ENERGIES
----------------

  NO   OCC          E(Eh)            E(eV)
   0   2.0000     -88.965191     -2420.8659
   1   2.0000     -88.963713     -2420.8257
   2   2.0000     -10.324183      -280.9353
   3   2.0000     -10.321595      -280.8649
   4   2.0000     -10.316896      -280.7370
   5   2.0000     -10.315843      -280.7084
   6   2.0000     -10.306522      -280.4547
   7   2.0000     -10.304036      -280.3871
   8   2.0000     -10.301088      -280.3069
   9   2.0000     -10.292583      -280.0754
  10   2.0000     -10.291758      -280.0530
  11   2.0000     -10.291691      -280.0511
  12   2.0000     -10.287833      -279.9462
  13   2.0000     -10.285073      -279.8711
  14   2.0000     -10.283666      -279.8328
  15   2.0000     -10.277542      -279.6661
  16   2.0000      -8.080611      -219.8846
  17   2.0000      -8.079275      -219.8482
  18   2.0000      -6.038960      -164.3285
  19   2.0000      -6.037833      -164.2978
  20   2.0000      -6.035043      -164.2219
  21   2.0000      -6.033560      -164.1815
  22   2.0000      -6.031452      -164.1241
  23   2.0000      -6.030017      -164.0851
  24   2.0000      -1.013477       -27.5781
  25   2.0000      -0.988189       -26.8900
  26   2.0000      -0.914968       -24.8976
  27   2.0000      -0.912374       -24.8270
  28   2.0000      -0.872024       -23.7290
  29   2.0000      -0.853829       -23.2339
  30   2.0000      -0.843117       -22.9424
  31   2.0000      -0.817524       -22.2459
  32   2.0000      -0.784741       -21.3539
  33   2.0000      -0.772260       -21.0143
  34   2.0000      -0.710182       -19.3250
  35   2.0000      -0.701974       -19.1017
  36   2.0000      -0.694991       -18.9117
  37   2.0000      -0.660681       -17.9780
  38   2.0000      -0.640858       -17.4386
  39   2.0000      -0.615554       -16.7501
  40   2.0000      -0.600938       -16.3524
  41   2.0000      -0.581753       -15.8303
  42   2.0000      -0.568573       -15.4716
  43   2.0000      -0.559702       -15.2303
  44   2.0000      -0.529602       -14.4112
  45   2.0000      -0.521933       -14.2025
  46   2.0000      -0.517778       -14.0894
  47   2.0000      -0.514414       -13.9979
  48   2.0000      -0.507910       -13.8209
  49   2.0000      -0.501255       -13.6398
  50   2.0000      -0.493211       -13.4209
  51   2.0000      -0.482569       -13.1314
  52   2.0000      -0.475672       -12.9437
  53   2.0000      -0.471070       -12.8185
  54   2.0000      -0.458782       -12.4841
  55   2.0000      -0.455779       -12.4024
  56   2.0000      -0.447467       -12.1762
  57   2.0000      -0.431896       -11.7525
  58   2.0000      -0.429903       -11.6983
  59   2.0000      -0.423352       -11.5200
  60   2.0000      -0.420429       -11.4405
  61   2.0000      -0.415077       -11.2948
  62   2.0000      -0.409831       -11.1521
  63   2.0000      -0.354122        -9.6361
  64   2.0000      -0.330846        -9.0028
  65   2.0000      -0.314679        -8.5628
  66   2.0000      -0.289327        -7.8730
  67   0.0000       0.031453         0.8559
  68   0.0000       0.074982         2.0404
  69   0.0000       0.111244         3.0271
  70   0.0000       0.119893         3.2624
  71   0.0000       0.133327         3.6280

MULLIKEN ATOMIC CHARGES
-----------------------
   0 S :    0.110472
   1 C :   -0.153892
   2 C :   -0.101507
   3 C :    0.028335
   4 C :   -0.131601
   5 H :   -0.007348
   6 C :    0.038649
   7 H :    0.020455
   8 H :    0.039196
   9 C :   -0.059514
  10 H :    0.033796
  11 H :    0.021938
  12 C :   -0.030490
  13 H :    0.038721
  14 H :    0.020308
  15 H :    0.036814
  16 S :    0.113794
  17 C :   -0.084251
  18 C :   -0.037760
  19 C :   -0.049969
  20 C :   -0.128636
  21 H :    0.048437
  22 C :    0.069804
  23 H :    0.024753
  24 H :    0.011992
  25 C :   -0.097192
  26 H :    0.036495
  27 H :    0.032129
  28 C :   -0.041902
  29 H :    0.030846
  30 H :    0.018104
  31 H :    0.028620
  32 H :    0.078599
  33 H :    0.041806
Sum of atomic charges:    0.0000000

LOEWDIN ATOMIC CHARGES
----------------------
   0 S :    0.425258
   1 C :   -0.218791
   2 C :   -0.060319
   3 C :   -0.060408
   4 C :   -0.214536
   5 H :    0.021049
   6 C :   -0.043184
   7 H :    0.026323
   8 H :    0.039031
   9 C :   -0.026544
  10 H :    0.020405
  11 H :    0.019819
  12 C :   -0.059193
  13 H :    0.028631
  14 H :    0.010240
  15 H :    0.035902
  16 S :    0.426151
  17 C :   -0.173335
  18 C :   -0.072562
  19 C :   -0.057076
  20 C :   -0.206798
  21 H :    0.046513
  22 C :   -0.041364
  23 H :    0.033361
  24 H :    0.023130
  25 C :   -0.041593
  26 H :    0.026194
  27 H :    0.027217
  28 C :   -0.062958
  29 H :    0.032482
  30 H :    0.008397
  31 H :    0.030004
  32 H :    0.041085
  33 H :    0.017472

  Mayer bond orders larger than 0.100000
B(  0-S ,  1-C ) :   1.1537 B(  0-S ,  4-C ) :   1.1424 B(  1-C ,  2-C ) :   1.5727
B(  1-C , 32-H ) :   0.9623 B(  2-C ,  3-C ) :   1.2349 B(  2-C ,  6-C ) :   1.0181
B(  3-C ,  4-C ) :   1.5761 B(  3-C ,  5-H ) :   0.9996 B(  4-C , 20-C ) :   1.0345
B(  6-C ,  7-H ) :   0.9491 B(  6-C ,  8-H ) :   0.9307 B(  6-C ,  9-C ) :   1.0486
B(  9-C , 10-H ) :   0.9639 B(  9-C , 11-H ) :   0.9546 B(  9-C , 12-C ) :   1.0733
B( 12-C , 13-H ) :   0.9778 B( 12-C , 14-H ) :   0.9785 B( 12-C , 15-H ) :   0.9755
B( 16-S , 17-C ) :   1.1725 B( 16-S , 20-C ) :   1.1470 B( 17-C , 18-C ) :   1.5837
B( 17-C , 33-H ) :   0.9733 B( 18-C , 19-C ) :   1.2606 B( 18-C , 21-H ) :   0.9802
B( 19-C , 20-C ) :   1.5860 B( 19-C , 22-C ) :   1.0318 B( 22-C , 23-H ) :   0.9200
B( 22-C , 24-H ) :   0.9456 B( 22-C , 25-C ) :   1.0709 B( 25-C , 26-H ) :   0.9543
B( 25-C , 27-H ) :   0.9469 B( 25-C , 28-C ) :   1.0887 B( 28-C , 29-H ) :   0.9720
B( 28-C , 30-H ) :   0.9779 B( 28-C , 31-H ) :   0.9718

Dispersion correction           -0.013346407
FINAL SINGLE POINT ENERGY     -1339.842105109783

DIPOLE MOMENT
-------------
                                X             Y             Z
Electronic contribution:    -12.75118      -6.52401     -25.34960
Nuclear contribution   :     13.05195       6.88602      25.87907
                        -----------------------------------------
Total Dipole Moment    :      0.30077       0.36201       0.52947
                        -----------------------------------------
Magnitude (a.u.)       :      0.70842
Magnitude (Debye)      :      1.80066

Rotational constants in cm-1:     0.018459     0.007909     0.005897
Rotational constants in MHz :   553.387099   237.097674   176.772717

                             ****ORCA TERMINATED NORMALLY****
TOTAL RUN TIME: 0 days 0 hours 0 minutes 33 seconds 706 msec
