                         Program Version 4.2.1 -  RELEASE  -
|  1> ! wB97X-D3 SP def2-SVP
|  2> %pal
|  3> nprocs 16
|  4> end
|  5>
|  6> * xyz 0 1
|  7> S 	 -101.494 	 43.8567 	 122.091
|  8> C 	 -102.857 	 44.8354 	 122.73
|  9> C 	 -102.623 	 46.175 	 122.593
| 10> C 	 -101.298 	 46.3995 	 122.068
| 11> C 	 -100.634 	 45.2982 	 121.688
| 12> H 	 -100.76 	 47.4011 	 121.919
| 13> C 	 -103.574 	 47.2816 	 123.023
| 14> H 	 -104.598 	 46.9572 	 122.823
| 15> H 	 -103.422 	 48.0532 	 122.26
| 16> C 	 -103.268 	 47.916 	 124.376
| 17> H 	 -103.092 	 47.0648 	 125.119
| 18> H 	 -102.367 	 48.5846 	 124.345
| 19> C 	 -104.326 	 49.0598 	 124.751
| 20> H 	 -105.336 	 48.8348 	 124.516
| 21> H 	 -104.186 	 49.4012 	 125.792
| 22> H 	 -103.952 	 49.8085 	 124.183
| 23> S 	 -97.9478 	 44.9419 	 122.503
| 24> C 	 -96.8321 	 44.9452 	 121.238
| 25> C 	 -97.3301 	 45.1249 	 119.966
| 26> C 	 -98.7249 	 45.3105 	 120.053
| 27> C 	 -99.2196 	 45.2181 	 121.336
| 28> H 	 -96.6497 	 45.1818 	 119.112
| 29> C 	 -99.5122 	 45.4695 	 118.728
| 30> H 	 -100.579 	 45.4606 	 118.868
| 31> H 	 -99.2685 	 44.6343 	 118.086
| 32> C 	 -99.2022 	 46.8085 	 117.953
| 33> H 	 -99.6467 	 46.7549 	 116.936
| 34> H 	 -98.0818 	 46.8208 	 117.748
| 35> C 	 -99.6164 	 48.0273 	 118.799
| 36> H 	 -100.635 	 47.8125 	 119.049
| 37> H 	 -99.5726 	 49.0472 	 118.364
| 38> H 	 -98.9822 	 47.9769 	 119.662
| 39> H 	 -103.819 	 44.4081 	 123.026
| 40> H 	 -95.7746 	 44.6972 	 121.354
| 41> *
| 42>
| 43>                          ****END OF INPUT****

CARTESIAN COORDINATES (ANGSTROEM)
---------------------------------
  S    -101.494000   43.856700  122.091000
  C    -102.857000   44.835400  122.730000
  C    -102.623000   46.175000  122.593000
  C    -101.298000   46.399500  122.068000
  C    -100.634000   45.298200  121.688000
  H    -100.760000   47.401100  121.919000
  C    -103.574000   47.281600  123.023000
  H    -104.598000   46.957200  122.823000
  H    -103.422000   48.053200  122.260000
  C    -103.268000   47.916000  124.376000
  H    -103.092000   47.064800  125.119000
  H    -102.367000   48.584600  124.345000
  C    -104.326000   49.059800  124.751000
  H    -105.336000   48.834800  124.516000
  H    -104.186000   49.401200  125.792000
  H    -103.952000   49.808500  124.183000
  S    -97.947800   44.941900  122.503000
  C    -96.832100   44.945200  121.238000
  C    -97.330100   45.124900  119.966000
  C    -98.724900   45.310500  120.053000
  C    -99.219600   45.218100  121.336000
  H    -96.649700   45.181800  119.112000
  C    -99.512200   45.469500  118.728000
  H    -100.579000   45.460600  118.868000
  H    -99.268500   44.634300  118.086000
  C    -99.202200   46.808500  117.953000
  H    -99.646700   46.754900  116.936000
  H    -98.081800   46.820800  117.748000
  C    -99.616400   48.027300  118.799000
  H    -100.635000   47.812500  119.049000
  H    -99.572600   49.047200  118.364000
  H    -98.982200   47.976900  119.662000
  H    -103.819000   44.408100  123.026000
  H    -95.774600   44.697200  121.354000

 Total Charge           Charge          ....    0
 Multiplicity           Mult            ....    1
 Number of Electrons    NEL             ....  134
 Basis Dimension        Dim             ....  322

ORBITAL ENERGIES
----------------

  NO   OCC          E(Eh)            E(eV)
   0   2.0000     -88.969784     -2420.9909
   1   2.0000     -88.960835     -2420.7474
   2   2.0000     -10.319698      -280.8133
   3   2.0000     -10.318708      -280.7863
   4   2.0000     -10.315215      -280.6913
   5   2.0000     -10.311703      -280.5957
   6   2.0000     -10.301476      -280.3174
   7   2.0000     -10.300666      -280.2954
   8   2.0000     -10.299392      -280.2607
   9   2.0000     -10.294385      -280.1245
  10   2.0000     -10.294208      -280.1196
  11   2.0000     -10.293043      -280.0880
  12   2.0000     -10.290223      -280.0112
  13   2.0000     -10.289671      -279.9962
  14   2.0000     -10.274625      -279.5868
  15   2.0000     -10.272822      -279.5377
  16   2.0000      -8.085565      -220.0194
  17   2.0000      -8.075639      -219.7493
  18   2.0000      -6.043861      -164.4618
  19   2.0000      -6.039982      -164.3563
  20   2.0000      -6.036444      -164.2600
  21   2.0000      -6.034207      -164.1991
  22   2.0000      -6.030211      -164.0904
  23   2.0000      -6.026259      -163.9828
  24   2.0000      -1.012025       -27.5386
  25   2.0000      -0.988238       -26.8913
  26   2.0000      -0.909958       -24.7612
  27   2.0000      -0.903776       -24.5930
  28   2.0000      -0.868031       -23.6203
  29   2.0000      -0.849997       -23.1296
  30   2.0000      -0.842568       -22.9274
  31   2.0000      -0.813008       -22.1231
  32   2.0000      -0.785155       -21.3652
  33   2.0000      -0.773618       -21.0512
  34   2.0000      -0.701632       -19.0924
  35   2.0000      -0.695387       -18.9224
  36   2.0000      -0.688711       -18.7408
  37   2.0000      -0.654641       -17.8137
  38   2.0000      -0.640791       -17.4368
  39   2.0000      -0.613469       -16.6933
  40   2.0000      -0.597609       -16.2618
  41   2.0000      -0.568989       -15.4830
  42   2.0000      -0.562218       -15.2987
  43   2.0000      -0.549363       -14.9489
  44   2.0000      -0.541705       -14.7405
  45   2.0000      -0.525479       -14.2990
  46   2.0000      -0.513635       -13.9767
  47   2.0000      -0.506201       -13.7744
  48   2.0000      -0.504296       -13.7226
  49   2.0000      -0.494003       -13.4425
  50   2.0000      -0.483823       -13.1655
  51   2.0000      -0.477413       -12.9911
  52   2.0000      -0.467955       -12.7337
  53   2.0000      -0.463257       -12.6059
  54   2.0000      -0.455011       -12.3815
  55   2.0000      -0.453066       -12.3286
  56   2.0000      -0.445152       -12.1132
  57   2.0000      -0.440404       -11.9840
  58   2.0000      -0.437378       -11.9017
  59   2.0000      -0.420890       -11.4530
  60   2.0000      -0.415726       -11.3125
  61   2.0000      -0.413692       -11.2571
  62   2.0000      -0.412344       -11.2204
  63   2.0000      -0.338706        -9.2166
  64   2.0000      -0.328694        -8.9442
  65   2.0000      -0.324102        -8.8193
  66   2.0000      -0.312796        -8.5116
  67   0.0000       0.051013         1.3881
  68   0.0000       0.058642         1.5957
  69   0.0000       0.115604         3.1458
  70   0.0000       0.123660         3.3649
  71   0.0000       0.128361         3.4929

MULLIKEN ATOMIC CHARGES
-----------------------
   0 S :    0.096612
   1 C :   -0.133447
   2 C :   -0.084703
   3 C :    0.011116
   4 C :   -0.179558
   5 H :    0.038953
   6 C :    0.079296
   7 H :    0.025728
   8 H :    0.015339
   9 C :   -0.119687
  10 H :    0.050822
  11 H :    0.038063
  12 C :   -0.007037
  13 H :    0.032933
  14 H :    0.041129
  15 H :    0.006502
  16 S :    0.152044
  17 C :   -0.098664
  18 C :   -0.042419
  19 C :   -0.028125
  20 C :   -0.181723
  21 H :    0.027925
  22 C :    0.075187
  23 H :    0.025982
  24 H :    0.034039
  25 C :   -0.121099
  26 H :    0.037533
  27 H :    0.028123
  28 C :   -0.036104
  29 H :    0.023269
  30 H :    0.044675
  31 H :    0.042316
  32 H :    0.050578
  33 H :    0.054400
Sum of atomic charges:    0.0000000

LOEWDIN ATOMIC CHARGES
----------------------
   0 S :    0.387946
   1 C :   -0.180443
   2 C :   -0.064604
   3 C :   -0.068300
   4 C :   -0.204636
   5 H :    0.045052
   6 C :   -0.037558
   7 H :    0.030742
   8 H :    0.031695
   9 C :   -0.041922
  10 H :    0.028117
  11 H :    0.031419
  12 C :   -0.053010
  13 H :    0.017822
  14 H :    0.033629
  15 H :    0.011707
  16 S :    0.440306
  17 C :   -0.199962
  18 C :   -0.077575
  19 C :   -0.050067
  20 C :   -0.218814
  21 H :    0.036845
  22 C :   -0.023712
  23 H :    0.024041
  24 H :    0.032143
  25 C :   -0.043305
  26 H :    0.023882
  27 H :    0.020134
  28 C :   -0.066450
  29 H :    0.021064
  30 H :    0.029906
  31 H :    0.025517
  32 H :    0.029123
  33 H :    0.029267

  Mayer bond orders larger than 0.100000
B(  0-S ,  1-C ) :   1.1225 B(  0-S ,  4-C ) :   1.1401 B(  1-C ,  2-C ) :   1.6475
B(  1-C , 32-H ) :   0.9663 B(  2-C ,  3-C ) :   1.1974 B(  2-C ,  6-C ) :   1.0218
B(  3-C ,  4-C ) :   1.6554 B(  3-C ,  5-H ) :   0.9751 B(  4-C , 20-C ) :   0.9983
B(  6-C ,  7-H ) :   0.9433 B(  6-C ,  8-H ) :   0.9321 B(  6-C ,  9-C ) :   1.0556
B(  9-C , 10-H ) :   0.9623 B(  9-C , 11-H ) :   0.9632 B(  9-C , 12-C ) :   1.0444
B( 12-C , 13-H ) :   0.9809 B( 12-C , 14-H ) :   0.9758 B( 12-C , 15-H ) :   0.9816
B( 16-S , 17-C ) :   1.1837 B( 16-S , 20-C ) :   1.1399 B( 17-C , 18-C ) :   1.6112
B( 17-C , 33-H ) :   0.9576 B( 18-C , 19-C ) :   1.2419 B( 18-C , 21-H ) :   0.9913
B( 19-C , 20-C ) :   1.6120 B( 19-C , 22-C ) :   1.0335 B( 22-C , 23-H ) :   0.9363
B( 22-C , 24-H ) :   0.9411 B( 22-C , 25-C ) :   1.0665 B( 25-C , 26-H ) :   0.9586
B( 25-C , 27-H ) :   0.9595 B( 25-C , 28-C ) :   1.0512 B( 28-C , 29-H ) :   0.9756
B( 28-C , 30-H ) :   0.9748 B( 28-C , 31-H ) :   0.9727

Dispersion correction           -0.014889608
FINAL SINGLE POINT ENERGY     -1339.872281395282

DIPOLE MOMENT
-------------
                                X             Y             Z
Electronic contribution:     11.87350     -21.59602       5.24708
Nuclear contribution   :    -11.97718      22.05873      -5.45066
                        -----------------------------------------
Total Dipole Moment    :     -0.10368       0.46271      -0.20358
                        -----------------------------------------
Magnitude (a.u.)       :      0.51603
Magnitude (Debye)      :      1.31165

Rotational constants in cm-1:     0.019864     0.007924     0.007053
Rotational constants in MHz :   595.505359   237.555938   211.447899

                             ****ORCA TERMINATED NORMALLY****
TOTAL RUN TIME: 0 days 0 hours 0 minutes 31 seconds 701 msec
