                         Program Version 4.2.1 -  RELEASE  -
|  1> ! wB97X-D3 SP def2-SVP
|  2> %pal
|  3> nprocs 16
|  4> end
|  5>
|  6> * xyz 0 1
|  7> S 	 -5.24055 	 -10.4206 	 83.1513
|  8> C 	 -5.22844 	 -9.435 	 81.7025
|  9> C 	 -6.22384 	 -8.47298 	 81.6528
| 10> C 	 -6.86112 	 -8.4113 	 82.924
| 11> C 	 -6.53924 	 -9.40922 	 83.8041
| 12> H 	 -7.60469 	 -7.76423 	 83.2879
| 13> C 	 -6.3757 	 -7.57097 	 80.4706
| 14> H 	 -6.52322 	 -8.13705 	 79.6133
| 15> H 	 -5.48299 	 -6.99535 	 80.4935
| 16> C 	 -7.59591 	 -6.54443 	 80.5017
| 17> H 	 -8.52407 	 -7.15664 	 80.6948
| 18> H 	 -7.46771 	 -5.94678 	 81.4121
| 19> C 	 -7.84678 	 -5.79538 	 79.1839
| 20> H 	 -7.67048 	 -6.34376 	 78.2601
| 21> H 	 -8.77309 	 -5.36362 	 79.1098
| 22> H 	 -7.14776 	 -4.95057 	 79.2726
| 23> S 	 -5.99678 	 -9.59832 	 86.4794
| 24> C 	 -7.35753 	 -9.68799 	 87.6222
| 25> C 	 -8.51474 	 -9.91402 	 86.9369
| 26> C 	 -8.33847 	 -9.98586 	 85.5272
| 27> C 	 -7.12228 	 -9.50203 	 85.1553
| 28> H 	 -9.38151 	 -10.1127 	 87.6099
| 29> C 	 -9.50103 	 -10.3129 	 84.6446
| 30> H 	 -9.6978 	 -11.427 	 84.6179
| 31> H 	 -9.16638 	 -10.1104 	 83.5847
| 32> C 	 -10.8464 	 -9.51934 	 84.9453
| 33> H 	 -10.5966 	 -8.46021 	 84.6916
| 34> H 	 -11.0082 	 -9.57261 	 86.0524
| 35> C 	 -12.0519 	 -10.1622 	 84.1752
| 36> H 	 -12.1105 	 -11.2898 	 84.2917
| 37> H 	 -11.7892 	 -10.0194 	 83.1412
| 38> H 	 -13.024 	 -9.77656 	 84.4109
| 39> H 	 -4.50549 	 -9.57541 	 80.9419
| 40> H 	 -7.24717 	 -9.69333 	 88.6432
| 41> *
| 42>
| 43>                          ****END OF INPUT****

CARTESIAN COORDINATES (ANGSTROEM)
---------------------------------
  S     -5.240550  -10.420600   83.151300
  C     -5.228440   -9.435000   81.702500
  C     -6.223840   -8.472980   81.652800
  C     -6.861120   -8.411300   82.924000
  C     -6.539240   -9.409220   83.804100
  H     -7.604690   -7.764230   83.287900
  C     -6.375700   -7.570970   80.470600
  H     -6.523220   -8.137050   79.613300
  H     -5.482990   -6.995350   80.493500
  C     -7.595910   -6.544430   80.501700
  H     -8.524070   -7.156640   80.694800
  H     -7.467710   -5.946780   81.412100
  C     -7.846780   -5.795380   79.183900
  H     -7.670480   -6.343760   78.260100
  H     -8.773090   -5.363620   79.109800
  H     -7.147760   -4.950570   79.272600
  S     -5.996780   -9.598320   86.479400
  C     -7.357530   -9.687990   87.622200
  C     -8.514740   -9.914020   86.936900
  C     -8.338470   -9.985860   85.527200
  C     -7.122280   -9.502030   85.155300
  H     -9.381510  -10.112700   87.609900
  C     -9.501030  -10.312900   84.644600
  H     -9.697800  -11.427000   84.617900
  H     -9.166380  -10.110400   83.584700
  C    -10.846400   -9.519340   84.945300
  H    -10.596600   -8.460210   84.691600
  H    -11.008200   -9.572610   86.052400
  C    -12.051900  -10.162200   84.175200
  H    -12.110500  -11.289800   84.291700
  H    -11.789200  -10.019400   83.141200
  H    -13.024000   -9.776560   84.410900
  H     -4.505490   -9.575410   80.941900
  H     -7.247170   -9.693330   88.643200

 Total Charge           Charge          ....    0
 Multiplicity           Mult            ....    1
 Number of Electrons    NEL             ....  134
 Basis Dimension        Dim             ....  322

ORBITAL ENERGIES
----------------

  NO   OCC          E(Eh)            E(eV)
   0   2.0000     -88.966147     -2420.8919
   1   2.0000     -88.959424     -2420.7090
   2   2.0000     -10.323989      -280.9300
   3   2.0000     -10.322467      -280.8886
   4   2.0000     -10.311302      -280.5848
   5   2.0000     -10.308302      -280.5032
   6   2.0000     -10.301518      -280.3185
   7   2.0000     -10.300231      -280.2835
   8   2.0000     -10.298980      -280.2495
   9   2.0000     -10.296835      -280.1911
  10   2.0000     -10.295083      -280.1435
  11   2.0000     -10.293444      -280.0989
  12   2.0000     -10.287447      -279.9357
  13   2.0000     -10.287122      -279.9268
  14   2.0000     -10.283884      -279.8387
  15   2.0000     -10.276625      -279.6412
  16   2.0000      -8.080328      -219.8769
  17   2.0000      -8.074421      -219.7162
  18   2.0000      -6.038792      -164.3239
  19   2.0000      -6.034989      -164.2204
  20   2.0000      -6.032967      -164.1654
  21   2.0000      -6.031112      -164.1149
  22   2.0000      -6.029119      -164.0607
  23   2.0000      -6.024902      -163.9459
  24   2.0000      -1.008125       -27.4325
  25   2.0000      -0.985189       -26.8084
  26   2.0000      -0.908720       -24.7275
  27   2.0000      -0.899005       -24.4632
  28   2.0000      -0.870760       -23.6946
  29   2.0000      -0.850678       -23.1481
  30   2.0000      -0.844274       -22.9739
  31   2.0000      -0.821931       -22.3659
  32   2.0000      -0.781329       -21.2611
  33   2.0000      -0.769184       -20.9306
  34   2.0000      -0.711708       -19.3665
  35   2.0000      -0.699761       -19.0415
  36   2.0000      -0.690761       -18.7966
  37   2.0000      -0.654621       -17.8131
  38   2.0000      -0.647636       -17.6231
  39   2.0000      -0.616746       -16.7825
  40   2.0000      -0.597411       -16.2564
  41   2.0000      -0.577541       -15.7157
  42   2.0000      -0.564157       -15.3515
  43   2.0000      -0.553112       -15.0509
  44   2.0000      -0.530039       -14.4231
  45   2.0000      -0.522769       -14.2253
  46   2.0000      -0.517974       -14.0948
  47   2.0000      -0.512309       -13.9406
  48   2.0000      -0.504538       -13.7292
  49   2.0000      -0.500062       -13.6074
  50   2.0000      -0.491108       -13.3637
  51   2.0000      -0.481961       -13.1148
  52   2.0000      -0.473331       -12.8800
  53   2.0000      -0.462573       -12.5872
  54   2.0000      -0.455744       -12.4014
  55   2.0000      -0.453868       -12.3504
  56   2.0000      -0.445932       -12.1344
  57   2.0000      -0.436523       -11.8784
  58   2.0000      -0.430417       -11.7122
  59   2.0000      -0.423529       -11.5248
  60   2.0000      -0.417462       -11.3597
  61   2.0000      -0.415391       -11.3034
  62   2.0000      -0.410617       -11.1735
  63   2.0000      -0.340261        -9.2590
  64   2.0000      -0.329740        -8.9727
  65   2.0000      -0.325727        -8.8635
  66   2.0000      -0.297424        -8.0933
  67   0.0000       0.035081         0.9546
  68   0.0000       0.063103         1.7171
  69   0.0000       0.108859         2.9622
  70   0.0000       0.124184         3.3792
  71   0.0000       0.135037         3.6745

MULLIKEN ATOMIC CHARGES
-----------------------
   0 S :    0.119095
   1 C :   -0.128613
   2 C :   -0.062214
   3 C :    0.019396
   4 C :   -0.148808
   5 H :   -0.008107
   6 C :    0.103359
   7 H :    0.022119
   8 H :    0.040650
   9 C :   -0.149767
  10 H :    0.030224
  11 H :    0.040726
  12 C :    0.008838
  13 H :    0.036356
  14 H :    0.017163
  15 H :    0.027683
  16 S :    0.084216
  17 C :   -0.059929
  18 C :   -0.046092
  19 C :    0.000101
  20 C :   -0.174161
  21 H :    0.040437
  22 C :    0.007525
  23 H :    0.043642
  24 H :    0.035340
  25 C :   -0.106463
  26 H :    0.045841
  27 H :    0.039686
  28 C :   -0.039733
  29 H :    0.037142
  30 H :    0.029859
  31 H :    0.039800
  32 H :    0.031316
  33 H :    0.023375
Sum of atomic charges:    0.0000000

LOEWDIN ATOMIC CHARGES
----------------------
   0 S :    0.392754
   1 C :   -0.186570
   2 C :   -0.059286
   3 C :   -0.059609
   4 C :   -0.191593
   5 H :    0.023465
   6 C :   -0.022079
   7 H :    0.024048
   8 H :    0.034278
   9 C :   -0.043183
  10 H :    0.022843
  11 H :    0.023504
  12 C :   -0.059754
  13 H :    0.029241
  14 H :    0.016150
  15 H :    0.031227
  16 S :    0.386136
  17 C :   -0.153687
  18 C :   -0.075431
  19 C :   -0.056991
  20 C :   -0.197458
  21 H :    0.041757
  22 C :   -0.043242
  23 H :    0.037566
  24 H :    0.033115
  25 C :   -0.040670
  26 H :    0.029702
  27 H :    0.021843
  28 C :   -0.067781
  29 H :    0.033267
  30 H :    0.025056
  31 H :    0.022653
  32 H :    0.017443
  33 H :    0.011286

  Mayer bond orders larger than 0.100000
B(  0-S ,  1-C ) :   1.1454 B(  0-S ,  4-C ) :   1.1315 B(  1-C ,  2-C ) :   1.6152
B(  1-C , 32-H ) :   0.9756 B(  2-C ,  3-C ) :   1.2173 B(  2-C ,  6-C ) :   1.0069
B(  3-C ,  4-C ) :   1.6000 B(  3-C ,  5-H ) :   1.0000 B(  4-C , 20-C ) :   1.0295
B(  6-C ,  7-H ) :   0.9358 B(  6-C ,  8-H ) :   0.9395 B(  6-C ,  9-C ) :   1.0796
B(  9-C , 10-H ) :   0.9622 B(  9-C , 11-H ) :   0.9555 B(  9-C , 12-C ) :   1.0708
B( 12-C , 13-H ) :   0.9750 B( 12-C , 14-H ) :   0.9733 B( 12-C , 15-H ) :   0.9746
B( 16-S , 17-C ) :   1.1400 B( 16-S , 20-C ) :   1.1292 B( 17-C , 18-C ) :   1.6494
B( 17-C , 33-H ) :   0.9784 B( 18-C , 19-C ) :   1.1900 B( 18-C , 21-H ) :   0.9816
B( 19-C , 20-C ) :   1.6123 B( 19-C , 22-C ) :   1.0572 B( 22-C , 23-H ) :   0.9302
B( 22-C , 24-H ) :   0.9351 B( 22-C , 25-C ) :   1.0380 B( 25-C , 26-H ) :   0.9589
B( 25-C , 27-H ) :   0.9595 B( 25-C , 28-C ) :   1.0612 B( 28-C , 29-H ) :   0.9760
B( 28-C , 30-H ) :   0.9765 B( 28-C , 31-H ) :   0.9768

Dispersion correction           -0.013640077
FINAL SINGLE POINT ENERGY     -1339.856025715125

DIPOLE MOMENT
-------------
                                X             Y             Z
Electronic contribution:     23.08405     -11.26649      16.85476
Nuclear contribution   :    -23.63134      11.47711     -17.14595
                        -----------------------------------------
Total Dipole Moment    :     -0.54729       0.21062      -0.29119
                        -----------------------------------------
Magnitude (a.u.)       :      0.65474
Magnitude (Debye)      :      1.66421

Rotational constants in cm-1:     0.015877     0.008786     0.006447
Rotational constants in MHz :   475.989759   263.410178   193.278615

                             ****ORCA TERMINATED NORMALLY****
TOTAL RUN TIME: 0 days 0 hours 0 minutes 31 seconds 919 msec
