                         Program Version 4.2.1 -  RELEASE  -
|  1> ! wB97X-D3 SP def2-SVP
|  2> %pal
|  3> nprocs 16
|  4> end
|  5>
|  6> * xyz 0 1
|  7> S 	 16.843 	 -6.75522 	 79.9274
|  8> C 	 15.6192 	 -7.41805 	 78.9209
|  9> C 	 15.0834 	 -8.6177 	 79.4124
| 10> C 	 15.5691 	 -8.83868 	 80.7282
| 11> C 	 16.506 	 -7.9551 	 81.1362
| 12> H 	 15.2798 	 -9.66883 	 81.3837
| 13> C 	 14.1175 	 -9.52173 	 78.7032
| 14> H 	 13.2235 	 -9.00857 	 78.5224
| 15> H 	 13.8647 	 -10.3962 	 79.3291
| 16> C 	 14.5912 	 -10.0726 	 77.3881
| 17> H 	 15.0652 	 -9.30867 	 76.8199
| 18> H 	 15.3625 	 -10.8176 	 77.4882
| 19> C 	 13.4012 	 -10.5878 	 76.6002
| 20> H 	 13.917 	 -10.8426 	 75.6856
| 21> H 	 12.8687 	 -11.4842 	 77.0344
| 22> H 	 12.7361 	 -9.751 	 76.4653
| 23> S 	 17.197 	 -6.57998 	 83.3813
| 24> C 	 18.1326 	 -7.36919 	 84.6002
| 25> C 	 18.5269 	 -8.61996 	 84.2445
| 26> C 	 18.0447 	 -8.97903 	 82.9636
| 27> C 	 17.242 	 -8.01899 	 82.4184
| 28> H 	 19.14 	 -9.12747 	 84.9943
| 29> C 	 18.3587 	 -10.3006 	 82.2311
| 30> H 	 19.4122 	 -10.5323 	 82.234
| 31> H 	 17.9946 	 -10.1812 	 81.2275
| 32> C 	 17.5141 	 -11.4807 	 82.6613
| 33> H 	 16.4581 	 -11.1934 	 82.5459
| 34> H 	 17.7016 	 -11.5891 	 83.7708
| 35> C 	 17.9374 	 -12.7776 	 81.9197
| 36> H 	 18.1888 	 -12.6004 	 80.8662
| 37> H 	 17.2178 	 -13.5219 	 81.9032
| 38> H 	 18.8121 	 -13.1558 	 82.353
| 39> H 	 15.4837 	 -7.04029 	 77.8935
| 40> H 	 18.5165 	 -6.92819 	 85.456
| 41> *
| 42>
| 43>                          ****END OF INPUT****

CARTESIAN COORDINATES (ANGSTROEM)
---------------------------------
  S     16.843000   -6.755220   79.927400
  C     15.619200   -7.418050   78.920900
  C     15.083400   -8.617700   79.412400
  C     15.569100   -8.838680   80.728200
  C     16.506000   -7.955100   81.136200
  H     15.279800   -9.668830   81.383700
  C     14.117500   -9.521730   78.703200
  H     13.223500   -9.008570   78.522400
  H     13.864700  -10.396200   79.329100
  C     14.591200  -10.072600   77.388100
  H     15.065200   -9.308670   76.819900
  H     15.362500  -10.817600   77.488200
  C     13.401200  -10.587800   76.600200
  H     13.917000  -10.842600   75.685600
  H     12.868700  -11.484200   77.034400
  H     12.736100   -9.751000   76.465300
  S     17.197000   -6.579980   83.381300
  C     18.132600   -7.369190   84.600200
  C     18.526900   -8.619960   84.244500
  C     18.044700   -8.979030   82.963600
  C     17.242000   -8.018990   82.418400
  H     19.140000   -9.127470   84.994300
  C     18.358700  -10.300600   82.231100
  H     19.412200  -10.532300   82.234000
  H     17.994600  -10.181200   81.227500
  C     17.514100  -11.480700   82.661300
  H     16.458100  -11.193400   82.545900
  H     17.701600  -11.589100   83.770800
  C     17.937400  -12.777600   81.919700
  H     18.188800  -12.600400   80.866200
  H     17.217800  -13.521900   81.903200
  H     18.812100  -13.155800   82.353000
  H     15.483700   -7.040290   77.893500
  H     18.516500   -6.928190   85.456000

 Total Charge           Charge          ....    0
 Multiplicity           Mult            ....    1
 Number of Electrons    NEL             ....  134
 Basis Dimension        Dim             ....  322

ORBITAL ENERGIES
----------------

  NO   OCC          E(Eh)            E(eV)
   0   2.0000     -88.967478     -2420.9281
   1   2.0000     -88.961963     -2420.7781
   2   2.0000     -10.322755      -280.8964
   3   2.0000     -10.320418      -280.8329
   4   2.0000     -10.313744      -280.6512
   5   2.0000     -10.304858      -280.4094
   6   2.0000     -10.300396      -280.2880
   7   2.0000     -10.300223      -280.2833
   8   2.0000     -10.289893      -280.0022
   9   2.0000     -10.289529      -279.9923
  10   2.0000     -10.288792      -279.9723
  11   2.0000     -10.284457      -279.8543
  12   2.0000     -10.283361      -279.8245
  13   2.0000     -10.279546      -279.7207
  14   2.0000     -10.278000      -279.6786
  15   2.0000     -10.270469      -279.4737
  16   2.0000      -8.082984      -219.9492
  17   2.0000      -8.077729      -219.8062
  18   2.0000      -6.041331      -164.3930
  19   2.0000      -6.037408      -164.2862
  20   2.0000      -6.036067      -164.2497
  21   2.0000      -6.033851      -164.1894
  22   2.0000      -6.032149      -164.1431
  23   2.0000      -6.028553      -164.0453
  24   2.0000      -1.013448       -27.5773
  25   2.0000      -0.991757       -26.9871
  26   2.0000      -0.922892       -25.1132
  27   2.0000      -0.910057       -24.7639
  28   2.0000      -0.870490       -23.6872
  29   2.0000      -0.856643       -23.3104
  30   2.0000      -0.848791       -23.0968
  31   2.0000      -0.818233       -22.2653
  32   2.0000      -0.784887       -21.3579
  33   2.0000      -0.773055       -21.0359
  34   2.0000      -0.704361       -19.1666
  35   2.0000      -0.698451       -19.0058
  36   2.0000      -0.692737       -18.8503
  37   2.0000      -0.661944       -18.0124
  38   2.0000      -0.645094       -17.5539
  39   2.0000      -0.623418       -16.9641
  40   2.0000      -0.597155       -16.2494
  41   2.0000      -0.578303       -15.7364
  42   2.0000      -0.571560       -15.5529
  43   2.0000      -0.562975       -15.3193
  44   2.0000      -0.529772       -14.4158
  45   2.0000      -0.523698       -14.2506
  46   2.0000      -0.516001       -14.0411
  47   2.0000      -0.512174       -13.9370
  48   2.0000      -0.504813       -13.7367
  49   2.0000      -0.502783       -13.6814
  50   2.0000      -0.490996       -13.3607
  51   2.0000      -0.475726       -12.9452
  52   2.0000      -0.474237       -12.9047
  53   2.0000      -0.469017       -12.7626
  54   2.0000      -0.463652       -12.6166
  55   2.0000      -0.453989       -12.3537
  56   2.0000      -0.445410       -12.1202
  57   2.0000      -0.443498       -12.0682
  58   2.0000      -0.439530       -11.9602
  59   2.0000      -0.425776       -11.5860
  60   2.0000      -0.422970       -11.5096
  61   2.0000      -0.413476       -11.2513
  62   2.0000      -0.410322       -11.1654
  63   2.0000      -0.344852        -9.3839
  64   2.0000      -0.331542        -9.0217
  65   2.0000      -0.331024        -9.0076
  66   2.0000      -0.297619        -8.0986
  67   0.0000       0.040268         1.0958
  68   0.0000       0.070276         1.9123
  69   0.0000       0.116119         3.1598
  70   0.0000       0.126126         3.4321
  71   0.0000       0.133349         3.6286

MULLIKEN ATOMIC CHARGES
-----------------------
   0 S :    0.131482
   1 C :   -0.140882
   2 C :   -0.079477
   3 C :    0.010121
   4 C :   -0.138418
   5 H :    0.013574
   6 C :    0.108509
   7 H :    0.014247
   8 H :    0.018474
   9 C :   -0.086147
  10 H :    0.010937
  11 H :    0.022020
  12 C :   -0.044023
  13 H :    0.031431
  14 H :    0.047491
  15 H :    0.031030
  16 S :    0.111095
  17 C :   -0.059740
  18 C :   -0.055852
  19 C :   -0.002854
  20 C :   -0.190313
  21 H :    0.021448
  22 C :    0.077956
  23 H :    0.027557
  24 H :    0.017770
  25 C :   -0.106668
  26 H :    0.024571
  27 H :    0.028780
  28 C :    0.019105
  29 H :    0.019826
  30 H :    0.018165
  31 H :    0.018230
  32 H :    0.057425
  33 H :    0.023130
Sum of atomic charges:   -0.0000000

LOEWDIN ATOMIC CHARGES
----------------------
   0 S :    0.428327
   1 C :   -0.212053
   2 C :   -0.059679
   3 C :   -0.065620
   4 C :   -0.203165
   5 H :    0.033764
   6 C :   -0.030815
   7 H :    0.025106
   8 H :    0.033656
   9 C :   -0.036527
  10 H :    0.016876
  11 H :    0.021154
  12 C :   -0.061320
  13 H :    0.028274
  14 H :    0.031706
  15 H :    0.022294
  16 S :    0.417775
  17 C :   -0.179302
  18 C :   -0.073944
  19 C :   -0.054828
  20 C :   -0.201992
  21 H :    0.037246
  22 C :   -0.028028
  23 H :    0.027120
  24 H :    0.027026
  25 C :   -0.039509
  26 H :    0.019072
  27 H :    0.024009
  28 C :   -0.054797
  29 H :    0.027334
  30 H :    0.016971
  31 H :    0.021269
  32 H :    0.027970
  33 H :    0.014631

  Mayer bond orders larger than 0.100000
B(  0-S ,  1-C ) :   1.1574 B(  0-S ,  4-C ) :   1.1648 B(  1-C ,  2-C ) :   1.5827
B(  1-C , 32-H ) :   0.9634 B(  2-C ,  3-C ) :   1.2597 B(  2-C ,  6-C ) :   1.0189
B(  3-C ,  4-C ) :   1.5773 B(  3-C ,  5-H ) :   0.9953 B(  4-C , 20-C ) :   0.9956
B(  6-C ,  7-H ) :   0.9345 B(  6-C ,  8-H ) :   0.9380 B(  6-C ,  9-C ) :   1.0686
B(  9-C , 10-H ) :   0.9574 B(  9-C , 11-H ) :   0.9514 B(  9-C , 12-C ) :   1.0781
B( 12-C , 13-H ) :   0.9736 B( 12-C , 14-H ) :   0.9741 B( 12-C , 15-H ) :   0.9753
B( 16-S , 17-C ) :   1.1546 B( 16-S , 20-C ) :   1.1497 B( 17-C , 18-C ) :   1.6392
B( 17-C , 33-H ) :   0.9708 B( 18-C , 19-C ) :   1.2043 B( 18-C , 21-H ) :   0.9960
B( 19-C , 20-C ) :   1.6285 B( 19-C , 22-C ) :   1.0385 B( 22-C , 23-H ) :   0.9435
B( 22-C , 24-H ) :   0.9212 B( 22-C , 25-C ) :   1.0622 B( 25-C , 26-H ) :   0.9541
B( 25-C , 27-H ) :   0.9589 B( 25-C , 28-C ) :   1.0697 B( 28-C , 29-H ) :   0.9727
B( 28-C , 30-H ) :   0.9746 B( 28-C , 31-H ) :   0.9731

Dispersion correction           -0.014076473
FINAL SINGLE POINT ENERGY     -1339.881582136301

DIPOLE MOMENT
-------------
                                X             Y             Z
Electronic contribution:      7.03412      27.78353      13.04982
Nuclear contribution   :     -6.99469     -28.39620     -13.26818
                        -----------------------------------------
Total Dipole Moment    :      0.03944      -0.61267      -0.21837
                        -----------------------------------------
Magnitude (a.u.)       :      0.65161
Magnitude (Debye)      :      1.65627

Rotational constants in cm-1:     0.019199     0.008675     0.006399
Rotational constants in MHz :   575.584818   260.068882   191.837346

                             ****ORCA TERMINATED NORMALLY****
TOTAL RUN TIME: 0 days 0 hours 0 minutes 30 seconds 597 msec
