                         Program Version 4.2.1 -  RELEASE  -
|  1> ! wB97X-D3 SP def2-SVP
|  2> %pal
|  3> nprocs 16
|  4> end
|  5>
|  6> * xyz 0 1
|  7> S 	 42.6892 	 14.0452 	 89.4938
|  8> C 	 42.1801 	 14.6578 	 87.9552
|  9> C 	 41.3211 	 13.7442 	 87.3506
| 10> C 	 40.8038 	 12.7938 	 88.237
| 11> C 	 41.2947 	 12.8877 	 89.5592
| 12> H 	 40.0674 	 12.1302 	 88.0053
| 13> C 	 40.8458 	 13.8688 	 85.9207
| 14> H 	 41.2568 	 14.9244 	 85.6525
| 15> H 	 39.7119 	 13.8698 	 85.8552
| 16> C 	 41.4169 	 12.9339 	 84.8406
| 17> H 	 41.0993 	 11.9413 	 85.0339
| 18> H 	 40.9948 	 13.3514 	 83.8937
| 19> C 	 42.9399 	 13.0479 	 84.8115
| 20> H 	 43.3951 	 12.6684 	 85.7711
| 21> H 	 43.3205 	 12.5088 	 83.9618
| 22> H 	 43.4229 	 13.9576 	 84.6638
| 23> S 	 39.2738 	 11.4437 	 90.7633
| 24> C 	 39.6002 	 10.4706 	 92.1952
| 25> C 	 40.9493 	 10.5626 	 92.5537
| 26> C 	 41.6985 	 11.3821 	 91.665
| 27> C 	 40.9672 	 12.0041 	 90.6949
| 28> H 	 41.3189 	 9.96802 	 93.4393
| 29> C 	 43.1922 	 11.445 	 91.823
| 30> H 	 43.3637 	 10.9248 	 92.7161
| 31> H 	 43.4623 	 12.5017 	 91.9345
| 32> C 	 44.1318 	 10.8925 	 90.6934
| 33> H 	 43.8259 	 11.4761 	 89.8589
| 34> H 	 44.1107 	 9.82621 	 90.4341
| 35> C 	 45.5671 	 11.3519 	 90.8195
| 36> H 	 46.1071 	 11.0345 	 91.7293
| 37> H 	 45.7086 	 12.3768 	 90.6722
| 38> H 	 46.1004 	 10.8601 	 90.0663
| 39> H 	 42.6257 	 15.4688 	 87.4144
| 40> H 	 38.8743 	 9.90589 	 92.796
| 41> *
| 42>
| 43>                          ****END OF INPUT****

CARTESIAN COORDINATES (ANGSTROEM)
---------------------------------
  S     42.689200   14.045200   89.493800
  C     42.180100   14.657800   87.955200
  C     41.321100   13.744200   87.350600
  C     40.803800   12.793800   88.237000
  C     41.294700   12.887700   89.559200
  H     40.067400   12.130200   88.005300
  C     40.845800   13.868800   85.920700
  H     41.256800   14.924400   85.652500
  H     39.711900   13.869800   85.855200
  C     41.416900   12.933900   84.840600
  H     41.099300   11.941300   85.033900
  H     40.994800   13.351400   83.893700
  C     42.939900   13.047900   84.811500
  H     43.395100   12.668400   85.771100
  H     43.320500   12.508800   83.961800
  H     43.422900   13.957600   84.663800
  S     39.273800   11.443700   90.763300
  C     39.600200   10.470600   92.195200
  C     40.949300   10.562600   92.553700
  C     41.698500   11.382100   91.665000
  C     40.967200   12.004100   90.694900
  H     41.318900    9.968020   93.439300
  C     43.192200   11.445000   91.823000
  H     43.363700   10.924800   92.716100
  H     43.462300   12.501700   91.934500
  C     44.131800   10.892500   90.693400
  H     43.825900   11.476100   89.858900
  H     44.110700    9.826210   90.434100
  C     45.567100   11.351900   90.819500
  H     46.107100   11.034500   91.729300
  H     45.708600   12.376800   90.672200
  H     46.100400   10.860100   90.066300
  H     42.625700   15.468800   87.414400
  H     38.874300    9.905890   92.796000

 Total Charge           Charge          ....    0
 Multiplicity           Mult            ....    1
 Number of Electrons    NEL             ....  134
 Basis Dimension        Dim             ....  322

ORBITAL ENERGIES
----------------

  NO   OCC          E(Eh)            E(eV)
   0   2.0000     -88.971625     -2421.0410
   1   2.0000     -88.968313     -2420.9509
   2   2.0000     -10.342875      -281.4439
   3   2.0000     -10.331467      -281.1335
   4   2.0000     -10.323175      -280.9079
   5   2.0000     -10.316345      -280.7220
   6   2.0000     -10.301320      -280.3132
   7   2.0000     -10.300557      -280.2924
   8   2.0000     -10.300161      -280.2816
   9   2.0000     -10.299964      -280.2763
  10   2.0000     -10.291151      -280.0364
  11   2.0000     -10.291052      -280.0338
  12   2.0000     -10.285973      -279.8955
  13   2.0000     -10.279871      -279.7295
  14   2.0000     -10.272550      -279.5303
  15   2.0000     -10.263885      -279.2945
  16   2.0000      -8.084866      -220.0004
  17   2.0000      -8.082086      -219.9248
  18   2.0000      -6.043476      -164.4513
  19   2.0000      -6.040719      -164.3763
  20   2.0000      -6.039654      -164.3473
  21   2.0000      -6.036765      -164.2687
  22   2.0000      -6.035554      -164.2358
  23   2.0000      -6.032749      -164.1594
  24   2.0000      -1.004078       -27.3224
  25   2.0000      -0.984657       -26.7939
  26   2.0000      -0.910944       -24.7880
  27   2.0000      -0.906883       -24.6775
  28   2.0000      -0.868900       -23.6440
  29   2.0000      -0.856908       -23.3177
  30   2.0000      -0.849737       -23.1225
  31   2.0000      -0.812577       -22.1113
  32   2.0000      -0.782619       -21.2961
  33   2.0000      -0.772613       -21.0239
  34   2.0000      -0.713237       -19.4082
  35   2.0000      -0.697658       -18.9842
  36   2.0000      -0.692910       -18.8550
  37   2.0000      -0.668363       -18.1871
  38   2.0000      -0.643184       -17.5019
  39   2.0000      -0.615226       -16.7412
  40   2.0000      -0.590577       -16.0704
  41   2.0000      -0.572831       -15.5875
  42   2.0000      -0.568211       -15.4618
  43   2.0000      -0.549421       -14.9505
  44   2.0000      -0.545469       -14.8430
  45   2.0000      -0.520580       -14.1657
  46   2.0000      -0.516816       -14.0633
  47   2.0000      -0.514860       -14.0101
  48   2.0000      -0.510682       -13.8964
  49   2.0000      -0.496978       -13.5234
  50   2.0000      -0.489366       -13.3163
  51   2.0000      -0.482260       -13.1230
  52   2.0000      -0.477776       -13.0009
  53   2.0000      -0.465358       -12.6630
  54   2.0000      -0.460650       -12.5349
  55   2.0000      -0.446403       -12.1472
  56   2.0000      -0.441630       -12.0174
  57   2.0000      -0.435744       -11.8572
  58   2.0000      -0.428852       -11.6697
  59   2.0000      -0.422063       -11.4849
  60   2.0000      -0.420750       -11.4492
  61   2.0000      -0.417243       -11.3538
  62   2.0000      -0.406483       -11.0610
  63   2.0000      -0.359163        -9.7733
  64   2.0000      -0.332340        -9.0434
  65   2.0000      -0.330415        -8.9910
  66   2.0000      -0.282970        -7.7000
  67   0.0000       0.014706         0.4002
  68   0.0000       0.067360         1.8330
  69   0.0000       0.099212         2.6997
  70   0.0000       0.114915         3.1270
  71   0.0000       0.126391         3.4393

MULLIKEN ATOMIC CHARGES
-----------------------
   0 S :    0.090143
   1 C :   -0.093030
   2 C :   -0.081057
   3 C :    0.054290
   4 C :   -0.122466
   5 H :   -0.024477
   6 C :   -0.019328
   7 H :    0.021115
   8 H :    0.050009
   9 C :   -0.016729
  10 H :    0.029851
  11 H :    0.040572
  12 C :   -0.057728
  13 H :    0.049217
  14 H :    0.024550
  15 H :    0.006571
  16 S :    0.091979
  17 C :   -0.099172
  18 C :   -0.063186
  19 C :   -0.052054
  20 C :   -0.132616
  21 H :    0.045393
  22 C :    0.082708
  23 H :   -0.003572
  24 H :    0.032348
  25 C :   -0.049492
  26 H :    0.014457
  27 H :    0.037751
  28 C :   -0.019810
  29 H :    0.022682
  30 H :    0.018417
  31 H :    0.011040
  32 H :    0.045641
  33 H :    0.065983
Sum of atomic charges:    0.0000000

LOEWDIN ATOMIC CHARGES
----------------------
   0 S :    0.395094
   1 C :   -0.194894
   2 C :   -0.070323
   3 C :   -0.052119
   4 C :   -0.163466
   5 H :    0.011002
   6 C :   -0.040908
   7 H :    0.035082
   8 H :    0.034673
   9 C :   -0.032594
  10 H :    0.019986
  11 H :    0.033697
  12 C :   -0.070775
  13 H :    0.035274
  14 H :    0.025246
  15 H :    0.014519
  16 S :    0.392125
  17 C :   -0.185430
  18 C :   -0.077239
  19 C :   -0.065722
  20 C :   -0.181373
  21 H :    0.044158
  22 C :   -0.028065
  23 H :    0.019029
  24 H :    0.032235
  25 C :   -0.036272
  26 H :    0.014586
  27 H :    0.027292
  28 C :   -0.058465
  29 H :    0.022842
  30 H :    0.016047
  31 H :    0.022061
  32 H :    0.026513
  33 H :    0.036184

  Mayer bond orders larger than 0.100000
B(  0-S ,  1-C ) :   1.1449 B(  0-S ,  4-C ) :   1.1355 B(  1-C ,  2-C ) :   1.5755
B(  1-C ,  4-C ) :   0.1056 B(  1-C , 32-H ) :   0.9653 B(  2-C ,  3-C ) :   1.2705
B(  2-C ,  6-C ) :   1.0194 B(  3-C ,  4-C ) :   1.5252 B(  3-C ,  5-H ) :   1.0042
B(  4-C , 20-C ) :   1.0682 B(  6-C ,  7-H ) :   0.9437 B(  6-C ,  8-H ) :   0.9484
B(  6-C ,  9-C ) :   1.0677 B(  9-C , 10-H ) :   0.9552 B(  9-C , 11-H ) :   0.9548
B(  9-C , 12-C ) :   1.0767 B( 12-C , 13-H ) :   0.9713 B( 12-C , 14-H ) :   0.9720
B( 12-C , 15-H ) :   0.9749 B( 16-S , 17-C ) :   1.1527 B( 16-S , 20-C ) :   1.1195
B( 17-C , 18-C ) :   1.6158 B( 17-C , 33-H ) :   0.9624 B( 18-C , 19-C ) :   1.2487
B( 18-C , 21-H ) :   0.9770 B( 19-C , 20-C ) :   1.5912 B( 19-C , 22-C ) :   1.0422
B( 22-C , 23-H ) :   0.9250 B( 22-C , 24-H ) :   0.9337 B( 22-C , 25-C ) :   1.0587
B( 25-C , 26-H ) :   0.9464 B( 25-C , 27-H ) :   0.9608 B( 25-C , 28-C ) :   1.0919
B( 28-C , 29-H ) :   0.9738 B( 28-C , 30-H ) :   0.9732 B( 28-C , 31-H ) :   0.9684

Dispersion correction           -0.014789186
FINAL SINGLE POINT ENERGY     -1339.855464158467

DIPOLE MOMENT
-------------
                                X             Y             Z
Electronic contribution:    -16.23723       3.04280      14.16298
Nuclear contribution   :     16.44105      -3.29838     -14.49841
                        -----------------------------------------
Total Dipole Moment    :      0.20382      -0.25558      -0.33543
                        -----------------------------------------
Magnitude (a.u.)       :      0.46838
Magnitude (Debye)      :      1.19052

Rotational constants in cm-1:     0.018840     0.009094     0.007143
Rotational constants in MHz :   564.799394   272.640340   214.139525

                             ****ORCA TERMINATED NORMALLY****
TOTAL RUN TIME: 0 days 0 hours 0 minutes 32 seconds 106 msec
