                         Program Version 4.2.1 -  RELEASE  -
|  1> ! wB97X-D3 SP def2-SVP
|  2> %pal
|  3> nprocs 16
|  4> end
|  5>
|  6> * xyz 0 1
|  7> S 	 -79.498 	 44.8687 	 123.248
|  8> C 	 -81.2099 	 45.0035 	 122.784
|  9> C 	 -81.8466 	 43.7755 	 122.884
| 10> C 	 -80.9446 	 42.6946 	 123.28
| 11> C 	 -79.6466 	 43.1654 	 123.606
| 12> H 	 -81.2228 	 41.5952 	 123.425
| 13> C 	 -83.3306 	 43.5829 	 122.604
| 14> H 	 -83.4837 	 42.5297 	 122.572
| 15> H 	 -83.4822 	 43.968 	 121.574
| 16> C 	 -84.3159 	 44.314 	 123.566
| 17> H 	 -85.2854 	 44.1301 	 123.127
| 18> H 	 -84.2456 	 43.9244 	 124.592
| 19> C 	 -84.263 	 45.8431 	 123.537
| 20> H 	 -83.6224 	 46.285 	 124.348
| 21> H 	 -83.9814 	 46.2278 	 122.571
| 22> H 	 -85.3188 	 46.2654 	 123.594
| 23> S 	 -77.9701 	 43.424 	 125.762
| 24> C 	 -76.825 	 42.1269 	 126.178
| 25> C 	 -77.0519 	 41.0308 	 125.366
| 26> C 	 -78.1007 	 41.1845 	 124.442
| 27> C 	 -78.6662 	 42.4831 	 124.431
| 28> H 	 -76.356 	 40.1246 	 125.397
| 29> C 	 -78.4834 	 40.0741 	 123.424
| 30> H 	 -77.6283 	 39.8661 	 122.78
| 31> H 	 -79.2111 	 40.5243 	 122.745
| 32> C 	 -78.9898 	 38.6842 	 123.886
| 33> H 	 -79.7332 	 38.9823 	 124.566
| 34> H 	 -78.2837 	 38.022 	 124.283
| 35> C 	 -79.6723 	 37.9545 	 122.645
| 36> H 	 -78.9615 	 37.6973 	 121.837
| 37> H 	 -80.4217 	 38.4996 	 122.144
| 38> H 	 -80.0989 	 37.0026 	 122.863
| 39> H 	 -81.7364 	 45.8942 	 122.518
| 40> H 	 -76.0227 	 42.2274 	 126.916
| 41> *
| 42>
| 43>                          ****END OF INPUT****

CARTESIAN COORDINATES (ANGSTROEM)
---------------------------------
  S    -79.498000   44.868700  123.248000
  C    -81.209900   45.003500  122.784000
  C    -81.846600   43.775500  122.884000
  C    -80.944600   42.694600  123.280000
  C    -79.646600   43.165400  123.606000
  H    -81.222800   41.595200  123.425000
  C    -83.330600   43.582900  122.604000
  H    -83.483700   42.529700  122.572000
  H    -83.482200   43.968000  121.574000
  C    -84.315900   44.314000  123.566000
  H    -85.285400   44.130100  123.127000
  H    -84.245600   43.924400  124.592000
  C    -84.263000   45.843100  123.537000
  H    -83.622400   46.285000  124.348000
  H    -83.981400   46.227800  122.571000
  H    -85.318800   46.265400  123.594000
  S    -77.970100   43.424000  125.762000
  C    -76.825000   42.126900  126.178000
  C    -77.051900   41.030800  125.366000
  C    -78.100700   41.184500  124.442000
  C    -78.666200   42.483100  124.431000
  H    -76.356000   40.124600  125.397000
  C    -78.483400   40.074100  123.424000
  H    -77.628300   39.866100  122.780000
  H    -79.211100   40.524300  122.745000
  C    -78.989800   38.684200  123.886000
  H    -79.733200   38.982300  124.566000
  H    -78.283700   38.022000  124.283000
  C    -79.672300   37.954500  122.645000
  H    -78.961500   37.697300  121.837000
  H    -80.421700   38.499600  122.144000
  H    -80.098900   37.002600  122.863000
  H    -81.736400   45.894200  122.518000
  H    -76.022700   42.227400  126.916000

 Total Charge           Charge          ....    0
 Multiplicity           Mult            ....    1
 Number of Electrons    NEL             ....  134
 Basis Dimension        Dim             ....  322

ORBITAL ENERGIES
----------------

  NO   OCC          E(Eh)            E(eV)
   0   2.0000     -88.969852     -2420.9928
   1   2.0000     -88.965460     -2420.8732
   2   2.0000     -10.335647      -281.2473
   3   2.0000     -10.333344      -281.1846
   4   2.0000     -10.320730      -280.8413
   5   2.0000     -10.314346      -280.6676
   6   2.0000     -10.308276      -280.5024
   7   2.0000     -10.306462      -280.4531
   8   2.0000     -10.305624      -280.4303
   9   2.0000     -10.299054      -280.2515
  10   2.0000     -10.294880      -280.1379
  11   2.0000     -10.291559      -280.0476
  12   2.0000     -10.291458      -280.0448
  13   2.0000     -10.287326      -279.9324
  14   2.0000     -10.286436      -279.9081
  15   2.0000     -10.276844      -279.6471
  16   2.0000      -8.083813      -219.9717
  17   2.0000      -8.079308      -219.8492
  18   2.0000      -6.042443      -164.4232
  19   2.0000      -6.038342      -164.3116
  20   2.0000      -6.037852      -164.2983
  21   2.0000      -6.034562      -164.2088
  22   2.0000      -6.033869      -164.1899
  23   2.0000      -6.030117      -164.0878
  24   2.0000      -1.000926       -27.2366
  25   2.0000      -0.976555       -26.5734
  26   2.0000      -0.911399       -24.8004
  27   2.0000      -0.901769       -24.5384
  28   2.0000      -0.867007       -23.5925
  29   2.0000      -0.847481       -23.0611
  30   2.0000      -0.841854       -22.9080
  31   2.0000      -0.808507       -22.0006
  32   2.0000      -0.782945       -21.3050
  33   2.0000      -0.773572       -21.0500
  34   2.0000      -0.712270       -19.3818
  35   2.0000      -0.701170       -19.0798
  36   2.0000      -0.697893       -18.9906
  37   2.0000      -0.655253       -17.8303
  38   2.0000      -0.634855       -17.2753
  39   2.0000      -0.610731       -16.6188
  40   2.0000      -0.591559       -16.0971
  41   2.0000      -0.572884       -15.5890
  42   2.0000      -0.570576       -15.5262
  43   2.0000      -0.551275       -15.0010
  44   2.0000      -0.536597       -14.6015
  45   2.0000      -0.522269       -14.2117
  46   2.0000      -0.514211       -13.9924
  47   2.0000      -0.510429       -13.8895
  48   2.0000      -0.500007       -13.6059
  49   2.0000      -0.494404       -13.4534
  50   2.0000      -0.483715       -13.1626
  51   2.0000      -0.482563       -13.1312
  52   2.0000      -0.474018       -12.8987
  53   2.0000      -0.464027       -12.6268
  54   2.0000      -0.459574       -12.5056
  55   2.0000      -0.448873       -12.2145
  56   2.0000      -0.447105       -12.1663
  57   2.0000      -0.436669       -11.8824
  58   2.0000      -0.434187       -11.8148
  59   2.0000      -0.428655       -11.6643
  60   2.0000      -0.420832       -11.4514
  61   2.0000      -0.416371       -11.3300
  62   2.0000      -0.409611       -11.1461
  63   2.0000      -0.350661        -9.5420
  64   2.0000      -0.331401        -9.0179
  65   2.0000      -0.328491        -8.9387
  66   2.0000      -0.284036        -7.7290
  67   0.0000       0.018955         0.5158
  68   0.0000       0.070714         1.9242
  69   0.0000       0.109932         2.9914
  70   0.0000       0.118464         3.2236
  71   0.0000       0.124551         3.3892

MULLIKEN ATOMIC CHARGES
-----------------------
   0 S :    0.114877
   1 C :   -0.113485
   2 C :   -0.111748
   3 C :    0.011634
   4 C :   -0.151082
   5 H :    0.045509
   6 C :    0.063050
   7 H :    0.010770
   8 H :    0.038223
   9 C :   -0.040361
  10 H :    0.027072
  11 H :    0.045273
  12 C :   -0.096044
  13 H :    0.060798
  14 H :    0.019330
  15 H :    0.039102
  16 S :    0.094142
  17 C :   -0.109703
  18 C :   -0.042489
  19 C :   -0.021508
  20 C :   -0.149403
  21 H :    0.045986
  22 C :    0.019325
  23 H :    0.028273
  24 H :    0.014396
  25 C :   -0.009430
  26 H :    0.024457
  27 H :    0.029902
  28 C :   -0.060535
  29 H :    0.025474
  30 H :    0.018082
  31 H :    0.024037
  32 H :    0.038788
  33 H :    0.067288
Sum of atomic charges:    0.0000000

LOEWDIN ATOMIC CHARGES
----------------------
   0 S :    0.404286
   1 C :   -0.191194
   2 C :   -0.062286
   3 C :   -0.070703
   4 C :   -0.200455
   5 H :    0.042266
   6 C :   -0.031128
   7 H :    0.024459
   8 H :    0.036474
   9 C :   -0.037060
  10 H :    0.026658
  11 H :    0.030659
  12 C :   -0.077116
  13 H :    0.033507
  14 H :    0.016718
  15 H :    0.036030
  16 S :    0.389004
  17 C :   -0.183701
  18 C :   -0.079492
  19 C :   -0.063619
  20 C :   -0.188307
  21 H :    0.045360
  22 C :   -0.034095
  23 H :    0.029564
  24 H :    0.027707
  25 C :   -0.022132
  26 H :    0.020042
  27 H :    0.018388
  28 C :   -0.064287
  29 H :    0.028172
  30 H :    0.016700
  31 H :    0.021267
  32 H :    0.024332
  33 H :    0.033980

  Mayer bond orders larger than 0.100000
B(  0-S ,  1-C ) :   1.1205 B(  0-S ,  4-C ) :   1.1595 B(  1-C ,  2-C ) :   1.6170
B(  1-C , 32-H ) :   0.9679 B(  2-C ,  3-C ) :   1.2590 B(  2-C ,  6-C ) :   1.0104
B(  3-C ,  4-C ) :   1.5324 B(  3-C ,  5-H ) :   0.9727 B(  4-C , 20-C ) :   1.0686
B(  6-C ,  7-H ) :   0.9407 B(  6-C ,  8-H ) :   0.9423 B(  6-C ,  9-C ) :   1.0798
B(  9-C , 10-H ) :   0.9560 B(  9-C , 11-H ) :   0.9578 B(  9-C , 12-C ) :   1.0735
B( 12-C , 13-H ) :   0.9732 B( 12-C , 14-H ) :   0.9688 B( 12-C , 15-H ) :   0.9727
B( 16-S , 17-C ) :   1.1453 B( 16-S , 20-C ) :   1.1435 B( 17-C , 18-C ) :   1.5922
B( 17-C , 20-C ) :   0.1060 B( 17-C , 33-H ) :   0.9681 B( 18-C , 19-C ) :   1.2722
B( 18-C , 21-H ) :   0.9777 B( 19-C , 20-C ) :   1.5551 B( 19-C , 22-C ) :   1.0382
B( 22-C , 23-H ) :   0.9358 B( 22-C , 24-H ) :   0.9415 B( 22-C , 25-C ) :   1.0525
B( 25-C , 26-H ) :   0.9588 B( 25-C , 27-H ) :   0.9571 B( 25-C , 28-C ) :   1.0764
B( 28-C , 29-H ) :   0.9758 B( 28-C , 30-H ) :   0.9780 B( 28-C , 31-H ) :   0.9763

Dispersion correction           -0.013772041
FINAL SINGLE POINT ENERGY     -1339.866548494069

DIPOLE MOMENT
-------------
                                X             Y             Z
Electronic contribution:     18.98890      14.07559       8.15364
Nuclear contribution   :    -19.44884     -14.47967      -8.32070
                        -----------------------------------------
Total Dipole Moment    :     -0.45994      -0.40408      -0.16706
                        -----------------------------------------
Magnitude (a.u.)       :      0.63461
Magnitude (Debye)      :      1.61306

Rotational constants in cm-1:     0.018395     0.008228     0.006266
Rotational constants in MHz :   551.479979   246.679516   187.849432

                             ****ORCA TERMINATED NORMALLY****
TOTAL RUN TIME: 0 days 0 hours 0 minutes 33 seconds 352 msec
