                         Program Version 4.2.1 -  RELEASE  -
|  1> ! wB97X-D3 SP def2-SVP
|  2> %pal
|  3> nprocs 16
|  4> end
|  5>
|  6> * xyz 0 1
|  7> S 	 -95.8012 	 52.4611 	 124.818
|  8> C 	 -94.5815 	 51.2514 	 125.123
|  9> C 	 -95.0892 	 50.0717 	 125.639
| 10> C 	 -96.5225 	 50.2496 	 125.854
| 11> C 	 -97.075 	 51.4093 	 125.29
| 12> H 	 -97.2643 	 49.7228 	 126.446
| 13> C 	 -94.2881 	 48.875 	 126.03
| 14> H 	 -94.9471 	 48.2989 	 126.675
| 15> H 	 -93.4538 	 49.2445 	 126.664
| 16> C 	 -93.6905 	 48.1268 	 124.825
| 17> H 	 -93.0822 	 48.7868 	 124.22
| 18> H 	 -93.0829 	 47.3043 	 125.191
| 19> C 	 -94.692 	 47.398 	 123.871
| 20> H 	 -95.3027 	 48.0289 	 123.233
| 21> H 	 -94.0587 	 46.8528 	 123.14
| 22> H 	 -95.3276 	 46.6858 	 124.477
| 23> S 	 -98.818 	 53.4814 	 125.571
| 24> C 	 -100.466 	 53.2546 	 125.219
| 25> C 	 -100.714 	 51.9404 	 124.926
| 26> C 	 -99.5584 	 51.1229 	 124.798
| 27> C 	 -98.4115 	 51.7847 	 125.197
| 28> H 	 -101.761 	 51.6529 	 124.878
| 29> C 	 -99.6146 	 49.6654 	 124.271
| 30> H 	 -98.5454 	 49.4254 	 124.144
| 31> H 	 -100.043 	 49.5929 	 123.299
| 32> C 	 -100.374 	 48.6066 	 125.134
| 33> H 	 -101.357 	 49.053 	 125.28
| 34> H 	 -99.8384 	 48.5845 	 126.083
| 35> C 	 -100.55 	 47.2243 	 124.421
| 36> H 	 -99.6385 	 47.0537 	 123.868
| 37> H 	 -101.384 	 47.2771 	 123.748
| 38> H 	 -100.743 	 46.3272 	 125.068
| 39> H 	 -93.5559 	 51.3853 	 125.012
| 40> H 	 -101.269 	 53.914 	 125.46
| 41> *
| 42>
| 43>                          ****END OF INPUT****

CARTESIAN COORDINATES (ANGSTROEM)
---------------------------------
  S    -95.801200   52.461100  124.818000
  C    -94.581500   51.251400  125.123000
  C    -95.089200   50.071700  125.639000
  C    -96.522500   50.249600  125.854000
  C    -97.075000   51.409300  125.290000
  H    -97.264300   49.722800  126.446000
  C    -94.288100   48.875000  126.030000
  H    -94.947100   48.298900  126.675000
  H    -93.453800   49.244500  126.664000
  C    -93.690500   48.126800  124.825000
  H    -93.082200   48.786800  124.220000
  H    -93.082900   47.304300  125.191000
  C    -94.692000   47.398000  123.871000
  H    -95.302700   48.028900  123.233000
  H    -94.058700   46.852800  123.140000
  H    -95.327600   46.685800  124.477000
  S    -98.818000   53.481400  125.571000
  C    -100.466000   53.254600  125.219000
  C    -100.714000   51.940400  124.926000
  C    -99.558400   51.122900  124.798000
  C    -98.411500   51.784700  125.197000
  H    -101.761000   51.652900  124.878000
  C    -99.614600   49.665400  124.271000
  H    -98.545400   49.425400  124.144000
  H    -100.043000   49.592900  123.299000
  C    -100.374000   48.606600  125.134000
  H    -101.357000   49.053000  125.280000
  H    -99.838400   48.584500  126.083000
  C    -100.550000   47.224300  124.421000
  H    -99.638500   47.053700  123.868000
  H    -101.384000   47.277100  123.748000
  H    -100.743000   46.327200  125.068000
  H    -93.555900   51.385300  125.012000
  H    -101.269000   53.914000  125.460000

 Total Charge           Charge          ....    0
 Multiplicity           Mult            ....    1
 Number of Electrons    NEL             ....  134
 Basis Dimension        Dim             ....  322

ORBITAL ENERGIES
----------------

  NO   OCC          E(Eh)            E(eV)
   0   2.0000     -88.964796     -2420.8552
   1   2.0000     -88.963181     -2420.8112
   2   2.0000     -10.325582      -280.9734
   3   2.0000     -10.322153      -280.8801
   4   2.0000     -10.311534      -280.5911
   5   2.0000     -10.308604      -280.5114
   6   2.0000     -10.306706      -280.4597
   7   2.0000     -10.304462      -280.3987
   8   2.0000     -10.297163      -280.2001
   9   2.0000     -10.296118      -280.1716
  10   2.0000     -10.291245      -280.0390
  11   2.0000     -10.290361      -280.0149
  12   2.0000     -10.290222      -280.0112
  13   2.0000     -10.290134      -280.0088
  14   2.0000     -10.284159      -279.8462
  15   2.0000     -10.282863      -279.8109
  16   2.0000      -8.080210      -219.8737
  17   2.0000      -8.078648      -219.8312
  18   2.0000      -6.038754      -164.3228
  19   2.0000      -6.037153      -164.2793
  20   2.0000      -6.034577      -164.2092
  21   2.0000      -6.033024      -164.1669
  22   2.0000      -6.030921      -164.1097
  23   2.0000      -6.029378      -164.0677
  24   2.0000      -1.013270       -27.5725
  25   2.0000      -0.986832       -26.8531
  26   2.0000      -0.915384       -24.9089
  27   2.0000      -0.902924       -24.5698
  28   2.0000      -0.875624       -23.8269
  29   2.0000      -0.851280       -23.1645
  30   2.0000      -0.841576       -22.9005
  31   2.0000      -0.814133       -22.1537
  32   2.0000      -0.784626       -21.3508
  33   2.0000      -0.774965       -21.0879
  34   2.0000      -0.711818       -19.3696
  35   2.0000      -0.704683       -19.1754
  36   2.0000      -0.698121       -18.9968
  37   2.0000      -0.661134       -17.9904
  38   2.0000      -0.642787       -17.4911
  39   2.0000      -0.607454       -16.5297
  40   2.0000      -0.593267       -16.1436
  41   2.0000      -0.577124       -15.7043
  42   2.0000      -0.565786       -15.3958
  43   2.0000      -0.549113       -14.9421
  44   2.0000      -0.544513       -14.8170
  45   2.0000      -0.525535       -14.3005
  46   2.0000      -0.517856       -14.0916
  47   2.0000      -0.512226       -13.9384
  48   2.0000      -0.509708       -13.8698
  49   2.0000      -0.504611       -13.7312
  50   2.0000      -0.488658       -13.2971
  51   2.0000      -0.474356       -12.9079
  52   2.0000      -0.469785       -12.7835
  53   2.0000      -0.467852       -12.7309
  54   2.0000      -0.461291       -12.5524
  55   2.0000      -0.451302       -12.2806
  56   2.0000      -0.442613       -12.0441
  57   2.0000      -0.438221       -11.9246
  58   2.0000      -0.426698       -11.6110
  59   2.0000      -0.425893       -11.5891
  60   2.0000      -0.422798       -11.5049
  61   2.0000      -0.419238       -11.4080
  62   2.0000      -0.415086       -11.2951
  63   2.0000      -0.353247        -9.6123
  64   2.0000      -0.330840        -9.0026
  65   2.0000      -0.326679        -8.8894
  66   2.0000      -0.286329        -7.7914
  67   0.0000       0.023263         0.6330
  68   0.0000       0.074869         2.0373
  69   0.0000       0.109544         2.9808
  70   0.0000       0.118371         3.2210
  71   0.0000       0.133885         3.6432

MULLIKEN ATOMIC CHARGES
-----------------------
   0 S :    0.118438
   1 C :   -0.089977
   2 C :   -0.093474
   3 C :    0.013262
   4 C :   -0.177075
   5 H :    0.015810
   6 C :    0.086735
   7 H :    0.020345
   8 H :    0.040666
   9 C :   -0.067673
  10 H :    0.028275
  11 H :    0.032941
  12 C :   -0.079046
  13 H :    0.042987
  14 H :    0.034474
  15 H :    0.039929
  16 S :    0.098002
  17 C :   -0.068478
  18 C :   -0.059094
  19 C :   -0.019193
  20 C :   -0.155689
  21 H :    0.021094
  22 C :    0.049910
  23 H :    0.029089
  24 H :    0.018998
  25 C :   -0.073815
  26 H :    0.026956
  27 H :    0.030163
  28 C :   -0.047323
  29 H :    0.033394
  30 H :    0.030533
  31 H :    0.046637
  32 H :    0.019148
  33 H :    0.053054
Sum of atomic charges:   -0.0000000

LOEWDIN ATOMIC CHARGES
----------------------
   0 S :    0.422023
   1 C :   -0.189240
   2 C :   -0.058607
   3 C :   -0.066238
   4 C :   -0.211832
   5 H :    0.030244
   6 C :   -0.034636
   7 H :    0.030409
   8 H :    0.040177
   9 C :   -0.036305
  10 H :    0.022501
  11 H :    0.025940
  12 C :   -0.069193
  13 H :    0.022255
  14 H :    0.029755
  15 H :    0.029154
  16 S :    0.405702
  17 C :   -0.194634
  18 C :   -0.075320
  19 C :   -0.050488
  20 C :   -0.189236
  21 H :    0.031172
  22 C :   -0.031112
  23 H :    0.029048
  24 H :    0.024167
  25 C :   -0.037097
  26 H :    0.020896
  27 H :    0.020670
  28 C :   -0.066518
  29 H :    0.024611
  30 H :    0.023478
  31 H :    0.034757
  32 H :    0.013917
  33 H :    0.029578

  Mayer bond orders larger than 0.100000
B(  0-S ,  1-C ) :   1.1426 B(  0-S ,  4-C ) :   1.1467 B(  1-C ,  2-C ) :   1.6046
B(  1-C , 32-H ) :   0.9750 B(  2-C ,  3-C ) :   1.2183 B(  2-C ,  6-C ) :   1.0190
B(  3-C ,  4-C ) :   1.5518 B(  3-C ,  5-H ) :   0.9937 B(  4-C , 20-C ) :   1.1095
B(  6-C ,  7-H ) :   0.9422 B(  6-C ,  8-H ) :   0.9359 B(  6-C ,  9-C ) :   1.0706
B(  9-C , 10-H ) :   0.9575 B(  9-C , 11-H ) :   0.9577 B(  9-C , 12-C ) :   1.0708
B( 12-C , 13-H ) :   0.9769 B( 12-C , 14-H ) :   0.9745 B( 12-C , 15-H ) :   0.9771
B( 16-S , 17-C ) :   1.1567 B( 16-S , 20-C ) :   1.1250 B( 17-C , 18-C ) :   1.6280
B( 17-C , 33-H ) :   0.9643 B( 18-C , 19-C ) :   1.2251 B( 18-C , 21-H ) :   0.9885
B( 19-C , 20-C ) :   1.5873 B( 19-C , 22-C ) :   1.0392 B( 22-C , 23-H ) :   0.9276
B( 22-C , 24-H ) :   0.9385 B( 22-C , 25-C ) :   1.0546 B( 25-C , 26-H ) :   0.9622
B( 25-C , 27-H ) :   0.9578 B( 25-C , 28-C ) :   1.0650 B( 28-C , 29-H ) :   0.9782
B( 28-C , 30-H ) :   0.9759 B( 28-C , 31-H ) :   0.9766

Dispersion correction           -0.014148150
FINAL SINGLE POINT ENERGY     -1339.877558712367

DIPOLE MOMENT
-------------
                                X             Y             Z
Electronic contribution:     -0.04953      31.23366       4.12742
Nuclear contribution   :     -0.02440     -31.88030      -4.04263
                        -----------------------------------------
Total Dipole Moment    :     -0.07393      -0.64664       0.08479
                        -----------------------------------------
Magnitude (a.u.)       :      0.65635
Magnitude (Debye)      :      1.66830

Rotational constants in cm-1:     0.016685     0.009964     0.006593
Rotational constants in MHz :   500.209526   298.707756   197.655397

                             ****ORCA TERMINATED NORMALLY****
TOTAL RUN TIME: 0 days 0 hours 0 minutes 34 seconds 927 msec
