                         Program Version 4.2.1 -  RELEASE  -
|  1> ! wB97X-D3 SP def2-SVP
|  2> %pal
|  3> nprocs 16
|  4> end
|  5>
|  6> * xyz 0 1
|  7> S 	 1.14308 	 -5.93229 	 78.8627
|  8> C 	 0.0841746 	 -6.95449 	 79.7935
|  9> C 	 -0.153729 	 -6.49272 	 81.0542
| 10> C 	 0.644277 	 -5.32321 	 81.3453
| 11> C 	 1.30214 	 -4.75081 	 80.2516
| 12> H 	 0.706851 	 -4.91521 	 82.3091
| 13> C 	 -1.08271 	 -7.13049 	 82.0217
| 14> H 	 -1.91595 	 -7.5551 	 81.447
| 15> H 	 -1.51571 	 -6.41224 	 82.6336
| 16> C 	 -0.386638 	 -8.10651 	 82.9777
| 17> H 	 -1.12413 	 -8.72104 	 83.5639
| 18> H 	 0.333442 	 -8.77397 	 82.4918
| 19> C 	 0.473133 	 -7.40337 	 83.978
| 20> H 	 1.05868 	 -6.58697 	 83.5349
| 21> H 	 -0.101617 	 -7.05923 	 84.7571
| 22> H 	 1.17543 	 -8.11144 	 84.459
| 23> S 	 3.75466 	 -3.45255 	 79.8075
| 24> C 	 3.86761 	 -1.71291 	 79.9716
| 25> C 	 2.61332 	 -1.22737 	 80.3422
| 26> C 	 1.58544 	 -2.17788 	 80.372
| 27> C 	 2.02578 	 -3.45617 	 80.2178
| 28> H 	 2.55056 	 -0.200425 	 80.5099
| 29> C 	 0.0899016 	 -1.85426 	 80.6516
| 30> H 	 0.100981 	 -1.83281 	 81.7505
| 31> H 	 -0.49067 	 -2.77194 	 80.454
| 32> C 	 -0.363751 	 -0.470392 	 80.1204
| 33> H 	 -0.313997 	 -0.59826 	 79.0614
| 34> H 	 0.285926 	 0.324811 	 80.2808
| 35> C 	 -1.79347 	 -0.167828 	 80.4686
| 36> H 	 -2.21885 	 0.823278 	 80.2656
| 37> H 	 -1.96134 	 -0.220338 	 81.5061
| 38> H 	 -2.44632 	 -0.916592 	 79.9998
| 39> H 	 -0.351417 	 -7.87563 	 79.4843
| 40> H 	 4.74022 	 -1.12504 	 79.7925
| 41> *
| 42>
| 43>                          ****END OF INPUT****

CARTESIAN COORDINATES (ANGSTROEM)
---------------------------------
  S      1.143080   -5.932290   78.862700
  C      0.084175   -6.954490   79.793500
  C     -0.153729   -6.492720   81.054200
  C      0.644277   -5.323210   81.345300
  C      1.302140   -4.750810   80.251600
  H      0.706851   -4.915210   82.309100
  C     -1.082710   -7.130490   82.021700
  H     -1.915950   -7.555100   81.447000
  H     -1.515710   -6.412240   82.633600
  C     -0.386638   -8.106510   82.977700
  H     -1.124130   -8.721040   83.563900
  H      0.333442   -8.773970   82.491800
  C      0.473133   -7.403370   83.978000
  H      1.058680   -6.586970   83.534900
  H     -0.101617   -7.059230   84.757100
  H      1.175430   -8.111440   84.459000
  S      3.754660   -3.452550   79.807500
  C      3.867610   -1.712910   79.971600
  C      2.613320   -1.227370   80.342200
  C      1.585440   -2.177880   80.372000
  C      2.025780   -3.456170   80.217800
  H      2.550560   -0.200425   80.509900
  C      0.089902   -1.854260   80.651600
  H      0.100981   -1.832810   81.750500
  H     -0.490670   -2.771940   80.454000
  C     -0.363751   -0.470392   80.120400
  H     -0.313997   -0.598260   79.061400
  H      0.285926    0.324811   80.280800
  C     -1.793470   -0.167828   80.468600
  H     -2.218850    0.823278   80.265600
  H     -1.961340   -0.220338   81.506100
  H     -2.446320   -0.916592   79.999800
  H     -0.351417   -7.875630   79.484300
  H      4.740220   -1.125040   79.792500

 Total Charge           Charge          ....    0
 Multiplicity           Mult            ....    1
 Number of Electrons    NEL             ....  134
 Basis Dimension        Dim             ....  322

ORBITAL ENERGIES
----------------

  NO   OCC          E(Eh)            E(eV)
   0   2.0000     -88.966264     -2420.8951
   1   2.0000     -88.962112     -2420.7821
   2   2.0000     -10.339250      -281.3453
   3   2.0000     -10.325916      -280.9825
   4   2.0000     -10.319950      -280.8201
   5   2.0000     -10.311977      -280.6032
   6   2.0000     -10.302651      -280.3494
   7   2.0000     -10.297327      -280.2045
   8   2.0000     -10.296974      -280.1949
   9   2.0000     -10.296229      -280.1746
  10   2.0000     -10.289225      -279.9840
  11   2.0000     -10.287687      -279.9422
  12   2.0000     -10.286755      -279.9168
  13   2.0000     -10.281013      -279.7606
  14   2.0000     -10.272880      -279.5393
  15   2.0000     -10.268303      -279.4147
  16   2.0000      -8.079878      -219.8647
  17   2.0000      -8.076603      -219.7755
  18   2.0000      -6.038568      -164.3178
  19   2.0000      -6.035082      -164.2229
  20   2.0000      -6.034516      -164.2075
  21   2.0000      -6.031086      -164.1142
  22   2.0000      -6.030524      -164.0989
  23   2.0000      -6.027462      -164.0156
  24   2.0000      -1.001711       -27.2579
  25   2.0000      -0.983214       -26.7546
  26   2.0000      -0.918485       -24.9932
  27   2.0000      -0.909173       -24.7399
  28   2.0000      -0.870525       -23.6882
  29   2.0000      -0.852846       -23.2071
  30   2.0000      -0.845769       -23.0146
  31   2.0000      -0.819090       -22.2886
  32   2.0000      -0.783280       -21.3141
  33   2.0000      -0.773708       -21.0537
  34   2.0000      -0.713901       -19.4262
  35   2.0000      -0.705950       -19.2099
  36   2.0000      -0.696827       -18.9616
  37   2.0000      -0.660065       -17.9613
  38   2.0000      -0.643325       -17.5058
  39   2.0000      -0.620906       -16.8957
  40   2.0000      -0.596348       -16.2275
  41   2.0000      -0.582893       -15.8613
  42   2.0000      -0.564889       -15.3714
  43   2.0000      -0.553272       -15.0553
  44   2.0000      -0.543552       -14.7908
  45   2.0000      -0.533759       -14.5243
  46   2.0000      -0.520468       -14.1627
  47   2.0000      -0.511701       -13.9241
  48   2.0000      -0.508618       -13.8402
  49   2.0000      -0.502513       -13.6741
  50   2.0000      -0.490727       -13.3534
  51   2.0000      -0.476960       -12.9788
  52   2.0000      -0.474700       -12.9172
  53   2.0000      -0.467283       -12.7154
  54   2.0000      -0.460649       -12.5349
  55   2.0000      -0.449093       -12.2204
  56   2.0000      -0.439426       -11.9574
  57   2.0000      -0.437235       -11.8978
  58   2.0000      -0.433143       -11.7864
  59   2.0000      -0.425130       -11.5684
  60   2.0000      -0.419796       -11.4232
  61   2.0000      -0.416454       -11.3323
  62   2.0000      -0.413542       -11.2530
  63   2.0000      -0.339205        -9.2302
  64   2.0000      -0.329749        -8.9729
  65   2.0000      -0.326668        -8.8891
  66   2.0000      -0.300576        -8.1791
  67   0.0000       0.030185         0.8214
  68   0.0000       0.062165         1.6916
  69   0.0000       0.117787         3.2051
  70   0.0000       0.122115         3.3229
  71   0.0000       0.132425         3.6035

MULLIKEN ATOMIC CHARGES
-----------------------
   0 S :    0.108267
   1 C :   -0.088620
   2 C :   -0.133348
   3 C :    0.052207
   4 C :   -0.159110
   5 H :    0.001492
   6 C :    0.119732
   7 H :    0.027110
   8 H :    0.000814
   9 C :   -0.065218
  10 H :    0.034910
  11 H :    0.028944
  12 C :   -0.052295
  13 H :    0.035045
  14 H :    0.008313
  15 H :    0.031744
  16 S :    0.098287
  17 C :   -0.088128
  18 C :   -0.033855
  19 C :   -0.013311
  20 C :   -0.184748
  21 H :   -0.003703
  22 C :    0.064359
  23 H :    0.030705
  24 H :    0.044078
  25 C :   -0.037429
  26 H :    0.025851
  27 H :    0.016798
  28 C :   -0.025301
  29 H :    0.029664
  30 H :    0.009047
  31 H :    0.030500
  32 H :    0.031974
  33 H :    0.055225
Sum of atomic charges:   -0.0000000

LOEWDIN ATOMIC CHARGES
----------------------
   0 S :    0.375943
   1 C :   -0.184408
   2 C :   -0.067873
   3 C :   -0.049836
   4 C :   -0.174416
   5 H :    0.019972
   6 C :   -0.028119
   7 H :    0.035069
   8 H :    0.022307
   9 C :   -0.039817
  10 H :    0.028594
  11 H :    0.024236
  12 C :   -0.063558
  13 H :    0.027362
  14 H :    0.010134
  15 H :    0.031792
  16 S :    0.393784
  17 C :   -0.171554
  18 C :   -0.072691
  19 C :   -0.050473
  20 C :   -0.201014
  21 H :    0.020137
  22 C :   -0.024997
  23 H :    0.032566
  24 H :    0.037132
  25 C :   -0.037231
  26 H :    0.027350
  27 H :    0.016258
  28 C :   -0.064909
  29 H :    0.028443
  30 H :    0.016129
  31 H :    0.030042
  32 H :    0.025485
  33 H :    0.028163

  Mayer bond orders larger than 0.100000
B(  0-S ,  1-C ) :   1.1371 B(  0-S ,  4-C ) :   1.1182 B(  1-C ,  2-C ) :   1.6417
B(  1-C , 32-H ) :   0.9617 B(  2-C ,  3-C ) :   1.2245 B(  2-C ,  6-C ) :   1.0349
B(  3-C ,  4-C ) :   1.5855 B(  3-C ,  5-H ) :   0.9903 B(  4-C , 20-C ) :   1.0417
B(  6-C ,  7-H ) :   0.9381 B(  6-C ,  8-H ) :   0.9317 B(  6-C ,  9-C ) :   1.0574
B(  9-C , 10-H ) :   0.9555 B(  9-C , 11-H ) :   0.9625 B(  9-C , 12-C ) :   1.0778
B( 12-C , 13-H ) :   0.9710 B( 12-C , 14-H ) :   0.9741 B( 12-C , 15-H ) :   0.9706
B( 16-S , 17-C ) :   1.1696 B( 16-S , 20-C ) :   1.1312 B( 17-C , 18-C ) :   1.5870
B( 17-C , 20-C ) :   0.1041 B( 17-C , 33-H ) :   0.9721 B( 18-C , 19-C ) :   1.2458
B( 18-C , 21-H ) :   1.0010 B( 19-C , 20-C ) :   1.6046 B( 19-C , 22-C ) :   1.0183
B( 22-C , 23-H ) :   0.9334 B( 22-C , 24-H ) :   0.9358 B( 22-C , 25-C ) :   1.0428
B( 25-C , 26-H ) :   0.9572 B( 25-C , 27-H ) :   0.9542 B( 25-C , 28-C ) :   1.0881
B( 28-C , 29-H ) :   0.9730 B( 28-C , 30-H ) :   0.9739 B( 28-C , 31-H ) :   0.9731

Dispersion correction           -0.014012946
FINAL SINGLE POINT ENERGY     -1339.865976494530

DIPOLE MOMENT
-------------
                                X             Y             Z
Electronic contribution:     18.69693      -3.32221     -16.08569
Nuclear contribution   :    -19.17797       3.55570      16.58749
                        -----------------------------------------
Total Dipole Moment    :     -0.48104       0.23349       0.50180
                        -----------------------------------------
Magnitude (a.u.)       :      0.73330
Magnitude (Debye)      :      1.86389

Rotational constants in cm-1:     0.017283     0.008269     0.006917
Rotational constants in MHz :   518.124085   247.905291   207.373846

                             ****ORCA TERMINATED NORMALLY****
TOTAL RUN TIME: 0 days 0 hours 0 minutes 34 seconds 310 msec
