                         Program Version 4.2.1 -  RELEASE  -
|  1> ! wB97X-D3 SP def2-SVP
|  2> %pal
|  3> nprocs 16
|  4> end
|  5>
|  6> * xyz 0 1
|  7> S 	 -12.9556 	 68.0577 	 52.0875
|  8> C 	 -13.3659 	 66.7948 	 50.9294
|  9> C 	 -13.7912 	 67.3008 	 49.7156
| 10> C 	 -13.8795 	 68.75 	 49.7085
| 11> C 	 -13.5258 	 69.3201 	 50.9245
| 12> H 	 -14.116 	 69.3865 	 48.8674
| 13> C 	 -13.76 	 66.441 	 48.381
| 14> H 	 -12.8731 	 65.9066 	 48.4486
| 15> H 	 -13.6497 	 67.0621 	 47.494
| 16> C 	 -14.9513 	 65.6104 	 48.2617
| 17> H 	 -15.3605 	 65.1737 	 49.1655
| 18> H 	 -15.7732 	 66.115 	 47.8533
| 19> C 	 -14.9091 	 64.2898 	 47.5268
| 20> H 	 -15.8934 	 63.9417 	 47.7496
| 21> H 	 -14.7267 	 64.2206 	 46.4255
| 22> H 	 -14.2266 	 63.6253 	 48.0441
| 23> S 	 -14.076 	 71.4671 	 52.6084
| 24> C 	 -13.3974 	 72.9944 	 52.2596
| 25> C 	 -12.6305 	 72.9954 	 51.1106
| 26> C 	 -12.6204 	 71.7211 	 50.4466
| 27> C 	 -13.2967 	 70.7376 	 51.1987
| 28> H 	 -12.2412 	 73.8707 	 50.8577
| 29> C 	 -11.7573 	 71.516 	 49.1989
| 30> H 	 -12.0183 	 70.5195 	 48.8959
| 31> H 	 -10.7524 	 71.4868 	 49.6512
| 32> C 	 -11.7062 	 72.608 	 48.1323
| 33> H 	 -11.4357 	 73.6082 	 48.5528
| 34> H 	 -12.6344 	 72.5912 	 47.6184
| 35> C 	 -10.4828 	 72.4731 	 47.1811
| 36> H 	 -10.4592 	 71.5881 	 46.5807
| 37> H 	 -9.47782 	 72.6383 	 47.7057
| 38> H 	 -10.5129 	 73.2398 	 46.4234
| 39> H 	 -12.9667 	 65.7773 	 51.1049
| 40> H 	 -13.4861 	 73.8864 	 52.9206
| 41> *
| 42>
| 43>                          ****END OF INPUT****

CARTESIAN COORDINATES (ANGSTROEM)
---------------------------------
  S    -12.955600   68.057700   52.087500
  C    -13.365900   66.794800   50.929400
  C    -13.791200   67.300800   49.715600
  C    -13.879500   68.750000   49.708500
  C    -13.525800   69.320100   50.924500
  H    -14.116000   69.386500   48.867400
  C    -13.760000   66.441000   48.381000
  H    -12.873100   65.906600   48.448600
  H    -13.649700   67.062100   47.494000
  C    -14.951300   65.610400   48.261700
  H    -15.360500   65.173700   49.165500
  H    -15.773200   66.115000   47.853300
  C    -14.909100   64.289800   47.526800
  H    -15.893400   63.941700   47.749600
  H    -14.726700   64.220600   46.425500
  H    -14.226600   63.625300   48.044100
  S    -14.076000   71.467100   52.608400
  C    -13.397400   72.994400   52.259600
  C    -12.630500   72.995400   51.110600
  C    -12.620400   71.721100   50.446600
  C    -13.296700   70.737600   51.198700
  H    -12.241200   73.870700   50.857700
  C    -11.757300   71.516000   49.198900
  H    -12.018300   70.519500   48.895900
  H    -10.752400   71.486800   49.651200
  C    -11.706200   72.608000   48.132300
  H    -11.435700   73.608200   48.552800
  H    -12.634400   72.591200   47.618400
  C    -10.482800   72.473100   47.181100
  H    -10.459200   71.588100   46.580700
  H     -9.477820   72.638300   47.705700
  H    -10.512900   73.239800   46.423400
  H    -12.966700   65.777300   51.104900
  H    -13.486100   73.886400   52.920600

 Total Charge           Charge          ....    0
 Multiplicity           Mult            ....    1
 Number of Electrons    NEL             ....  134
 Basis Dimension        Dim             ....  322

ORBITAL ENERGIES
----------------

  NO   OCC          E(Eh)            E(eV)
   0   2.0000     -88.965492     -2420.8741
   1   2.0000     -88.963494     -2420.8197
   2   2.0000     -10.333812      -281.1973
   3   2.0000     -10.326566      -281.0001
   4   2.0000     -10.318242      -280.7736
   5   2.0000     -10.315202      -280.6909
   6   2.0000     -10.307975      -280.4942
   7   2.0000     -10.307968      -280.4941
   8   2.0000     -10.299844      -280.2730
   9   2.0000     -10.293987      -280.1136
  10   2.0000     -10.291014      -280.0327
  11   2.0000     -10.288644      -279.9682
  12   2.0000     -10.283828      -279.8372
  13   2.0000     -10.281608      -279.7768
  14   2.0000     -10.273671      -279.5608
  15   2.0000     -10.271820      -279.5104
  16   2.0000      -8.079340      -219.8500
  17   2.0000      -8.078764      -219.8344
  18   2.0000      -6.037964      -164.3013
  19   2.0000      -6.037197      -164.2805
  20   2.0000      -6.034077      -164.1956
  21   2.0000      -6.033105      -164.1691
  22   2.0000      -6.029907      -164.0821
  23   2.0000      -6.029675      -164.0758
  24   2.0000      -1.000195       -27.2167
  25   2.0000      -0.978057       -26.6143
  26   2.0000      -0.919466       -25.0199
  27   2.0000      -0.909658       -24.7530
  28   2.0000      -0.869285       -23.6544
  29   2.0000      -0.852672       -23.2024
  30   2.0000      -0.845924       -23.0188
  31   2.0000      -0.816097       -22.2071
  32   2.0000      -0.788046       -21.4438
  33   2.0000      -0.772029       -21.0080
  34   2.0000      -0.708196       -19.2710
  35   2.0000      -0.694790       -18.9062
  36   2.0000      -0.692893       -18.8546
  37   2.0000      -0.659249       -17.9391
  38   2.0000      -0.641725       -17.4622
  39   2.0000      -0.618424       -16.8282
  40   2.0000      -0.590098       -16.0574
  41   2.0000      -0.577949       -15.7268
  42   2.0000      -0.577858       -15.7243
  43   2.0000      -0.558164       -15.1884
  44   2.0000      -0.541328       -14.7303
  45   2.0000      -0.526691       -14.3320
  46   2.0000      -0.513500       -13.9731
  47   2.0000      -0.510065       -13.8796
  48   2.0000      -0.508734       -13.8434
  49   2.0000      -0.495624       -13.4866
  50   2.0000      -0.490827       -13.3561
  51   2.0000      -0.479012       -13.0346
  52   2.0000      -0.471389       -12.8272
  53   2.0000      -0.460538       -12.5319
  54   2.0000      -0.459956       -12.5160
  55   2.0000      -0.450103       -12.2479
  56   2.0000      -0.443825       -12.0771
  57   2.0000      -0.439454       -11.9582
  58   2.0000      -0.434830       -11.8323
  59   2.0000      -0.428660       -11.6644
  60   2.0000      -0.417562       -11.3624
  61   2.0000      -0.413059       -11.2399
  62   2.0000      -0.408318       -11.1109
  63   2.0000      -0.343695        -9.3524
  64   2.0000      -0.330259        -8.9868
  65   2.0000      -0.327930        -8.9234
  66   2.0000      -0.291325        -7.9274
  67   0.0000       0.031169         0.8482
  68   0.0000       0.064504         1.7553
  69   0.0000       0.103040         2.8039
  70   0.0000       0.119223         3.2442
  71   0.0000       0.128819         3.5053

MULLIKEN ATOMIC CHARGES
-----------------------
   0 S :    0.096334
   1 C :   -0.129944
   2 C :   -0.101503
   3 C :    0.033119
   4 C :   -0.153415
   5 H :    0.020636
   6 C :    0.140291
   7 H :    0.007648
   8 H :    0.020828
   9 C :   -0.071231
  10 H :    0.020281
  11 H :    0.010922
  12 C :   -0.052311
  13 H :    0.018998
  14 H :    0.037575
  15 H :    0.019579
  16 S :    0.116609
  17 C :   -0.106178
  18 C :    0.006399
  19 C :   -0.021843
  20 C :   -0.178220
  21 H :   -0.044210
  22 C :    0.091453
  23 H :    0.007164
  24 H :    0.038347
  25 C :   -0.065222
  26 H :    0.042195
  27 H :    0.032909
  28 C :   -0.068886
  29 H :    0.025728
  30 H :    0.044628
  31 H :    0.023371
  32 H :    0.068283
  33 H :    0.069666
Sum of atomic charges:    0.0000000

LOEWDIN ATOMIC CHARGES
----------------------
   0 S :    0.377057
   1 C :   -0.196927
   2 C :   -0.054756
   3 C :   -0.059986
   4 C :   -0.177163
   5 H :    0.032704
   6 C :   -0.017157
   7 H :    0.021543
   8 H :    0.032794
   9 C :   -0.049431
  10 H :    0.030729
  11 H :    0.019451
  12 C :   -0.062107
  13 H :    0.025229
  14 H :    0.021386
  15 H :    0.018630
  16 S :    0.417351
  17 C :   -0.195540
  18 C :   -0.063969
  19 C :   -0.042764
  20 C :   -0.212619
  21 H :    0.004872
  22 C :   -0.033480
  23 H :    0.024294
  24 H :    0.041569
  25 C :   -0.036028
  26 H :    0.034438
  27 H :    0.021531
  28 C :   -0.068452
  29 H :    0.017383
  30 H :    0.034691
  31 H :    0.023426
  32 H :    0.033492
  33 H :    0.037810

  Mayer bond orders larger than 0.100000
B(  0-S ,  1-C ) :   1.1345 B(  0-S ,  4-C ) :   1.1408 B(  1-C ,  2-C ) :   1.6371
B(  1-C , 32-H ) :   0.9608 B(  2-C ,  3-C ) :   1.2248 B(  2-C ,  6-C ) :   0.9995
B(  3-C ,  4-C ) :   1.5949 B(  3-C ,  5-H ) :   0.9937 B(  4-C , 20-C ) :   1.0350
B(  6-C ,  7-H ) :   0.9486 B(  6-C ,  8-H ) :   0.9429 B(  6-C ,  9-C ) :   1.0580
B(  9-C , 10-H ) :   0.9667 B(  9-C , 11-H ) :   0.9526 B(  9-C , 12-C ) :   1.0679
B( 12-C , 13-H ) :   0.9800 B( 12-C , 14-H ) :   0.9731 B( 12-C , 15-H ) :   0.9778
B( 16-S , 17-C ) :   1.1727 B( 16-S , 20-C ) :   1.1429 B( 17-C , 18-C ) :   1.6098
B( 17-C , 33-H ) :   0.9589 B( 18-C , 19-C ) :   1.2241 B( 18-C , 21-H ) :   1.0126
B( 19-C , 20-C ) :   1.5733 B( 19-C , 22-C ) :   1.0315 B( 22-C , 23-H ) :   0.9313
B( 22-C , 24-H ) :   0.9331 B( 22-C , 25-C ) :   1.0611 B( 25-C , 26-H ) :   0.9511
B( 25-C , 27-H ) :   0.9593 B( 25-C , 28-C ) :   1.0796 B( 28-C , 29-H ) :   0.9758
B( 28-C , 30-H ) :   0.9749 B( 28-C , 31-H ) :   0.9744

Dispersion correction           -0.013266954
FINAL SINGLE POINT ENERGY     -1339.847072030373

DIPOLE MOMENT
-------------
                                X             Y             Z
Electronic contribution:     -4.78795       7.25837      27.79619
Nuclear contribution   :      5.14193      -7.12977     -28.51627
                        -----------------------------------------
Total Dipole Moment    :      0.35398       0.12860      -0.72008
                        -----------------------------------------
Magnitude (a.u.)       :      0.81262
Magnitude (Debye)      :      2.06553

Rotational constants in cm-1:     0.017894     0.007640     0.005828
Rotational constants in MHz :   536.455528   229.036416   174.723160

                             ****ORCA TERMINATED NORMALLY****
TOTAL RUN TIME: 0 days 0 hours 0 minutes 33 seconds 516 msec
