                         Program Version 4.2.1 -  RELEASE  -
|  1> ! wB97X-D3 SP def2-SVP
|  2> %pal
|  3> nprocs 16
|  4> end
|  5>
|  6> * xyz 0 1
|  7> S 	 2.66216 	 -26.2089 	 60.5896
|  8> C 	 1.21321 	 -26.7352 	 61.4968
|  9> C 	 1.62642 	 -27.3704 	 62.6543
| 10> C 	 3.04989 	 -27.469 	 62.7727
| 11> C 	 3.73431 	 -26.7818 	 61.799
| 12> H 	 3.64951 	 -27.912 	 63.5357
| 13> C 	 0.689712 	 -28.1114 	 63.555
| 14> H 	 0.13776 	 -28.8518 	 62.9982
| 15> H 	 0.0577502 	 -27.258 	 63.6535
| 16> C 	 1.24466 	 -28.6289 	 64.9571
| 17> H 	 1.96164 	 -27.8569 	 65.2769
| 18> H 	 0.470948 	 -28.6672 	 65.6749
| 19> C 	 1.83403 	 -30.0071 	 64.797
| 20> H 	 2.16593 	 -30.3336 	 65.8441
| 21> H 	 1.26112 	 -30.8678 	 64.3844
| 22> H 	 2.73471 	 -29.9157 	 64.1535
| 23> S 	 5.87662 	 -27.4584 	 60.4119
| 24> C 	 7.50331 	 -26.9735 	 60.8707
| 25> C 	 7.48718 	 -26.2882 	 62.102
| 26> C 	 6.12389 	 -26.0348 	 62.568
| 27> C 	 5.19559 	 -26.5824 	 61.681
| 28> H 	 8.40766 	 -26.0337 	 62.569
| 29> C 	 5.80363 	 -25.1378 	 63.7763
| 30> H 	 4.71738 	 -24.9253 	 63.7179
| 31> H 	 6.34024 	 -24.1559 	 63.7394
| 32> C 	 6.1681 	 -25.7611 	 65.1887
| 33> H 	 5.77194 	 -25.0492 	 65.9574
| 34> H 	 7.26829 	 -25.8607 	 65.2477
| 35> C 	 5.72064 	 -27.1878 	 65.4476
| 36> H 	 6.14949 	 -27.6518 	 66.3038
| 37> H 	 6.12677 	 -27.796 	 64.6119
| 38> H 	 4.65599 	 -27.3744 	 65.5413
| 39> H 	 0.13487 	 -26.7116 	 61.2309
| 40> H 	 8.3768 	 -27.3747 	 60.3758
| 41> *
| 42>
| 43>                          ****END OF INPUT****

CARTESIAN COORDINATES (ANGSTROEM)
---------------------------------
  S      2.662160  -26.208900   60.589600
  C      1.213210  -26.735200   61.496800
  C      1.626420  -27.370400   62.654300
  C      3.049890  -27.469000   62.772700
  C      3.734310  -26.781800   61.799000
  H      3.649510  -27.912000   63.535700
  C      0.689712  -28.111400   63.555000
  H      0.137760  -28.851800   62.998200
  H      0.057750  -27.258000   63.653500
  C      1.244660  -28.628900   64.957100
  H      1.961640  -27.856900   65.276900
  H      0.470948  -28.667200   65.674900
  C      1.834030  -30.007100   64.797000
  H      2.165930  -30.333600   65.844100
  H      1.261120  -30.867800   64.384400
  H      2.734710  -29.915700   64.153500
  S      5.876620  -27.458400   60.411900
  C      7.503310  -26.973500   60.870700
  C      7.487180  -26.288200   62.102000
  C      6.123890  -26.034800   62.568000
  C      5.195590  -26.582400   61.681000
  H      8.407660  -26.033700   62.569000
  C      5.803630  -25.137800   63.776300
  H      4.717380  -24.925300   63.717900
  H      6.340240  -24.155900   63.739400
  C      6.168100  -25.761100   65.188700
  H      5.771940  -25.049200   65.957400
  H      7.268290  -25.860700   65.247700
  C      5.720640  -27.187800   65.447600
  H      6.149490  -27.651800   66.303800
  H      6.126770  -27.796000   64.611900
  H      4.655990  -27.374400   65.541300
  H      0.134870  -26.711600   61.230900
  H      8.376800  -27.374700   60.375800

 Total Charge           Charge          ....    0
 Multiplicity           Mult            ....    1
 Number of Electrons    NEL             ....  134
 Basis Dimension        Dim             ....  322

ORBITAL ENERGIES
----------------

  NO   OCC          E(Eh)            E(eV)
   0   2.0000     -88.966285     -2420.8957
   1   2.0000     -88.965250     -2420.8675
   2   2.0000     -10.325397      -280.9683
   3   2.0000     -10.325223      -280.9636
   4   2.0000     -10.320468      -280.8342
   5   2.0000     -10.315141      -280.6893
   6   2.0000     -10.310658      -280.5673
   7   2.0000     -10.300992      -280.3043
   8   2.0000     -10.300686      -280.2959
   9   2.0000     -10.300021      -280.2778
  10   2.0000     -10.295254      -280.1481
  11   2.0000     -10.292044      -280.0607
  12   2.0000     -10.287356      -279.9332
  13   2.0000     -10.286793      -279.9179
  14   2.0000     -10.286368      -279.9063
  15   2.0000     -10.274204      -279.5753
  16   2.0000      -8.082186      -219.9275
  17   2.0000      -8.079729      -219.8606
  18   2.0000      -6.040547      -164.3716
  19   2.0000      -6.038348      -164.3118
  20   2.0000      -6.036416      -164.2592
  21   2.0000      -6.034162      -164.1979
  22   2.0000      -6.033124      -164.1697
  23   2.0000      -6.030483      -164.0978
  24   2.0000      -1.010109       -27.4865
  25   2.0000      -0.984151       -26.7801
  26   2.0000      -0.912536       -24.8314
  27   2.0000      -0.902070       -24.5466
  28   2.0000      -0.869757       -23.6673
  29   2.0000      -0.847816       -23.0702
  30   2.0000      -0.843606       -22.9557
  31   2.0000      -0.818905       -22.2835
  32   2.0000      -0.781947       -21.2779
  33   2.0000      -0.770299       -20.9609
  34   2.0000      -0.710000       -19.3201
  35   2.0000      -0.695277       -18.9194
  36   2.0000      -0.688187       -18.7265
  37   2.0000      -0.661482       -17.9998
  38   2.0000      -0.638071       -17.3628
  39   2.0000      -0.620429       -16.8827
  40   2.0000      -0.593403       -16.1473
  41   2.0000      -0.570624       -15.5275
  42   2.0000      -0.553295       -15.0559
  43   2.0000      -0.546411       -14.8686
  44   2.0000      -0.540871       -14.7178
  45   2.0000      -0.535485       -14.5713
  46   2.0000      -0.522193       -14.2096
  47   2.0000      -0.514389       -13.9972
  48   2.0000      -0.502303       -13.6684
  49   2.0000      -0.493558       -13.4304
  50   2.0000      -0.491413       -13.3720
  51   2.0000      -0.482307       -13.1242
  52   2.0000      -0.472505       -12.8575
  53   2.0000      -0.462186       -12.5767
  54   2.0000      -0.460652       -12.5350
  55   2.0000      -0.447336       -12.1726
  56   2.0000      -0.444699       -12.1009
  57   2.0000      -0.441078       -12.0023
  58   2.0000      -0.435738       -11.8570
  59   2.0000      -0.419661       -11.4196
  60   2.0000      -0.417436       -11.3590
  61   2.0000      -0.414324       -11.2743
  62   2.0000      -0.406131       -11.0514
  63   2.0000      -0.340260        -9.2590
  64   2.0000      -0.328200        -8.9308
  65   2.0000      -0.324519        -8.8306
  66   2.0000      -0.301111        -8.1936
  67   0.0000       0.037311         1.0153
  68   0.0000       0.063374         1.7245
  69   0.0000       0.114704         3.1212
  70   0.0000       0.116282         3.1642
  71   0.0000       0.130557         3.5526

MULLIKEN ATOMIC CHARGES
-----------------------
   0 S :    0.113826
   1 C :   -0.141479
   2 C :   -0.090446
   3 C :    0.055872
   4 C :   -0.175049
   5 H :   -0.019768
   6 C :    0.035171
   7 H :    0.041658
   8 H :    0.026886
   9 C :   -0.031105
  10 H :    0.038219
  11 H :    0.022801
  12 C :   -0.090484
  13 H :    0.039216
  14 H :    0.048665
  15 H :    0.035387
  16 S :    0.122258
  17 C :   -0.099851
  18 C :   -0.028615
  19 C :   -0.042237
  20 C :   -0.158883
  21 H :    0.014315
  22 C :    0.054851
  23 H :    0.040185
  24 H :    0.048595
  25 C :   -0.102750
  26 H :    0.044871
  27 H :    0.033995
  28 C :   -0.053362
  29 H :    0.022979
  30 H :    0.043037
  31 H :    0.033477
  32 H :    0.056324
  33 H :    0.061442
Sum of atomic charges:   -0.0000000

LOEWDIN ATOMIC CHARGES
----------------------
   0 S :    0.410284
   1 C :   -0.207589
   2 C :   -0.059378
   3 C :   -0.072507
   4 C :   -0.207339
   5 H :    0.024234
   6 C :   -0.037963
   7 H :    0.031041
   8 H :    0.034798
   9 C :   -0.033973
  10 H :    0.030169
  11 H :    0.019515
  12 C :   -0.076822
  13 H :    0.032260
  14 H :    0.031424
  15 H :    0.026339
  16 S :    0.440380
  17 C :   -0.187214
  18 C :   -0.061281
  19 C :   -0.060476
  20 C :   -0.221097
  21 H :    0.026377
  22 C :   -0.033892
  23 H :    0.034252
  24 H :    0.039540
  25 C :   -0.043347
  26 H :    0.029195
  27 H :    0.026612
  28 C :   -0.073730
  29 H :    0.023286
  30 H :    0.032118
  31 H :    0.018030
  32 H :    0.039744
  33 H :    0.027010

  Mayer bond orders larger than 0.100000
B(  0-S ,  1-C ) :   1.1214 B(  0-S ,  4-C ) :   1.1715 B(  1-C ,  2-C ) :   1.6206
B(  1-C , 32-H ) :   0.9687 B(  2-C ,  3-C ) :   1.2240 B(  2-C ,  6-C ) :   0.9783
B(  3-C ,  4-C ) :   1.5829 B(  3-C ,  5-H ) :   0.9883 B(  4-C , 20-C ) :   0.9682
B(  6-C ,  7-H ) :   0.9492 B(  6-C ,  8-H ) :   0.9323 B(  6-C ,  9-C ) :   1.0727
B(  9-C , 10-H ) :   0.9535 B(  9-C , 11-H ) :   0.9558 B(  9-C , 12-C ) :   1.0705
B( 12-C , 13-H ) :   0.9712 B( 12-C , 14-H ) :   0.9747 B( 12-C , 15-H ) :   0.9750
B( 16-S , 17-C ) :   1.1578 B( 16-S , 20-C ) :   1.1928 B( 17-C , 18-C ) :   1.5990
B( 17-C , 33-H ) :   0.9707 B( 18-C , 19-C ) :   1.2223 B( 18-C , 21-H ) :   0.9976
B( 19-C , 20-C ) :   1.5877 B( 19-C , 22-C ) :   1.0386 B( 22-C , 23-H ) :   0.9378
B( 22-C , 24-H ) :   0.9459 B( 22-C , 25-C ) :   1.0534 B( 25-C , 26-H ) :   0.9581
B( 25-C , 27-H ) :   0.9586 B( 25-C , 28-C ) :   1.0837 B( 28-C , 29-H ) :   0.9674
B( 28-C , 30-H ) :   0.9612 B( 28-C , 31-H ) :   0.9688

Dispersion correction           -0.015840412
FINAL SINGLE POINT ENERGY     -1339.868998873909

DIPOLE MOMENT
-------------
                                X             Y             Z
Electronic contribution:      3.74956       7.12707     -27.03178
Nuclear contribution   :     -3.70458      -7.34576      27.68866
                        -----------------------------------------
Total Dipole Moment    :      0.04498      -0.21869       0.65687
                        -----------------------------------------
Magnitude (a.u.)       :      0.69378
Magnitude (Debye)      :      1.76345

Rotational constants in cm-1:     0.017518     0.010391     0.007889
Rotational constants in MHz :   525.166523   311.517279   236.508389

                             ****ORCA TERMINATED NORMALLY****
TOTAL RUN TIME: 0 days 0 hours 0 minutes 37 seconds 840 msec
