                         Program Version 4.2.1 -  RELEASE  -
|  1> ! wB97X-D3 SP def2-SVP
|  2> %pal
|  3> nprocs 16
|  4> end
|  5>
|  6> * xyz 0 1
|  7> S 	 45.2735 	 9.80102 	 88.7387
|  8> C 	 46.9105 	 9.34734 	 88.96
|  9> C 	 47.7535 	 10.4364 	 88.7352
| 10> C 	 47.1146 	 11.6271 	 88.4015
| 11> C 	 45.7311 	 11.4555 	 88.3704
| 12> H 	 47.5146 	 12.6277 	 88.1934
| 13> C 	 49.3121 	 10.3595 	 88.7014
| 14> H 	 49.539 	 9.55864 	 89.4109
| 15> H 	 49.6944 	 11.2626 	 89.2339
| 16> C 	 49.8385 	 10.0748 	 87.2746
| 17> H 	 50.8961 	 9.95871 	 87.2622
| 18> H 	 49.4886 	 9.07246 	 86.9901
| 19> C 	 49.3639 	 11.1164 	 86.2031
| 20> H 	 49.7358 	 10.886 	 85.2318
| 21> H 	 48.3571 	 11.2091 	 86.0797
| 22> H 	 49.775 	 12.1283 	 86.4268
| 23> S 	 43.903 	 12.2639 	 86.4979
| 24> C 	 43.5069 	 13.9394 	 86.365
| 25> C 	 44.0572 	 14.6537 	 87.3707
| 26> C 	 44.8116 	 13.9 	 88.264
| 27> C 	 44.8139 	 12.5233 	 87.946
| 28> H 	 43.9551 	 15.6818 	 87.3092
| 29> C 	 45.5253 	 14.5604 	 89.4495
| 30> H 	 45.4322 	 15.6583 	 89.347
| 31> H 	 46.5896 	 14.4587 	 89.3182
| 32> C 	 45.2036 	 14.0931 	 90.8194
| 33> H 	 45.4339 	 12.9789 	 90.7445
| 34> H 	 44.1231 	 14.325 	 90.9324
| 35> C 	 46.0425 	 14.6756 	 91.9597
| 36> H 	 47.0671 	 14.7856 	 91.6225
| 37> H 	 46.1156 	 13.9358 	 92.7762
| 38> H 	 45.5893 	 15.6539 	 92.1849
| 39> H 	 47.3902 	 8.40322 	 88.9569
| 40> H 	 43.0113 	 14.4365 	 85.5891
| 41> *
| 42>
| 43>                          ****END OF INPUT****

CARTESIAN COORDINATES (ANGSTROEM)
---------------------------------
  S     45.273500    9.801020   88.738700
  C     46.910500    9.347340   88.960000
  C     47.753500   10.436400   88.735200
  C     47.114600   11.627100   88.401500
  C     45.731100   11.455500   88.370400
  H     47.514600   12.627700   88.193400
  C     49.312100   10.359500   88.701400
  H     49.539000    9.558640   89.410900
  H     49.694400   11.262600   89.233900
  C     49.838500   10.074800   87.274600
  H     50.896100    9.958710   87.262200
  H     49.488600    9.072460   86.990100
  C     49.363900   11.116400   86.203100
  H     49.735800   10.886000   85.231800
  H     48.357100   11.209100   86.079700
  H     49.775000   12.128300   86.426800
  S     43.903000   12.263900   86.497900
  C     43.506900   13.939400   86.365000
  C     44.057200   14.653700   87.370700
  C     44.811600   13.900000   88.264000
  C     44.813900   12.523300   87.946000
  H     43.955100   15.681800   87.309200
  C     45.525300   14.560400   89.449500
  H     45.432200   15.658300   89.347000
  H     46.589600   14.458700   89.318200
  C     45.203600   14.093100   90.819400
  H     45.433900   12.978900   90.744500
  H     44.123100   14.325000   90.932400
  C     46.042500   14.675600   91.959700
  H     47.067100   14.785600   91.622500
  H     46.115600   13.935800   92.776200
  H     45.589300   15.653900   92.184900
  H     47.390200    8.403220   88.956900
  H     43.011300   14.436500   85.589100

 Total Charge           Charge          ....    0
 Multiplicity           Mult            ....    1
 Number of Electrons    NEL             ....  134
 Basis Dimension        Dim             ....  322

ORBITAL ENERGIES
----------------

  NO   OCC          E(Eh)            E(eV)
   0   2.0000     -88.972245     -2421.0579
   1   2.0000     -88.966849     -2420.9110
   2   2.0000     -10.330914      -281.1185
   3   2.0000     -10.326786      -281.0061
   4   2.0000     -10.308241      -280.5015
   5   2.0000     -10.307532      -280.4822
   6   2.0000     -10.303077      -280.3610
   7   2.0000     -10.297549      -280.2106
   8   2.0000     -10.296592      -280.1845
   9   2.0000     -10.292091      -280.0620
  10   2.0000     -10.291044      -280.0335
  11   2.0000     -10.286091      -279.8988
  12   2.0000     -10.282490      -279.8008
  13   2.0000     -10.281369      -279.7703
  14   2.0000     -10.279115      -279.7089
  15   2.0000     -10.270253      -279.4678
  16   2.0000      -8.086812      -220.0533
  17   2.0000      -8.082254      -219.9293
  18   2.0000      -6.045253      -164.4997
  19   2.0000      -6.041252      -164.3908
  20   2.0000      -6.040556      -164.3719
  21   2.0000      -6.037752      -164.2956
  22   2.0000      -6.036579      -164.2637
  23   2.0000      -6.033274      -164.1737
  24   2.0000      -1.012280       -27.5455
  25   2.0000      -0.991721       -26.9861
  26   2.0000      -0.912831       -24.8394
  27   2.0000      -0.904726       -24.6189
  28   2.0000      -0.872842       -23.7512
  29   2.0000      -0.853372       -23.2214
  30   2.0000      -0.845634       -23.0109
  31   2.0000      -0.817578       -22.2474
  32   2.0000      -0.784953       -21.3596
  33   2.0000      -0.773253       -21.0413
  34   2.0000      -0.709450       -19.3051
  35   2.0000      -0.707001       -19.2385
  36   2.0000      -0.684318       -18.6212
  37   2.0000      -0.664576       -18.0840
  38   2.0000      -0.638227       -17.3670
  39   2.0000      -0.617319       -16.7981
  40   2.0000      -0.596978       -16.2446
  41   2.0000      -0.575081       -15.6487
  42   2.0000      -0.570714       -15.5299
  43   2.0000      -0.547007       -14.8848
  44   2.0000      -0.542387       -14.7591
  45   2.0000      -0.518788       -14.1169
  46   2.0000      -0.514148       -13.9907
  47   2.0000      -0.510108       -13.8807
  48   2.0000      -0.504603       -13.7310
  49   2.0000      -0.499775       -13.5996
  50   2.0000      -0.491574       -13.3764
  51   2.0000      -0.484072       -13.1723
  52   2.0000      -0.478583       -13.0229
  53   2.0000      -0.469433       -12.7739
  54   2.0000      -0.463621       -12.6158
  55   2.0000      -0.447182       -12.1684
  56   2.0000      -0.440438       -11.9849
  57   2.0000      -0.437682       -11.9099
  58   2.0000      -0.429163       -11.6781
  59   2.0000      -0.422139       -11.4870
  60   2.0000      -0.419740       -11.4217
  61   2.0000      -0.416034       -11.3209
  62   2.0000      -0.406837       -11.0706
  63   2.0000      -0.348893        -9.4939
  64   2.0000      -0.336679        -9.1615
  65   2.0000      -0.329458        -8.9650
  66   2.0000      -0.291932        -7.9439
  67   0.0000       0.028408         0.7730
  68   0.0000       0.068681         1.8689
  69   0.0000       0.121622         3.3095
  70   0.0000       0.121923         3.3177
  71   0.0000       0.139709         3.8017

MULLIKEN ATOMIC CHARGES
-----------------------
   0 S :    0.132284
   1 C :   -0.074661
   2 C :   -0.146258
   3 C :    0.027242
   4 C :   -0.181845
   5 H :    0.027662
   6 C :    0.046476
   7 H :    0.019126
   8 H :    0.035124
   9 C :   -0.024908
  10 H :    0.026269
  11 H :    0.018406
  12 C :   -0.031459
  13 H :    0.019973
  14 H :    0.032976
  15 H :    0.025277
  16 S :    0.116925
  17 C :   -0.065292
  18 C :   -0.028281
  19 C :   -0.024271
  20 C :   -0.144571
  21 H :   -0.011098
  22 C :    0.082957
  23 H :    0.004335
  24 H :   -0.001028
  25 C :   -0.117485
  26 H :    0.049890
  27 H :    0.038922
  28 C :   -0.019706
  29 H :    0.017926
  30 H :    0.044154
  31 H :    0.041754
  32 H :    0.032627
  33 H :    0.030558
Sum of atomic charges:    0.0000000

LOEWDIN ATOMIC CHARGES
----------------------
   0 S :    0.428744
   1 C :   -0.219555
   2 C :   -0.062704
   3 C :   -0.062867
   4 C :   -0.198906
   5 H :    0.037736
   6 C :   -0.034436
   7 H :    0.027738
   8 H :    0.031952
   9 C :   -0.031114
  10 H :    0.020078
  11 H :    0.025384
  12 C :   -0.057014
  13 H :    0.023699
  14 H :    0.013386
  15 H :    0.027929
  16 S :    0.433421
  17 C :   -0.183188
  18 C :   -0.068111
  19 C :   -0.051600
  20 C :   -0.209912
  21 H :    0.022548
  22 C :   -0.039991
  23 H :    0.025221
  24 H :    0.020576
  25 C :   -0.051335
  26 H :    0.034509
  27 H :    0.027796
  28 C :   -0.063557
  29 H :    0.021753
  30 H :    0.033910
  31 H :    0.030068
  32 H :    0.026027
  33 H :    0.021818

  Mayer bond orders larger than 0.100000
B(  0-S ,  1-C ) :   1.1432 B(  0-S ,  4-C ) :   1.1692 B(  1-C ,  2-C ) :   1.6006
B(  1-C ,  4-C ) :   0.1019 B(  1-C , 32-H ) :   0.9623 B(  2-C ,  3-C ) :   1.2779
B(  2-C ,  6-C ) :   1.0087 B(  3-C ,  4-C ) :   1.5342 B(  3-C ,  5-H ) :   0.9890
B(  4-C , 20-C ) :   1.0270 B(  6-C ,  7-H ) :   0.9421 B(  6-C ,  8-H ) :   0.9488
B(  6-C ,  9-C ) :   1.0601 B(  9-C , 10-H ) :   0.9593 B(  9-C , 11-H ) :   0.9524
B(  9-C , 12-C ) :   1.0788 B( 12-C , 13-H ) :   0.9707 B( 12-C , 14-H ) :   0.9716
B( 12-C , 15-H ) :   0.9750 B( 16-S , 17-C ) :   1.1702 B( 16-S , 20-C ) :   1.1673
B( 17-C , 18-C ) :   1.5921 B( 17-C , 33-H ) :   0.9692 B( 18-C , 19-C ) :   1.2803
B( 18-C , 21-H ) :   1.0054 B( 19-C , 20-C ) :   1.5419 B( 19-C , 22-C ) :   1.0355
B( 22-C , 23-H ) :   0.9306 B( 22-C , 24-H ) :   0.9162 B( 22-C , 25-C ) :   1.0669
B( 25-C , 26-H ) :   0.9503 B( 25-C , 27-H ) :   0.9578 B( 25-C , 28-C ) :   1.0788
B( 28-C , 29-H ) :   0.9717 B( 28-C , 30-H ) :   0.9743 B( 28-C , 31-H ) :   0.9753

Dispersion correction           -0.015207408
FINAL SINGLE POINT ENERGY     -1339.869039542320

DIPOLE MOMENT
-------------
                                X             Y             Z
Electronic contribution:    -19.66994      -9.58531      -8.15022
Nuclear contribution   :     20.22936       9.97426       8.00777
                        -----------------------------------------
Total Dipole Moment    :      0.55941       0.38895      -0.14245
                        -----------------------------------------
Magnitude (a.u.)       :      0.69607
Magnitude (Debye)      :      1.76928

Rotational constants in cm-1:     0.016560     0.009726     0.008230
Rotational constants in MHz :   496.449307   291.575353   246.722182

                             ****ORCA TERMINATED NORMALLY****
TOTAL RUN TIME: 0 days 0 hours 0 minutes 32 seconds 413 msec
