                         Program Version 4.2.1 -  RELEASE  -
|  1> ! wB97X-D3 SP def2-SVP
|  2> %pal
|  3> nprocs 16
|  4> end
|  5>
|  6> * xyz 0 1
|  7> S 	 -22.5761 	 30.2263 	 46.006
|  8> C 	 -21.0954 	 30.9812 	 46.6725
|  9> C 	 -20.242 	 31.4267 	 45.6922
| 10> C 	 -20.9452 	 31.4806 	 44.4462
| 11> C 	 -22.1287 	 30.7737 	 44.3987
| 12> H 	 -20.5869 	 31.8225 	 43.5922
| 13> C 	 -18.8601 	 32.0599 	 45.9851
| 14> H 	 -18.2819 	 31.6715 	 45.1927
| 15> H 	 -18.4836 	 31.5412 	 46.8415
| 16> C 	 -18.6742 	 33.5509 	 46.0763
| 17> H 	 -18.9982 	 33.977 	 45.1083
| 18> H 	 -19.2494 	 33.9871 	 46.8738
| 19> C 	 -17.2098 	 34.0855 	 46.2989
| 20> H 	 -16.5448 	 33.5263 	 45.5709
| 21> H 	 -17.074 	 35.1699 	 46.2728
| 22> H 	 -16.9333 	 33.7401 	 47.2919
| 23> S 	 -24.8227 	 31.0068 	 43.7641
| 24> C 	 -25.2262 	 30.9461 	 42.0884
| 25> C 	 -24.1883 	 30.6957 	 41.2107
| 26> C 	 -22.9579 	 30.4308 	 41.9594
| 27> C 	 -23.1162 	 30.7042 	 43.3196
| 28> H 	 -24.4748 	 30.6063 	 40.165
| 29> C 	 -21.6981 	 30.1367 	 41.24
| 30> H 	 -21.7637 	 29.2941 	 40.5646
| 31> H 	 -20.9892 	 29.889 	 42.0094
| 32> C 	 -21.0466 	 31.3243 	 40.5827
| 33> H 	 -20.7945 	 32.164 	 41.2978
| 34> H 	 -21.6689 	 31.8071 	 39.8124
| 35> C 	 -19.7222 	 30.9792 	 39.8749
| 36> H 	 -18.8358 	 30.8249 	 40.5256
| 37> H 	 -19.4288 	 31.8301 	 39.2328
| 38> H 	 -19.8453 	 30.0976 	 39.159
| 39> H 	 -20.7694 	 31.0043 	 47.6712
| 40> H 	 -26.2075 	 31.2882 	 41.6457
| 41> *
| 42>
| 43>                          ****END OF INPUT****

CARTESIAN COORDINATES (ANGSTROEM)
---------------------------------
  S    -22.576100   30.226300   46.006000
  C    -21.095400   30.981200   46.672500
  C    -20.242000   31.426700   45.692200
  C    -20.945200   31.480600   44.446200
  C    -22.128700   30.773700   44.398700
  H    -20.586900   31.822500   43.592200
  C    -18.860100   32.059900   45.985100
  H    -18.281900   31.671500   45.192700
  H    -18.483600   31.541200   46.841500
  C    -18.674200   33.550900   46.076300
  H    -18.998200   33.977000   45.108300
  H    -19.249400   33.987100   46.873800
  C    -17.209800   34.085500   46.298900
  H    -16.544800   33.526300   45.570900
  H    -17.074000   35.169900   46.272800
  H    -16.933300   33.740100   47.291900
  S    -24.822700   31.006800   43.764100
  C    -25.226200   30.946100   42.088400
  C    -24.188300   30.695700   41.210700
  C    -22.957900   30.430800   41.959400
  C    -23.116200   30.704200   43.319600
  H    -24.474800   30.606300   40.165000
  C    -21.698100   30.136700   41.240000
  H    -21.763700   29.294100   40.564600
  H    -20.989200   29.889000   42.009400
  C    -21.046600   31.324300   40.582700
  H    -20.794500   32.164000   41.297800
  H    -21.668900   31.807100   39.812400
  C    -19.722200   30.979200   39.874900
  H    -18.835800   30.824900   40.525600
  H    -19.428800   31.830100   39.232800
  H    -19.845300   30.097600   39.159000
  H    -20.769400   31.004300   47.671200
  H    -26.207500   31.288200   41.645700

 Total Charge           Charge          ....    0
 Multiplicity           Mult            ....    1
 Number of Electrons    NEL             ....  134
 Basis Dimension        Dim             ....  322

ORBITAL ENERGIES
----------------

  NO   OCC          E(Eh)            E(eV)
   0   2.0000     -88.968331     -2420.9514
   1   2.0000     -88.966194     -2420.8932
   2   2.0000     -10.331218      -281.1267
   3   2.0000     -10.330093      -281.0961
   4   2.0000     -10.318270      -280.7744
   5   2.0000     -10.312376      -280.6140
   6   2.0000     -10.308641      -280.5124
   7   2.0000     -10.303187      -280.3640
   8   2.0000     -10.295917      -280.1661
   9   2.0000     -10.292896      -280.0839
  10   2.0000     -10.291584      -280.0482
  11   2.0000     -10.289993      -280.0049
  12   2.0000     -10.288136      -279.9544
  13   2.0000     -10.287490      -279.9368
  14   2.0000     -10.286427      -279.9079
  15   2.0000     -10.285399      -279.8799
  16   2.0000      -8.082874      -219.9462
  17   2.0000      -8.080269      -219.8753
  18   2.0000      -6.041401      -164.3949
  19   2.0000      -6.038914      -164.3272
  20   2.0000      -6.037589      -164.2911
  21   2.0000      -6.034950      -164.2193
  22   2.0000      -6.033428      -164.1779
  23   2.0000      -6.030847      -164.1077
  24   2.0000      -1.004225       -27.3263
  25   2.0000      -0.980794       -26.6888
  26   2.0000      -0.916440       -24.9376
  27   2.0000      -0.911889       -24.8138
  28   2.0000      -0.868159       -23.6238
  29   2.0000      -0.852923       -23.2092
  30   2.0000      -0.843657       -22.9571
  31   2.0000      -0.817417       -22.2431
  32   2.0000      -0.787205       -21.4209
  33   2.0000      -0.773165       -21.0389
  34   2.0000      -0.706379       -19.2216
  35   2.0000      -0.700055       -19.0495
  36   2.0000      -0.691479       -18.8161
  37   2.0000      -0.660505       -17.9732
  38   2.0000      -0.643365       -17.5068
  39   2.0000      -0.624606       -16.9964
  40   2.0000      -0.596879       -16.2419
  41   2.0000      -0.573654       -15.6099
  42   2.0000      -0.571251       -15.5445
  43   2.0000      -0.557305       -15.1650
  44   2.0000      -0.530332       -14.4311
  45   2.0000      -0.525074       -14.2880
  46   2.0000      -0.511728       -13.9248
  47   2.0000      -0.507195       -13.8015
  48   2.0000      -0.505651       -13.7595
  49   2.0000      -0.500094       -13.6082
  50   2.0000      -0.495126       -13.4731
  51   2.0000      -0.475420       -12.9368
  52   2.0000      -0.472316       -12.8524
  53   2.0000      -0.464753       -12.6466
  54   2.0000      -0.458251       -12.4697
  55   2.0000      -0.455607       -12.3977
  56   2.0000      -0.447391       -12.1741
  57   2.0000      -0.439585       -11.9617
  58   2.0000      -0.432421       -11.7668
  59   2.0000      -0.428070       -11.6484
  60   2.0000      -0.420813       -11.4509
  61   2.0000      -0.414358       -11.2753
  62   2.0000      -0.413233       -11.2447
  63   2.0000      -0.349386        -9.5073
  64   2.0000      -0.333800        -9.0832
  65   2.0000      -0.332043        -9.0353
  66   2.0000      -0.288921        -7.8619
  67   0.0000       0.026843         0.7304
  68   0.0000       0.071750         1.9524
  69   0.0000       0.098142         2.6706
  70   0.0000       0.118397         3.2218
  71   0.0000       0.130203         3.5430

MULLIKEN ATOMIC CHARGES
-----------------------
   0 S :    0.094185
   1 C :   -0.092835
   2 C :   -0.107937
   3 C :    0.105724
   4 C :   -0.139599
   5 H :   -0.087128
   6 C :    0.105396
   7 H :    0.008664
   8 H :    0.007512
   9 C :   -0.053353
  10 H :    0.028416
  11 H :    0.029441
  12 C :   -0.070502
  13 H :    0.035264
  14 H :    0.052345
  15 H :    0.024456
  16 S :    0.117339
  17 C :   -0.107788
  18 C :   -0.043635
  19 C :   -0.034627
  20 C :   -0.138800
  21 H :    0.029067
  22 C :    0.106079
  23 H :    0.027429
  24 H :    0.012746
  25 C :   -0.105652
  26 H :    0.042860
  27 H :    0.028313
  28 C :   -0.082406
  29 H :    0.041275
  30 H :    0.034362
  31 H :    0.038377
  32 H :    0.024165
  33 H :    0.070844
Sum of atomic charges:   -0.0000000

LOEWDIN ATOMIC CHARGES
----------------------
   0 S :    0.378781
   1 C :   -0.171398
   2 C :   -0.054262
   3 C :   -0.045439
   4 C :   -0.181425
   5 H :   -0.000867
   6 C :   -0.028201
   7 H :    0.026992
   8 H :    0.026040
   9 C :   -0.039396
  10 H :    0.025282
  11 H :    0.021922
  12 C :   -0.066121
  13 H :    0.029015
  14 H :    0.030217
  15 H :    0.020794
  16 S :    0.397700
  17 C :   -0.198043
  18 C :   -0.075338
  19 C :   -0.044146
  20 C :   -0.188023
  21 H :    0.036620
  22 C :   -0.037076
  23 H :    0.032944
  24 H :    0.030895
  25 C :   -0.043959
  26 H :    0.029546
  27 H :    0.022861
  28 C :   -0.076669
  29 H :    0.025272
  30 H :    0.028531
  31 H :    0.029516
  32 H :    0.017881
  33 H :    0.039553

  Mayer bond orders larger than 0.100000
B(  0-S ,  1-C ) :   1.1260 B(  0-S ,  4-C ) :   1.1246 B(  1-C ,  2-C ) :   1.6378
B(  1-C , 32-H ) :   0.9673 B(  2-C ,  3-C ) :   1.2129 B(  2-C ,  6-C ) :   1.0260
B(  3-C ,  4-C ) :   1.5988 B(  3-C ,  5-H ) :   1.0008 B(  4-C , 20-C ) :   1.0448
B(  6-C ,  7-H ) :   0.9247 B(  6-C ,  8-H ) :   0.9351 B(  6-C ,  9-C ) :   1.0695
B(  9-C , 10-H ) :   0.9537 B(  9-C , 11-H ) :   0.9585 B(  9-C , 12-C ) :   1.0697
B( 12-C , 13-H ) :   0.9768 B( 12-C , 14-H ) :   0.9762 B( 12-C , 15-H ) :   0.9775
B( 16-S , 17-C ) :   1.1501 B( 16-S , 20-C ) :   1.1169 B( 17-C , 18-C ) :   1.6657
B( 17-C , 33-H ) :   0.9528 B( 18-C , 19-C ) :   1.1796 B( 18-C , 21-H ) :   0.9872
B( 19-C , 20-C ) :   1.6193 B( 19-C , 22-C ) :   1.0765 B( 22-C , 23-H ) :   0.9269
B( 22-C , 24-H ) :   0.9185 B( 22-C , 25-C ) :   1.0649 B( 25-C , 26-H ) :   0.9476
B( 25-C , 27-H ) :   0.9535 B( 25-C , 28-C ) :   1.0814 B( 28-C , 29-H ) :   0.9761
B( 28-C , 30-H ) :   0.9737 B( 28-C , 31-H ) :   0.9725

Dispersion correction           -0.013765627
FINAL SINGLE POINT ENERGY     -1339.863755233738

DIPOLE MOMENT
-------------
                                X             Y             Z
Electronic contribution:    -28.61528     -10.98924       9.96552
Nuclear contribution   :     29.15787      11.31092     -10.36297
                        -----------------------------------------
Total Dipole Moment    :      0.54260       0.32168      -0.39745
                        -----------------------------------------
Magnitude (a.u.)       :      0.74556
Magnitude (Debye)      :      1.89506

Rotational constants in cm-1:     0.017059     0.008656     0.006302
Rotational constants in MHz :   511.412385   259.486755   188.943315

                             ****ORCA TERMINATED NORMALLY****
TOTAL RUN TIME: 0 days 0 hours 0 minutes 30 seconds 958 msec
