                         Program Version 4.2.1 -  RELEASE  -
|  1> ! wB97X-D3 SP def2-SVP
|  2> %pal
|  3> nprocs 16
|  4> end
|  5>
|  6> * xyz 0 1
|  7> S 	 3.40825 	 -29.2247 	 61.7534
|  8> C 	 1.7456 	 -29.5974 	 62.1438
|  9> C 	 0.997821 	 -28.4235 	 62.3256
| 10> C 	 1.8356 	 -27.2355 	 62.2825
| 11> C 	 3.15007 	 -27.5342 	 62.0079
| 12> H 	 1.5541 	 -26.2328 	 62.5563
| 13> C 	 -0.427275 	 -28.3245 	 62.7389
| 14> H 	 -0.861325 	 -28.5322 	 61.82
| 15> H 	 -0.631303 	 -27.2273 	 63.038
| 16> C 	 -0.873623 	 -29.0616 	 64.0412
| 17> H 	 -0.316061 	 -28.8292 	 64.9567
| 18> H 	 -1.74566 	 -28.5116 	 64.2864
| 19> C 	 -1.10985 	 -30.5874 	 63.9166
| 20> H 	 -1.26863 	 -30.9736 	 64.8721
| 21> H 	 -1.98447 	 -30.913 	 63.3519
| 22> H 	 -0.27595 	 -31.215 	 63.628
| 23> S 	 5.26894 	 -26.4458 	 60.5303
| 24> C 	 6.28173 	 -25.2226 	 61.2247
| 25> C 	 5.84344 	 -24.918 	 62.489
| 26> C 	 4.64066 	 -25.6024 	 62.8757
| 27> C 	 4.25977 	 -26.6064 	 62.0021
| 28> H 	 6.36471 	 -24.1999 	 63.0825
| 29> C 	 3.94387 	 -25.3304 	 64.2376
| 30> H 	 2.8655 	 -25.5864 	 64.2789
| 31> H 	 3.98124 	 -24.2389 	 64.3185
| 32> C 	 4.61448 	 -26.0874 	 65.3647
| 33> H 	 4.25347 	 -25.6289 	 66.2907
| 34> H 	 5.65068 	 -25.9686 	 65.2841
| 35> C 	 4.3056 	 -27.5905 	 65.3277
| 36> H 	 4.73848 	 -28.1011 	 64.4964
| 37> H 	 3.27424 	 -27.8606 	 65.3664
| 38> H 	 4.71223 	 -28.024 	 66.2288
| 39> H 	 1.26886 	 -30.4995 	 62.186
| 40> H 	 7.08661 	 -24.7525 	 60.6458
| 41> *
| 42>
| 43>                          ****END OF INPUT****

CARTESIAN COORDINATES (ANGSTROEM)
---------------------------------
  S      3.408250  -29.224700   61.753400
  C      1.745600  -29.597400   62.143800
  C      0.997821  -28.423500   62.325600
  C      1.835600  -27.235500   62.282500
  C      3.150070  -27.534200   62.007900
  H      1.554100  -26.232800   62.556300
  C     -0.427275  -28.324500   62.738900
  H     -0.861325  -28.532200   61.820000
  H     -0.631303  -27.227300   63.038000
  C     -0.873623  -29.061600   64.041200
  H     -0.316061  -28.829200   64.956700
  H     -1.745660  -28.511600   64.286400
  C     -1.109850  -30.587400   63.916600
  H     -1.268630  -30.973600   64.872100
  H     -1.984470  -30.913000   63.351900
  H     -0.275950  -31.215000   63.628000
  S      5.268940  -26.445800   60.530300
  C      6.281730  -25.222600   61.224700
  C      5.843440  -24.918000   62.489000
  C      4.640660  -25.602400   62.875700
  C      4.259770  -26.606400   62.002100
  H      6.364710  -24.199900   63.082500
  C      3.943870  -25.330400   64.237600
  H      2.865500  -25.586400   64.278900
  H      3.981240  -24.238900   64.318500
  C      4.614480  -26.087400   65.364700
  H      4.253470  -25.628900   66.290700
  H      5.650680  -25.968600   65.284100
  C      4.305600  -27.590500   65.327700
  H      4.738480  -28.101100   64.496400
  H      3.274240  -27.860600   65.366400
  H      4.712230  -28.024000   66.228800
  H      1.268860  -30.499500   62.186000
  H      7.086610  -24.752500   60.645800

 Total Charge           Charge          ....    0
 Multiplicity           Mult            ....    1
 Number of Electrons    NEL             ....  134
 Basis Dimension        Dim             ....  322

ORBITAL ENERGIES
----------------

  NO   OCC          E(Eh)            E(eV)
   0   2.0000     -88.967085     -2420.9175
   1   2.0000     -88.958681     -2420.6888
   2   2.0000     -10.325481      -280.9706
   3   2.0000     -10.324973      -280.9568
   4   2.0000     -10.318356      -280.7767
   5   2.0000     -10.306970      -280.4669
   6   2.0000     -10.304292      -280.3940
   7   2.0000     -10.299940      -280.2756
   8   2.0000     -10.294169      -280.1186
   9   2.0000     -10.293716      -280.1063
  10   2.0000     -10.292836      -280.0823
  11   2.0000     -10.291914      -280.0572
  12   2.0000     -10.291302      -280.0406
  13   2.0000     -10.278079      -279.6807
  14   2.0000     -10.277049      -279.6527
  15   2.0000     -10.262702      -279.2623
  16   2.0000      -8.081765      -219.9160
  17   2.0000      -8.073520      -219.6917
  18   2.0000      -6.040342      -164.3661
  19   2.0000      -6.036207      -164.2535
  20   2.0000      -6.032525      -164.1533
  21   2.0000      -6.032074      -164.1411
  22   2.0000      -6.027907      -164.0277
  23   2.0000      -6.024324      -163.9302
  24   2.0000      -1.004674       -27.3386
  25   2.0000      -0.981873       -26.7181
  26   2.0000      -0.912294       -24.8248
  27   2.0000      -0.908216       -24.7138
  28   2.0000      -0.868065       -23.6213
  29   2.0000      -0.851980       -23.1836
  30   2.0000      -0.840330       -22.8665
  31   2.0000      -0.812913       -22.1205
  32   2.0000      -0.787950       -21.4412
  33   2.0000      -0.776843       -21.1390
  34   2.0000      -0.720331       -19.6012
  35   2.0000      -0.704889       -19.1810
  36   2.0000      -0.693740       -18.8776
  37   2.0000      -0.658001       -17.9051
  38   2.0000      -0.640958       -17.4413
  39   2.0000      -0.614853       -16.7310
  40   2.0000      -0.599040       -16.3007
  41   2.0000      -0.569424       -15.4948
  42   2.0000      -0.551378       -15.0037
  43   2.0000      -0.546792       -14.8790
  44   2.0000      -0.543089       -14.7782
  45   2.0000      -0.533361       -14.5135
  46   2.0000      -0.530520       -14.4362
  47   2.0000      -0.511919       -13.9300
  48   2.0000      -0.502377       -13.6704
  49   2.0000      -0.497588       -13.5400
  50   2.0000      -0.487435       -13.2638
  51   2.0000      -0.484254       -13.1772
  52   2.0000      -0.473079       -12.8731
  53   2.0000      -0.467490       -12.7211
  54   2.0000      -0.462997       -12.5988
  55   2.0000      -0.451690       -12.2911
  56   2.0000      -0.444151       -12.0860
  57   2.0000      -0.437668       -11.9096
  58   2.0000      -0.430880       -11.7248
  59   2.0000      -0.426968       -11.6184
  60   2.0000      -0.415873       -11.3165
  61   2.0000      -0.408611       -11.1189
  62   2.0000      -0.403157       -10.9705
  63   2.0000      -0.344985        -9.3875
  64   2.0000      -0.328029        -8.9261
  65   2.0000      -0.326187        -8.8760
  66   2.0000      -0.292157        -7.9500
  67   0.0000       0.034795         0.9468
  68   0.0000       0.068510         1.8643
  69   0.0000       0.116863         3.1800
  70   0.0000       0.118939         3.2365
  71   0.0000       0.130789         3.5589

MULLIKEN ATOMIC CHARGES
-----------------------
   0 S :    0.125481
   1 C :   -0.072929
   2 C :   -0.108856
   3 C :    0.030359
   4 C :   -0.150765
   5 H :    0.012140
   6 C :    0.046742
   7 H :    0.035541
   8 H :    0.032095
   9 C :   -0.033413
  10 H :    0.029769
  11 H :    0.015845
  12 C :   -0.030915
  13 H :    0.008088
  14 H :    0.035733
  15 H :    0.026816
  16 S :    0.085663
  17 C :   -0.095466
  18 C :   -0.023728
  19 C :   -0.054965
  20 C :   -0.147216
  21 H :    0.010289
  22 C :    0.046271
  23 H :    0.018899
  24 H :    0.025615
  25 C :   -0.022590
  26 H :    0.025625
  27 H :    0.011965
  28 C :   -0.024039
  29 H :    0.032570
  30 H :    0.017715
  31 H :    0.020416
  32 H :   -0.000584
  33 H :    0.071830
Sum of atomic charges:   -0.0000000

LOEWDIN ATOMIC CHARGES
----------------------
   0 S :    0.423121
   1 C :   -0.195717
   2 C :   -0.054561
   3 C :   -0.059670
   4 C :   -0.199777
   5 H :    0.028071
   6 C :   -0.033191
   7 H :    0.029543
   8 H :    0.040937
   9 C :   -0.034335
  10 H :    0.032741
  11 H :    0.023629
  12 C :   -0.070508
  13 H :    0.021613
  14 H :    0.028512
  15 H :    0.025049
  16 S :    0.386891
  17 C :   -0.185614
  18 C :   -0.075673
  19 C :   -0.052944
  20 C :   -0.192310
  21 H :    0.027136
  22 C :   -0.032352
  23 H :    0.028327
  24 H :    0.028800
  25 C :   -0.030264
  26 H :    0.024467
  27 H :    0.016513
  28 C :   -0.058109
  29 H :    0.021295
  30 H :    0.020246
  31 H :    0.025372
  32 H :    0.006275
  33 H :    0.036486

  Mayer bond orders larger than 0.100000
B(  0-S ,  1-C ) :   1.1274 B(  0-S ,  4-C ) :   1.1601 B(  1-C ,  2-C ) :   1.6108
B(  1-C , 32-H ) :   0.9800 B(  2-C ,  3-C ) :   1.2335 B(  2-C ,  6-C ) :   1.0023
B(  3-C ,  4-C ) :   1.5822 B(  3-C ,  5-H ) :   0.9922 B(  4-C , 20-C ) :   1.0282
B(  6-C ,  7-H ) :   0.9346 B(  6-C ,  8-H ) :   0.9529 B(  6-C ,  9-C ) :   1.0584
B(  9-C , 10-H ) :   0.9573 B(  9-C , 11-H ) :   0.9556 B(  9-C , 12-C ) :   1.0726
B( 12-C , 13-H ) :   0.9658 B( 12-C , 14-H ) :   0.9764 B( 12-C , 15-H ) :   0.9726
B( 16-S , 17-C ) :   1.1615 B( 16-S , 20-C ) :   1.1273 B( 17-C , 18-C ) :   1.5954
B( 17-C , 20-C ) :   0.1008 B( 17-C , 33-H ) :   0.9678 B( 18-C , 19-C ) :   1.2354
B( 18-C , 21-H ) :   0.9958 B( 19-C , 20-C ) :   1.6095 B( 19-C , 22-C ) :   1.0329
B( 22-C , 23-H ) :   0.9405 B( 22-C , 24-H ) :   0.9326 B( 22-C , 25-C ) :   1.0769
B( 25-C , 26-H ) :   0.9527 B( 25-C , 27-H ) :   0.9530 B( 25-C , 28-C ) :   1.0836
B( 28-C , 29-H ) :   0.9706 B( 28-C , 30-H ) :   0.9741 B( 28-C , 31-H ) :   0.9705

Dispersion correction           -0.015907335
FINAL SINGLE POINT ENERGY     -1339.865491186168

DIPOLE MOMENT
-------------
                                X             Y             Z
Electronic contribution:     16.45481       3.09491     -21.22104
Nuclear contribution   :    -16.93856      -2.85695      21.85059
                        -----------------------------------------
Total Dipole Moment    :     -0.48375       0.23796       0.62956
                        -----------------------------------------
Magnitude (a.u.)       :      0.82885
Magnitude (Debye)      :      2.10676

Rotational constants in cm-1:     0.024059     0.008422     0.007206
Rotational constants in MHz :   721.255766   252.486773   216.017660

                             ****ORCA TERMINATED NORMALLY****
TOTAL RUN TIME: 0 days 0 hours 0 minutes 37 seconds 295 msec
