                         Program Version 4.2.1 -  RELEASE  -
|  1> ! wB97X-D3 SP def2-SVP
|  2> %pal
|  3> nprocs 16
|  4> end
|  5>
|  6> * xyz 0 1
|  7> S 	 -0.311451 	 -9.48788 	 83.0432
|  8> C 	 -2.06713 	 -9.57748 	 82.964
|  9> C 	 -2.60816 	 -9.86306 	 84.2305
| 10> C 	 -1.59851 	 -10.1441 	 85.2379
| 11> C 	 -0.366262 	 -9.65883 	 84.792
| 12> H 	 -1.68612 	 -10.3661 	 86.2629
| 13> C 	 -4.08536 	 -9.82461 	 84.448
| 14> H 	 -4.12257 	 -9.97273 	 85.5681
| 15> H 	 -4.46918 	 -10.7824 	 84.1168
| 16> C 	 -4.90902 	 -8.45552 	 84.1856
| 17> H 	 -5.94699 	 -8.53696 	 84.4225
| 18> H 	 -4.58469 	 -7.67435 	 84.859
| 19> C 	 -4.92079 	 -7.89259 	 82.7232
| 20> H 	 -4.93563 	 -8.80677 	 82.1582
| 21> H 	 -5.85334 	 -7.35744 	 82.4936
| 22> H 	 -4.02295 	 -7.3669 	 82.5584
| 23> S 	 1.66361 	 -10.9403 	 86.0508
| 24> C 	 2.72769 	 -9.92706 	 86.9933
| 25> C 	 2.60945 	 -8.59672 	 86.7306
| 26> C 	 1.4662 	 -8.31422 	 85.9785
| 27> C 	 0.798148 	 -9.48559 	 85.6336
| 28> H 	 3.1549 	 -7.833 	 87.1626
| 29> C 	 0.996307 	 -6.92643 	 85.597
| 30> H 	 0.189104 	 -6.63835 	 86.1888
| 31> H 	 0.596994 	 -7.05582 	 84.5841
| 32> C 	 1.98201 	 -5.71107 	 85.4918
| 33> H 	 1.4576 	 -5.05828 	 84.8362
| 34> H 	 2.84389 	 -6.09162 	 85.0866
| 35> C 	 2.29503 	 -4.88134 	 86.7767
| 36> H 	 3.00731 	 -4.08125 	 86.573
| 37> H 	 2.64351 	 -5.50218 	 87.665
| 38> H 	 1.38613 	 -4.41481 	 87.0876
| 39> H 	 -2.69485 	 -9.41383 	 82.0923
| 40> H 	 3.51366 	 -10.2509 	 87.593
| 41> *
| 42>
| 43>                          ****END OF INPUT****

CARTESIAN COORDINATES (ANGSTROEM)
---------------------------------
  S     -0.311451   -9.487880   83.043200
  C     -2.067130   -9.577480   82.964000
  C     -2.608160   -9.863060   84.230500
  C     -1.598510  -10.144100   85.237900
  C     -0.366262   -9.658830   84.792000
  H     -1.686120  -10.366100   86.262900
  C     -4.085360   -9.824610   84.448000
  H     -4.122570   -9.972730   85.568100
  H     -4.469180  -10.782400   84.116800
  C     -4.909020   -8.455520   84.185600
  H     -5.946990   -8.536960   84.422500
  H     -4.584690   -7.674350   84.859000
  C     -4.920790   -7.892590   82.723200
  H     -4.935630   -8.806770   82.158200
  H     -5.853340   -7.357440   82.493600
  H     -4.022950   -7.366900   82.558400
  S      1.663610  -10.940300   86.050800
  C      2.727690   -9.927060   86.993300
  C      2.609450   -8.596720   86.730600
  C      1.466200   -8.314220   85.978500
  C      0.798148   -9.485590   85.633600
  H      3.154900   -7.833000   87.162600
  C      0.996307   -6.926430   85.597000
  H      0.189104   -6.638350   86.188800
  H      0.596994   -7.055820   84.584100
  C      1.982010   -5.711070   85.491800
  H      1.457600   -5.058280   84.836200
  H      2.843890   -6.091620   85.086600
  C      2.295030   -4.881340   86.776700
  H      3.007310   -4.081250   86.573000
  H      2.643510   -5.502180   87.665000
  H      1.386130   -4.414810   87.087600
  H     -2.694850   -9.413830   82.092300
  H      3.513660  -10.250900   87.593000

 Total Charge           Charge          ....    0
 Multiplicity           Mult            ....    1
 Number of Electrons    NEL             ....  134
 Basis Dimension        Dim             ....  322

ORBITAL ENERGIES
----------------

  NO   OCC          E(Eh)            E(eV)
   0   2.0000     -88.967583     -2420.9310
   1   2.0000     -88.964861     -2420.8569
   2   2.0000     -10.325879      -280.9815
   3   2.0000     -10.316499      -280.7262
   4   2.0000     -10.310466      -280.5620
   5   2.0000     -10.308686      -280.5136
   6   2.0000     -10.303820      -280.3812
   7   2.0000     -10.298195      -280.2281
   8   2.0000     -10.297283      -280.2033
   9   2.0000     -10.295073      -280.1432
  10   2.0000     -10.292766      -280.0804
  11   2.0000     -10.284163      -279.8463
  12   2.0000     -10.283283      -279.8224
  13   2.0000     -10.282250      -279.7943
  14   2.0000     -10.281467      -279.7729
  15   2.0000     -10.275319      -279.6056
  16   2.0000      -8.082436      -219.9343
  17   2.0000      -8.078863      -219.8370
  18   2.0000      -6.040758      -164.3774
  19   2.0000      -6.037371      -164.2852
  20   2.0000      -6.037142      -164.2790
  21   2.0000      -6.033537      -164.1809
  22   2.0000      -6.033182      -164.1712
  23   2.0000      -6.029615      -164.0742
  24   2.0000      -1.007268       -27.4092
  25   2.0000      -0.980772       -26.6882
  26   2.0000      -0.905756       -24.6469
  27   2.0000      -0.901557       -24.5326
  28   2.0000      -0.866518       -23.5792
  29   2.0000      -0.852700       -23.2031
  30   2.0000      -0.848936       -23.1007
  31   2.0000      -0.815006       -22.1774
  32   2.0000      -0.784914       -21.3586
  33   2.0000      -0.769788       -20.9470
  34   2.0000      -0.708786       -19.2871
  35   2.0000      -0.703833       -19.1523
  36   2.0000      -0.696488       -18.9524
  37   2.0000      -0.664682       -18.0869
  38   2.0000      -0.641755       -17.4630
  39   2.0000      -0.606748       -16.5105
  40   2.0000      -0.600435       -16.3387
  41   2.0000      -0.567274       -15.4363
  42   2.0000      -0.549479       -14.9521
  43   2.0000      -0.545977       -14.8568
  44   2.0000      -0.542187       -14.7537
  45   2.0000      -0.534511       -14.5448
  46   2.0000      -0.517577       -14.0840
  47   2.0000      -0.516513       -14.0550
  48   2.0000      -0.504572       -13.7301
  49   2.0000      -0.503000       -13.6873
  50   2.0000      -0.487141       -13.2558
  51   2.0000      -0.482284       -13.1236
  52   2.0000      -0.475343       -12.9347
  53   2.0000      -0.465027       -12.6540
  54   2.0000      -0.455910       -12.4059
  55   2.0000      -0.452089       -12.3020
  56   2.0000      -0.443108       -12.0576
  57   2.0000      -0.438337       -11.9278
  58   2.0000      -0.432129       -11.7588
  59   2.0000      -0.426409       -11.6032
  60   2.0000      -0.420871       -11.4525
  61   2.0000      -0.420262       -11.4359
  62   2.0000      -0.406198       -11.0532
  63   2.0000      -0.337808        -9.1922
  64   2.0000      -0.330217        -8.9857
  65   2.0000      -0.316203        -8.6043
  66   2.0000      -0.296510        -8.0684
  67   0.0000       0.034829         0.9477
  68   0.0000       0.058036         1.5792
  69   0.0000       0.104524         2.8442
  70   0.0000       0.120387         3.2759
  71   0.0000       0.125965         3.4277

MULLIKEN ATOMIC CHARGES
-----------------------
   0 S :    0.118450
   1 C :   -0.121051
   2 C :   -0.124433
   3 C :    0.074598
   4 C :   -0.187700
   5 H :    0.005627
   6 C :    0.042335
   7 H :    0.020378
   8 H :    0.043040
   9 C :   -0.052691
  10 H :    0.022956
  11 H :    0.029693
  12 C :   -0.061037
  13 H :    0.027772
  14 H :    0.043149
  15 H :    0.045687
  16 S :    0.131733
  17 C :   -0.040845
  18 C :   -0.013861
  19 C :   -0.029624
  20 C :   -0.203920
  21 H :   -0.019666
  22 C :    0.090763
  23 H :    0.018673
  24 H :    0.024994
  25 C :   -0.036493
  26 H :    0.027842
  27 H :    0.014717
  28 C :   -0.066889
  29 H :    0.043063
  30 H :    0.040625
  31 H :    0.021019
  32 H :    0.048240
  33 H :    0.022857
Sum of atomic charges:    0.0000000

LOEWDIN ATOMIC CHARGES
----------------------
   0 S :    0.396578
   1 C :   -0.207123
   2 C :   -0.062284
   3 C :   -0.052149
   4 C :   -0.189746
   5 H :    0.026093
   6 C :   -0.044570
   7 H :    0.038794
   8 H :    0.033871
   9 C :   -0.029728
  10 H :    0.022454
  11 H :    0.023930
  12 C :   -0.065192
  13 H :    0.021627
  14 H :    0.031647
  15 H :    0.019089
  16 S :    0.418943
  17 C :   -0.169860
  18 C :   -0.062376
  19 C :   -0.047717
  20 C :   -0.214387
  21 H :    0.019102
  22 C :   -0.027550
  23 H :    0.024496
  24 H :    0.032954
  25 C :   -0.026059
  26 H :    0.028080
  27 H :    0.011314
  28 C :   -0.069058
  29 H :    0.028572
  30 H :    0.028474
  31 H :    0.019646
  32 H :    0.027864
  33 H :    0.014273

  Mayer bond orders larger than 0.100000
B(  0-S ,  1-C ) :   1.1178 B(  0-S ,  4-C ) :   1.1500 B(  1-C ,  2-C ) :   1.6215
B(  1-C , 32-H ) :   0.9654 B(  2-C ,  3-C ) :   1.2244 B(  2-C ,  6-C ) :   1.0177
B(  3-C ,  4-C ) :   1.5838 B(  3-C ,  5-H ) :   0.9897 B(  4-C , 20-C ) :   1.0394
B(  6-C ,  7-H ) :   0.9399 B(  6-C ,  8-H ) :   0.9382 B(  6-C ,  9-C ) :   1.0553
B(  9-C , 10-H ) :   0.9606 B(  9-C , 11-H ) :   0.9611 B(  9-C , 12-C ) :   1.0709
B( 12-C , 13-H ) :   0.9759 B( 12-C , 14-H ) :   0.9730 B( 12-C , 15-H ) :   0.9764
B( 16-S , 17-C ) :   1.1538 B( 16-S , 20-C ) :   1.1538 B( 17-C , 18-C ) :   1.6011
B( 17-C , 20-C ) :   0.1004 B( 17-C , 33-H ) :   0.9693 B( 18-C , 19-C ) :   1.2714
B( 18-C , 21-H ) :   0.9948 B( 19-C , 20-C ) :   1.5909 B( 19-C , 22-C ) :   1.0300
B( 22-C , 23-H ) :   0.9269 B( 22-C , 24-H ) :   0.9198 B( 22-C , 25-C ) :   1.0762
B( 25-C , 26-H ) :   0.9553 B( 25-C , 27-H ) :   0.9604 B( 25-C , 28-C ) :   1.0744
B( 28-C , 29-H ) :   0.9745 B( 28-C , 30-H ) :   0.9778 B( 28-C , 31-H ) :   0.9724

Dispersion correction           -0.014352951
FINAL SINGLE POINT ENERGY     -1339.838125993567

DIPOLE MOMENT
-------------
                                X             Y             Z
Electronic contribution:     13.41939     -20.96379      -1.44509
Nuclear contribution   :    -13.74657      21.44395       1.67843
                        -----------------------------------------
Total Dipole Moment    :     -0.32718       0.48016       0.23334
                        -----------------------------------------
Magnitude (a.u.)       :      0.62614
Magnitude (Debye)      :      1.59151

Rotational constants in cm-1:     0.019491     0.008033     0.006537
Rotational constants in MHz :   584.314880   240.823563   195.969740

                             ****ORCA TERMINATED NORMALLY****
TOTAL RUN TIME: 0 days 0 hours 0 minutes 33 seconds 721 msec
