                         Program Version 4.2.1 -  RELEASE  -
|  1> ! wB97X-D3 SP def2-SVP
|  2> %pal
|  3> nprocs 16
|  4> end
|  5>
|  6> * xyz 0 1
|  7> S 	 7.68773 	 -15.7715 	 67.3149
|  8> C 	 8.85292 	 -16.9132 	 67.9924
|  9> C 	 8.71014 	 -17.0198 	 69.3695
| 10> C 	 7.7899 	 -16.1196 	 69.9029
| 11> C 	 7.27841 	 -15.3225 	 68.912
| 12> H 	 7.56989 	 -15.8569 	 70.8893
| 13> C 	 9.54924 	 -17.9485 	 70.1985
| 14> H 	 9.66004 	 -18.9047 	 69.6761
| 15> H 	 9.02854 	 -18.204 	 71.0895
| 16> C 	 10.9624 	 -17.5214 	 70.5452
| 17> H 	 10.8786 	 -16.6275 	 71.0871
| 18> H 	 11.3569 	 -18.2895 	 71.1542
| 19> C 	 11.9397 	 -17.2555 	 69.4221
| 20> H 	 11.619 	 -16.5473 	 68.7254
| 21> H 	 12.7925 	 -16.7587 	 69.7979
| 22> H 	 12.1836 	 -18.1383 	 68.8009
| 23> S 	 4.88306 	 -14.2213 	 68.1038
| 24> C 	 4.24181 	 -12.7951 	 68.9258
| 25> C 	 5.09298 	 -12.4028 	 69.9797
| 26> C 	 6.21463 	 -13.2303 	 70.0734
| 27> C 	 6.31784 	 -14.2968 	 69.1455
| 28> H 	 4.61315 	 -11.7163 	 70.7717
| 29> C 	 7.35676 	 -12.868 	 71.04
| 30> H 	 7.79947 	 -13.7965 	 71.4707
| 31> H 	 6.90372 	 -12.382 	 71.9034
| 32> C 	 8.41622 	 -11.9216 	 70.4747
| 33> H 	 9.06773 	 -11.4294 	 71.2383
| 34> H 	 7.88872 	 -11.0525 	 70.0826
| 35> C 	 9.1891 	 -12.4794 	 69.2526
| 36> H 	 8.5335 	 -13.1332 	 68.6053
| 37> H 	 10.0889 	 -12.9905 	 69.4882
| 38> H 	 9.37301 	 -11.6789 	 68.5669
| 39> H 	 9.6611 	 -17.3397 	 67.3888
| 40> H 	 3.27957 	 -12.4021 	 68.8011
| 41> *
| 42>
| 43>                          ****END OF INPUT****

CARTESIAN COORDINATES (ANGSTROEM)
---------------------------------
  S      7.687730  -15.771500   67.314900
  C      8.852920  -16.913200   67.992400
  C      8.710140  -17.019800   69.369500
  C      7.789900  -16.119600   69.902900
  C      7.278410  -15.322500   68.912000
  H      7.569890  -15.856900   70.889300
  C      9.549240  -17.948500   70.198500
  H      9.660040  -18.904700   69.676100
  H      9.028540  -18.204000   71.089500
  C     10.962400  -17.521400   70.545200
  H     10.878600  -16.627500   71.087100
  H     11.356900  -18.289500   71.154200
  C     11.939700  -17.255500   69.422100
  H     11.619000  -16.547300   68.725400
  H     12.792500  -16.758700   69.797900
  H     12.183600  -18.138300   68.800900
  S      4.883060  -14.221300   68.103800
  C      4.241810  -12.795100   68.925800
  C      5.092980  -12.402800   69.979700
  C      6.214630  -13.230300   70.073400
  C      6.317840  -14.296800   69.145500
  H      4.613150  -11.716300   70.771700
  C      7.356760  -12.868000   71.040000
  H      7.799470  -13.796500   71.470700
  H      6.903720  -12.382000   71.903400
  C      8.416220  -11.921600   70.474700
  H      9.067730  -11.429400   71.238300
  H      7.888720  -11.052500   70.082600
  C      9.189100  -12.479400   69.252600
  H      8.533500  -13.133200   68.605300
  H     10.088900  -12.990500   69.488200
  H      9.373010  -11.678900   68.566900
  H      9.661100  -17.339700   67.388800
  H      3.279570  -12.402100   68.801100

 Total Charge           Charge          ....    0
 Multiplicity           Mult            ....    1
 Number of Electrons    NEL             ....  134
 Basis Dimension        Dim             ....  322

ORBITAL ENERGIES
----------------

  NO   OCC          E(Eh)            E(eV)
   0   2.0000     -88.971278     -2421.0316
   1   2.0000     -88.967719     -2420.9347
   2   2.0000     -10.329574      -281.0820
   3   2.0000     -10.325147      -280.9615
   4   2.0000     -10.318019      -280.7676
   5   2.0000     -10.314760      -280.6789
   6   2.0000     -10.304935      -280.4115
   7   2.0000     -10.301342      -280.3138
   8   2.0000     -10.300849      -280.3004
   9   2.0000     -10.290858      -280.0285
  10   2.0000     -10.287733      -279.9434
  11   2.0000     -10.284732      -279.8618
  12   2.0000     -10.284471      -279.8547
  13   2.0000     -10.277126      -279.6548
  14   2.0000     -10.268741      -279.4267
  15   2.0000     -10.265533      -279.3394
  16   2.0000      -8.086261      -220.0383
  17   2.0000      -8.081565      -219.9106
  18   2.0000      -6.044545      -164.4804
  19   2.0000      -6.040843      -164.3797
  20   2.0000      -6.040010      -164.3570
  21   2.0000      -6.037128      -164.2786
  22   2.0000      -6.036047      -164.2492
  23   2.0000      -6.032600      -164.1554
  24   2.0000      -1.014803       -27.6142
  25   2.0000      -0.983298       -26.7569
  26   2.0000      -0.920282       -25.0421
  27   2.0000      -0.901081       -24.5197
  28   2.0000      -0.872944       -23.7540
  29   2.0000      -0.859504       -23.3883
  30   2.0000      -0.840960       -22.8837
  31   2.0000      -0.814270       -22.1574
  32   2.0000      -0.789882       -21.4938
  33   2.0000      -0.773385       -21.0449
  34   2.0000      -0.711928       -19.3725
  35   2.0000      -0.702207       -19.1080
  36   2.0000      -0.691682       -18.8216
  37   2.0000      -0.659873       -17.9561
  38   2.0000      -0.646138       -17.5823
  39   2.0000      -0.623330       -16.9617
  40   2.0000      -0.590477       -16.0677
  41   2.0000      -0.572963       -15.5911
  42   2.0000      -0.558962       -15.2101
  43   2.0000      -0.547636       -14.9019
  44   2.0000      -0.545074       -14.8322
  45   2.0000      -0.533902       -14.5282
  46   2.0000      -0.527016       -14.3408
  47   2.0000      -0.510003       -13.8779
  48   2.0000      -0.500341       -13.6150
  49   2.0000      -0.498513       -13.5652
  50   2.0000      -0.497891       -13.5483
  51   2.0000      -0.477255       -12.9868
  52   2.0000      -0.471990       -12.8435
  53   2.0000      -0.462478       -12.5847
  54   2.0000      -0.460488       -12.5305
  55   2.0000      -0.457614       -12.4523
  56   2.0000      -0.440576       -11.9887
  57   2.0000      -0.435009       -11.8372
  58   2.0000      -0.426290       -11.5999
  59   2.0000      -0.421960       -11.4821
  60   2.0000      -0.421613       -11.4727
  61   2.0000      -0.412084       -11.2134
  62   2.0000      -0.407539       -11.0897
  63   2.0000      -0.349205        -9.5024
  64   2.0000      -0.338519        -9.2116
  65   2.0000      -0.334050        -9.0900
  66   2.0000      -0.282356        -7.6833
  67   0.0000       0.021501         0.5851
  68   0.0000       0.062964         1.7133
  69   0.0000       0.100276         2.7286
  70   0.0000       0.118223         3.2170
  71   0.0000       0.129853         3.5335

MULLIKEN ATOMIC CHARGES
-----------------------
   0 S :    0.122383
   1 C :   -0.137472
   2 C :   -0.062795
   3 C :    0.046886
   4 C :   -0.158455
   5 H :   -0.007019
   6 C :    0.080492
   7 H :    0.017965
   8 H :    0.010839
   9 C :   -0.017454
  10 H :    0.008443
  11 H :    0.024146
  12 C :   -0.031208
  13 H :    0.011447
  14 H :    0.020933
  15 H :    0.028297
  16 S :    0.096663
  17 C :   -0.087887
  18 C :   -0.068771
  19 C :   -0.058720
  20 C :   -0.144758
  21 H :    0.062862
  22 C :    0.076300
  23 H :    0.015243
  24 H :    0.010388
  25 C :   -0.059622
  26 H :    0.034616
  27 H :    0.015054
  28 C :   -0.037021
  29 H :    0.036512
  30 H :    0.031680
  31 H :    0.017864
  32 H :    0.059128
  33 H :    0.043040
Sum of atomic charges:   -0.0000000

LOEWDIN ATOMIC CHARGES
----------------------
   0 S :    0.421704
   1 C :   -0.195715
   2 C :   -0.054326
   3 C :   -0.051749
   4 C :   -0.199426
   5 H :    0.024685
   6 C :   -0.031027
   7 H :    0.031195
   8 H :    0.027365
   9 C :   -0.028430
  10 H :    0.018058
  11 H :    0.023141
  12 C :   -0.063813
  13 H :    0.016681
  14 H :    0.026324
  15 H :    0.026570
  16 S :    0.393643
  17 C :   -0.175504
  18 C :   -0.085252
  19 C :   -0.065855
  20 C :   -0.191824
  21 H :    0.053440
  22 C :   -0.034405
  23 H :    0.024208
  24 H :    0.027726
  25 C :   -0.044757
  26 H :    0.028830
  27 H :    0.024191
  28 C :   -0.068409
  29 H :    0.033929
  30 H :    0.017463
  31 H :    0.023356
  32 H :    0.029606
  33 H :    0.018378

  Mayer bond orders larger than 0.100000
B(  0-S ,  1-C ) :   1.1253 B(  0-S ,  4-C ) :   1.1656 B(  1-C ,  2-C ) :   1.5921
B(  1-C ,  4-C ) :   0.1004 B(  1-C , 32-H ) :   0.9681 B(  2-C ,  3-C ) :   1.2392
B(  2-C ,  6-C ) :   1.0305 B(  3-C ,  4-C ) :   1.5432 B(  3-C ,  5-H ) :   1.0081
B(  4-C , 20-C ) :   1.0702 B(  6-C ,  7-H ) :   0.9337 B(  6-C ,  8-H ) :   0.9337
B(  6-C ,  9-C ) :   1.0836 B(  9-C , 10-H ) :   0.9489 B(  9-C , 11-H ) :   0.9516
B(  9-C , 12-C ) :   1.0966 B( 12-C , 13-H ) :   0.9643 B( 12-C , 14-H ) :   0.9667
B( 12-C , 15-H ) :   0.9733 B( 16-S , 17-C ) :   1.1683 B( 16-S , 20-C ) :   1.1384
B( 17-C , 18-C ) :   1.5833 B( 17-C , 20-C ) :   0.1158 B( 17-C , 33-H ) :   0.9706
B( 18-C , 19-C ) :   1.2903 B( 18-C , 21-H ) :   0.9682 B( 19-C , 20-C ) :   1.5526
B( 19-C , 22-C ) :   1.0434 B( 22-C , 23-H ) :   0.9379 B( 22-C , 24-H ) :   0.9275
B( 22-C , 25-C ) :   1.0721 B( 25-C , 26-H ) :   0.9556 B( 25-C , 27-H ) :   0.9540
B( 25-C , 28-C ) :   1.0720 B( 28-C , 29-H ) :   0.9680 B( 28-C , 30-H ) :   0.9787
B( 28-C , 31-H ) :   0.9729

Dispersion correction           -0.015983321
FINAL SINGLE POINT ENERGY     -1339.864871961403

DIPOLE MOMENT
-------------
                                X             Y             Z
Electronic contribution:    -23.17393      -0.81685     -12.91665
Nuclear contribution   :     23.48594       0.84160      13.44761
                        -----------------------------------------
Total Dipole Moment    :      0.31201       0.02475       0.53097
                        -----------------------------------------
Magnitude (a.u.)       :      0.61635
Magnitude (Debye)      :      1.56664

Rotational constants in cm-1:     0.023063     0.009128     0.007648
Rotational constants in MHz :   691.397770   273.647576   229.288154

                             ****ORCA TERMINATED NORMALLY****
TOTAL RUN TIME: 0 days 0 hours 0 minutes 36 seconds 36 msec
