                         Program Version 4.2.1 -  RELEASE  -
|  1> ! wB97X-D3 SP def2-SVP
|  2> %pal
|  3> nprocs 16
|  4> end
|  5>
|  6> * xyz 0 1
|  7> S 	 -5.2074 	 68.8166 	 51.028
|  8> C 	 -5.38482 	 67.7273 	 49.6413
|  9> C 	 -5.8682 	 66.4676 	 50.0556
| 10> C 	 -6.06241 	 66.4282 	 51.4648
| 11> C 	 -5.77245 	 67.6108 	 52.1561
| 12> H 	 -6.36433 	 65.5852 	 52.0875
| 13> C 	 -6.04623 	 65.243 	 49.1936
| 14> H 	 -5.58871 	 64.4638 	 49.7552
| 15> H 	 -5.47218 	 65.3372 	 48.3006
| 16> C 	 -7.51475 	 64.8335 	 48.9111
| 17> H 	 -8.02394 	 65.7871 	 48.6203
| 18> H 	 -7.51798 	 64.1933 	 48.0119
| 19> C 	 -8.29136 	 64.1895 	 50.1467
| 20> H 	 -8.33977 	 64.9889 	 50.8606
| 21> H 	 -9.36992 	 63.9513 	 50.015
| 22> H 	 -7.78556 	 63.3247 	 50.6029
| 23> S 	 -4.197 	 67.7723 	 54.2888
| 24> C 	 -4.85184 	 67.8425 	 55.9364
| 25> C 	 -6.24015 	 67.9026 	 55.8641
| 26> C 	 -6.7382 	 67.8274 	 54.5211
| 27> C 	 -5.75393 	 67.8261 	 53.5934
| 28> H 	 -6.82983 	 68.0169 	 56.732
| 29> C 	 -8.22536 	 67.8012 	 54.2286
| 30> H 	 -8.69501 	 67.9523 	 55.2127
| 31> H 	 -8.44691 	 66.7777 	 54.0182
| 32> C 	 -8.82453 	 68.5804 	 53.1118
| 33> H 	 -8.44373 	 68.1705 	 52.1994
| 34> H 	 -8.47037 	 69.5524 	 53.0622
| 35> C 	 -10.3599 	 68.398 	 53.0495
| 36> H 	 -10.6778 	 67.3204 	 53.1027
| 37> H 	 -10.645 	 68.7811 	 52.1315
| 38> H 	 -10.9108 	 68.9639 	 53.7584
| 39> H 	 -5.12466 	 68.0036 	 48.6509
| 40> H 	 -4.30041 	 67.8243 	 56.8354
| 41> *
| 42>
| 43>                          ****END OF INPUT****

CARTESIAN COORDINATES (ANGSTROEM)
---------------------------------
  S     -5.207400   68.816600   51.028000
  C     -5.384820   67.727300   49.641300
  C     -5.868200   66.467600   50.055600
  C     -6.062410   66.428200   51.464800
  C     -5.772450   67.610800   52.156100
  H     -6.364330   65.585200   52.087500
  C     -6.046230   65.243000   49.193600
  H     -5.588710   64.463800   49.755200
  H     -5.472180   65.337200   48.300600
  C     -7.514750   64.833500   48.911100
  H     -8.023940   65.787100   48.620300
  H     -7.517980   64.193300   48.011900
  C     -8.291360   64.189500   50.146700
  H     -8.339770   64.988900   50.860600
  H     -9.369920   63.951300   50.015000
  H     -7.785560   63.324700   50.602900
  S     -4.197000   67.772300   54.288800
  C     -4.851840   67.842500   55.936400
  C     -6.240150   67.902600   55.864100
  C     -6.738200   67.827400   54.521100
  C     -5.753930   67.826100   53.593400
  H     -6.829830   68.016900   56.732000
  C     -8.225360   67.801200   54.228600
  H     -8.695010   67.952300   55.212700
  H     -8.446910   66.777700   54.018200
  C     -8.824530   68.580400   53.111800
  H     -8.443730   68.170500   52.199400
  H     -8.470370   69.552400   53.062200
  C    -10.359900   68.398000   53.049500
  H    -10.677800   67.320400   53.102700
  H    -10.645000   68.781100   52.131500
  H    -10.910800   68.963900   53.758400
  H     -5.124660   68.003600   48.650900
  H     -4.300410   67.824300   56.835400

 Total Charge           Charge          ....    0
 Multiplicity           Mult            ....    1
 Number of Electrons    NEL             ....  134
 Basis Dimension        Dim             ....  322

ORBITAL ENERGIES
----------------

  NO   OCC          E(Eh)            E(eV)
   0   2.0000     -88.967389     -2420.9257
   1   2.0000     -88.962797     -2420.8008
   2   2.0000     -10.329272      -281.0738
   3   2.0000     -10.317872      -280.7636
   4   2.0000     -10.317248      -280.7466
   5   2.0000     -10.316917      -280.7376
   6   2.0000     -10.305729      -280.4331
   7   2.0000     -10.298074      -280.2248
   8   2.0000     -10.297966      -280.2219
   9   2.0000     -10.295335      -280.1503
  10   2.0000     -10.292465      -280.0722
  11   2.0000     -10.289380      -279.9883
  12   2.0000     -10.285601      -279.8854
  13   2.0000     -10.282818      -279.8097
  14   2.0000     -10.271635      -279.5054
  15   2.0000     -10.271520      -279.5023
  16   2.0000      -8.081564      -219.9105
  17   2.0000      -8.078074      -219.8156
  18   2.0000      -6.040046      -164.3580
  19   2.0000      -6.036678      -164.2663
  20   2.0000      -6.035968      -164.2470
  21   2.0000      -6.032578      -164.1548
  22   2.0000      -6.032394      -164.1498
  23   2.0000      -6.028789      -164.0517
  24   2.0000      -1.009527       -27.4706
  25   2.0000      -0.982187       -26.7267
  26   2.0000      -0.912801       -24.8386
  27   2.0000      -0.909192       -24.7404
  28   2.0000      -0.868063       -23.6212
  29   2.0000      -0.850875       -23.1535
  30   2.0000      -0.840682       -22.8761
  31   2.0000      -0.814904       -22.1747
  32   2.0000      -0.785190       -21.3661
  33   2.0000      -0.775142       -21.0927
  34   2.0000      -0.714016       -19.4294
  35   2.0000      -0.704068       -19.1587
  36   2.0000      -0.694634       -18.9019
  37   2.0000      -0.670262       -18.2388
  38   2.0000      -0.646294       -17.5866
  39   2.0000      -0.615287       -16.7428
  40   2.0000      -0.597929       -16.2705
  41   2.0000      -0.572069       -15.5668
  42   2.0000      -0.564568       -15.3627
  43   2.0000      -0.546124       -14.8608
  44   2.0000      -0.535506       -14.5718
  45   2.0000      -0.527153       -14.3446
  46   2.0000      -0.519597       -14.1389
  47   2.0000      -0.510469       -13.8906
  48   2.0000      -0.503977       -13.7139
  49   2.0000      -0.496170       -13.5015
  50   2.0000      -0.492014       -13.3884
  51   2.0000      -0.484651       -13.1880
  52   2.0000      -0.479295       -13.0423
  53   2.0000      -0.464505       -12.6398
  54   2.0000      -0.460621       -12.5341
  55   2.0000      -0.447832       -12.1861
  56   2.0000      -0.443676       -12.0730
  57   2.0000      -0.439843       -11.9687
  58   2.0000      -0.433844       -11.8055
  59   2.0000      -0.424747       -11.5580
  60   2.0000      -0.419349       -11.4111
  61   2.0000      -0.418795       -11.3960
  62   2.0000      -0.412161       -11.2155
  63   2.0000      -0.340252        -9.2587
  64   2.0000      -0.329832        -8.9752
  65   2.0000      -0.322608        -8.7786
  66   2.0000      -0.303555        -8.2601
  67   0.0000       0.038799         1.0558
  68   0.0000       0.060191         1.6379
  69   0.0000       0.117168         3.1883
  70   0.0000       0.122702         3.3389
  71   0.0000       0.127609         3.4724

MULLIKEN ATOMIC CHARGES
-----------------------
   0 S :    0.111791
   1 C :   -0.116610
   2 C :   -0.092703
   3 C :    0.044824
   4 C :   -0.205731
   5 H :    0.018683
   6 C :    0.102985
   7 H :    0.020981
   8 H :    0.014491
   9 C :   -0.083213
  10 H :    0.036100
  11 H :    0.038385
  12 C :   -0.068821
  13 H :    0.024932
  14 H :    0.043311
  15 H :    0.041133
  16 S :    0.112939
  17 C :   -0.078378
  18 C :   -0.026943
  19 C :   -0.033377
  20 C :   -0.164548
  21 H :    0.005221
  22 C :    0.097206
  23 H :    0.004253
  24 H :    0.011850
  25 C :   -0.030023
  26 H :    0.026408
  27 H :    0.009258
  28 C :   -0.010381
  29 H :    0.031873
  30 H :    0.010244
  31 H :    0.023786
  32 H :    0.036843
  33 H :    0.043230
Sum of atomic charges:   -0.0000000

LOEWDIN ATOMIC CHARGES
----------------------
   0 S :    0.405529
   1 C :   -0.188642
   2 C :   -0.059620
   3 C :   -0.066313
   4 C :   -0.203345
   5 H :    0.033278
   6 C :   -0.028122
   7 H :    0.029307
   8 H :    0.028560
   9 C :   -0.036954
  10 H :    0.029256
  11 H :    0.023583
  12 C :   -0.074481
  13 H :    0.021283
  14 H :    0.033091
  15 H :    0.026144
  16 S :    0.421415
  17 C :   -0.170374
  18 C :   -0.063424
  19 C :   -0.055521
  20 C :   -0.223417
  21 H :    0.024410
  22 C :   -0.032695
  23 H :    0.027974
  24 H :    0.030453
  25 C :   -0.033205
  26 H :    0.026381
  27 H :    0.015735
  28 C :   -0.051359
  29 H :    0.031959
  30 H :    0.017727
  31 H :    0.018909
  32 H :    0.020104
  33 H :    0.022374

  Mayer bond orders larger than 0.100000
B(  0-S ,  1-C ) :   1.1481 B(  0-S ,  4-C ) :   1.1629 B(  1-C ,  2-C ) :   1.5768
B(  1-C ,  4-C ) :   0.1088 B(  1-C , 32-H ) :   0.9773 B(  2-C ,  3-C ) :   1.2475
B(  2-C ,  6-C ) :   1.0268 B(  3-C ,  4-C ) :   1.5738 B(  3-C ,  5-H ) :   0.9870
B(  4-C , 20-C ) :   0.9959 B(  6-C ,  7-H ) :   0.9390 B(  6-C ,  8-H ) :   0.9378
B(  6-C ,  9-C ) :   1.0554 B(  9-C , 10-H ) :   0.9586 B(  9-C , 11-H ) :   0.9618
B(  9-C , 12-C ) :   1.0607 B( 12-C , 13-H ) :   0.9717 B( 12-C , 14-H ) :   0.9740
B( 12-C , 15-H ) :   0.9781 B( 16-S , 17-C ) :   1.1567 B( 16-S , 20-C ) :   1.1509
B( 17-C , 18-C ) :   1.6001 B( 17-C , 33-H ) :   0.9749 B( 18-C , 19-C ) :   1.2414
B( 18-C , 21-H ) :   0.9948 B( 19-C , 20-C ) :   1.6218 B( 19-C , 22-C ) :   1.0360
B( 22-C , 23-H ) :   0.9327 B( 22-C , 24-H ) :   0.9115 B( 22-C , 25-C ) :   1.0749
B( 25-C , 26-H ) :   0.9367 B( 25-C , 27-H ) :   0.9579 B( 25-C , 28-C ) :   1.0854
B( 28-C , 29-H ) :   0.9732 B( 28-C , 30-H ) :   0.9715 B( 28-C , 31-H ) :   0.9763

Dispersion correction           -0.015290545
FINAL SINGLE POINT ENERGY     -1339.878807492115

DIPOLE MOMENT
-------------
                                X             Y             Z
Electronic contribution:     24.34303      11.90573       7.72809
Nuclear contribution   :    -24.76473     -12.29805      -7.78038
                        -----------------------------------------
Total Dipole Moment    :     -0.42170      -0.39231      -0.05229
                        -----------------------------------------
Magnitude (a.u.)       :      0.57834
Magnitude (Debye)      :      1.47002

Rotational constants in cm-1:     0.017142     0.009874     0.007918
Rotational constants in MHz :   513.899830   296.014910   237.389587

                             ****ORCA TERMINATED NORMALLY****
TOTAL RUN TIME: 0 days 0 hours 0 minutes 33 seconds 156 msec
