                         Program Version 4.2.1 -  RELEASE  -
|  1> ! wB97X-D3 SP def2-SVP
|  2> %pal
|  3> nprocs 16
|  4> end
|  5>
|  6> * xyz 0 1
|  7> S 	 14.1125 	 -3.11674 	 63.6294
|  8> C 	 14.0115 	 -4.47823 	 62.4667
|  9> C 	 13.5945 	 -4.11839 	 61.2047
| 10> C 	 13.3797 	 -2.70237 	 61.1547
| 11> C 	 13.6334 	 -1.96548 	 62.3509
| 12> H 	 12.9116 	 -2.21185 	 60.2557
| 13> C 	 13.4902 	 -5.10039 	 60.0022
| 14> H 	 12.4615 	 -5.40753 	 60.0795
| 15> H 	 14.0877 	 -6.00653 	 60.2238
| 16> C 	 13.706 	 -4.49783 	 58.6418
| 17> H 	 12.8741 	 -3.82233 	 58.4709
| 18> H 	 14.6652 	 -3.89589 	 58.5066
| 19> C 	 13.6326 	 -5.61481 	 57.5913
| 20> H 	 12.6714 	 -6.0993 	 57.5938
| 21> H 	 13.8164 	 -5.29629 	 56.4994
| 22> H 	 14.4353 	 -6.25672 	 57.8785
| 23> S 	 14.8838 	 0.393467 	 63.0982
| 24> C 	 13.8948 	 1.77835 	 63.2477
| 25> C 	 12.6129 	 1.58465 	 62.8465
| 26> C 	 12.3387 	 0.282988 	 62.4718
| 27> C 	 13.4592 	 -0.565822 	 62.6038
| 28> H 	 11.8484 	 2.3484 	 62.8934
| 29> C 	 10.9132 	 -0.155729 	 62.0696
| 30> H 	 10.8338 	 -1.24256 	 61.7814
| 31> H 	 10.7058 	 0.291711 	 61.0824
| 32> C 	 9.88294 	 0.185837 	 63.1616
| 33> H 	 9.95666 	 1.28397 	 63.2949
| 34> H 	 10.2046 	 -0.357125 	 64.0581
| 35> C 	 8.50666 	 -0.190568 	 62.5813
| 36> H 	 7.73926 	 -0.005785 	 63.2791
| 37> H 	 8.54961 	 -1.21793 	 62.3085
| 38> H 	 8.23052 	 0.324354 	 61.7264
| 39> H 	 14.1325 	 -5.56083 	 62.5867
| 40> H 	 14.1994 	 2.65042 	 63.7543
| 41> *
| 42>
| 43>                          ****END OF INPUT****

CARTESIAN COORDINATES (ANGSTROEM)
---------------------------------
  S     14.112500   -3.116740   63.629400
  C     14.011500   -4.478230   62.466700
  C     13.594500   -4.118390   61.204700
  C     13.379700   -2.702370   61.154700
  C     13.633400   -1.965480   62.350900
  H     12.911600   -2.211850   60.255700
  C     13.490200   -5.100390   60.002200
  H     12.461500   -5.407530   60.079500
  H     14.087700   -6.006530   60.223800
  C     13.706000   -4.497830   58.641800
  H     12.874100   -3.822330   58.470900
  H     14.665200   -3.895890   58.506600
  C     13.632600   -5.614810   57.591300
  H     12.671400   -6.099300   57.593800
  H     13.816400   -5.296290   56.499400
  H     14.435300   -6.256720   57.878500
  S     14.883800    0.393467   63.098200
  C     13.894800    1.778350   63.247700
  C     12.612900    1.584650   62.846500
  C     12.338700    0.282988   62.471800
  C     13.459200   -0.565822   62.603800
  H     11.848400    2.348400   62.893400
  C     10.913200   -0.155729   62.069600
  H     10.833800   -1.242560   61.781400
  H     10.705800    0.291711   61.082400
  C      9.882940    0.185837   63.161600
  H      9.956660    1.283970   63.294900
  H     10.204600   -0.357125   64.058100
  C      8.506660   -0.190568   62.581300
  H      7.739260   -0.005785   63.279100
  H      8.549610   -1.217930   62.308500
  H      8.230520    0.324354   61.726400
  H     14.132500   -5.560830   62.586700
  H     14.199400    2.650420   63.754300

 Total Charge           Charge          ....    0
 Multiplicity           Mult            ....    1
 Number of Electrons    NEL             ....  134
 Basis Dimension        Dim             ....  322

ORBITAL ENERGIES
----------------

  NO   OCC          E(Eh)            E(eV)
   0   2.0000     -88.968796     -2420.9640
   1   2.0000     -88.964516     -2420.8476
   2   2.0000     -10.332699      -281.1670
   3   2.0000     -10.325218      -280.9635
   4   2.0000     -10.314365      -280.6681
   5   2.0000     -10.308509      -280.5088
   6   2.0000     -10.301847      -280.3275
   7   2.0000     -10.301476      -280.3174
   8   2.0000     -10.300910      -280.3020
   9   2.0000     -10.299215      -280.2559
  10   2.0000     -10.294280      -280.1216
  11   2.0000     -10.293083      -280.0890
  12   2.0000     -10.289999      -280.0051
  13   2.0000     -10.285320      -279.8778
  14   2.0000     -10.282980      -279.8141
  15   2.0000     -10.266809      -279.3741
  16   2.0000      -8.081792      -219.9167
  17   2.0000      -8.079609      -219.8574
  18   2.0000      -6.040513      -164.3707
  19   2.0000      -6.037956      -164.3011
  20   2.0000      -6.036573      -164.2635
  21   2.0000      -6.034090      -164.1959
  22   2.0000      -6.032386      -164.1496
  23   2.0000      -6.030507      -164.0984
  24   2.0000      -1.002945       -27.2915
  25   2.0000      -0.977342       -26.5948
  26   2.0000      -0.916829       -24.9482
  27   2.0000      -0.910003       -24.7625
  28   2.0000      -0.870996       -23.7010
  29   2.0000      -0.853512       -23.2252
  30   2.0000      -0.840229       -22.8638
  31   2.0000      -0.806638       -21.9497
  32   2.0000      -0.783205       -21.3121
  33   2.0000      -0.771345       -20.9894
  34   2.0000      -0.713872       -19.4254
  35   2.0000      -0.701893       -19.0995
  36   2.0000      -0.690380       -18.7862
  37   2.0000      -0.656434       -17.8625
  38   2.0000      -0.630828       -17.1657
  39   2.0000      -0.611498       -16.6397
  40   2.0000      -0.602560       -16.3965
  41   2.0000      -0.578132       -15.7318
  42   2.0000      -0.564709       -15.3665
  43   2.0000      -0.564146       -15.3512
  44   2.0000      -0.528038       -14.3687
  45   2.0000      -0.522031       -14.2052
  46   2.0000      -0.512883       -13.9563
  47   2.0000      -0.507055       -13.7977
  48   2.0000      -0.501784       -13.6542
  49   2.0000      -0.501159       -13.6372
  50   2.0000      -0.493864       -13.4387
  51   2.0000      -0.478228       -13.0132
  52   2.0000      -0.465559       -12.6685
  53   2.0000      -0.460023       -12.5179
  54   2.0000      -0.454769       -12.3749
  55   2.0000      -0.454389       -12.3646
  56   2.0000      -0.447130       -12.1670
  57   2.0000      -0.441300       -12.0084
  58   2.0000      -0.435030       -11.8378
  59   2.0000      -0.426088       -11.5944
  60   2.0000      -0.422370       -11.4933
  61   2.0000      -0.419807       -11.4235
  62   2.0000      -0.412369       -11.2211
  63   2.0000      -0.337814        -9.1924
  64   2.0000      -0.332739        -9.0543
  65   2.0000      -0.328523        -8.9396
  66   2.0000      -0.290674        -7.9096
  67   0.0000       0.027732         0.7546
  68   0.0000       0.065775         1.7898
  69   0.0000       0.115539         3.1440
  70   0.0000       0.122726         3.3395
  71   0.0000       0.129909         3.5350

MULLIKEN ATOMIC CHARGES
-----------------------
   0 S :    0.115748
   1 C :   -0.116843
   2 C :   -0.113905
   3 C :    0.019738
   4 C :   -0.167270
   5 H :    0.028912
   6 C :    0.070721
   7 H :    0.034744
   8 H :    0.026890
   9 C :   -0.100254
  10 H :    0.030582
  11 H :    0.055628
  12 C :   -0.049382
  13 H :    0.030957
  14 H :    0.045523
  15 H :    0.028279
  16 S :    0.115811
  17 C :   -0.065459
  18 C :   -0.042111
  19 C :    0.010434
  20 C :   -0.194774
  21 H :    0.012821
  22 C :    0.019961
  23 H :    0.026709
  24 H :    0.029637
  25 C :   -0.099421
  26 H :    0.033084
  27 H :    0.051413
  28 C :    0.034467
  29 H :    0.022639
  30 H :    0.016444
  31 H :    0.007744
  32 H :    0.039089
  33 H :    0.041447
Sum of atomic charges:   -0.0000000

LOEWDIN ATOMIC CHARGES
----------------------
   0 S :    0.382316
   1 C :   -0.194796
   2 C :   -0.067452
   3 C :   -0.064767
   4 C :   -0.194145
   5 H :    0.035283
   6 C :   -0.029240
   7 H :    0.036124
   8 H :    0.031150
   9 C :   -0.047602
  10 H :    0.021841
  11 H :    0.035433
  12 C :   -0.064763
  13 H :    0.022254
  14 H :    0.034734
  15 H :    0.021434
  16 S :    0.413198
  17 C :   -0.184593
  18 C :   -0.075853
  19 C :   -0.047524
  20 C :   -0.203018
  21 H :    0.030473
  22 C :   -0.037827
  23 H :    0.030807
  24 H :    0.030415
  25 C :   -0.033432
  26 H :    0.023345
  27 H :    0.032722
  28 C :   -0.051800
  29 H :    0.020606
  30 H :    0.023574
  31 H :    0.017759
  32 H :    0.032105
  33 H :    0.021237

  Mayer bond orders larger than 0.100000
B(  0-S ,  1-C ) :   1.1257 B(  0-S ,  4-C ) :   1.1327 B(  1-C ,  2-C ) :   1.6512
B(  1-C ,  4-C ) :   0.1019 B(  1-C , 32-H ) :   0.9563 B(  2-C ,  3-C ) :   1.2572
B(  2-C ,  6-C ) :   0.9917 B(  3-C ,  4-C ) :   1.5581 B(  3-C ,  5-H ) :   0.9792
B(  4-C , 20-C ) :   1.0747 B(  6-C ,  7-H ) :   0.9252 B(  6-C ,  8-H ) :   0.9496
B(  6-C ,  9-C ) :   1.0721 B(  9-C , 10-H ) :   0.9414 B(  9-C , 11-H ) :   0.9614
B(  9-C , 12-C ) :   1.0797 B( 12-C , 13-H ) :   0.9742 B( 12-C , 14-H ) :   0.9745
B( 12-C , 15-H ) :   0.9772 B( 16-S , 17-C ) :   1.1750 B( 16-S , 20-C ) :   1.1407
B( 17-C , 18-C ) :   1.5808 B( 17-C , 20-C ) :   0.1054 B( 17-C , 33-H ) :   0.9680
B( 18-C , 19-C ) :   1.2797 B( 18-C , 21-H ) :   0.9898 B( 19-C , 20-C ) :   1.5619
B( 19-C , 22-C ) :   1.0250 B( 22-C , 23-H ) :   0.9379 B( 22-C , 24-H ) :   0.9369
B( 22-C , 25-C ) :   1.0523 B( 25-C , 26-H ) :   0.9550 B( 25-C , 27-H ) :   0.9576
B( 25-C , 28-C ) :   1.0820 B( 28-C , 29-H ) :   0.9716 B( 28-C , 30-H ) :   0.9709
B( 28-C , 31-H ) :   0.9710

Dispersion correction           -0.013434250
FINAL SINGLE POINT ENERGY     -1339.870248079698

DIPOLE MOMENT
-------------
                                X             Y             Z
Electronic contribution:     19.04559       8.56289      18.13450
Nuclear contribution   :    -19.67886      -8.66024     -18.60185
                        -----------------------------------------
Total Dipole Moment    :     -0.63327      -0.09735      -0.46735
                        -----------------------------------------
Magnitude (a.u.)       :      0.79305
Magnitude (Debye)      :      2.01577

Rotational constants in cm-1:     0.017115     0.007788     0.006549
Rotational constants in MHz :   513.104970   233.485214   196.323159

                             ****ORCA TERMINATED NORMALLY****
TOTAL RUN TIME: 0 days 0 hours 0 minutes 33 seconds 369 msec
