                         Program Version 4.2.1 -  RELEASE  -
|  1> ! wB97X-D3 SP def2-SVP
|  2> %pal
|  3> nprocs 16
|  4> end
|  5>
|  6> * xyz 0 1
|  7> S 	 -31.9996 	 66.196 	 98.7231
|  8> C 	 -33.3556 	 66.1702 	 99.7809
|  9> C 	 -33.19 	 66.9863 	 100.875
| 10> C 	 -31.985 	 67.7689 	 100.694
| 11> C 	 -31.2359 	 67.4967 	 99.6
| 12> H 	 -31.5886 	 68.4836 	 101.445
| 13> C 	 -34.1717 	 67.0388 	 102.081
| 14> H 	 -33.5087 	 67.1365 	 102.951
| 15> H 	 -34.8087 	 66.1476 	 102.203
| 16> C 	 -35.19 	 68.2447 	 102.006
| 17> H 	 -35.5869 	 68.4283 	 101.003
| 18> H 	 -36.1881 	 67.8757 	 102.25
| 19> C 	 -34.8291 	 69.5894 	 102.645
| 20> H 	 -34.0541 	 70.0869 	 102.139
| 21> H 	 -35.6175 	 70.3589 	 102.529
| 22> H 	 -34.6949 	 69.4863 	 103.672
| 23> S 	 -30.0558 	 69.1857 	 97.754
| 24> C 	 -28.2695 	 69.4425 	 97.9166
| 25> C 	 -27.7462 	 68.6997 	 98.9389
| 26> C 	 -28.7397 	 67.854 	 99.6107
| 27> C 	 -30.0074 	 68.0637 	 99.1382
| 28> H 	 -26.6996 	 68.7909 	 99.2487
| 29> C 	 -28.3487 	 66.9119 	 100.732
| 30> H 	 -29.285 	 66.453 	 101.153
| 31> H 	 -27.8784 	 67.4514 	 101.493
| 32> C 	 -27.5503 	 65.6278 	 100.33
| 33> H 	 -27.3147 	 65.1105 	 101.206
| 34> H 	 -26.6593 	 65.9047 	 99.9244
| 35> C 	 -28.3513 	 64.6623 	 99.4236
| 36> H 	 -29.3164 	 64.523 	 99.8249
| 37> H 	 -27.9685 	 63.6249 	 99.4833
| 38> H 	 -28.4753 	 65.01 	 98.4068
| 39> H 	 -34.1326 	 65.5098 	 99.537
| 40> H 	 -27.7074 	 70.1306 	 97.3448
| 41> *
| 42>
| 43>                          ****END OF INPUT****

CARTESIAN COORDINATES (ANGSTROEM)
---------------------------------
  S    -31.999600   66.196000   98.723100
  C    -33.355600   66.170200   99.780900
  C    -33.190000   66.986300  100.875000
  C    -31.985000   67.768900  100.694000
  C    -31.235900   67.496700   99.600000
  H    -31.588600   68.483600  101.445000
  C    -34.171700   67.038800  102.081000
  H    -33.508700   67.136500  102.951000
  H    -34.808700   66.147600  102.203000
  C    -35.190000   68.244700  102.006000
  H    -35.586900   68.428300  101.003000
  H    -36.188100   67.875700  102.250000
  C    -34.829100   69.589400  102.645000
  H    -34.054100   70.086900  102.139000
  H    -35.617500   70.358900  102.529000
  H    -34.694900   69.486300  103.672000
  S    -30.055800   69.185700   97.754000
  C    -28.269500   69.442500   97.916600
  C    -27.746200   68.699700   98.938900
  C    -28.739700   67.854000   99.610700
  C    -30.007400   68.063700   99.138200
  H    -26.699600   68.790900   99.248700
  C    -28.348700   66.911900  100.732000
  H    -29.285000   66.453000  101.153000
  H    -27.878400   67.451400  101.493000
  C    -27.550300   65.627800  100.330000
  H    -27.314700   65.110500  101.206000
  H    -26.659300   65.904700   99.924400
  C    -28.351300   64.662300   99.423600
  H    -29.316400   64.523000   99.824900
  H    -27.968500   63.624900   99.483300
  H    -28.475300   65.010000   98.406800
  H    -34.132600   65.509800   99.537000
  H    -27.707400   70.130600   97.344800

 Total Charge           Charge          ....    0
 Multiplicity           Mult            ....    1
 Number of Electrons    NEL             ....  134
 Basis Dimension        Dim             ....  322

ORBITAL ENERGIES
----------------

  NO   OCC          E(Eh)            E(eV)
   0   2.0000     -88.963307     -2420.8147
   1   2.0000     -88.958293     -2420.6782
   2   2.0000     -10.323967      -280.9294
   3   2.0000     -10.320523      -280.8357
   4   2.0000     -10.320317      -280.8301
   5   2.0000     -10.307600      -280.4841
   6   2.0000     -10.304654      -280.4039
   7   2.0000     -10.304598      -280.4024
   8   2.0000     -10.304542      -280.4008
   9   2.0000     -10.298197      -280.2282
  10   2.0000     -10.295710      -280.1605
  11   2.0000     -10.288018      -279.9512
  12   2.0000     -10.286904      -279.9209
  13   2.0000     -10.274177      -279.5746
  14   2.0000     -10.271682      -279.5067
  15   2.0000     -10.268230      -279.4127
  16   2.0000      -8.076880      -219.7831
  17   2.0000      -8.074124      -219.7081
  18   2.0000      -6.035627      -164.2377
  19   2.0000      -6.032480      -164.1521
  20   2.0000      -6.031686      -164.1305
  21   2.0000      -6.028411      -164.0414
  22   2.0000      -6.027306      -164.0113
  23   2.0000      -6.025038      -163.9496
  24   2.0000      -1.006620       -27.3915
  25   2.0000      -0.978429       -26.6244
  26   2.0000      -0.903198       -24.5773
  27   2.0000      -0.902052       -24.5461
  28   2.0000      -0.872237       -23.7348
  29   2.0000      -0.845403       -23.0046
  30   2.0000      -0.841181       -22.8897
  31   2.0000      -0.817667       -22.2499
  32   2.0000      -0.785319       -21.3696
  33   2.0000      -0.772396       -21.0180
  34   2.0000      -0.711496       -19.3608
  35   2.0000      -0.707068       -19.2403
  36   2.0000      -0.697117       -18.9695
  37   2.0000      -0.658681       -17.9236
  38   2.0000      -0.651713       -17.7340
  39   2.0000      -0.613898       -16.7050
  40   2.0000      -0.594934       -16.1890
  41   2.0000      -0.564064       -15.3490
  42   2.0000      -0.553590       -15.0639
  43   2.0000      -0.548665       -14.9299
  44   2.0000      -0.543375       -14.7860
  45   2.0000      -0.535174       -14.5628
  46   2.0000      -0.517336       -14.0774
  47   2.0000      -0.511112       -13.9081
  48   2.0000      -0.501868       -13.6565
  49   2.0000      -0.495473       -13.4825
  50   2.0000      -0.492992       -13.4150
  51   2.0000      -0.478088       -13.0094
  52   2.0000      -0.467914       -12.7326
  53   2.0000      -0.461772       -12.5655
  54   2.0000      -0.456587       -12.4244
  55   2.0000      -0.444559       -12.0971
  56   2.0000      -0.442781       -12.0487
  57   2.0000      -0.436982       -11.8909
  58   2.0000      -0.433168       -11.7871
  59   2.0000      -0.425915       -11.5897
  60   2.0000      -0.420177       -11.4336
  61   2.0000      -0.417557       -11.3623
  62   2.0000      -0.399337       -10.8665
  63   2.0000      -0.337024        -9.1709
  64   2.0000      -0.326937        -8.8964
  65   2.0000      -0.323773        -8.8103
  66   2.0000      -0.309539        -8.4230
  67   0.0000       0.045071         1.2264
  68   0.0000       0.060192         1.6379
  69   0.0000       0.112133         3.0513
  70   0.0000       0.117012         3.1841
  71   0.0000       0.127562         3.4711

MULLIKEN ATOMIC CHARGES
-----------------------
   0 S :    0.106330
   1 C :   -0.121779
   2 C :   -0.069905
   3 C :    0.038425
   4 C :   -0.193501
   5 H :    0.021021
   6 C :    0.074225
   7 H :    0.035180
   8 H :    0.033923
   9 C :   -0.078468
  10 H :    0.012116
  11 H :    0.006000
  12 C :   -0.006238
  13 H :    0.026900
  14 H :    0.023435
  15 H :    0.025010
  16 S :    0.097790
  17 C :   -0.073724
  18 C :   -0.028256
  19 C :   -0.014887
  20 C :   -0.169322
  21 H :    0.029429
  22 C :    0.051997
  23 H :    0.030974
  24 H :    0.020028
  25 C :   -0.001617
  26 H :    0.011098
  27 H :    0.000177
  28 C :   -0.047925
  29 H :    0.006522
  30 H :    0.032179
  31 H :    0.045918
  32 H :    0.032700
  33 H :    0.044245
Sum of atomic charges:   -0.0000000

LOEWDIN ATOMIC CHARGES
----------------------
   0 S :    0.415913
   1 C :   -0.189184
   2 C :   -0.065246
   3 C :   -0.062007
   4 C :   -0.205523
   5 H :    0.036370
   6 C :   -0.023758
   7 H :    0.033956
   8 H :    0.036718
   9 C :   -0.057531
  10 H :    0.028934
  11 H :    0.024190
  12 C :   -0.060517
  13 H :    0.021764
  14 H :    0.034564
  15 H :    0.016218
  16 S :    0.362474
  17 C :   -0.153348
  18 C :   -0.068323
  19 C :   -0.047299
  20 C :   -0.195099
  21 H :    0.035280
  22 C :   -0.027108
  23 H :    0.036221
  24 H :    0.021851
  25 C :   -0.021378
  26 H :    0.019614
  27 H :    0.005515
  28 C :   -0.063016
  29 H :    0.015050
  30 H :    0.031416
  31 H :    0.026361
  32 H :    0.014924
  33 H :    0.022002

  Mayer bond orders larger than 0.100000
B(  0-S ,  1-C ) :   1.1632 B(  0-S ,  4-C ) :   1.1476 B(  1-C ,  2-C ) :   1.5982
B(  1-C , 32-H ) :   0.9811 B(  2-C ,  3-C ) :   1.2278 B(  2-C ,  6-C ) :   1.0181
B(  3-C ,  4-C ) :   1.6195 B(  3-C ,  5-H ) :   0.9891 B(  4-C , 20-C ) :   1.0191
B(  6-C ,  7-H ) :   0.9482 B(  6-C ,  8-H ) :   0.9492 B(  6-C ,  9-C ) :   1.0466
B(  9-C , 10-H ) :   0.9481 B(  9-C , 11-H ) :   0.9536 B(  9-C , 12-C ) :   1.0817
B( 12-C , 13-H ) :   0.9744 B( 12-C , 14-H ) :   0.9668 B( 12-C , 15-H ) :   0.9785
B( 16-S , 17-C ) :   1.1202 B( 16-S , 20-C ) :   1.1131 B( 17-C , 18-C ) :   1.6673
B( 17-C , 33-H ) :   0.9719 B( 18-C , 19-C ) :   1.1780 B( 18-C , 21-H ) :   0.9834
B( 19-C , 20-C ) :   1.6601 B( 19-C , 22-C ) :   1.0473 B( 22-C , 23-H ) :   0.9331
B( 22-C , 24-H ) :   0.9352 B( 22-C , 25-C ) :   1.0760 B( 25-C , 26-H ) :   0.9526
B( 25-C , 27-H ) :   0.9568 B( 25-C , 28-C ) :   1.0730 B( 28-C , 29-H ) :   0.9707
B( 28-C , 30-H ) :   0.9739 B( 28-C , 31-H ) :   0.9778

Dispersion correction           -0.015140713
FINAL SINGLE POINT ENERGY     -1339.866610932266

DIPOLE MOMENT
-------------
                                X             Y             Z
Electronic contribution:      3.79051       4.34049     -17.79768
Nuclear contribution   :     -3.74332      -4.38177      18.41266
                        -----------------------------------------
Total Dipole Moment    :      0.04718      -0.04128       0.61499
                        -----------------------------------------
Magnitude (a.u.)       :      0.61817
Magnitude (Debye)      :      1.57128

Rotational constants in cm-1:     0.020196     0.008193     0.007315
Rotational constants in MHz :   605.459946   245.606408   219.284388

                             ****ORCA TERMINATED NORMALLY****
TOTAL RUN TIME: 0 days 0 hours 0 minutes 29 seconds 890 msec
