                         Program Version 4.2.1 -  RELEASE  -
|  1> ! wB97X-D3 SP def2-SVP
|  2> %pal
|  3> nprocs 16
|  4> end
|  5>
|  6> * xyz 0 1
|  7> S 	 -47.2295 	 63.7304 	 140.109
|  8> C 	 -45.576 	 63.4383 	 140.622
|  9> C 	 -45.0194 	 64.4882 	 141.267
| 10> C 	 -45.9023 	 65.5876 	 141.3
| 11> C 	 -47.1278 	 65.3615 	 140.8
| 12> H 	 -45.6511 	 66.4748 	 141.79
| 13> C 	 -43.6945 	 64.5806 	 141.867
| 14> H 	 -43.4861 	 65.5761 	 142.212
| 15> H 	 -42.9295 	 64.4845 	 141.054
| 16> C 	 -43.4631 	 63.5033 	 142.968
| 17> H 	 -44.2478 	 63.475 	 143.671
| 18> H 	 -43.3893 	 62.5592 	 142.403
| 19> C 	 -42.2197 	 63.7189 	 143.761
| 20> H 	 -41.3295 	 63.6482 	 143.231
| 21> H 	 -42.139 	 64.7533 	 144.067
| 22> H 	 -42.1095 	 63.004 	 144.576
| 23> S 	 -49.7279 	 65.8795 	 140.116
| 24> C 	 -50.5595 	 67.3289 	 140.659
| 25> C 	 -49.6496 	 68.2006 	 141.189
| 26> C 	 -48.3464 	 67.5441 	 141.458
| 27> C 	 -48.1767 	 66.3597 	 140.809
| 28> H 	 -49.8645 	 69.145 	 141.631
| 29> C 	 -47.3916 	 68.0979 	 142.468
| 30> H 	 -46.411 	 68.3319 	 142.014
| 31> H 	 -47.0879 	 67.3721 	 143.237
| 32> C 	 -47.8245 	 69.3001 	 143.294
| 33> H 	 -48.8758 	 69.2422 	 143.589
| 34> H 	 -47.8324 	 70.1665 	 142.632
| 35> C 	 -46.7587 	 69.6905 	 144.364
| 36> H 	 -46.799 	 68.9375 	 145.195
| 37> H 	 -47.0428 	 70.6714 	 144.783
| 38> H 	 -45.769 	 69.7091 	 143.973
| 39> H 	 -44.9784 	 62.5938 	 140.277
| 40> H 	 -51.6085 	 67.4552 	 140.575
| 41> *
| 42>
| 43>                          ****END OF INPUT****

CARTESIAN COORDINATES (ANGSTROEM)
---------------------------------
  S    -47.229500   63.730400  140.109000
  C    -45.576000   63.438300  140.622000
  C    -45.019400   64.488200  141.267000
  C    -45.902300   65.587600  141.300000
  C    -47.127800   65.361500  140.800000
  H    -45.651100   66.474800  141.790000
  C    -43.694500   64.580600  141.867000
  H    -43.486100   65.576100  142.212000
  H    -42.929500   64.484500  141.054000
  C    -43.463100   63.503300  142.968000
  H    -44.247800   63.475000  143.671000
  H    -43.389300   62.559200  142.403000
  C    -42.219700   63.718900  143.761000
  H    -41.329500   63.648200  143.231000
  H    -42.139000   64.753300  144.067000
  H    -42.109500   63.004000  144.576000
  S    -49.727900   65.879500  140.116000
  C    -50.559500   67.328900  140.659000
  C    -49.649600   68.200600  141.189000
  C    -48.346400   67.544100  141.458000
  C    -48.176700   66.359700  140.809000
  H    -49.864500   69.145000  141.631000
  C    -47.391600   68.097900  142.468000
  H    -46.411000   68.331900  142.014000
  H    -47.087900   67.372100  143.237000
  C    -47.824500   69.300100  143.294000
  H    -48.875800   69.242200  143.589000
  H    -47.832400   70.166500  142.632000
  C    -46.758700   69.690500  144.364000
  H    -46.799000   68.937500  145.195000
  H    -47.042800   70.671400  144.783000
  H    -45.769000   69.709100  143.973000
  H    -44.978400   62.593800  140.277000
  H    -51.608500   67.455200  140.575000

 Total Charge           Charge          ....    0
 Multiplicity           Mult            ....    1
 Number of Electrons    NEL             ....  134
 Basis Dimension        Dim             ....  322

ORBITAL ENERGIES
----------------

  NO   OCC          E(Eh)            E(eV)
   0   2.0000     -88.967273     -2420.9226
   1   2.0000     -88.958169     -2420.6748
   2   2.0000     -10.326863      -281.0082
   3   2.0000     -10.324916      -280.9552
   4   2.0000     -10.320151      -280.8256
   5   2.0000     -10.309475      -280.5351
   6   2.0000     -10.304663      -280.4041
   7   2.0000     -10.297866      -280.2192
   8   2.0000     -10.294031      -280.1148
   9   2.0000     -10.290851      -280.0283
  10   2.0000     -10.289829      -280.0005
  11   2.0000     -10.289536      -279.9925
  12   2.0000     -10.287855      -279.9468
  13   2.0000     -10.284315      -279.8504
  14   2.0000     -10.279528      -279.7202
  15   2.0000     -10.268752      -279.4270
  16   2.0000      -8.081414      -219.9064
  17   2.0000      -8.073248      -219.6843
  18   2.0000      -6.040150      -164.3608
  19   2.0000      -6.036173      -164.2526
  20   2.0000      -6.032056      -164.1406
  21   2.0000      -6.031806      -164.1338
  22   2.0000      -6.027689      -164.0218
  23   2.0000      -6.023712      -163.9135
  24   2.0000      -1.010610       -27.5001
  25   2.0000      -0.986771       -26.8514
  26   2.0000      -0.919152       -25.0114
  27   2.0000      -0.913321       -24.8527
  28   2.0000      -0.877044       -23.8656
  29   2.0000      -0.860208       -23.4075
  30   2.0000      -0.843157       -22.9435
  31   2.0000      -0.820689       -22.3321
  32   2.0000      -0.781935       -21.2775
  33   2.0000      -0.774534       -21.0761
  34   2.0000      -0.713836       -19.4245
  35   2.0000      -0.713580       -19.4175
  36   2.0000      -0.699329       -19.0297
  37   2.0000      -0.660058       -17.9611
  38   2.0000      -0.639462       -17.4006
  39   2.0000      -0.627068       -17.0634
  40   2.0000      -0.607915       -16.5422
  41   2.0000      -0.574792       -15.6409
  42   2.0000      -0.568743       -15.4763
  43   2.0000      -0.563313       -15.3285
  44   2.0000      -0.537219       -14.6185
  45   2.0000      -0.529468       -14.4076
  46   2.0000      -0.526978       -14.3398
  47   2.0000      -0.513880       -13.9834
  48   2.0000      -0.503677       -13.7058
  49   2.0000      -0.500698       -13.6247
  50   2.0000      -0.490331       -13.3426
  51   2.0000      -0.484369       -13.1803
  52   2.0000      -0.476613       -12.9693
  53   2.0000      -0.469735       -12.7821
  54   2.0000      -0.460677       -12.5357
  55   2.0000      -0.456443       -12.4205
  56   2.0000      -0.449121       -12.2212
  57   2.0000      -0.438797       -11.9403
  58   2.0000      -0.433942       -11.8082
  59   2.0000      -0.428983       -11.6732
  60   2.0000      -0.417896       -11.3715
  61   2.0000      -0.413459       -11.2508
  62   2.0000      -0.408672       -11.1205
  63   2.0000      -0.365178        -9.9370
  64   2.0000      -0.334108        -9.0915
  65   2.0000      -0.322240        -8.7686
  66   2.0000      -0.284049        -7.7294
  67   0.0000       0.022465         0.6113
  68   0.0000       0.087967         2.3937
  69   0.0000       0.092478         2.5164
  70   0.0000       0.122620         3.3367
  71   0.0000       0.136315         3.7093

MULLIKEN ATOMIC CHARGES
-----------------------
   0 S :    0.111639
   1 C :   -0.138758
   2 C :   -0.036987
   3 C :   -0.027666
   4 C :   -0.054572
   5 H :   -0.043723
   6 C :    0.062836
   7 H :   -0.001337
   8 H :    0.035264
   9 C :   -0.060252
  10 H :    0.029346
  11 H :    0.031620
  12 C :   -0.000287
  13 H :   -0.001984
  14 H :    0.012513
  15 H :    0.036484
  16 S :    0.061791
  17 C :   -0.068630
  18 C :    0.014657
  19 C :   -0.095399
  20 C :   -0.088118
  21 H :    0.011535
  22 C :   -0.027337
  23 H :    0.049613
  24 H :    0.040648
  25 C :   -0.089954
  26 H :    0.038076
  27 H :    0.021903
  28 C :   -0.036178
  29 H :    0.038467
  30 H :    0.040403
  31 H :    0.030983
  32 H :    0.048404
  33 H :    0.055001
Sum of atomic charges:   -0.0000000

LOEWDIN ATOMIC CHARGES
----------------------
   0 S :    0.386393
   1 C :   -0.190846
   2 C :   -0.065580
   3 C :   -0.058334
   4 C :   -0.175106
   5 H :    0.018562
   6 C :   -0.032131
   7 H :    0.020814
   8 H :    0.038983
   9 C :   -0.028916
  10 H :    0.021647
  11 H :    0.027671
  12 C :   -0.064561
  13 H :    0.014756
  14 H :    0.024442
  15 H :    0.029767
  16 S :    0.376217
  17 C :   -0.163578
  18 C :   -0.064952
  19 C :   -0.057721
  20 C :   -0.178476
  21 H :    0.024975
  22 C :   -0.046203
  23 H :    0.031936
  24 H :    0.034305
  25 C :   -0.047422
  26 H :    0.023766
  27 H :    0.020503
  28 C :   -0.057734
  29 H :    0.028106
  30 H :    0.031260
  31 H :    0.021478
  32 H :    0.030017
  33 H :    0.025962

  Mayer bond orders larger than 0.100000
B(  0-S ,  1-C ) :   1.1192 B(  0-S ,  4-C ) :   1.1102 B(  1-C ,  2-C ) :   1.6259
B(  1-C , 32-H ) :   0.9599 B(  2-C ,  3-C ) :   1.2377 B(  2-C ,  6-C ) :   1.0369
B(  3-C ,  4-C ) :   1.5784 B(  3-C ,  5-H ) :   0.9998 B(  4-C , 20-C ) :   1.1033
B(  6-C ,  7-H ) :   0.9402 B(  6-C ,  8-H ) :   0.9241 B(  6-C ,  9-C ) :   1.0533
B(  9-C , 10-H ) :   0.9625 B(  9-C , 11-H ) :   0.9507 B(  9-C , 12-C ) :   1.0988
B( 12-C , 13-H ) :   0.9655 B( 12-C , 14-H ) :   0.9674 B( 12-C , 15-H ) :   0.9723
B( 16-S , 17-C ) :   1.1508 B( 16-S , 20-C ) :   1.0927 B( 17-C , 18-C ) :   1.6142
B( 17-C , 33-H ) :   0.9744 B( 18-C , 19-C ) :   1.2215 B( 18-C , 21-H ) :   0.9808
B( 19-C , 20-C ) :   1.6391 B( 19-C , 22-C ) :   1.0490 B( 22-C , 23-H ) :   0.9159
B( 22-C , 24-H ) :   0.9366 B( 22-C , 25-C ) :   1.0708 B( 25-C , 26-H ) :   0.9512
B( 25-C , 27-H ) :   0.9461 B( 25-C , 28-C ) :   1.0748 B( 28-C , 29-H ) :   0.9762
B( 28-C , 30-H ) :   0.9743 B( 28-C , 31-H ) :   0.9737

Dispersion correction           -0.013278579
FINAL SINGLE POINT ENERGY     -1339.869790946048

DIPOLE MOMENT
-------------
                                X             Y             Z
Electronic contribution:    -22.14546     -10.55099     -21.58635
Nuclear contribution   :     22.66131      10.99167      22.16866
                        -----------------------------------------
Total Dipole Moment    :      0.51585       0.44068       0.58231
                        -----------------------------------------
Magnitude (a.u.)       :      0.89408
Magnitude (Debye)      :      2.27257

Rotational constants in cm-1:     0.017148     0.008922     0.006026
Rotational constants in MHz :   514.097690   267.466209   180.643391

                             ****ORCA TERMINATED NORMALLY****
TOTAL RUN TIME: 0 days 0 hours 0 minutes 34 seconds 314 msec
