                         Program Version 4.2.1 -  RELEASE  -
|  1> ! wB97X-D3 SP def2-SVP
|  2> %pal
|  3> nprocs 16
|  4> end
|  5>
|  6> * xyz 0 1
|  7> S 	 -98.0501 	 41.3782 	 125.963
|  8> C 	 -98.623 	 41.0245 	 127.599
|  9> C 	 -97.6234 	 41.2862 	 128.529
| 10> C 	 -96.5166 	 41.8718 	 128.015
| 11> C 	 -96.6136 	 42.0679 	 126.664
| 12> H 	 -95.5729 	 42.0174 	 128.518
| 13> C 	 -97.8459 	 40.9432 	 130.056
| 14> H 	 -98.2041 	 39.9689 	 130.164
| 15> H 	 -98.6727 	 41.57 	 130.474
| 16> C 	 -96.649 	 41.0965 	 131.031
| 17> H 	 -96.0936 	 42.0283 	 130.9
| 18> H 	 -96.9506 	 41.3206 	 132.048
| 19> C 	 -95.5909 	 39.9975 	 130.876
| 20> H 	 -95.264 	 39.9029 	 129.853
| 21> H 	 -94.6939 	 40.2241 	 131.421
| 22> H 	 -96.0565 	 39.0686 	 131.14
| 23> S 	 -94.5194 	 41.1484 	 125.056
| 24> C 	 -93.3568 	 42.2259 	 124.277
| 25> C 	 -93.5858 	 43.507 	 124.848
| 26> C 	 -94.8663 	 43.6785 	 125.492
| 27> C 	 -95.5013 	 42.469 	 125.786
| 28> H 	 -92.8861 	 44.2949 	 124.538
| 29> C 	 -95.318 	 45.0273 	 125.997
| 30> H 	 -94.4289 	 45.6923 	 126.199
| 31> H 	 -95.801 	 44.9906 	 126.988
| 32> C 	 -96.1611 	 45.8114 	 124.979
| 33> H 	 -97.1656 	 45.3712 	 124.783
| 34> H 	 -95.7614 	 45.8191 	 124.037
| 35> C 	 -96.4048 	 47.2328 	 125.514
| 36> H 	 -96.9267 	 47.3034 	 126.514
| 37> H 	 -96.8649 	 47.8445 	 124.691
| 38> H 	 -95.4974 	 47.8632 	 125.712
| 39> H 	 -99.6217 	 40.6481 	 127.895
| 40> H 	 -92.54 	 42.076 	 123.6
| 41> *
| 42>
| 43>                          ****END OF INPUT****

CARTESIAN COORDINATES (ANGSTROEM)
---------------------------------
  S    -98.050100   41.378200  125.963000
  C    -98.623000   41.024500  127.599000
  C    -97.623400   41.286200  128.529000
  C    -96.516600   41.871800  128.015000
  C    -96.613600   42.067900  126.664000
  H    -95.572900   42.017400  128.518000
  C    -97.845900   40.943200  130.056000
  H    -98.204100   39.968900  130.164000
  H    -98.672700   41.570000  130.474000
  C    -96.649000   41.096500  131.031000
  H    -96.093600   42.028300  130.900000
  H    -96.950600   41.320600  132.048000
  C    -95.590900   39.997500  130.876000
  H    -95.264000   39.902900  129.853000
  H    -94.693900   40.224100  131.421000
  H    -96.056500   39.068600  131.140000
  S    -94.519400   41.148400  125.056000
  C    -93.356800   42.225900  124.277000
  C    -93.585800   43.507000  124.848000
  C    -94.866300   43.678500  125.492000
  C    -95.501300   42.469000  125.786000
  H    -92.886100   44.294900  124.538000
  C    -95.318000   45.027300  125.997000
  H    -94.428900   45.692300  126.199000
  H    -95.801000   44.990600  126.988000
  C    -96.161100   45.811400  124.979000
  H    -97.165600   45.371200  124.783000
  H    -95.761400   45.819100  124.037000
  C    -96.404800   47.232800  125.514000
  H    -96.926700   47.303400  126.514000
  H    -96.864900   47.844500  124.691000
  H    -95.497400   47.863200  125.712000
  H    -99.621700   40.648100  127.895000
  H    -92.540000   42.076000  123.600000

 Total Charge           Charge          ....    0
 Multiplicity           Mult            ....    1
 Number of Electrons    NEL             ....  134
 Basis Dimension        Dim             ....  322

ORBITAL ENERGIES
----------------

  NO   OCC          E(Eh)            E(eV)
   0   2.0000     -88.973143     -2421.0823
   1   2.0000     -88.962268     -2420.7864
   2   2.0000     -10.330401      -281.1045
   3   2.0000     -10.329037      -281.0674
   4   2.0000     -10.321949      -280.8745
   5   2.0000     -10.318274      -280.7745
   6   2.0000     -10.306852      -280.4637
   7   2.0000     -10.300771      -280.2982
   8   2.0000     -10.297880      -280.2196
   9   2.0000     -10.296156      -280.1726
  10   2.0000     -10.293040      -280.0879
  11   2.0000     -10.289990      -280.0048
  12   2.0000     -10.286906      -279.9210
  13   2.0000     -10.284714      -279.8613
  14   2.0000     -10.280410      -279.7442
  15   2.0000     -10.272462      -279.5279
  16   2.0000      -8.087358      -220.0682
  17   2.0000      -8.075769      -219.7529
  18   2.0000      -6.045638      -164.5102
  19   2.0000      -6.041985      -164.4108
  20   2.0000      -6.038323      -164.3111
  21   2.0000      -6.034427      -164.2051
  22   2.0000      -6.030290      -164.0925
  23   2.0000      -6.026568      -163.9912
  24   2.0000      -1.008671       -27.4473
  25   2.0000      -0.978358       -26.6225
  26   2.0000      -0.907330       -24.6897
  27   2.0000      -0.904475       -24.6120
  28   2.0000      -0.865782       -23.5591
  29   2.0000      -0.853542       -23.2261
  30   2.0000      -0.841338       -22.8940
  31   2.0000      -0.813225       -22.1290
  32   2.0000      -0.781415       -21.2634
  33   2.0000      -0.764715       -20.8090
  34   2.0000      -0.711253       -19.3542
  35   2.0000      -0.700365       -19.0579
  36   2.0000      -0.693594       -18.8737
  37   2.0000      -0.657169       -17.8825
  38   2.0000      -0.642397       -17.4805
  39   2.0000      -0.627358       -17.0713
  40   2.0000      -0.592921       -16.1342
  41   2.0000      -0.567666       -15.4470
  42   2.0000      -0.552876       -15.0445
  43   2.0000      -0.547967       -14.9109
  44   2.0000      -0.530923       -14.4472
  45   2.0000      -0.524141       -14.2626
  46   2.0000      -0.522929       -14.2296
  47   2.0000      -0.510707       -13.8970
  48   2.0000      -0.502741       -13.6803
  49   2.0000      -0.500236       -13.6121
  50   2.0000      -0.488912       -13.3040
  51   2.0000      -0.481461       -13.1012
  52   2.0000      -0.471494       -12.8300
  53   2.0000      -0.462571       -12.5872
  54   2.0000      -0.451825       -12.2948
  55   2.0000      -0.450058       -12.2467
  56   2.0000      -0.447052       -12.1649
  57   2.0000      -0.437175       -11.8961
  58   2.0000      -0.431135       -11.7318
  59   2.0000      -0.429604       -11.6901
  60   2.0000      -0.410394       -11.1674
  61   2.0000      -0.408812       -11.1243
  62   2.0000      -0.406917       -11.0728
  63   2.0000      -0.344913        -9.3856
  64   2.0000      -0.323697        -8.8082
  65   2.0000      -0.321307        -8.7432
  66   2.0000      -0.305167        -8.3040
  67   0.0000       0.031883         0.8676
  68   0.0000       0.049260         1.3404
  69   0.0000       0.113071         3.0768
  70   0.0000       0.113589         3.0909
  71   0.0000       0.135660         3.6915

MULLIKEN ATOMIC CHARGES
-----------------------
   0 S :    0.135765
   1 C :   -0.138238
   2 C :   -0.063712
   3 C :    0.043006
   4 C :   -0.170452
   5 H :    0.020466
   6 C :    0.075445
   7 H :    0.014157
   8 H :    0.042737
   9 C :   -0.087284
  10 H :    0.012194
  11 H :    0.022113
  12 C :   -0.025026
  13 H :    0.026778
  14 H :    0.032681
  15 H :    0.025433
  16 S :    0.095448
  17 C :   -0.090740
  18 C :   -0.060569
  19 C :   -0.008412
  20 C :   -0.157718
  21 H :    0.029552
  22 C :    0.022807
  23 H :    0.024597
  24 H :    0.032648
  25 C :   -0.015779
  26 H :    0.034349
  27 H :    0.005104
  28 C :   -0.100478
  29 H :    0.045640
  30 H :    0.040286
  31 H :    0.024144
  32 H :    0.054844
  33 H :    0.058215
Sum of atomic charges:    0.0000000

LOEWDIN ATOMIC CHARGES
----------------------
   0 S :    0.424274
   1 C :   -0.195747
   2 C :   -0.063142
   3 C :   -0.058678
   4 C :   -0.201029
   5 H :    0.038215
   6 C :   -0.024875
   7 H :    0.020420
   8 H :    0.039497
   9 C :   -0.051242
  10 H :    0.021353
  11 H :    0.026023
  12 C :   -0.059196
  13 H :    0.024577
  14 H :    0.025775
  15 H :    0.021162
  16 S :    0.380362
  17 C :   -0.184432
  18 C :   -0.077015
  19 C :   -0.059127
  20 C :   -0.190192
  21 H :    0.030519
  22 C :   -0.035852
  23 H :    0.035156
  24 H :    0.032122
  25 C :   -0.034801
  26 H :    0.031739
  27 H :    0.012643
  28 C :   -0.082526
  29 H :    0.032062
  30 H :    0.031503
  31 H :    0.023116
  32 H :    0.034601
  33 H :    0.032734

  Mayer bond orders larger than 0.100000
B(  0-S ,  1-C ) :   1.1534 B(  0-S ,  4-C ) :   1.1773 B(  1-C ,  2-C ) :   1.5845
B(  1-C ,  4-C ) :   0.1160 B(  1-C , 32-H ) :   0.9693 B(  2-C ,  3-C ) :   1.3059
B(  2-C ,  6-C ) :   0.9803 B(  3-C ,  4-C ) :   1.5392 B(  3-C ,  5-H ) :   0.9910
B(  4-C , 20-C ) :   1.0074 B(  6-C ,  7-H ) :   0.9464 B(  6-C ,  8-H ) :   0.9438
B(  6-C ,  9-C ) :   1.0791 B(  9-C , 10-H ) :   0.9477 B(  9-C , 11-H ) :   0.9536
B(  9-C , 12-C ) :   1.0735 B( 12-C , 13-H ) :   0.9752 B( 12-C , 14-H ) :   0.9743
B( 12-C , 15-H ) :   0.9763 B( 16-S , 17-C ) :   1.1552 B( 16-S , 20-C ) :   1.1282
B( 17-C , 18-C ) :   1.6038 B( 17-C , 20-C ) :   0.1088 B( 17-C , 33-H ) :   0.9707
B( 18-C , 19-C ) :   1.2534 B( 18-C , 21-H ) :   0.9781 B( 19-C , 20-C ) :   1.5946
B( 19-C , 22-C ) :   1.0430 B( 22-C , 23-H ) :   0.9456 B( 22-C , 24-H ) :   0.9395
B( 22-C , 25-C ) :   1.0579 B( 25-C , 26-H ) :   0.9494 B( 25-C , 27-H ) :   0.9537
B( 25-C , 28-C ) :   1.0801 B( 28-C , 29-H ) :   0.9739 B( 28-C , 30-H ) :   0.9730
B( 28-C , 31-H ) :   0.9730

Dispersion correction           -0.013966411
FINAL SINGLE POINT ENERGY     -1339.853571420519

DIPOLE MOMENT
-------------
                                X             Y             Z
Electronic contribution:     -0.80413     -13.81220     -16.45048
Nuclear contribution   :      0.90127      14.10505      16.89584
                        -----------------------------------------
Total Dipole Moment    :      0.09714       0.29285       0.44537
                        -----------------------------------------
Magnitude (a.u.)       :      0.54180
Magnitude (Debye)      :      1.37715

Rotational constants in cm-1:     0.017109     0.008256     0.007415
Rotational constants in MHz :   512.916799   247.513491   222.306154

                             ****ORCA TERMINATED NORMALLY****
TOTAL RUN TIME: 0 days 0 hours 0 minutes 31 seconds 33 msec
