                         Program Version 4.2.1 -  RELEASE  -
|  1> ! wB97X-D3 SP def2-SVP
|  2> %pal
|  3> nprocs 16
|  4> end
|  5>
|  6> * xyz 0 1
|  7> S 	 5.12065 	 -13.0308 	 66.7892
|  8> C 	 6.76887 	 -12.8662 	 66.2779
|  9> C 	 7.56944 	 -12.5222 	 67.3436
| 10> C 	 6.80144 	 -12.3665 	 68.482
| 11> C 	 5.45005 	 -12.5533 	 68.3891
| 12> H 	 7.26793 	 -12.0552 	 69.3947
| 13> C 	 9.09237 	 -12.3021 	 67.3948
| 14> H 	 9.46138 	 -12.4201 	 68.3888
| 15> H 	 9.32977 	 -11.2745 	 67.1379
| 16> C 	 9.80864 	 -13.2212 	 66.4592
| 17> H 	 9.44155 	 -13.0304 	 65.5186
| 18> H 	 10.8124 	 -12.8848 	 66.5228
| 19> C 	 9.59791 	 -14.6877 	 66.7507
| 20> H 	 10.1157 	 -14.9293 	 67.7038
| 21> H 	 8.56199 	 -14.9521 	 66.9189
| 22> H 	 10.0213 	 -15.329 	 65.943
| 23> S 	 2.96334 	 -11.4875 	 69.1071
| 24> C 	 2.21269 	 -12.091 	 70.5348
| 25> C 	 3.16273 	 -12.7134 	 71.3548
| 26> C 	 4.33901 	 -13.0792 	 70.6578
| 27> C 	 4.41676 	 -12.4804 	 69.3806
| 28> H 	 2.81781 	 -12.9104 	 72.3428
| 29> C 	 5.45311 	 -13.8416 	 71.4045
| 30> H 	 6.17577 	 -13.1829 	 71.7569
| 31> H 	 5.94129 	 -14.4383 	 70.6864
| 32> C 	 5.00108 	 -14.9067 	 72.473
| 33> H 	 4.42423 	 -14.4188 	 73.2401
| 34> H 	 5.98444 	 -15.2662 	 72.8847
| 35> C 	 4.28435 	 -16.1 	 71.9399
| 36> H 	 4.07301 	 -16.8061 	 72.7374
| 37> H 	 4.81441 	 -16.7055 	 71.2294
| 38> H 	 3.24252 	 -15.9706 	 71.5443
| 39> H 	 7.11256 	 -13.0566 	 65.2369
| 40> H 	 1.21236 	 -11.7209 	 70.7524
| 41> *
| 42>
| 43>                          ****END OF INPUT****

CARTESIAN COORDINATES (ANGSTROEM)
---------------------------------
  S      5.120650  -13.030800   66.789200
  C      6.768870  -12.866200   66.277900
  C      7.569440  -12.522200   67.343600
  C      6.801440  -12.366500   68.482000
  C      5.450050  -12.553300   68.389100
  H      7.267930  -12.055200   69.394700
  C      9.092370  -12.302100   67.394800
  H      9.461380  -12.420100   68.388800
  H      9.329770  -11.274500   67.137900
  C      9.808640  -13.221200   66.459200
  H      9.441550  -13.030400   65.518600
  H     10.812400  -12.884800   66.522800
  C      9.597910  -14.687700   66.750700
  H     10.115700  -14.929300   67.703800
  H      8.561990  -14.952100   66.918900
  H     10.021300  -15.329000   65.943000
  S      2.963340  -11.487500   69.107100
  C      2.212690  -12.091000   70.534800
  C      3.162730  -12.713400   71.354800
  C      4.339010  -13.079200   70.657800
  C      4.416760  -12.480400   69.380600
  H      2.817810  -12.910400   72.342800
  C      5.453110  -13.841600   71.404500
  H      6.175770  -13.182900   71.756900
  H      5.941290  -14.438300   70.686400
  C      5.001080  -14.906700   72.473000
  H      4.424230  -14.418800   73.240100
  H      5.984440  -15.266200   72.884700
  C      4.284350  -16.100000   71.939900
  H      4.073010  -16.806100   72.737400
  H      4.814410  -16.705500   71.229400
  H      3.242520  -15.970600   71.544300
  H      7.112560  -13.056600   65.236900
  H      1.212360  -11.720900   70.752400

 Total Charge           Charge          ....    0
 Multiplicity           Mult            ....    1
 Number of Electrons    NEL             ....  134
 Basis Dimension        Dim             ....  322

ORBITAL ENERGIES
----------------

  NO   OCC          E(Eh)            E(eV)
   0   2.0000     -88.963113     -2420.8094
   1   2.0000     -88.962868     -2420.8027
   2   2.0000     -10.327234      -281.0183
   3   2.0000     -10.319993      -280.8213
   4   2.0000     -10.317326      -280.7487
   5   2.0000     -10.314214      -280.6640
   6   2.0000     -10.306949      -280.4663
   7   2.0000     -10.293513      -280.1007
   8   2.0000     -10.292846      -280.0826
   9   2.0000     -10.291293      -280.0403
  10   2.0000     -10.287553      -279.9386
  11   2.0000     -10.284702      -279.8610
  12   2.0000     -10.281964      -279.7865
  13   2.0000     -10.275669      -279.6152
  14   2.0000     -10.273921      -279.5676
  15   2.0000     -10.271812      -279.5102
  16   2.0000      -8.078814      -219.8357
  17   2.0000      -8.078086      -219.8159
  18   2.0000      -6.037180      -164.2800
  19   2.0000      -6.036455      -164.2603
  20   2.0000      -6.032954      -164.1650
  21   2.0000      -6.032530      -164.1535
  22   2.0000      -6.029836      -164.0802
  23   2.0000      -6.029014      -164.0578
  24   2.0000      -1.013700       -27.5842
  25   2.0000      -0.987069       -26.8595
  26   2.0000      -0.923520       -25.1303
  27   2.0000      -0.907386       -24.6912
  28   2.0000      -0.870028       -23.6747
  29   2.0000      -0.852658       -23.2020
  30   2.0000      -0.845469       -23.0064
  31   2.0000      -0.808497       -22.0003
  32   2.0000      -0.789519       -21.4839
  33   2.0000      -0.778963       -21.1966
  34   2.0000      -0.707286       -19.2462
  35   2.0000      -0.704862       -19.1803
  36   2.0000      -0.694194       -18.8900
  37   2.0000      -0.654406       -17.8073
  38   2.0000      -0.638818       -17.3831
  39   2.0000      -0.619507       -16.8576
  40   2.0000      -0.603180       -16.4134
  41   2.0000      -0.586041       -15.9470
  42   2.0000      -0.558892       -15.2082
  43   2.0000      -0.556915       -15.1544
  44   2.0000      -0.545032       -14.8311
  45   2.0000      -0.534358       -14.5406
  46   2.0000      -0.516656       -14.0589
  47   2.0000      -0.510145       -13.8817
  48   2.0000      -0.500302       -13.6139
  49   2.0000      -0.499541       -13.5932
  50   2.0000      -0.490869       -13.3572
  51   2.0000      -0.476984       -12.9794
  52   2.0000      -0.473520       -12.8851
  53   2.0000      -0.464718       -12.6456
  54   2.0000      -0.459272       -12.4974
  55   2.0000      -0.453317       -12.3354
  56   2.0000      -0.442844       -12.0504
  57   2.0000      -0.438800       -11.9404
  58   2.0000      -0.431416       -11.7394
  59   2.0000      -0.424517       -11.5517
  60   2.0000      -0.421215       -11.4619
  61   2.0000      -0.417804       -11.3690
  62   2.0000      -0.407122       -11.0784
  63   2.0000      -0.339650        -9.2424
  64   2.0000      -0.334976        -9.1152
  65   2.0000      -0.327801        -8.9199
  66   2.0000      -0.291755        -7.9391
  67   0.0000       0.027531         0.7491
  68   0.0000       0.072129         1.9627
  69   0.0000       0.112928         3.0729
  70   0.0000       0.126781         3.4499
  71   0.0000       0.138374         3.7653

MULLIKEN ATOMIC CHARGES
-----------------------
   0 S :    0.123248
   1 C :   -0.167250
   2 C :   -0.094616
   3 C :    0.017743
   4 C :   -0.145512
   5 H :   -0.013299
   6 C :    0.104063
   7 H :    0.005850
   8 H :    0.035872
   9 C :   -0.022094
  10 H :   -0.000560
  11 H :    0.017399
  12 C :   -0.066568
  13 H :    0.023717
  14 H :    0.046344
  15 H :    0.042214
  16 S :    0.108910
  17 C :   -0.118160
  18 C :   -0.029645
  19 C :   -0.022753
  20 C :   -0.159965
  21 H :    0.014638
  22 C :    0.107493
  23 H :    0.031503
  24 H :    0.006849
  25 C :   -0.072671
  26 H :    0.029892
  27 H :    0.035242
  28 C :   -0.054491
  29 H :    0.021923
  30 H :    0.025867
  31 H :    0.039831
  32 H :    0.062756
  33 H :    0.066230
Sum of atomic charges:    0.0000000

LOEWDIN ATOMIC CHARGES
----------------------
   0 S :    0.443488
   1 C :   -0.209428
   2 C :   -0.069612
   3 C :   -0.065044
   4 C :   -0.217087
   5 H :    0.023792
   6 C :   -0.017912
   7 H :    0.022378
   8 H :    0.034870
   9 C :   -0.036506
  10 H :    0.009995
  11 H :    0.023395
  12 C :   -0.066202
  13 H :    0.026205
  14 H :    0.025907
  15 H :    0.030756
  16 S :    0.407515
  17 C :   -0.188860
  18 C :   -0.071927
  19 C :   -0.046087
  20 C :   -0.200087
  21 H :    0.027154
  22 C :   -0.023213
  23 H :    0.023757
  24 H :    0.026143
  25 C :   -0.036761
  26 H :    0.018452
  27 H :    0.034998
  28 C :   -0.075073
  29 H :    0.028180
  30 H :    0.022885
  31 H :    0.032392
  32 H :    0.034121
  33 H :    0.027414

  Mayer bond orders larger than 0.100000
B(  0-S ,  1-C ) :   1.1673 B(  0-S ,  4-C ) :   1.1753 B(  1-C ,  2-C ) :   1.5550
B(  1-C ,  4-C ) :   0.1041 B(  1-C , 32-H ) :   0.9650 B(  2-C ,  3-C ) :   1.3103
B(  2-C ,  6-C ) :   0.9983 B(  3-C ,  4-C ) :   1.5224 B(  3-C ,  5-H ) :   1.0076
B(  4-C , 20-C ) :   1.0542 B(  6-C ,  7-H ) :   0.9433 B(  6-C ,  8-H ) :   0.9310
B(  6-C ,  9-C ) :   1.0888 B(  9-C , 10-H ) :   0.9464 B(  9-C , 11-H ) :   0.9509
B(  9-C , 12-C ) :   1.0810 B( 12-C , 13-H ) :   0.9736 B( 12-C , 14-H ) :   0.9724
B( 12-C , 15-H ) :   0.9744 B( 16-S , 17-C ) :   1.1838 B( 16-S , 20-C ) :   1.1520
B( 17-C , 18-C ) :   1.5610 B( 17-C , 20-C ) :   0.1126 B( 17-C , 33-H ) :   0.9680
B( 18-C , 19-C ) :   1.2526 B( 18-C , 21-H ) :   0.9953 B( 19-C , 20-C ) :   1.5584
B( 19-C , 22-C ) :   1.0269 B( 22-C , 23-H ) :   0.9396 B( 22-C , 24-H ) :   0.9227
B( 22-C , 25-C ) :   1.0746 B( 25-C , 26-H ) :   0.9531 B( 25-C , 27-H ) :   0.9510
B( 25-C , 28-C ) :   1.0924 B( 28-C , 29-H ) :   0.9682 B( 28-C , 30-H ) :   0.9720
B( 28-C , 31-H ) :   0.9699

Dispersion correction           -0.014256160
FINAL SINGLE POINT ENERGY     -1339.873186116898

DIPOLE MOMENT
-------------
                                X             Y             Z
Electronic contribution:    -19.24207      15.19736      -8.78900
Nuclear contribution   :     19.73490     -15.32680       9.20995
                        -----------------------------------------
Total Dipole Moment    :      0.49283      -0.12944       0.42095
                        -----------------------------------------
Magnitude (a.u.)       :      0.66094
Magnitude (Debye)      :      1.67997

Rotational constants in cm-1:     0.020435     0.008299     0.006611
Rotational constants in MHz :   612.623572   248.793144   198.187340

                             ****ORCA TERMINATED NORMALLY****
TOTAL RUN TIME: 0 days 0 hours 0 minutes 34 seconds 888 msec
