                         Program Version 4.2.1 -  RELEASE  -
|  1> ! wB97X-D3 SP def2-SVP
|  2> %pal
|  3> nprocs 16
|  4> end
|  5>
|  6> * xyz 0 1
|  7> S 	 49.214 	 13.5396 	 85.2622
|  8> C 	 47.9955 	 13.5044 	 84.0293
|  9> C 	 48.4661 	 12.7361 	 82.9747
| 10> C 	 49.6856 	 12.0345 	 83.3012
| 11> C 	 50.1984 	 12.2955 	 84.5397
| 12> H 	 50.1736 	 11.2878 	 82.6831
| 13> C 	 47.7795 	 12.596 	 81.6678
| 14> H 	 48.4936 	 12.1194 	 81.0058
| 15> H 	 47.4977 	 13.5306 	 81.27
| 16> C 	 46.5795 	 11.6865 	 81.5406
| 17> H 	 45.68 	 12.1319 	 82.0467
| 18> H 	 46.0626 	 11.6958 	 80.547
| 19> C 	 46.8472 	 10.2473 	 81.8439
| 20> H 	 46.9863 	 10.1192 	 82.9214
| 21> H 	 46.0708 	 9.55909 	 81.5281
| 22> H 	 47.7417 	 9.85091 	 81.3062
| 23> S 	 52.7463 	 12.5995 	 85.3115
| 24> C 	 53.606 	 11.2731 	 85.968
| 25> C 	 52.8612 	 10.1267 	 86.0303
| 26> C 	 51.5846 	 10.3207 	 85.4992
| 27> C 	 51.3262 	 11.6374 	 85.1547
| 28> H 	 53.351 	 9.2073 	 86.3707
| 29> C 	 50.6726 	 9.1875 	 85.3311
| 30> H 	 49.8256 	 9.65196 	 84.8262
| 31> H 	 50.2064 	 8.83583 	 86.2635
| 32> C 	 51.0011 	 7.96607 	 84.3655
| 33> H 	 50.2285 	 7.24993 	 84.3864
| 34> H 	 51.9877 	 7.64258 	 84.7076
| 35> C 	 51.1064 	 8.4267 	 82.8859
| 36> H 	 50.3051 	 9.10192 	 82.6161
| 37> H 	 51.15 	 7.53645 	 82.2657
| 38> H 	 51.9886 	 9.05984 	 82.8572
| 39> H 	 47.047 	 13.9562 	 84.0743
| 40> H 	 54.5136 	 11.435 	 86.4068
| 41> *
| 42>
| 43>                          ****END OF INPUT****

CARTESIAN COORDINATES (ANGSTROEM)
---------------------------------
  S     49.214000   13.539600   85.262200
  C     47.995500   13.504400   84.029300
  C     48.466100   12.736100   82.974700
  C     49.685600   12.034500   83.301200
  C     50.198400   12.295500   84.539700
  H     50.173600   11.287800   82.683100
  C     47.779500   12.596000   81.667800
  H     48.493600   12.119400   81.005800
  H     47.497700   13.530600   81.270000
  C     46.579500   11.686500   81.540600
  H     45.680000   12.131900   82.046700
  H     46.062600   11.695800   80.547000
  C     46.847200   10.247300   81.843900
  H     46.986300   10.119200   82.921400
  H     46.070800    9.559090   81.528100
  H     47.741700    9.850910   81.306200
  S     52.746300   12.599500   85.311500
  C     53.606000   11.273100   85.968000
  C     52.861200   10.126700   86.030300
  C     51.584600   10.320700   85.499200
  C     51.326200   11.637400   85.154700
  H     53.351000    9.207300   86.370700
  C     50.672600    9.187500   85.331100
  H     49.825600    9.651960   84.826200
  H     50.206400    8.835830   86.263500
  C     51.001100    7.966070   84.365500
  H     50.228500    7.249930   84.386400
  H     51.987700    7.642580   84.707600
  C     51.106400    8.426700   82.885900
  H     50.305100    9.101920   82.616100
  H     51.150000    7.536450   82.265700
  H     51.988600    9.059840   82.857200
  H     47.047000   13.956200   84.074300
  H     54.513600   11.435000   86.406800

 Total Charge           Charge          ....    0
 Multiplicity           Mult            ....    1
 Number of Electrons    NEL             ....  134
 Basis Dimension        Dim             ....  322

ORBITAL ENERGIES
----------------

  NO   OCC          E(Eh)            E(eV)
   0   2.0000     -88.964097     -2420.8362
   1   2.0000     -88.963584     -2420.8222
   2   2.0000     -10.325208      -280.9632
   3   2.0000     -10.322861      -280.8993
   4   2.0000     -10.313160      -280.6353
   5   2.0000     -10.306318      -280.4492
   6   2.0000     -10.301160      -280.3088
   7   2.0000     -10.299632      -280.2672
   8   2.0000     -10.293430      -280.0985
   9   2.0000     -10.289829      -280.0005
  10   2.0000     -10.288351      -279.9603
  11   2.0000     -10.288058      -279.9523
  12   2.0000     -10.284246      -279.8486
  13   2.0000     -10.283213      -279.8205
  14   2.0000     -10.277187      -279.6565
  15   2.0000     -10.275314      -279.6055
  16   2.0000      -8.080476      -219.8809
  17   2.0000      -8.078760      -219.8342
  18   2.0000      -6.038740      -164.3225
  19   2.0000      -6.037307      -164.2835
  20   2.0000      -6.034684      -164.2121
  21   2.0000      -6.033000      -164.1663
  22   2.0000      -6.031468      -164.1246
  23   2.0000      -6.029646      -164.0750
  24   2.0000      -1.016648       -27.6644
  25   2.0000      -0.993015       -27.0213
  26   2.0000      -0.919405       -25.0183
  27   2.0000      -0.908865       -24.7315
  28   2.0000      -0.876784       -23.8585
  29   2.0000      -0.855082       -23.2680
  30   2.0000      -0.846818       -23.0431
  31   2.0000      -0.820260       -22.3204
  32   2.0000      -0.784436       -21.3456
  33   2.0000      -0.773879       -21.0583
  34   2.0000      -0.709590       -19.3089
  35   2.0000      -0.704899       -19.1813
  36   2.0000      -0.699383       -19.0312
  37   2.0000      -0.662125       -18.0173
  38   2.0000      -0.647090       -17.6082
  39   2.0000      -0.617733       -16.8094
  40   2.0000      -0.601081       -16.3562
  41   2.0000      -0.575091       -15.6490
  42   2.0000      -0.564874       -15.3710
  43   2.0000      -0.560362       -15.2482
  44   2.0000      -0.549657       -14.9569
  45   2.0000      -0.537562       -14.6278
  46   2.0000      -0.522733       -14.2243
  47   2.0000      -0.515674       -14.0322
  48   2.0000      -0.510909       -13.9025
  49   2.0000      -0.499542       -13.5932
  50   2.0000      -0.495521       -13.4838
  51   2.0000      -0.482246       -13.1226
  52   2.0000      -0.470776       -12.8105
  53   2.0000      -0.462940       -12.5972
  54   2.0000      -0.459339       -12.4993
  55   2.0000      -0.451982       -12.2990
  56   2.0000      -0.445473       -12.1219
  57   2.0000      -0.438032       -11.9195
  58   2.0000      -0.432497       -11.7688
  59   2.0000      -0.425841       -11.5877
  60   2.0000      -0.422615       -11.4999
  61   2.0000      -0.407316       -11.0836
  62   2.0000      -0.395108       -10.7514
  63   2.0000      -0.342517        -9.3204
  64   2.0000      -0.330372        -8.9899
  65   2.0000      -0.327087        -8.9005
  66   2.0000      -0.302115        -8.2210
  67   0.0000       0.038812         1.0561
  68   0.0000       0.057891         1.5753
  69   0.0000       0.115975         3.1559
  70   0.0000       0.119859         3.2615
  71   0.0000       0.130062         3.5392

MULLIKEN ATOMIC CHARGES
-----------------------
   0 S :    0.116665
   1 C :   -0.103624
   2 C :   -0.094507
   3 C :    0.047924
   4 C :   -0.160694
   5 H :    0.001828
   6 C :    0.118308
   7 H :    0.012387
   8 H :    0.020315
   9 C :   -0.093016
  10 H :    0.015794
  11 H :    0.021787
  12 C :   -0.060824
  13 H :    0.045804
  14 H :    0.030250
  15 H :    0.030303
  16 S :    0.118010
  17 C :   -0.060005
  18 C :   -0.042530
  19 C :   -0.016079
  20 C :   -0.172808
  21 H :    0.029157
  22 C :    0.033388
  23 H :    0.003789
  24 H :    0.040577
  25 C :   -0.040553
  26 H :    0.027122
  27 H :    0.028573
  28 C :   -0.063175
  29 H :    0.023768
  30 H :    0.043910
  31 H :    0.038622
  32 H :    0.036467
  33 H :    0.023068
Sum of atomic charges:    0.0000000

LOEWDIN ATOMIC CHARGES
----------------------
   0 S :    0.416092
   1 C :   -0.186737
   2 C :   -0.064473
   3 C :   -0.059929
   4 C :   -0.208415
   5 H :    0.028853
   6 C :   -0.030718
   7 H :    0.031398
   8 H :    0.028996
   9 C :   -0.055282
  10 H :    0.022916
  11 H :    0.028867
  12 C :   -0.071799
  13 H :    0.027341
  14 H :    0.026714
  15 H :    0.027575
  16 S :    0.441445
  17 C :   -0.175958
  18 C :   -0.071565
  19 C :   -0.060663
  20 C :   -0.209043
  21 H :    0.038630
  22 C :   -0.043903
  23 H :    0.027857
  24 H :    0.035434
  25 C :   -0.021570
  26 H :    0.018397
  27 H :    0.020113
  28 C :   -0.064048
  29 H :    0.017672
  30 H :    0.027872
  31 H :    0.027303
  32 H :    0.023568
  33 H :    0.007057

  Mayer bond orders larger than 0.100000
B(  0-S ,  1-C ) :   1.1510 B(  0-S ,  4-C ) :   1.1511 B(  1-C ,  2-C ) :   1.5771
B(  1-C , 32-H ) :   0.9836 B(  2-C ,  3-C ) :   1.2350 B(  2-C ,  6-C ) :   1.0332
B(  3-C ,  4-C ) :   1.5756 B(  3-C ,  5-H ) :   0.9950 B(  4-C , 20-C ) :   1.0080
B(  6-C ,  7-H ) :   0.9362 B(  6-C ,  8-H ) :   0.9315 B(  6-C ,  9-C ) :   1.0846
B(  9-C , 10-H ) :   0.9476 B(  9-C , 11-H ) :   0.9505 B(  9-C , 12-C ) :   1.0758
B( 12-C , 13-H ) :   0.9751 B( 12-C , 14-H ) :   0.9706 B( 12-C , 15-H ) :   0.9703
B( 16-S , 17-C ) :   1.1823 B( 16-S , 20-C ) :   1.1744 B( 17-C , 18-C ) :   1.5833
B( 17-C , 20-C ) :   0.1065 B( 17-C , 33-H ) :   0.9761 B( 18-C , 19-C ) :   1.2428
B( 18-C , 21-H ) :   0.9960 B( 19-C , 20-C ) :   1.5771 B( 19-C , 22-C ) :   1.0627
B( 22-C , 23-H ) :   0.9263 B( 22-C , 24-H ) :   0.9298 B( 22-C , 25-C ) :   1.0610
B( 25-C , 26-H ) :   0.9581 B( 25-C , 27-H ) :   0.9611 B( 25-C , 28-C ) :   1.0722
B( 28-C , 29-H ) :   0.9696 B( 28-C , 30-H ) :   0.9725 B( 28-C , 31-H ) :   0.9783

Dispersion correction           -0.015977953
FINAL SINGLE POINT ENERGY     -1339.867349556336

DIPOLE MOMENT
-------------
                                X             Y             Z
Electronic contribution:     13.11681      20.79452      16.69324
Nuclear contribution   :    -13.35133     -21.27962     -17.03304
                        -----------------------------------------
Total Dipole Moment    :     -0.23452      -0.48509      -0.33980
                        -----------------------------------------
Magnitude (a.u.)       :      0.63701
Magnitude (Debye)      :      1.61915

Rotational constants in cm-1:     0.019213     0.010127     0.007358
Rotational constants in MHz :   575.977799   303.609289   220.578828

                             ****ORCA TERMINATED NORMALLY****
TOTAL RUN TIME: 0 days 0 hours 0 minutes 32 seconds 661 msec
