                         Program Version 4.2.1 -  RELEASE  -
|  1> ! wB97X-D3 SP def2-SVP
|  2> %pal
|  3> nprocs 16
|  4> end
|  5>
|  6> * xyz 0 1
|  7> S 	 -45.9111 	 37.1342 	 78.7369
|  8> C 	 -45.3066 	 36.9538 	 77.0797
|  9> C 	 -45.9232 	 37.7859 	 76.1858
| 10> C 	 -46.7644 	 38.7259 	 76.8347
| 11> C 	 -46.9751 	 38.4318 	 78.1737
| 12> H 	 -47.3137 	 39.4971 	 76.2839
| 13> C 	 -45.6986 	 37.8286 	 74.7008
| 14> H 	 -44.6385 	 37.495 	 74.5507
| 15> H 	 -45.6838 	 38.937 	 74.4317
| 16> C 	 -46.7243 	 37.0713 	 73.7356
| 17> H 	 -46.4701 	 37.295 	 72.6646
| 18> H 	 -46.6443 	 35.9698 	 73.8381
| 19> C 	 -48.1916 	 37.6762 	 73.9621
| 20> H 	 -49.0162 	 37.1217 	 73.4944
| 21> H 	 -48.5938 	 37.628 	 74.9863
| 22> H 	 -48.3169 	 38.6423 	 73.5304
| 23> S 	 -47.0533 	 39.2873 	 80.7645
| 24> C 	 -48.4375 	 40.2238 	 81.2677
| 25> C 	 -49.3929 	 40.5114 	 80.3023
| 26> C 	 -48.8954 	 39.9669 	 79.0576
| 27> C 	 -47.734 	 39.2303 	 79.1321
| 28> H 	 -50.2587 	 41.1299 	 80.4297
| 29> C 	 -49.6587 	 40.2322 	 77.7864
| 30> H 	 -48.9301 	 40.6275 	 77.1053
| 31> H 	 -50.4008 	 40.9853 	 77.8225
| 32> C 	 -50.3537 	 39.1052 	 77.0284
| 33> H 	 -49.5965 	 38.3614 	 76.7918
| 34> H 	 -50.6581 	 39.5107 	 76.0504
| 35> C 	 -51.5793 	 38.6052 	 77.7597
| 36> H 	 -52.3107 	 39.4455 	 77.7009
| 37> H 	 -51.3777 	 38.2763 	 78.7705
| 38> H 	 -52.0436 	 37.7188 	 77.246
| 39> H 	 -44.6978 	 36.087 	 76.7681
| 40> H 	 -48.6621 	 40.5714 	 82.2188
| 41> *
| 42>
| 43>                          ****END OF INPUT****

CARTESIAN COORDINATES (ANGSTROEM)
---------------------------------
  S    -45.911100   37.134200   78.736900
  C    -45.306600   36.953800   77.079700
  C    -45.923200   37.785900   76.185800
  C    -46.764400   38.725900   76.834700
  C    -46.975100   38.431800   78.173700
  H    -47.313700   39.497100   76.283900
  C    -45.698600   37.828600   74.700800
  H    -44.638500   37.495000   74.550700
  H    -45.683800   38.937000   74.431700
  C    -46.724300   37.071300   73.735600
  H    -46.470100   37.295000   72.664600
  H    -46.644300   35.969800   73.838100
  C    -48.191600   37.676200   73.962100
  H    -49.016200   37.121700   73.494400
  H    -48.593800   37.628000   74.986300
  H    -48.316900   38.642300   73.530400
  S    -47.053300   39.287300   80.764500
  C    -48.437500   40.223800   81.267700
  C    -49.392900   40.511400   80.302300
  C    -48.895400   39.966900   79.057600
  C    -47.734000   39.230300   79.132100
  H    -50.258700   41.129900   80.429700
  C    -49.658700   40.232200   77.786400
  H    -48.930100   40.627500   77.105300
  H    -50.400800   40.985300   77.822500
  C    -50.353700   39.105200   77.028400
  H    -49.596500   38.361400   76.791800
  H    -50.658100   39.510700   76.050400
  C    -51.579300   38.605200   77.759700
  H    -52.310700   39.445500   77.700900
  H    -51.377700   38.276300   78.770500
  H    -52.043600   37.718800   77.246000
  H    -44.697800   36.087000   76.768100
  H    -48.662100   40.571400   82.218800

 Total Charge           Charge          ....    0
 Multiplicity           Mult            ....    1
 Number of Electrons    NEL             ....  134
 Basis Dimension        Dim             ....  322

ORBITAL ENERGIES
----------------

  NO   OCC          E(Eh)            E(eV)
   0   2.0000     -88.969744     -2420.9898
   1   2.0000     -88.969434     -2420.9814
   2   2.0000     -10.333441      -281.1872
   3   2.0000     -10.325750      -280.9779
   4   2.0000     -10.315081      -280.6876
   5   2.0000     -10.313130      -280.6345
   6   2.0000     -10.308475      -280.5079
   7   2.0000     -10.304646      -280.4037
   8   2.0000     -10.303122      -280.3622
   9   2.0000     -10.298629      -280.2399
  10   2.0000     -10.295686      -280.1599
  11   2.0000     -10.293404      -280.0978
  12   2.0000     -10.282370      -279.7975
  13   2.0000     -10.281503      -279.7739
  14   2.0000     -10.281146      -279.7642
  15   2.0000     -10.278630      -279.6958
  16   2.0000      -8.083812      -219.9717
  17   2.0000      -8.083741      -219.9698
  18   2.0000      -6.042403      -164.4221
  19   2.0000      -6.042312      -164.4197
  20   2.0000      -6.038532      -164.3168
  21   2.0000      -6.038490      -164.3157
  22   2.0000      -6.034381      -164.2039
  23   2.0000      -6.034310      -164.2019
  24   2.0000      -1.006423       -27.3862
  25   2.0000      -0.982572       -26.7372
  26   2.0000      -0.913280       -24.8516
  27   2.0000      -0.901696       -24.5364
  28   2.0000      -0.865694       -23.5567
  29   2.0000      -0.851708       -23.1762
  30   2.0000      -0.841866       -22.9083
  31   2.0000      -0.814558       -22.1652
  32   2.0000      -0.783868       -21.3301
  33   2.0000      -0.771803       -21.0018
  34   2.0000      -0.710256       -19.3270
  35   2.0000      -0.707455       -19.2508
  36   2.0000      -0.685829       -18.6623
  37   2.0000      -0.670082       -18.2339
  38   2.0000      -0.634122       -17.2553
  39   2.0000      -0.616558       -16.7774
  40   2.0000      -0.597260       -16.2523
  41   2.0000      -0.567335       -15.4380
  42   2.0000      -0.556514       -15.1435
  43   2.0000      -0.548926       -14.9370
  44   2.0000      -0.539664       -14.6850
  45   2.0000      -0.536886       -14.6094
  46   2.0000      -0.513814       -13.9816
  47   2.0000      -0.500292       -13.6136
  48   2.0000      -0.498804       -13.5732
  49   2.0000      -0.494917       -13.4674
  50   2.0000      -0.489598       -13.3226
  51   2.0000      -0.478304       -13.0153
  52   2.0000      -0.469237       -12.7686
  53   2.0000      -0.467207       -12.7134
  54   2.0000      -0.459016       -12.4905
  55   2.0000      -0.453036       -12.3277
  56   2.0000      -0.442716       -12.0469
  57   2.0000      -0.433549       -11.7975
  58   2.0000      -0.430127       -11.7043
  59   2.0000      -0.427847       -11.6423
  60   2.0000      -0.423216       -11.5163
  61   2.0000      -0.415075       -11.2948
  62   2.0000      -0.412659       -11.2290
  63   2.0000      -0.355254        -9.6670
  64   2.0000      -0.335268        -9.1231
  65   2.0000      -0.331768        -9.0279
  66   2.0000      -0.282897        -7.6980
  67   0.0000       0.022157         0.6029
  68   0.0000       0.072402         1.9701
  69   0.0000       0.094456         2.5703
  70   0.0000       0.116540         3.1712
  71   0.0000       0.124441         3.3862

MULLIKEN ATOMIC CHARGES
-----------------------
   0 S :    0.096823
   1 C :   -0.132566
   2 C :   -0.071479
   3 C :   -0.004723
   4 C :   -0.104481
   5 H :    0.014932
   6 C :    0.011032
   7 H :    0.034380
   8 H :    0.039232
   9 C :   -0.048066
  10 H :    0.044486
  11 H :    0.045673
  12 C :   -0.083451
  13 H :    0.024236
  14 H :    0.039867
  15 H :    0.030441
  16 S :    0.107623
  17 C :   -0.042823
  18 C :   -0.030088
  19 C :   -0.051071
  20 C :   -0.128663
  21 H :    0.020384
  22 C :    0.058273
  23 H :    0.017883
  24 H :   -0.006800
  25 C :   -0.077610
  26 H :    0.042689
  27 H :    0.020361
  28 C :   -0.053796
  29 H :    0.027824
  30 H :    0.042231
  31 H :    0.037796
  32 H :    0.057097
  33 H :    0.022354
Sum of atomic charges:    0.0000000

LOEWDIN ATOMIC CHARGES
----------------------
   0 S :    0.383186
   1 C :   -0.193543
   2 C :   -0.069103
   3 C :   -0.064097
   4 C :   -0.178908
   5 H :    0.031143
   6 C :   -0.041060
   7 H :    0.034156
   8 H :    0.038597
   9 C :   -0.033191
  10 H :    0.031960
  11 H :    0.027689
  12 C :   -0.080965
  13 H :    0.029522
  14 H :    0.028503
  15 H :    0.021247
  16 S :    0.399192
  17 C :   -0.169612
  18 C :   -0.061637
  19 C :   -0.052222
  20 C :   -0.191393
  21 H :    0.033700
  22 C :   -0.033655
  23 H :    0.027872
  24 H :    0.021062
  25 C :   -0.041280
  26 H :    0.016819
  27 H :    0.024693
  28 C :   -0.067359
  29 H :    0.027255
  30 H :    0.024860
  31 H :    0.030853
  32 H :    0.032423
  33 H :    0.013293

  Mayer bond orders larger than 0.100000
B(  0-S ,  1-C ) :   1.1198 B(  0-S ,  4-C ) :   1.1397 B(  1-C ,  2-C ) :   1.6389
B(  1-C , 32-H ) :   0.9568 B(  2-C ,  3-C ) :   1.2414 B(  2-C ,  6-C ) :   1.0130
B(  3-C ,  4-C ) :   1.5643 B(  3-C ,  5-H ) :   0.9812 B(  4-C , 20-C ) :   1.0667
B(  6-C ,  7-H ) :   0.9450 B(  6-C ,  8-H ) :   0.9469 B(  6-C ,  9-C ) :   1.0500
B(  9-C , 10-H ) :   0.9592 B(  9-C , 11-H ) :   0.9621 B(  9-C , 12-C ) :   1.0593
B( 12-C , 13-H ) :   0.9685 B( 12-C , 14-H ) :   0.9725 B( 12-C , 15-H ) :   0.9763
B( 16-S , 17-C ) :   1.1552 B( 16-S , 20-C ) :   1.1057 B( 17-C , 18-C ) :   1.6235
B( 17-C , 33-H ) :   0.9666 B( 18-C , 19-C ) :   1.2231 B( 18-C , 21-H ) :   0.9939
B( 19-C , 20-C ) :   1.6256 B( 19-C , 22-C ) :   1.0381 B( 22-C , 23-H ) :   0.9263
B( 22-C , 24-H ) :   0.9323 B( 22-C , 25-C ) :   1.0848 B( 25-C , 26-H ) :   0.9402
B( 25-C , 27-H ) :   0.9514 B( 25-C , 28-C ) :   1.0763 B( 28-C , 29-H ) :   0.9732
B( 28-C , 30-H ) :   0.9774 B( 28-C , 31-H ) :   0.9730

Dispersion correction           -0.015935144
FINAL SINGLE POINT ENERGY     -1339.873270775528

DIPOLE MOMENT
-------------
                                X             Y             Z
Electronic contribution:     16.65102      -0.38249      25.29679
Nuclear contribution   :    -17.03142       0.56201     -25.90354
                        -----------------------------------------
Total Dipole Moment    :     -0.38040       0.17953      -0.60675
                        -----------------------------------------
Magnitude (a.u.)       :      0.73829
Magnitude (Debye)      :      1.87659

Rotational constants in cm-1:     0.018797     0.010511     0.007366
Rotational constants in MHz :   563.529328   315.114620   220.837368

                             ****ORCA TERMINATED NORMALLY****
TOTAL RUN TIME: 0 days 0 hours 0 minutes 32 seconds 563 msec
