                         Program Version 4.2.1 -  RELEASE  -
|  1> ! wB97X-D3 SP def2-SVP
|  2> %pal
|  3> nprocs 16
|  4> end
|  5>
|  6> * xyz 0 1
|  7> S 	 -62.6688 	 53.3359 	 127.606
|  8> C 	 -64.1401 	 53.2669 	 128.564
|  9> C 	 -63.9547 	 52.6296 	 129.764
| 10> C 	 -62.6671 	 52.0543 	 129.849
| 11> C 	 -61.7516 	 52.3592 	 128.799
| 12> H 	 -62.2738 	 51.3533 	 130.548
| 13> C 	 -64.9773 	 52.5233 	 130.818
| 14> H 	 -64.7537 	 51.8551 	 131.652
| 15> H 	 -65.8851 	 52.1255 	 130.368
| 16> C 	 -65.1809 	 53.8692 	 131.572
| 17> H 	 -64.3542 	 54.1462 	 132.266
| 18> H 	 -65.2732 	 54.6629 	 130.86
| 19> C 	 -66.5868 	 53.8855 	 132.237
| 20> H 	 -66.9086 	 54.9051 	 132.376
| 21> H 	 -67.3917 	 53.4532 	 131.579
| 22> H 	 -66.6236 	 53.3191 	 133.162
| 23> S 	 -59.5796 	 51.1496 	 130.099
| 24> C 	 -58.063 	 50.951 	 129.344
| 25> C 	 -58.0936 	 51.5833 	 128.092
| 26> C 	 -59.3502 	 52.207 	 127.73
| 27> C 	 -60.3378 	 51.9313 	 128.683
| 28> H 	 -57.1617 	 51.6968 	 127.567
| 29> C 	 -59.487 	 53.0121 	 126.459
| 30> H 	 -58.8121 	 53.8964 	 126.504
| 31> H 	 -60.5024 	 53.4045 	 126.445
| 32> C 	 -59.2505 	 52.2159 	 125.134
| 33> H 	 -59.6797 	 51.2234 	 125.21
| 34> H 	 -58.1822 	 51.9873 	 125.115
| 35> C 	 -59.6901 	 52.9943 	 123.899
| 36> H 	 -59.4578 	 52.3653 	 122.982
| 37> H 	 -59.0977 	 53.9112 	 123.79
| 38> H 	 -60.7175 	 53.3212 	 123.968
| 39> H 	 -65.0459 	 53.7585 	 128.41
| 40> H 	 -57.1789 	 50.5953 	 129.864
| 41> *
| 42>
| 43>                          ****END OF INPUT****

CARTESIAN COORDINATES (ANGSTROEM)
---------------------------------
  S    -62.668800   53.335900  127.606000
  C    -64.140100   53.266900  128.564000
  C    -63.954700   52.629600  129.764000
  C    -62.667100   52.054300  129.849000
  C    -61.751600   52.359200  128.799000
  H    -62.273800   51.353300  130.548000
  C    -64.977300   52.523300  130.818000
  H    -64.753700   51.855100  131.652000
  H    -65.885100   52.125500  130.368000
  C    -65.180900   53.869200  131.572000
  H    -64.354200   54.146200  132.266000
  H    -65.273200   54.662900  130.860000
  C    -66.586800   53.885500  132.237000
  H    -66.908600   54.905100  132.376000
  H    -67.391700   53.453200  131.579000
  H    -66.623600   53.319100  133.162000
  S    -59.579600   51.149600  130.099000
  C    -58.063000   50.951000  129.344000
  C    -58.093600   51.583300  128.092000
  C    -59.350200   52.207000  127.730000
  C    -60.337800   51.931300  128.683000
  H    -57.161700   51.696800  127.567000
  C    -59.487000   53.012100  126.459000
  H    -58.812100   53.896400  126.504000
  H    -60.502400   53.404500  126.445000
  C    -59.250500   52.215900  125.134000
  H    -59.679700   51.223400  125.210000
  H    -58.182200   51.987300  125.115000
  C    -59.690100   52.994300  123.899000
  H    -59.457800   52.365300  122.982000
  H    -59.097700   53.911200  123.790000
  H    -60.717500   53.321200  123.968000
  H    -65.045900   53.758500  128.410000
  H    -57.178900   50.595300  129.864000

 Total Charge           Charge          ....    0
 Multiplicity           Mult            ....    1
 Number of Electrons    NEL             ....  134
 Basis Dimension        Dim             ....  322

ORBITAL ENERGIES
----------------

  NO   OCC          E(Eh)            E(eV)
   0   2.0000     -88.971278     -2421.0316
   1   2.0000     -88.966696     -2420.9069
   2   2.0000     -10.340294      -281.3737
   3   2.0000     -10.337798      -281.3058
   4   2.0000     -10.320554      -280.8365
   5   2.0000     -10.309284      -280.5299
   6   2.0000     -10.308112      -280.4980
   7   2.0000     -10.296820      -280.1907
   8   2.0000     -10.296548      -280.1833
   9   2.0000     -10.295398      -280.1520
  10   2.0000     -10.292493      -280.0730
  11   2.0000     -10.290108      -280.0081
  12   2.0000     -10.289337      -279.9871
  13   2.0000     -10.286208      -279.9019
  14   2.0000     -10.282260      -279.7945
  15   2.0000     -10.279940      -279.7314
  16   2.0000      -8.083897      -219.9740
  17   2.0000      -8.081506      -219.9090
  18   2.0000      -6.042675      -164.4295
  19   2.0000      -6.040136      -164.3605
  20   2.0000      -6.038630      -164.3195
  21   2.0000      -6.035945      -164.2464
  22   2.0000      -6.034589      -164.2095
  23   2.0000      -6.032200      -164.1445
  24   2.0000      -1.001739       -27.2587
  25   2.0000      -0.983114       -26.7519
  26   2.0000      -0.912599       -24.8331
  27   2.0000      -0.907434       -24.6925
  28   2.0000      -0.867349       -23.6018
  29   2.0000      -0.851666       -23.1750
  30   2.0000      -0.845736       -23.0137
  31   2.0000      -0.809454       -22.0264
  32   2.0000      -0.780416       -21.2362
  33   2.0000      -0.772398       -21.0180
  34   2.0000      -0.707910       -19.2632
  35   2.0000      -0.701851       -19.0983
  36   2.0000      -0.698787       -19.0150
  37   2.0000      -0.666429       -18.1345
  38   2.0000      -0.633484       -17.2380
  39   2.0000      -0.615484       -16.7482
  40   2.0000      -0.596163       -16.2224
  41   2.0000      -0.581290       -15.8177
  42   2.0000      -0.562156       -15.2970
  43   2.0000      -0.558075       -15.1860
  44   2.0000      -0.527389       -14.3510
  45   2.0000      -0.520579       -14.1657
  46   2.0000      -0.516632       -14.0583
  47   2.0000      -0.513413       -13.9707
  48   2.0000      -0.512167       -13.9368
  49   2.0000      -0.500540       -13.6204
  50   2.0000      -0.485092       -13.2000
  51   2.0000      -0.483512       -13.1570
  52   2.0000      -0.472865       -12.8673
  53   2.0000      -0.470592       -12.8055
  54   2.0000      -0.459423       -12.5015
  55   2.0000      -0.449317       -12.2266
  56   2.0000      -0.445982       -12.1358
  57   2.0000      -0.436685       -11.8828
  58   2.0000      -0.431102       -11.7309
  59   2.0000      -0.424140       -11.5414
  60   2.0000      -0.420054       -11.4302
  61   2.0000      -0.414786       -11.2869
  62   2.0000      -0.404505       -11.0071
  63   2.0000      -0.363438        -9.8897
  64   2.0000      -0.332077        -9.0363
  65   2.0000      -0.327860        -8.9215
  66   2.0000      -0.278503        -7.5784
  67   0.0000       0.014860         0.4044
  68   0.0000       0.084426         2.2974
  69   0.0000       0.110758         3.0139
  70   0.0000       0.112986         3.0745
  71   0.0000       0.129591         3.5264

MULLIKEN ATOMIC CHARGES
-----------------------
   0 S :    0.077056
   1 C :   -0.066017
   2 C :   -0.058230
   3 C :   -0.008555
   4 C :   -0.120887
   5 H :    0.004246
   6 C :    0.055583
   7 H :    0.025427
   8 H :    0.034230
   9 C :   -0.079076
  10 H :    0.050425
  11 H :    0.016673
  12 C :   -0.064360
  13 H :    0.031748
  14 H :    0.029119
  15 H :    0.035120
  16 S :    0.082396
  17 C :   -0.083122
  18 C :   -0.040198
  19 C :   -0.079991
  20 C :   -0.111381
  21 H :    0.016635
  22 C :    0.059459
  23 H :    0.044246
  24 H :    0.011789
  25 C :   -0.081455
  26 H :    0.036406
  27 H :    0.024193
  28 C :   -0.045052
  29 H :    0.048273
  30 H :    0.026737
  31 H :    0.040338
  32 H :    0.018475
  33 H :    0.069748
Sum of atomic charges:   -0.0000000

LOEWDIN ATOMIC CHARGES
----------------------
   0 S :    0.397821
   1 C :   -0.187833
   2 C :   -0.062921
   3 C :   -0.067734
   4 C :   -0.172743
   5 H :    0.018241
   6 C :   -0.033724
   7 H :    0.033710
   8 H :    0.033442
   9 C :   -0.034602
  10 H :    0.033609
  11 H :    0.015708
  12 C :   -0.068282
  13 H :    0.023210
  14 H :    0.028880
  15 H :    0.021448
  16 S :    0.412756
  17 C :   -0.197799
  18 C :   -0.073182
  19 C :   -0.057892
  20 C :   -0.182899
  21 H :    0.026662
  22 C :   -0.035759
  23 H :    0.039060
  24 H :    0.009907
  25 C :   -0.040817
  26 H :    0.025858
  27 H :    0.021853
  28 C :   -0.067137
  29 H :    0.037076
  30 H :    0.025868
  31 H :    0.025232
  32 H :    0.017701
  33 H :    0.035281

  Mayer bond orders larger than 0.100000
B(  0-S ,  1-C ) :   1.1289 B(  0-S ,  4-C ) :   1.1321 B(  1-C ,  2-C ) :   1.6088
B(  1-C , 32-H ) :   0.9652 B(  2-C ,  3-C ) :   1.2610 B(  2-C ,  6-C ) :   1.0300
B(  3-C ,  4-C ) :   1.5490 B(  3-C ,  5-H ) :   0.9896 B(  4-C , 20-C ) :   1.1098
B(  6-C ,  7-H ) :   0.9446 B(  6-C ,  8-H ) :   0.9442 B(  6-C ,  9-C ) :   1.0485
B(  9-C , 10-H ) :   0.9560 B(  9-C , 11-H ) :   0.9664 B(  9-C , 12-C ) :   1.0688
B( 12-C , 13-H ) :   0.9781 B( 12-C , 14-H ) :   0.9765 B( 12-C , 15-H ) :   0.9767
B( 16-S , 17-C ) :   1.1658 B( 16-S , 20-C ) :   1.1344 B( 17-C , 18-C ) :   1.5849
B( 17-C , 33-H ) :   0.9689 B( 18-C , 19-C ) :   1.2475 B( 18-C , 21-H ) :   0.9921
B( 19-C , 20-C ) :   1.5535 B( 19-C , 22-C ) :   1.0532 B( 22-C , 23-H ) :   0.9239
B( 22-C , 24-H ) :   0.9342 B( 22-C , 25-C ) :   1.0512 B( 25-C , 26-H ) :   0.9586
B( 25-C , 27-H ) :   0.9512 B( 25-C , 28-C ) :   1.0863 B( 28-C , 29-H ) :   0.9725
B( 28-C , 30-H ) :   0.9717 B( 28-C , 31-H ) :   0.9757

Dispersion correction           -0.013394228
FINAL SINGLE POINT ENERGY     -1339.879513176010

DIPOLE MOMENT
-------------
                                X             Y             Z
Electronic contribution:     10.34958      -6.64922       3.45955
Nuclear contribution   :    -10.30454       6.80952      -3.39931
                        -----------------------------------------
Total Dipole Moment    :      0.04504       0.16031       0.06024
                        -----------------------------------------
Magnitude (a.u.)       :      0.17708
Magnitude (Debye)      :      0.45009

Rotational constants in cm-1:     0.022592     0.007223     0.005632
Rotational constants in MHz :   677.289004   216.525783   168.846667

                             ****ORCA TERMINATED NORMALLY****
TOTAL RUN TIME: 0 days 0 hours 0 minutes 31 seconds 272 msec
