                         Program Version 4.2.1 -  RELEASE  -
|  1> ! wB97X-D3 SP def2-SVP
|  2> %pal
|  3> nprocs 16
|  4> end
|  5>
|  6> * xyz 0 1
|  7> S 	 7.33917 	 -12.6336 	 56.8455
|  8> C 	 5.82478 	 -11.8855 	 56.7626
|  9> C 	 5.0568 	 -12.3079 	 55.6749
| 10> C 	 5.60025 	 -13.4742 	 55.0652
| 11> C 	 6.84259 	 -13.8074 	 55.599
| 12> H 	 5.189 	 -14.0528 	 54.3006
| 13> C 	 3.6722 	 -11.8692 	 55.1911
| 14> H 	 3.7896 	 -11.6753 	 54.1172
| 15> H 	 3.48951 	 -10.9713 	 55.7646
| 16> C 	 2.51463 	 -12.8532 	 55.3403
| 17> H 	 1.67492 	 -12.3725 	 54.7647
| 18> H 	 2.75333 	 -13.8189 	 54.8307
| 19> C 	 2.11595 	 -12.9826 	 56.7755
| 20> H 	 2.95097 	 -13.142 	 57.4272
| 21> H 	 1.73332 	 -12.0945 	 57.2919
| 22> H 	 1.43613 	 -13.751 	 57.1008
| 23> S 	 9.089 	 -14.6105 	 54.2713
| 24> C 	 9.5183 	 -16.3095 	 54.1486
| 25> C 	 8.64583 	 -17.0428 	 54.9165
| 26> C 	 7.67694 	 -16.2585 	 55.6174
| 27> C 	 7.71047 	 -14.9107 	 55.2927
| 28> H 	 8.77339 	 -18.1248 	 54.9928
| 29> C 	 6.66158 	 -16.8749 	 56.5463
| 30> H 	 6.64848 	 -17.9919 	 56.3221
| 31> H 	 5.71483 	 -16.5081 	 56.2512
| 32> C 	 6.72927 	 -16.5946 	 58.0198
| 33> H 	 6.68402 	 -15.5165 	 58.1989
| 34> H 	 7.74313 	 -16.8152 	 58.3919
| 35> C 	 5.5502 	 -17.1991 	 58.69
| 36> H 	 4.52213 	 -16.847 	 58.5137
| 37> H 	 5.62302 	 -17.0817 	 59.7664
| 38> H 	 5.58964 	 -18.2631 	 58.6693
| 39> H 	 5.49408 	 -11.0685 	 57.3345
| 40> H 	 10.4143 	 -16.7113 	 53.7186
| 41> *
| 42>
| 43>                          ****END OF INPUT****

CARTESIAN COORDINATES (ANGSTROEM)
---------------------------------
  S      7.339170  -12.633600   56.845500
  C      5.824780  -11.885500   56.762600
  C      5.056800  -12.307900   55.674900
  C      5.600250  -13.474200   55.065200
  C      6.842590  -13.807400   55.599000
  H      5.189000  -14.052800   54.300600
  C      3.672200  -11.869200   55.191100
  H      3.789600  -11.675300   54.117200
  H      3.489510  -10.971300   55.764600
  C      2.514630  -12.853200   55.340300
  H      1.674920  -12.372500   54.764700
  H      2.753330  -13.818900   54.830700
  C      2.115950  -12.982600   56.775500
  H      2.950970  -13.142000   57.427200
  H      1.733320  -12.094500   57.291900
  H      1.436130  -13.751000   57.100800
  S      9.089000  -14.610500   54.271300
  C      9.518300  -16.309500   54.148600
  C      8.645830  -17.042800   54.916500
  C      7.676940  -16.258500   55.617400
  C      7.710470  -14.910700   55.292700
  H      8.773390  -18.124800   54.992800
  C      6.661580  -16.874900   56.546300
  H      6.648480  -17.991900   56.322100
  H      5.714830  -16.508100   56.251200
  C      6.729270  -16.594600   58.019800
  H      6.684020  -15.516500   58.198900
  H      7.743130  -16.815200   58.391900
  C      5.550200  -17.199100   58.690000
  H      4.522130  -16.847000   58.513700
  H      5.623020  -17.081700   59.766400
  H      5.589640  -18.263100   58.669300
  H      5.494080  -11.068500   57.334500
  H     10.414300  -16.711300   53.718600

 Total Charge           Charge          ....    0
 Multiplicity           Mult            ....    1
 Number of Electrons    NEL             ....  134
 Basis Dimension        Dim             ....  322

ORBITAL ENERGIES
----------------

  NO   OCC          E(Eh)            E(eV)
   0   2.0000     -88.969242     -2420.9762
   1   2.0000     -88.960527     -2420.7390
   2   2.0000     -10.329443      -281.0784
   3   2.0000     -10.320411      -280.8326
   4   2.0000     -10.315180      -280.6903
   5   2.0000     -10.311415      -280.5879
   6   2.0000     -10.300243      -280.2839
   7   2.0000     -10.299662      -280.2680
   8   2.0000     -10.296325      -280.1772
   9   2.0000     -10.293460      -280.0993
  10   2.0000     -10.293119      -280.0900
  11   2.0000     -10.292308      -280.0679
  12   2.0000     -10.282815      -279.8096
  13   2.0000     -10.278968      -279.7049
  14   2.0000     -10.271241      -279.4947
  15   2.0000     -10.270459      -279.4734
  16   2.0000      -8.084242      -219.9834
  17   2.0000      -8.075483      -219.7451
  18   2.0000      -6.042535      -164.4257
  19   2.0000      -6.038785      -164.3237
  20   2.0000      -6.035121      -164.2240
  21   2.0000      -6.033968      -164.1926
  22   2.0000      -6.029812      -164.0795
  23   2.0000      -6.026386      -163.9863
  24   2.0000      -1.007991       -27.4288
  25   2.0000      -0.985948       -26.8290
  26   2.0000      -0.916667       -24.9438
  27   2.0000      -0.913725       -24.8637
  28   2.0000      -0.872863       -23.7518
  29   2.0000      -0.854130       -23.2421
  30   2.0000      -0.849304       -23.1107
  31   2.0000      -0.815231       -22.1836
  32   2.0000      -0.784052       -21.3351
  33   2.0000      -0.771574       -20.9956
  34   2.0000      -0.714318       -19.4376
  35   2.0000      -0.700940       -19.0735
  36   2.0000      -0.693942       -18.8831
  37   2.0000      -0.660878       -17.9834
  38   2.0000      -0.648955       -17.6590
  39   2.0000      -0.622263       -16.9326
  40   2.0000      -0.597050       -16.2466
  41   2.0000      -0.567585       -15.4448
  42   2.0000      -0.563977       -15.3466
  43   2.0000      -0.557398       -15.1676
  44   2.0000      -0.538948       -14.6655
  45   2.0000      -0.521607       -14.1936
  46   2.0000      -0.518628       -14.1126
  47   2.0000      -0.514671       -14.0049
  48   2.0000      -0.510900       -13.9023
  49   2.0000      -0.501381       -13.6433
  50   2.0000      -0.495203       -13.4752
  51   2.0000      -0.481146       -13.0927
  52   2.0000      -0.473960       -12.8971
  53   2.0000      -0.462902       -12.5962
  54   2.0000      -0.455095       -12.3838
  55   2.0000      -0.448189       -12.1958
  56   2.0000      -0.442283       -12.0351
  57   2.0000      -0.439590       -11.9619
  58   2.0000      -0.434906       -11.8344
  59   2.0000      -0.427725       -11.6390
  60   2.0000      -0.418205       -11.3799
  61   2.0000      -0.410279       -11.1643
  62   2.0000      -0.404333       -11.0025
  63   2.0000      -0.340116        -9.2550
  64   2.0000      -0.329200        -8.9580
  65   2.0000      -0.320892        -8.7319
  66   2.0000      -0.303401        -8.2560
  67   0.0000       0.042628         1.1600
  68   0.0000       0.051297         1.3959
  69   0.0000       0.115313         3.1378
  70   0.0000       0.127490         3.4692
  71   0.0000       0.127732         3.4758

MULLIKEN ATOMIC CHARGES
-----------------------
   0 S :    0.132927
   1 C :   -0.087132
   2 C :   -0.115611
   3 C :    0.077337
   4 C :   -0.191225
   5 H :   -0.005571
   6 C :    0.066312
   7 H :    0.039109
   8 H :    0.011251
   9 C :   -0.049880
  10 H :    0.041697
  11 H :    0.041243
  12 C :   -0.040406
  13 H :    0.012743
  14 H :    0.015132
  15 H :    0.027144
  16 S :    0.102782
  17 C :   -0.084554
  18 C :   -0.050726
  19 C :   -0.009550
  20 C :   -0.175114
  21 H :    0.022676
  22 C :    0.074637
  23 H :    0.020623
  24 H :    0.001812
  25 C :   -0.043095
  26 H :    0.021523
  27 H :    0.024643
  28 C :   -0.030031
  29 H :    0.042160
  30 H :    0.013925
  31 H :    0.013285
  32 H :    0.026002
  33 H :    0.053932
Sum of atomic charges:    0.0000000

LOEWDIN ATOMIC CHARGES
----------------------
   0 S :    0.426153
   1 C :   -0.209564
   2 C :   -0.066353
   3 C :   -0.039642
   4 C :   -0.188321
   5 H :    0.024430
   6 C :   -0.028957
   7 H :    0.036826
   8 H :    0.025747
   9 C :   -0.041875
  10 H :    0.033832
  11 H :    0.029336
  12 C :   -0.079047
  13 H :    0.023448
  14 H :    0.028438
  15 H :    0.024669
  16 S :    0.407429
  17 C :   -0.182366
  18 C :   -0.076339
  19 C :   -0.054842
  20 C :   -0.215741
  21 H :    0.033231
  22 C :   -0.034950
  23 H :    0.032822
  24 H :    0.024597
  25 C :   -0.043454
  26 H :    0.024083
  27 H :    0.027051
  28 C :   -0.070049
  29 H :    0.032730
  30 H :    0.028338
  31 H :    0.020461
  32 H :    0.018468
  33 H :    0.029410

  Mayer bond orders larger than 0.100000
B(  0-S ,  1-C ) :   1.1599 B(  0-S ,  4-C ) :   1.1454 B(  1-C ,  2-C ) :   1.6014
B(  1-C ,  4-C ) :   0.1027 B(  1-C , 32-H ) :   0.9665 B(  2-C ,  3-C ) :   1.2181
B(  2-C ,  6-C ) :   1.0276 B(  3-C ,  4-C ) :   1.5971 B(  3-C ,  5-H ) :   1.0052
B(  4-C , 20-C ) :   1.0205 B(  6-C ,  7-H ) :   0.9337 B(  6-C ,  8-H ) :   0.9397
B(  6-C ,  9-C ) :   1.0765 B(  9-C , 10-H ) :   0.9517 B(  9-C , 11-H ) :   0.9523
B(  9-C , 12-C ) :   1.0663 B( 12-C , 13-H ) :   0.9724 B( 12-C , 14-H ) :   0.9684
B( 12-C , 15-H ) :   0.9737 B( 16-S , 17-C ) :   1.1593 B( 16-S , 20-C ) :   1.1480
B( 17-C , 18-C ) :   1.5942 B( 17-C , 20-C ) :   0.1031 B( 17-C , 33-H ) :   0.9693
B( 18-C , 19-C ) :   1.2601 B( 18-C , 21-H ) :   0.9880 B( 19-C , 20-C ) :   1.5800
B( 19-C , 22-C ) :   1.0425 B( 22-C , 23-H ) :   0.9359 B( 22-C , 24-H ) :   0.9212
B( 22-C , 25-C ) :   1.0742 B( 25-C , 26-H ) :   0.9446 B( 25-C , 27-H ) :   0.9493
B( 25-C , 28-C ) :   1.0909 B( 28-C , 29-H ) :   0.9718 B( 28-C , 30-H ) :   0.9642
B( 28-C , 31-H ) :   0.9695

Dispersion correction           -0.014951644
FINAL SINGLE POINT ENERGY     -1339.874327959054

DIPOLE MOMENT
-------------
                                X             Y             Z
Electronic contribution:     24.72411       7.57926     -10.57111
Nuclear contribution   :    -25.23876      -7.78221      10.71208
                        -----------------------------------------
Total Dipole Moment    :     -0.51465      -0.20295       0.14097
                        -----------------------------------------
Magnitude (a.u.)       :      0.57090
Magnitude (Debye)      :      1.45112

Rotational constants in cm-1:     0.018343     0.009375     0.007637
Rotational constants in MHz :   549.922471   281.056718   228.956052

                             ****ORCA TERMINATED NORMALLY****
TOTAL RUN TIME: 0 days 0 hours 0 minutes 31 seconds 61 msec
