                         Program Version 4.2.1 -  RELEASE  -
|  1> ! wB97X-D3 SP def2-SVP
|  2> %pal
|  3> nprocs 16
|  4> end
|  5>
|  6> * xyz 0 1
|  7> S 	 -1.16111 	 10.6064 	 86.2966
|  8> C 	 -1.88189 	 11.0269 	 84.7612
|  9> C 	 -1.01875 	 11.0104 	 83.658
| 10> C 	 0.291129 	 10.7062 	 84.1232
| 11> C 	 0.4288 	 10.5142 	 85.5372
| 12> H 	 1.06365 	 10.6637 	 83.4116
| 13> C 	 -1.37367 	 11.2827 	 82.2385
| 14> H 	 -2.35264 	 10.8082 	 82.2224
| 15> H 	 -0.773672 	 10.6432 	 81.6104
| 16> C 	 -1.17103 	 12.72 	 81.6503
| 17> H 	 -2.12077 	 13.1569 	 81.8762
| 18> H 	 -0.424367 	 13.2645 	 82.2184
| 19> C 	 -0.925899 	 12.803 	 80.1358
| 20> H 	 -1.88883 	 12.6962 	 79.6283
| 21> H 	 -0.453944 	 13.7897 	 79.8494
| 22> H 	 -0.294323 	 11.9838 	 79.905
| 23> S 	 1.38237 	 10.0213 	 88.1486
| 24> C 	 3.12965 	 10.1188 	 88.4375
| 25> C 	 3.80775 	 10.2739 	 87.2779
| 26> C 	 3.02057 	 10.5235 	 86.1043
| 27> C 	 1.65159 	 10.3597 	 86.3639
| 28> H 	 4.90318 	 10.4183 	 87.2833
| 29> C 	 3.70189 	 10.7263 	 84.7685
| 30> H 	 3.10255 	 10.4721 	 83.9554
| 31> H 	 4.49481 	 9.95114 	 84.6362
| 32> C 	 4.44257 	 12.0603 	 84.4939
| 33> H 	 5.14583 	 12.3552 	 85.2378
| 34> H 	 3.77188 	 12.9799 	 84.496
| 35> C 	 5.00012 	 12.0265 	 83.0791
| 36> H 	 4.37078 	 11.8085 	 82.2084
| 37> H 	 5.7736 	 11.2484 	 82.9941
| 38> H 	 5.51028 	 13.0213 	 82.9743
| 39> H 	 -2.95994 	 11.1937 	 84.6942
| 40> H 	 3.6197 	 10.119 	 89.4239
| 41> *
| 42>
| 43>                          ****END OF INPUT****

CARTESIAN COORDINATES (ANGSTROEM)
---------------------------------
  S     -1.161110   10.606400   86.296600
  C     -1.881890   11.026900   84.761200
  C     -1.018750   11.010400   83.658000
  C      0.291129   10.706200   84.123200
  C      0.428800   10.514200   85.537200
  H      1.063650   10.663700   83.411600
  C     -1.373670   11.282700   82.238500
  H     -2.352640   10.808200   82.222400
  H     -0.773672   10.643200   81.610400
  C     -1.171030   12.720000   81.650300
  H     -2.120770   13.156900   81.876200
  H     -0.424367   13.264500   82.218400
  C     -0.925899   12.803000   80.135800
  H     -1.888830   12.696200   79.628300
  H     -0.453944   13.789700   79.849400
  H     -0.294323   11.983800   79.905000
  S      1.382370   10.021300   88.148600
  C      3.129650   10.118800   88.437500
  C      3.807750   10.273900   87.277900
  C      3.020570   10.523500   86.104300
  C      1.651590   10.359700   86.363900
  H      4.903180   10.418300   87.283300
  C      3.701890   10.726300   84.768500
  H      3.102550   10.472100   83.955400
  H      4.494810    9.951140   84.636200
  C      4.442570   12.060300   84.493900
  H      5.145830   12.355200   85.237800
  H      3.771880   12.979900   84.496000
  C      5.000120   12.026500   83.079100
  H      4.370780   11.808500   82.208400
  H      5.773600   11.248400   82.994100
  H      5.510280   13.021300   82.974300
  H     -2.959940   11.193700   84.694200
  H      3.619700   10.119000   89.423900

 Total Charge           Charge          ....    0
 Multiplicity           Mult            ....    1
 Number of Electrons    NEL             ....  134
 Basis Dimension        Dim             ....  322

ORBITAL ENERGIES
----------------

  NO   OCC          E(Eh)            E(eV)
   0   2.0000     -88.970810     -2421.0188
   1   2.0000     -88.964198     -2420.8389
   2   2.0000     -10.340019      -281.3662
   3   2.0000     -10.339435      -281.3503
   4   2.0000     -10.319450      -280.8065
   5   2.0000     -10.315805      -280.7073
   6   2.0000     -10.307536      -280.4823
   7   2.0000     -10.301551      -280.3195
   8   2.0000     -10.295124      -280.1446
   9   2.0000     -10.293782      -280.1080
  10   2.0000     -10.292988      -280.0864
  11   2.0000     -10.292724      -280.0793
  12   2.0000     -10.292634      -280.0768
  13   2.0000     -10.287500      -279.9371
  14   2.0000     -10.284962      -279.8681
  15   2.0000     -10.284408      -279.8530
  16   2.0000      -8.085057      -220.0056
  17   2.0000      -8.077565      -219.8017
  18   2.0000      -6.043621      -164.4553
  19   2.0000      -6.039646      -164.3471
  20   2.0000      -6.036393      -164.2586
  21   2.0000      -6.035803      -164.2426
  22   2.0000      -6.032473      -164.1519
  23   2.0000      -6.027871      -164.0267
  24   2.0000      -0.997196       -27.1351
  25   2.0000      -0.977173       -26.5902
  26   2.0000      -0.913395       -24.8547
  27   2.0000      -0.909638       -24.7525
  28   2.0000      -0.866809       -23.5871
  29   2.0000      -0.854673       -23.2568
  30   2.0000      -0.845111       -22.9966
  31   2.0000      -0.811592       -22.0845
  32   2.0000      -0.783084       -21.3088
  33   2.0000      -0.770590       -20.9688
  34   2.0000      -0.709589       -19.3089
  35   2.0000      -0.705621       -19.2009
  36   2.0000      -0.697881       -18.9903
  37   2.0000      -0.659529       -17.9467
  38   2.0000      -0.633288       -17.2326
  39   2.0000      -0.624788       -17.0013
  40   2.0000      -0.600960       -16.3529
  41   2.0000      -0.572242       -15.5715
  42   2.0000      -0.559682       -15.2297
  43   2.0000      -0.555493       -15.1157
  44   2.0000      -0.532341       -14.4857
  45   2.0000      -0.528653       -14.3854
  46   2.0000      -0.514856       -14.0099
  47   2.0000      -0.508987       -13.8503
  48   2.0000      -0.504178       -13.7194
  49   2.0000      -0.492348       -13.3975
  50   2.0000      -0.488286       -13.2869
  51   2.0000      -0.486335       -13.2339
  52   2.0000      -0.469398       -12.7730
  53   2.0000      -0.464988       -12.6530
  54   2.0000      -0.460991       -12.5442
  55   2.0000      -0.456215       -12.4142
  56   2.0000      -0.444366       -12.0918
  57   2.0000      -0.442736       -12.0475
  58   2.0000      -0.437146       -11.8954
  59   2.0000      -0.427972       -11.6457
  60   2.0000      -0.419512       -11.4155
  61   2.0000      -0.411876       -11.2077
  62   2.0000      -0.405827       -11.0431
  63   2.0000      -0.359335        -9.7780
  64   2.0000      -0.336700        -9.1621
  65   2.0000      -0.327336        -8.9073
  66   2.0000      -0.276482        -7.5235
  67   0.0000       0.014331         0.3900
  68   0.0000       0.079120         2.1530
  69   0.0000       0.090299         2.4572
  70   0.0000       0.118057         3.2125
  71   0.0000       0.127459         3.4683

MULLIKEN ATOMIC CHARGES
-----------------------
   0 S :    0.111019
   1 C :   -0.134569
   2 C :   -0.109415
   3 C :    0.021689
   4 C :   -0.097499
   5 H :   -0.026356
   6 C :    0.067495
   7 H :    0.028851
   8 H :    0.003490
   9 C :   -0.049684
  10 H :    0.024221
  11 H :    0.038386
  12 C :   -0.052198
  13 H :    0.040856
  14 H :    0.051498
  15 H :    0.025860
  16 S :    0.063762
  17 C :   -0.087242
  18 C :   -0.024566
  19 C :   -0.028958
  20 C :   -0.106677
  21 H :    0.027419
  22 C :    0.050996
  23 H :   -0.010994
  24 H :    0.028493
  25 C :   -0.064124
  26 H :    0.025564
  27 H :    0.035361
  28 C :   -0.073770
  29 H :    0.040607
  30 H :    0.021399
  31 H :    0.042584
  32 H :    0.048049
  33 H :    0.068453
Sum of atomic charges:   -0.0000000

LOEWDIN ATOMIC CHARGES
----------------------
   0 S :    0.407904
   1 C :   -0.198882
   2 C :   -0.063115
   3 C :   -0.057649
   4 C :   -0.185754
   5 H :    0.015548
   6 C :   -0.035873
   7 H :    0.035880
   8 H :    0.024470
   9 C :   -0.037551
  10 H :    0.023020
  11 H :    0.026366
  12 C :   -0.062771
  13 H :    0.029533
  14 H :    0.037796
  15 H :    0.016975
  16 S :    0.344258
  17 C :   -0.175990
  18 C :   -0.075155
  19 C :   -0.056990
  20 C :   -0.159425
  21 H :    0.035241
  22 C :   -0.032089
  23 H :    0.017735
  24 H :    0.040123
  25 C :   -0.040045
  26 H :    0.020740
  27 H :    0.031354
  28 C :   -0.072739
  29 H :    0.027235
  30 H :    0.020695
  31 H :    0.034772
  32 H :    0.025065
  33 H :    0.039316

  Mayer bond orders larger than 0.100000
B(  0-S ,  1-C ) :   1.1571 B(  0-S ,  4-C ) :   1.1540 B(  1-C ,  2-C ) :   1.5797
B(  1-C ,  4-C ) :   0.1010 B(  1-C , 32-H ) :   0.9628 B(  2-C ,  3-C ) :   1.2962
B(  2-C ,  6-C ) :   1.0263 B(  3-C ,  4-C ) :   1.5085 B(  3-C ,  5-H ) :   0.9979
B(  4-C , 20-C ) :   1.0900 B(  6-C ,  7-H ) :   0.9378 B(  6-C ,  8-H ) :   0.9367
B(  6-C ,  9-C ) :   1.0255 B(  9-C , 10-H ) :   0.9573 B(  9-C , 11-H ) :   0.9641
B(  9-C , 12-C ) :   1.0738 B( 12-C , 13-H ) :   0.9783 B( 12-C , 14-H ) :   0.9751
B( 12-C , 15-H ) :   0.9786 B( 16-S , 17-C ) :   1.1228 B( 16-S , 20-C ) :   1.1062
B( 17-C , 18-C ) :   1.6550 B( 17-C , 33-H ) :   0.9619 B( 18-C , 19-C ) :   1.2238
B( 18-C , 21-H ) :   0.9765 B( 19-C , 20-C ) :   1.6155 B( 19-C , 22-C ) :   1.0306
B( 22-C , 23-H ) :   0.9441 B( 22-C , 24-H ) :   0.9362 B( 22-C , 25-C ) :   1.0501
B( 25-C , 26-H ) :   0.9553 B( 25-C , 27-H ) :   0.9541 B( 25-C , 28-C ) :   1.0747
B( 28-C , 29-H ) :   0.9759 B( 28-C , 30-H ) :   0.9735 B( 28-C , 31-H ) :   0.9735

Dispersion correction           -0.013160642
FINAL SINGLE POINT ENERGY     -1339.863177333267

DIPOLE MOMENT
-------------
                                X             Y             Z
Electronic contribution:    -10.26912     -11.89230      30.39257
Nuclear contribution   :     10.63474      12.20366     -31.06625
                        -----------------------------------------
Total Dipole Moment    :      0.36561       0.31136      -0.67368
                        -----------------------------------------
Magnitude (a.u.)       :      0.82733
Magnitude (Debye)      :      2.10290

Rotational constants in cm-1:     0.016369     0.009065     0.006003
Rotational constants in MHz :   490.738689   271.758937   179.956340

                             ****ORCA TERMINATED NORMALLY****
TOTAL RUN TIME: 0 days 0 hours 0 minutes 33 seconds 692 msec
