                         Program Version 4.2.1 -  RELEASE  -
|  1> ! wB97X-D3 SP def2-SVP
|  2> %pal
|  3> nprocs 16
|  4> end
|  5>
|  6> * xyz 0 1
|  7> S 	 -25.5698 	 -5.81386 	 87.6483
|  8> C 	 -27.2376 	 -6.27441 	 87.664
|  9> C 	 -28.0479 	 -5.15395 	 87.864
| 10> C 	 -27.3009 	 -3.93789 	 88.0287
| 11> C 	 -25.9405 	 -4.11908 	 87.9755
| 12> H 	 -27.7149 	 -2.93691 	 88.0208
| 13> C 	 -29.5335 	 -5.18974 	 87.8545
| 14> H 	 -29.8842 	 -4.50993 	 88.6734
| 15> H 	 -29.8973 	 -6.24486 	 88.1759
| 16> C 	 -30.2209 	 -4.85017 	 86.5586
| 17> H 	 -29.9286 	 -5.51358 	 85.7709
| 18> H 	 -31.2773 	 -5.10762 	 86.7204
| 19> C 	 -30.096 	 -3.3411 	 86.0644
| 20> H 	 -29.0725 	 -2.96932 	 86.2064
| 21> H 	 -30.5478 	 -3.24633 	 85.0972
| 22> H 	 -30.7493 	 -2.80195 	 86.7682
| 23> S 	 -23.4993 	 -3.58289 	 88.992
| 24> C 	 -22.6217 	 -2.1258 	 88.4952
| 25> C 	 -23.374 	 -1.433 	 87.5526
| 26> C 	 -24.6161 	 -1.97527 	 87.2137
| 27> C 	 -24.8585 	 -3.14648 	 87.9608
| 28> H 	 -22.8498 	 -0.59449 	 87.1465
| 29> C 	 -25.4596 	 -1.53768 	 86.0507
| 30> H 	 -26.2046 	 -2.33938 	 85.8546
| 31> H 	 -24.9063 	 -1.4468 	 85.1176
| 32> C 	 -26.267 	 -0.289633 	 86.2384
| 33> H 	 -25.5493 	 0.506747 	 86.0732
| 34> H 	 -26.5429 	 -0.0429803 	 87.3362
| 35> C 	 -27.515 	 -0.295281 	 85.3699
| 36> H 	 -28.1976 	 -0.966828 	 85.8445
| 37> H 	 -27.254 	 -0.582697 	 84.3613
| 38> H 	 -27.9216 	 0.766222 	 85.2515
| 39> H 	 -27.6491 	 -7.25456 	 87.331
| 40> H 	 -21.5934 	 -1.93004 	 88.7396
| 41> *
| 42>
| 43>                          ****END OF INPUT****

CARTESIAN COORDINATES (ANGSTROEM)
---------------------------------
  S    -25.569800   -5.813860   87.648300
  C    -27.237600   -6.274410   87.664000
  C    -28.047900   -5.153950   87.864000
  C    -27.300900   -3.937890   88.028700
  C    -25.940500   -4.119080   87.975500
  H    -27.714900   -2.936910   88.020800
  C    -29.533500   -5.189740   87.854500
  H    -29.884200   -4.509930   88.673400
  H    -29.897300   -6.244860   88.175900
  C    -30.220900   -4.850170   86.558600
  H    -29.928600   -5.513580   85.770900
  H    -31.277300   -5.107620   86.720400
  C    -30.096000   -3.341100   86.064400
  H    -29.072500   -2.969320   86.206400
  H    -30.547800   -3.246330   85.097200
  H    -30.749300   -2.801950   86.768200
  S    -23.499300   -3.582890   88.992000
  C    -22.621700   -2.125800   88.495200
  C    -23.374000   -1.433000   87.552600
  C    -24.616100   -1.975270   87.213700
  C    -24.858500   -3.146480   87.960800
  H    -22.849800   -0.594490   87.146500
  C    -25.459600   -1.537680   86.050700
  H    -26.204600   -2.339380   85.854600
  H    -24.906300   -1.446800   85.117600
  C    -26.267000   -0.289633   86.238400
  H    -25.549300    0.506747   86.073200
  H    -26.542900   -0.042980   87.336200
  C    -27.515000   -0.295281   85.369900
  H    -28.197600   -0.966828   85.844500
  H    -27.254000   -0.582697   84.361300
  H    -27.921600    0.766222   85.251500
  H    -27.649100   -7.254560   87.331000
  H    -21.593400   -1.930040   88.739600

 Total Charge           Charge          ....    0
 Multiplicity           Mult            ....    1
 Number of Electrons    NEL             ....  134
 Basis Dimension        Dim             ....  322

ORBITAL ENERGIES
----------------

  NO   OCC          E(Eh)            E(eV)
   0   2.0000     -88.966119     -2420.8912
   1   2.0000     -88.966028     -2420.8887
   2   2.0000     -10.330543      -281.1084
   3   2.0000     -10.330323      -281.1024
   4   2.0000     -10.317984      -280.7666
   5   2.0000     -10.317264      -280.7470
   6   2.0000     -10.306134      -280.4442
   7   2.0000     -10.301087      -280.3068
   8   2.0000     -10.298149      -280.2269
   9   2.0000     -10.296064      -280.1702
  10   2.0000     -10.292563      -280.0749
  11   2.0000     -10.289927      -280.0031
  12   2.0000     -10.287185      -279.9285
  13   2.0000     -10.286059      -279.8979
  14   2.0000     -10.284198      -279.8473
  15   2.0000     -10.282736      -279.8075
  16   2.0000      -8.080886      -219.8921
  17   2.0000      -8.080283      -219.8757
  18   2.0000      -6.039424      -164.3411
  19   2.0000      -6.038710      -164.3216
  20   2.0000      -6.035313      -164.2292
  21   2.0000      -6.034783      -164.2148
  22   2.0000      -6.031660      -164.1298
  23   2.0000      -6.031227      -164.1180
  24   2.0000      -1.007031       -27.4027
  25   2.0000      -0.983480       -26.7618
  26   2.0000      -0.916895       -24.9500
  27   2.0000      -0.911812       -24.8117
  28   2.0000      -0.869086       -23.6490
  29   2.0000      -0.853976       -23.2379
  30   2.0000      -0.843708       -22.9585
  31   2.0000      -0.817214       -22.2375
  32   2.0000      -0.782464       -21.2919
  33   2.0000      -0.771866       -21.0035
  34   2.0000      -0.704650       -19.1745
  35   2.0000      -0.701687       -19.0939
  36   2.0000      -0.695490       -18.9252
  37   2.0000      -0.660647       -17.9771
  38   2.0000      -0.639151       -17.3922
  39   2.0000      -0.618485       -16.8298
  40   2.0000      -0.600187       -16.3319
  41   2.0000      -0.573475       -15.6050
  42   2.0000      -0.571489       -15.5510
  43   2.0000      -0.548247       -14.9186
  44   2.0000      -0.535468       -14.5708
  45   2.0000      -0.525095       -14.2886
  46   2.0000      -0.518611       -14.1121
  47   2.0000      -0.514438       -13.9986
  48   2.0000      -0.510898       -13.9022
  49   2.0000      -0.497626       -13.5411
  50   2.0000      -0.491101       -13.3635
  51   2.0000      -0.484533       -13.1848
  52   2.0000      -0.475382       -12.9358
  53   2.0000      -0.468011       -12.7352
  54   2.0000      -0.462632       -12.5889
  55   2.0000      -0.445866       -12.1326
  56   2.0000      -0.439097       -11.9484
  57   2.0000      -0.436069       -11.8660
  58   2.0000      -0.434197       -11.8151
  59   2.0000      -0.428299       -11.6546
  60   2.0000      -0.418563       -11.3897
  61   2.0000      -0.411044       -11.1851
  62   2.0000      -0.405404       -11.0316
  63   2.0000      -0.347643        -9.4598
  64   2.0000      -0.333757        -9.0820
  65   2.0000      -0.330401        -8.9907
  66   2.0000      -0.290076        -7.8934
  67   0.0000       0.026712         0.7269
  68   0.0000       0.065134         1.7724
  69   0.0000       0.110564         3.0086
  70   0.0000       0.115182         3.1343
  71   0.0000       0.121885         3.3167

MULLIKEN ATOMIC CHARGES
-----------------------
   0 S :    0.112722
   1 C :   -0.119104
   2 C :   -0.100683
   3 C :    0.034646
   4 C :   -0.135902
   5 H :    0.011434
   6 C :    0.006912
   7 H :    0.034886
   8 H :    0.035785
   9 C :   -0.052057
  10 H :    0.018580
  11 H :    0.028008
  12 C :   -0.060638
  13 H :    0.043909
  14 H :    0.042755
  15 H :    0.026444
  16 S :    0.100514
  17 C :   -0.097730
  18 C :   -0.043181
  19 C :    0.033922
  20 C :   -0.183104
  21 H :    0.010107
  22 C :    0.049059
  23 H :    0.022789
  24 H :    0.038288
  25 C :   -0.112439
  26 H :    0.017957
  27 H :    0.038503
  28 C :   -0.035492
  29 H :    0.038454
  30 H :    0.029746
  31 H :    0.043463
  32 H :    0.064442
  33 H :    0.057006
Sum of atomic charges:   -0.0000000

LOEWDIN ATOMIC CHARGES
----------------------
   0 S :    0.410777
   1 C :   -0.210803
   2 C :   -0.068405
   3 C :   -0.066058
   4 C :   -0.191204
   5 H :    0.030912
   6 C :   -0.044794
   7 H :    0.034827
   8 H :    0.040949
   9 C :   -0.039972
  10 H :    0.017227
  11 H :    0.025968
  12 C :   -0.063467
  13 H :    0.021591
  14 H :    0.027028
  15 H :    0.026931
  16 S :    0.399034
  17 C :   -0.180293
  18 C :   -0.067214
  19 C :   -0.055120
  20 C :   -0.190186
  21 H :    0.029368
  22 C :   -0.034416
  23 H :    0.030572
  24 H :    0.034808
  25 C :   -0.054408
  26 H :    0.017440
  27 H :    0.030002
  28 C :   -0.060726
  29 H :    0.022448
  30 H :    0.023153
  31 H :    0.036858
  32 H :    0.039538
  33 H :    0.027634

  Mayer bond orders larger than 0.100000
B(  0-S ,  1-C ) :   1.1417 B(  0-S ,  4-C ) :   1.1568 B(  1-C ,  2-C ) :   1.6056
B(  1-C , 32-H ) :   0.9615 B(  2-C ,  3-C ) :   1.2318 B(  2-C ,  6-C ) :   1.0334
B(  3-C ,  4-C ) :   1.5742 B(  3-C ,  5-H ) :   0.9965 B(  4-C , 20-C ) :   1.0276
B(  6-C ,  7-H ) :   0.9398 B(  6-C ,  8-H ) :   0.9389 B(  6-C ,  9-C ) :   1.0758
B(  9-C , 10-H ) :   0.9528 B(  9-C , 11-H ) :   0.9548 B(  9-C , 12-C ) :   1.0656
B( 12-C , 13-H ) :   0.9682 B( 12-C , 14-H ) :   0.9736 B( 12-C , 15-H ) :   0.9770
B( 16-S , 17-C ) :   1.1453 B( 16-S , 20-C ) :   1.1635 B( 17-C , 18-C ) :   1.6024
B( 17-C , 20-C ) :   0.1132 B( 17-C , 33-H ) :   0.9703 B( 18-C , 19-C ) :   1.2376
B( 18-C , 21-H ) :   0.9961 B( 19-C , 20-C ) :   1.5506 B( 19-C , 22-C ) :   1.0445
B( 22-C , 23-H ) :   0.9404 B( 22-C , 24-H ) :   0.9320 B( 22-C , 25-C ) :   1.0345
B( 25-C , 26-H ) :   0.9543 B( 25-C , 27-H ) :   0.9610 B( 25-C , 28-C ) :   1.0768
B( 28-C , 29-H ) :   0.9726 B( 28-C , 30-H ) :   0.9720 B( 28-C , 31-H ) :   0.9698

Dispersion correction           -0.015499500
FINAL SINGLE POINT ENERGY     -1339.881425835423

DIPOLE MOMENT
-------------
                                X             Y             Z
Electronic contribution:     24.56192     -14.34600      14.11779
Nuclear contribution   :    -24.95009      14.67015     -14.63644
                        -----------------------------------------
Total Dipole Moment    :     -0.38817       0.32415      -0.51866
                        -----------------------------------------
Magnitude (a.u.)       :      0.72440
Magnitude (Debye)      :      1.84127

Rotational constants in cm-1:     0.017697     0.010663     0.007073
Rotational constants in MHz :   530.537412   319.658998   212.046538

                             ****ORCA TERMINATED NORMALLY****
TOTAL RUN TIME: 0 days 0 hours 0 minutes 35 seconds 561 msec
