                         Program Version 4.2.1 -  RELEASE  -
|  1> ! wB97X-D3 SP def2-SVP
|  2> %pal
|  3> nprocs 16
|  4> end
|  5>
|  6> * xyz 0 1
|  7> S 	 -58.0689 	 45.6368 	 136.276
|  8> C 	 -56.4758 	 44.9743 	 136.237
|  9> C 	 -55.6171 	 45.7274 	 135.442
| 10> C 	 -56.306 	 46.8701 	 134.933
| 11> C 	 -57.645 	 46.9429 	 135.188
| 12> H 	 -55.6869 	 47.707 	 134.478
| 13> C 	 -54.1563 	 45.341 	 135.214
| 14> H 	 -54.1886 	 44.3914 	 134.609
| 15> H 	 -53.7817 	 45.0123 	 136.174
| 16> C 	 -53.2219 	 46.3552 	 134.475
| 17> H 	 -53.335 	 46.2831 	 133.373
| 18> H 	 -53.3874 	 47.3979 	 134.707
| 19> C 	 -51.7094 	 46.1315 	 134.809
| 20> H 	 -51.1062 	 46.9048 	 134.286
| 21> H 	 -51.4694 	 46.3571 	 135.818
| 22> H 	 -51.3415 	 45.0941 	 134.56
| 23> S 	 -59.6581 	 48.5398 	 136.115
| 24> C 	 -60.2691 	 49.8015 	 135.136
| 25> C 	 -59.7294 	 49.8205 	 133.888
| 26> C 	 -58.7902 	 48.7836 	 133.687
| 27> C 	 -58.5274 	 48.031 	 134.854
| 28> H 	 -59.9231 	 50.5512 	 133.114
| 29> C 	 -57.9496 	 48.6259 	 132.384
| 30> H 	 -58.1029 	 47.655 	 132.007
| 31> H 	 -56.8655 	 48.7516 	 132.52
| 32> C 	 -58.1381 	 49.7141 	 131.341
| 33> H 	 -57.9391 	 50.6146 	 131.966
| 34> H 	 -59.1868 	 49.6735 	 131.031
| 35> C 	 -57.3497 	 49.7653 	 130.029
| 36> H 	 -57.6099 	 48.84 	 129.454
| 37> H 	 -56.2428 	 49.8345 	 130.175
| 38> H 	 -57.7233 	 50.6103 	 129.452
| 39> H 	 -56.0429 	 44.2202 	 136.796
| 40> H 	 -60.9136 	 50.5455 	 135.59
| 41> *
| 42>
| 43>                          ****END OF INPUT****

CARTESIAN COORDINATES (ANGSTROEM)
---------------------------------
  S    -58.068900   45.636800  136.276000
  C    -56.475800   44.974300  136.237000
  C    -55.617100   45.727400  135.442000
  C    -56.306000   46.870100  134.933000
  C    -57.645000   46.942900  135.188000
  H    -55.686900   47.707000  134.478000
  C    -54.156300   45.341000  135.214000
  H    -54.188600   44.391400  134.609000
  H    -53.781700   45.012300  136.174000
  C    -53.221900   46.355200  134.475000
  H    -53.335000   46.283100  133.373000
  H    -53.387400   47.397900  134.707000
  C    -51.709400   46.131500  134.809000
  H    -51.106200   46.904800  134.286000
  H    -51.469400   46.357100  135.818000
  H    -51.341500   45.094100  134.560000
  S    -59.658100   48.539800  136.115000
  C    -60.269100   49.801500  135.136000
  C    -59.729400   49.820500  133.888000
  C    -58.790200   48.783600  133.687000
  C    -58.527400   48.031000  134.854000
  H    -59.923100   50.551200  133.114000
  C    -57.949600   48.625900  132.384000
  H    -58.102900   47.655000  132.007000
  H    -56.865500   48.751600  132.520000
  C    -58.138100   49.714100  131.341000
  H    -57.939100   50.614600  131.966000
  H    -59.186800   49.673500  131.031000
  C    -57.349700   49.765300  130.029000
  H    -57.609900   48.840000  129.454000
  H    -56.242800   49.834500  130.175000
  H    -57.723300   50.610300  129.452000
  H    -56.042900   44.220200  136.796000
  H    -60.913600   50.545500  135.590000

 Total Charge           Charge          ....    0
 Multiplicity           Mult            ....    1
 Number of Electrons    NEL             ....  134
 Basis Dimension        Dim             ....  322

ORBITAL ENERGIES
----------------

  NO   OCC          E(Eh)            E(eV)
   0   2.0000     -88.967408     -2420.9263
   1   2.0000     -88.963639     -2420.8237
   2   2.0000     -10.328231      -281.0455
   3   2.0000     -10.326573      -281.0003
   4   2.0000     -10.313589      -280.6470
   5   2.0000     -10.307645      -280.4853
   6   2.0000     -10.304742      -280.4063
   7   2.0000     -10.301535      -280.3190
   8   2.0000     -10.299031      -280.2509
   9   2.0000     -10.297635      -280.2129
  10   2.0000     -10.293546      -280.1016
  11   2.0000     -10.291333      -280.0414
  12   2.0000     -10.288612      -279.9674
  13   2.0000     -10.288238      -279.9572
  14   2.0000     -10.287190      -279.9287
  15   2.0000     -10.285618      -279.8859
  16   2.0000      -8.082146      -219.9264
  17   2.0000      -8.079190      -219.8459
  18   2.0000      -6.040708      -164.3760
  19   2.0000      -6.037508      -164.2889
  20   2.0000      -6.036666      -164.2660
  21   2.0000      -6.033521      -164.1805
  22   2.0000      -6.032821      -164.1614
  23   2.0000      -6.030160      -164.0890
  24   2.0000      -1.009336       -27.4654
  25   2.0000      -0.987632       -26.8748
  26   2.0000      -0.910743       -24.7826
  27   2.0000      -0.906007       -24.6537
  28   2.0000      -0.872654       -23.7461
  29   2.0000      -0.851772       -23.1779
  30   2.0000      -0.843620       -22.9561
  31   2.0000      -0.816400       -22.2154
  32   2.0000      -0.785957       -21.3870
  33   2.0000      -0.772299       -21.0153
  34   2.0000      -0.714328       -19.4379
  35   2.0000      -0.696552       -18.9541
  36   2.0000      -0.693498       -18.8710
  37   2.0000      -0.648029       -17.6338
  38   2.0000      -0.637250       -17.3404
  39   2.0000      -0.618412       -16.8278
  40   2.0000      -0.605440       -16.4749
  41   2.0000      -0.578994       -15.7552
  42   2.0000      -0.569303       -15.4915
  43   2.0000      -0.558317       -15.1926
  44   2.0000      -0.527934       -14.3658
  45   2.0000      -0.521344       -14.1865
  46   2.0000      -0.515052       -14.0153
  47   2.0000      -0.510004       -13.8779
  48   2.0000      -0.502300       -13.6683
  49   2.0000      -0.497951       -13.5499
  50   2.0000      -0.489263       -13.3135
  51   2.0000      -0.481770       -13.1096
  52   2.0000      -0.473386       -12.8815
  53   2.0000      -0.467466       -12.7204
  54   2.0000      -0.464751       -12.6465
  55   2.0000      -0.458202       -12.4683
  56   2.0000      -0.449155       -12.2221
  57   2.0000      -0.434477       -11.8227
  58   2.0000      -0.432973       -11.7818
  59   2.0000      -0.425839       -11.5877
  60   2.0000      -0.420222       -11.4348
  61   2.0000      -0.414023       -11.2661
  62   2.0000      -0.405082       -11.0228
  63   2.0000      -0.353234        -9.6120
  64   2.0000      -0.335080        -9.1180
  65   2.0000      -0.326412        -8.8821
  66   2.0000      -0.283742        -7.7210
  67   0.0000       0.024849         0.6762
  68   0.0000       0.075195         2.0461
  69   0.0000       0.110561         3.0085
  70   0.0000       0.126640         3.4460
  71   0.0000       0.134461         3.6589

MULLIKEN ATOMIC CHARGES
-----------------------
   0 S :    0.120016
   1 C :   -0.084550
   2 C :   -0.114974
   3 C :   -0.028774
   4 C :   -0.110537
   5 H :    0.036935
   6 C :    0.066834
   7 H :    0.051569
   8 H :    0.024656
   9 C :   -0.090577
  10 H :    0.043813
  11 H :    0.035866
  12 C :   -0.071098
  13 H :    0.032481
  14 H :    0.027499
  15 H :    0.044670
  16 S :    0.099752
  17 C :   -0.076264
  18 C :   -0.031888
  19 C :   -0.043229
  20 C :   -0.165547
  21 H :    0.021361
  22 C :    0.099494
  23 H :    0.021750
  24 H :    0.029124
  25 C :   -0.173608
  26 H :    0.037155
  27 H :    0.031919
  28 C :   -0.025102
  29 H :    0.037941
  30 H :    0.040903
  31 H :    0.042072
  32 H :    0.010348
  33 H :    0.059989
Sum of atomic charges:    0.0000000

LOEWDIN ATOMIC CHARGES
----------------------
   0 S :    0.416574
   1 C :   -0.200372
   2 C :   -0.063014
   3 C :   -0.074199
   4 C :   -0.202404
   5 H :    0.039635
   6 C :   -0.035370
   7 H :    0.045360
   8 H :    0.028966
   9 C :   -0.043456
  10 H :    0.030380
  11 H :    0.021999
  12 C :   -0.067842
  13 H :    0.030196
  14 H :    0.018113
  15 H :    0.029291
  16 S :    0.416668
  17 C :   -0.190880
  18 C :   -0.078142
  19 C :   -0.049476
  20 C :   -0.189022
  21 H :    0.033894
  22 C :   -0.030980
  23 H :    0.022531
  24 H :    0.032155
  25 C :   -0.055730
  26 H :    0.026559
  27 H :    0.020180
  28 C :   -0.065236
  29 H :    0.031358
  30 H :    0.026942
  31 H :    0.031604
  32 H :    0.014758
  33 H :    0.028961

  Mayer bond orders larger than 0.100000
B(  0-S ,  1-C ) :   1.1437 B(  0-S ,  4-C ) :   1.1386 B(  1-C ,  2-C ) :   1.6027
B(  1-C , 32-H ) :   0.9753 B(  2-C ,  3-C ) :   1.2903 B(  2-C ,  6-C ) :   1.0023
B(  3-C ,  4-C ) :   1.5518 B(  3-C ,  5-H ) :   0.9747 B(  4-C , 20-C ) :   1.0815
B(  6-C ,  7-H ) :   0.9358 B(  6-C ,  8-H ) :   0.9469 B(  6-C ,  9-C ) :   1.0562
B(  9-C , 10-H ) :   0.9548 B(  9-C , 11-H ) :   0.9592 B(  9-C , 12-C ) :   1.0841
B( 12-C , 13-H ) :   0.9736 B( 12-C , 14-H ) :   0.9774 B( 12-C , 15-H ) :   0.9767
B( 16-S , 17-C ) :   1.1787 B( 16-S , 20-C ) :   1.1491 B( 17-C , 18-C ) :   1.5546
B( 17-C , 20-C ) :   0.1049 B( 17-C , 33-H ) :   0.9646 B( 18-C , 19-C ) :   1.2912
B( 18-C , 21-H ) :   0.9860 B( 19-C , 20-C ) :   1.5656 B( 19-C , 22-C ) :   1.0145
B( 22-C , 23-H ) :   0.9251 B( 22-C , 24-H ) :   0.9444 B( 22-C , 25-C ) :   1.0729
B( 25-C , 26-H ) :   0.9527 B( 25-C , 27-H ) :   0.9479 B( 25-C , 28-C ) :   1.0864
B( 28-C , 29-H ) :   0.9715 B( 28-C , 30-H ) :   0.9720 B( 28-C , 31-H ) :   0.9703

Dispersion correction           -0.013032760
FINAL SINGLE POINT ENERGY     -1339.874263731173

DIPOLE MOMENT
-------------
                                X             Y             Z
Electronic contribution:    -24.21854      -4.74750      20.86000
Nuclear contribution   :     24.84345       5.01565     -21.24259
                        -----------------------------------------
Total Dipole Moment    :      0.62491       0.26815      -0.38259
                        -----------------------------------------
Magnitude (a.u.)       :      0.78025
Magnitude (Debye)      :      1.98323

Rotational constants in cm-1:     0.015465     0.008752     0.006042
Rotational constants in MHz :   463.637370   262.371442   181.132134

                             ****ORCA TERMINATED NORMALLY****
TOTAL RUN TIME: 0 days 0 hours 0 minutes 33 seconds 912 msec
