                         Program Version 4.2.1 -  RELEASE  -
|  1> ! wB97X-D3 SP def2-SVP
|  2> %pal
|  3> nprocs 16
|  4> end
|  5>
|  6> * xyz 0 1
|  7> S 	 -38.7223 	 29.6432 	 81.3818
|  8> C 	 -37.9117 	 29.4034 	 79.8539
|  9> C 	 -38.3723 	 30.3556 	 78.9778
| 10> C 	 -39.6496 	 30.8626 	 79.3477
| 11> C 	 -40.1158 	 30.3847 	 80.5277
| 12> H 	 -40.3235 	 31.6063 	 78.7806
| 13> C 	 -37.674 	 30.7933 	 77.6866
| 14> H 	 -37.0107 	 30.0176 	 77.3931
| 15> H 	 -37.0538 	 31.606 	 77.9862
| 16> C 	 -38.6215 	 31.056 	 76.5218
| 17> H 	 -39.1852 	 30.1567 	 76.1472
| 18> H 	 -39.3998 	 31.7497 	 76.9492
| 19> C 	 -38.0802 	 31.7131 	 75.282
| 20> H 	 -37.3991 	 31.103 	 74.7782
| 21> H 	 -38.8515 	 32.0114 	 74.5225
| 22> H 	 -37.4716 	 32.5901 	 75.4934
| 23> S 	 -41.2124 	 31.5646 	 82.8237
| 24> C 	 -42.9349 	 31.5402 	 83.0039
| 25> C 	 -43.5768 	 31.1015 	 81.7912
| 26> C 	 -42.6186 	 30.8047 	 80.7641
| 27> C 	 -41.3084 	 30.8402 	 81.1959
| 28> H 	 -44.5878 	 30.9359 	 81.6771
| 29> C 	 -43.1271 	 30.1922 	 79.45
| 30> H 	 -42.4443 	 30.5013 	 78.6773
| 31> H 	 -44.1353 	 30.4818 	 79.1824
| 32> C 	 -43.1467 	 28.6817 	 79.2752
| 33> H 	 -43.9579 	 28.2983 	 79.9552
| 34> H 	 -42.1206 	 28.4772 	 79.5669
| 35> C 	 -43.7396 	 28.2552 	 77.9047
| 36> H 	 -43.5735 	 27.2397 	 77.5816
| 37> H 	 -43.6149 	 28.8756 	 77.0736
| 38> H 	 -44.8121 	 28.1886 	 78.1638
| 39> H 	 -36.8223 	 29.1218 	 79.8106
| 40> H 	 -43.4771 	 31.9064 	 83.8149
| 41> *
| 42>
| 43>                          ****END OF INPUT****

CARTESIAN COORDINATES (ANGSTROEM)
---------------------------------
  S    -38.722300   29.643200   81.381800
  C    -37.911700   29.403400   79.853900
  C    -38.372300   30.355600   78.977800
  C    -39.649600   30.862600   79.347700
  C    -40.115800   30.384700   80.527700
  H    -40.323500   31.606300   78.780600
  C    -37.674000   30.793300   77.686600
  H    -37.010700   30.017600   77.393100
  H    -37.053800   31.606000   77.986200
  C    -38.621500   31.056000   76.521800
  H    -39.185200   30.156700   76.147200
  H    -39.399800   31.749700   76.949200
  C    -38.080200   31.713100   75.282000
  H    -37.399100   31.103000   74.778200
  H    -38.851500   32.011400   74.522500
  H    -37.471600   32.590100   75.493400
  S    -41.212400   31.564600   82.823700
  C    -42.934900   31.540200   83.003900
  C    -43.576800   31.101500   81.791200
  C    -42.618600   30.804700   80.764100
  C    -41.308400   30.840200   81.195900
  H    -44.587800   30.935900   81.677100
  C    -43.127100   30.192200   79.450000
  H    -42.444300   30.501300   78.677300
  H    -44.135300   30.481800   79.182400
  C    -43.146700   28.681700   79.275200
  H    -43.957900   28.298300   79.955200
  H    -42.120600   28.477200   79.566900
  C    -43.739600   28.255200   77.904700
  H    -43.573500   27.239700   77.581600
  H    -43.614900   28.875600   77.073600
  H    -44.812100   28.188600   78.163800
  H    -36.822300   29.121800   79.810600
  H    -43.477100   31.906400   83.814900

 Total Charge           Charge          ....    0
 Multiplicity           Mult            ....    1
 Number of Electrons    NEL             ....  134
 Basis Dimension        Dim             ....  322

ORBITAL ENERGIES
----------------

  NO   OCC          E(Eh)            E(eV)
   0   2.0000     -88.970743     -2421.0170
   1   2.0000     -88.962982     -2420.8058
   2   2.0000     -10.330903      -281.1182
   3   2.0000     -10.329082      -281.0686
   4   2.0000     -10.320202      -280.8270
   5   2.0000     -10.315530      -280.6998
   6   2.0000     -10.305110      -280.4163
   7   2.0000     -10.304792      -280.4077
   8   2.0000     -10.299499      -280.2636
   9   2.0000     -10.295485      -280.1544
  10   2.0000     -10.293511      -280.1007
  11   2.0000     -10.292062      -280.0613
  12   2.0000     -10.286412      -279.9075
  13   2.0000     -10.285954      -279.8950
  14   2.0000     -10.276069      -279.6261
  15   2.0000     -10.275869      -279.6206
  16   2.0000      -8.084922      -220.0019
  17   2.0000      -8.077473      -219.7992
  18   2.0000      -6.043464      -164.4510
  19   2.0000      -6.039455      -164.3419
  20   2.0000      -6.036092      -164.2504
  21   2.0000      -6.035738      -164.2408
  22   2.0000      -6.032581      -164.1549
  23   2.0000      -6.027524      -164.0173
  24   2.0000      -1.009226       -27.4624
  25   2.0000      -0.984250       -26.7828
  26   2.0000      -0.914495       -24.8847
  27   2.0000      -0.911418       -24.8009
  28   2.0000      -0.874330       -23.7917
  29   2.0000      -0.853094       -23.2139
  30   2.0000      -0.845496       -23.0071
  31   2.0000      -0.815609       -22.1938
  32   2.0000      -0.786727       -21.4079
  33   2.0000      -0.775418       -21.1002
  34   2.0000      -0.713056       -19.4032
  35   2.0000      -0.695164       -18.9164
  36   2.0000      -0.688958       -18.7475
  37   2.0000      -0.668662       -18.1952
  38   2.0000      -0.638884       -17.3849
  39   2.0000      -0.619413       -16.8551
  40   2.0000      -0.596151       -16.2221
  41   2.0000      -0.580807       -15.8046
  42   2.0000      -0.567854       -15.4521
  43   2.0000      -0.561707       -15.2848
  44   2.0000      -0.533102       -14.5064
  45   2.0000      -0.520876       -14.1738
  46   2.0000      -0.518617       -14.1123
  47   2.0000      -0.510826       -13.9003
  48   2.0000      -0.501855       -13.6562
  49   2.0000      -0.500115       -13.6088
  50   2.0000      -0.494043       -13.4436
  51   2.0000      -0.484899       -13.1948
  52   2.0000      -0.473297       -12.8791
  53   2.0000      -0.470902       -12.8139
  54   2.0000      -0.462448       -12.5838
  55   2.0000      -0.449717       -12.2374
  56   2.0000      -0.446549       -12.1512
  57   2.0000      -0.436762       -11.8849
  58   2.0000      -0.432138       -11.7591
  59   2.0000      -0.420494       -11.4422
  60   2.0000      -0.412681       -11.2296
  61   2.0000      -0.411764       -11.2047
  62   2.0000      -0.408155       -11.1065
  63   2.0000      -0.354861        -9.6563
  64   2.0000      -0.331876        -9.0308
  65   2.0000      -0.323756        -8.8099
  66   2.0000      -0.289229        -7.8703
  67   0.0000       0.016456         0.4478
  68   0.0000       0.056368         1.5338
  69   0.0000       0.100894         2.7455
  70   0.0000       0.120404         3.2764
  71   0.0000       0.129410         3.5214

MULLIKEN ATOMIC CHARGES
-----------------------
   0 S :    0.084076
   1 C :   -0.107778
   2 C :   -0.132467
   3 C :   -0.013995
   4 C :   -0.143793
   5 H :    0.064365
   6 C :    0.133740
   7 H :    0.010561
   8 H :    0.035734
   9 C :   -0.131664
  10 H :    0.044820
  11 H :    0.034727
  12 C :   -0.021434
  13 H :    0.010272
  14 H :    0.043077
  15 H :    0.017343
  16 S :    0.118257
  17 C :   -0.073144
  18 C :   -0.010215
  19 C :   -0.019254
  20 C :   -0.167538
  21 H :   -0.006494
  22 C :    0.049833
  23 H :    0.004007
  24 H :    0.006929
  25 C :   -0.066606
  26 H :    0.030481
  27 H :    0.043314
  28 C :   -0.032984
  29 H :    0.033006
  30 H :    0.024466
  31 H :    0.022350
  32 H :    0.072632
  33 H :    0.043375
Sum of atomic charges:   -0.0000000

LOEWDIN ATOMIC CHARGES
----------------------
   0 S :    0.378536
   1 C :   -0.211056
   2 C :   -0.057634
   3 C :   -0.071592
   4 C :   -0.176996
   5 H :    0.047858
   6 C :   -0.025678
   7 H :    0.026481
   8 H :    0.034337
   9 C :   -0.050993
  10 H :    0.034578
  11 H :    0.025200
  12 C :   -0.068121
  13 H :    0.014045
  14 H :    0.035990
  15 H :    0.022953
  16 S :    0.407305
  17 C :   -0.181785
  18 C :   -0.052913
  19 C :   -0.053214
  20 C :   -0.190065
  21 H :    0.017024
  22 C :   -0.033057
  23 H :    0.022543
  24 H :    0.022440
  25 C :   -0.036482
  26 H :    0.028327
  27 H :    0.023663
  28 C :   -0.065842
  29 H :    0.029124
  30 H :    0.013960
  31 H :    0.033000
  32 H :    0.040409
  33 H :    0.017654

  Mayer bond orders larger than 0.100000
B(  0-S ,  1-C ) :   1.1168 B(  0-S ,  4-C ) :   1.1266 B(  1-C ,  2-C ) :   1.6387
B(  1-C , 32-H ) :   0.9553 B(  2-C ,  3-C ) :   1.2298 B(  2-C ,  6-C ) :   1.0105
B(  3-C ,  4-C ) :   1.5852 B(  3-C ,  5-H ) :   0.9675 B(  4-C , 20-C ) :   1.0855
B(  6-C ,  7-H ) :   0.9374 B(  6-C ,  8-H ) :   0.9265 B(  6-C ,  9-C ) :   1.0660
B(  9-C , 10-H ) :   0.9557 B(  9-C , 11-H ) :   0.9493 B(  9-C , 12-C ) :   1.0931
B( 12-C , 13-H ) :   0.9710 B( 12-C , 14-H ) :   0.9720 B( 12-C , 15-H ) :   0.9706
B( 16-S , 17-C ) :   1.1654 B( 16-S , 20-C ) :   1.1304 B( 17-C , 18-C ) :   1.5670
B( 17-C , 20-C ) :   0.1030 B( 17-C , 33-H ) :   0.9769 B( 18-C , 19-C ) :   1.2627
B( 18-C , 21-H ) :   1.0004 B( 19-C , 20-C ) :   1.5825 B( 19-C , 22-C ) :   1.0543
B( 22-C , 23-H ) :   0.9258 B( 22-C , 24-H ) :   0.9391 B( 22-C , 25-C ) :   1.0589
B( 25-C , 26-H ) :   0.9667 B( 25-C , 27-H ) :   0.9601 B( 25-C , 28-C ) :   1.0500
B( 28-C , 29-H ) :   0.9735 B( 28-C , 30-H ) :   0.9800 B( 28-C , 31-H ) :   0.9782

Dispersion correction           -0.013978463
FINAL SINGLE POINT ENERGY     -1339.831261012016

DIPOLE MOMENT
-------------
                                X             Y             Z
Electronic contribution:      5.38992       3.44244      29.98571
Nuclear contribution   :     -5.49927      -3.23111     -30.63055
                        -----------------------------------------
Total Dipole Moment    :     -0.10935       0.21133      -0.64484
                        -----------------------------------------
Magnitude (a.u.)       :      0.68734
Magnitude (Debye)      :      1.74708

Rotational constants in cm-1:     0.016566     0.009110     0.007032
Rotational constants in MHz :   496.650334   273.097006   210.805579

                             ****ORCA TERMINATED NORMALLY****
TOTAL RUN TIME: 0 days 0 hours 0 minutes 30 seconds 424 msec
