                         Program Version 4.2.1 -  RELEASE  -
|  1> ! wB97X-D3 SP def2-SVP
|  2> %pal
|  3> nprocs 16
|  4> end
|  5>
|  6> * xyz 0 1
|  7> S 	 43.3091 	 6.58809 	 83.4442
|  8> C 	 43.811 	 8.15282 	 82.6735
|  9> C 	 44.2058 	 9.02525 	 83.6475
| 10> C 	 44.245 	 8.40293 	 84.9387
| 11> C 	 43.8523 	 7.06614 	 85.0131
| 12> H 	 44.4284 	 8.88362 	 85.9063
| 13> C 	 44.6429 	 10.4476 	 83.4656
| 14> H 	 44.5267 	 11.2208 	 84.2497
| 15> H 	 44.1682 	 10.8697 	 82.551
| 16> C 	 46.2064 	 10.5126 	 82.9418
| 17> H 	 46.2525 	 9.97446 	 82.038
| 18> H 	 46.474 	 11.5444 	 82.8392
| 19> C 	 47.2362 	 9.96903 	 83.9481
| 20> H 	 48.1693 	 10.0047 	 83.4076
| 21> H 	 47.3793 	 10.6824 	 84.7779
| 22> H 	 46.9703 	 8.93052 	 84.3535
| 23> S 	 43.1014 	 4.56784 	 85.8404
| 24> C 	 43.3263 	 4.15517 	 87.5564
| 25> C 	 44.0937 	 5.07496 	 88.2051
| 26> C 	 44.2833 	 6.24595 	 87.4459
| 27> C 	 43.7597 	 6.15696 	 86.1607
| 28> H 	 44.4347 	 4.91792 	 89.26
| 29> C 	 45.1141 	 7.29242 	 88.1129
| 30> H 	 45.7828 	 7.6587 	 87.3027
| 31> H 	 45.6718 	 6.84559 	 88.847
| 32> C 	 44.2432 	 8.36788 	 88.8105
| 33> H 	 43.6744 	 7.92231 	 89.5645
| 34> H 	 43.5031 	 8.80799 	 88.0946
| 35> C 	 45.1397 	 9.47957 	 89.497
| 36> H 	 45.7841 	 9.00529 	 90.1763
| 37> H 	 44.536 	 10.1129 	 90.0741
| 38> H 	 45.7242 	 10.1921 	 88.9129
| 39> H 	 43.7368 	 8.48667 	 81.6545
| 40> H 	 43.2349 	 3.15062 	 87.9263
| 41> *
| 42>
| 43>                          ****END OF INPUT****

CARTESIAN COORDINATES (ANGSTROEM)
---------------------------------
  S     43.309100    6.588090   83.444200
  C     43.811000    8.152820   82.673500
  C     44.205800    9.025250   83.647500
  C     44.245000    8.402930   84.938700
  C     43.852300    7.066140   85.013100
  H     44.428400    8.883620   85.906300
  C     44.642900   10.447600   83.465600
  H     44.526700   11.220800   84.249700
  H     44.168200   10.869700   82.551000
  C     46.206400   10.512600   82.941800
  H     46.252500    9.974460   82.038000
  H     46.474000   11.544400   82.839200
  C     47.236200    9.969030   83.948100
  H     48.169300   10.004700   83.407600
  H     47.379300   10.682400   84.777900
  H     46.970300    8.930520   84.353500
  S     43.101400    4.567840   85.840400
  C     43.326300    4.155170   87.556400
  C     44.093700    5.074960   88.205100
  C     44.283300    6.245950   87.445900
  C     43.759700    6.156960   86.160700
  H     44.434700    4.917920   89.260000
  C     45.114100    7.292420   88.112900
  H     45.782800    7.658700   87.302700
  H     45.671800    6.845590   88.847000
  C     44.243200    8.367880   88.810500
  H     43.674400    7.922310   89.564500
  H     43.503100    8.807990   88.094600
  C     45.139700    9.479570   89.497000
  H     45.784100    9.005290   90.176300
  H     44.536000   10.112900   90.074100
  H     45.724200   10.192100   88.912900
  H     43.736800    8.486670   81.654500
  H     43.234900    3.150620   87.926300

 Total Charge           Charge          ....    0
 Multiplicity           Mult            ....    1
 Number of Electrons    NEL             ....  134
 Basis Dimension        Dim             ....  322

ORBITAL ENERGIES
----------------

  NO   OCC          E(Eh)            E(eV)
   0   2.0000     -88.968932     -2420.9677
   1   2.0000     -88.966089     -2420.8904
   2   2.0000     -10.333366      -281.1852
   3   2.0000     -10.332944      -281.1737
   4   2.0000     -10.317260      -280.7469
   5   2.0000     -10.316937      -280.7381
   6   2.0000     -10.304007      -280.3863
   7   2.0000     -10.301004      -280.3046
   8   2.0000     -10.300972      -280.3037
   9   2.0000     -10.295913      -280.1660
  10   2.0000     -10.293485      -280.1000
  11   2.0000     -10.292992      -280.0865
  12   2.0000     -10.288684      -279.9693
  13   2.0000     -10.286713      -279.9157
  14   2.0000     -10.278360      -279.6884
  15   2.0000     -10.274336      -279.5789
  16   2.0000      -8.083342      -219.9589
  17   2.0000      -8.080124      -219.8713
  18   2.0000      -6.041974      -164.4105
  19   2.0000      -6.038973      -164.3288
  20   2.0000      -6.038108      -164.3053
  21   2.0000      -6.034733      -164.2134
  22   2.0000      -6.033792      -164.1878
  23   2.0000      -6.030565      -164.1000
  24   2.0000      -1.009528       -27.4707
  25   2.0000      -0.984766       -26.7968
  26   2.0000      -0.913621       -24.8609
  27   2.0000      -0.904765       -24.6199
  28   2.0000      -0.869486       -23.6599
  29   2.0000      -0.852901       -23.2086
  30   2.0000      -0.839359       -22.8401
  31   2.0000      -0.815904       -22.2019
  32   2.0000      -0.783955       -21.3325
  33   2.0000      -0.775014       -21.0892
  34   2.0000      -0.716056       -19.4849
  35   2.0000      -0.700424       -19.0595
  36   2.0000      -0.694096       -18.8873
  37   2.0000      -0.668422       -18.1887
  38   2.0000      -0.636729       -17.3263
  39   2.0000      -0.612387       -16.6639
  40   2.0000      -0.596090       -16.2204
  41   2.0000      -0.577966       -15.7272
  42   2.0000      -0.568149       -15.4601
  43   2.0000      -0.545338       -14.8394
  44   2.0000      -0.534926       -14.5561
  45   2.0000      -0.525292       -14.2939
  46   2.0000      -0.514886       -14.0107
  47   2.0000      -0.510289       -13.8857
  48   2.0000      -0.505346       -13.7512
  49   2.0000      -0.501167       -13.6374
  50   2.0000      -0.495536       -13.4842
  51   2.0000      -0.487067       -13.2538
  52   2.0000      -0.471211       -12.8223
  53   2.0000      -0.464299       -12.6342
  54   2.0000      -0.461030       -12.5453
  55   2.0000      -0.453843       -12.3497
  56   2.0000      -0.443821       -12.0770
  57   2.0000      -0.437680       -11.9099
  58   2.0000      -0.433391       -11.7932
  59   2.0000      -0.423535       -11.5250
  60   2.0000      -0.417975       -11.3737
  61   2.0000      -0.416983       -11.3467
  62   2.0000      -0.415125       -11.2961
  63   2.0000      -0.361589        -9.8393
  64   2.0000      -0.336426        -9.1546
  65   2.0000      -0.325009        -8.8440
  66   2.0000      -0.282786        -7.6950
  67   0.0000       0.014686         0.3996
  68   0.0000       0.076220         2.0741
  69   0.0000       0.091960         2.5023
  70   0.0000       0.115125         3.1327
  71   0.0000       0.134414         3.6576

MULLIKEN ATOMIC CHARGES
-----------------------
   0 S :    0.080832
   1 C :   -0.103507
   2 C :   -0.045987
   3 C :   -0.023142
   4 C :   -0.107014
   5 H :    0.004002
   6 C :    0.018666
   7 H :    0.043815
   8 H :    0.028292
   9 C :   -0.072718
  10 H :    0.024358
  11 H :    0.027237
  12 C :   -0.077964
  13 H :    0.031953
  14 H :    0.025796
  15 H :    0.064462
  16 S :    0.088387
  17 C :   -0.066096
  18 C :   -0.057973
  19 C :   -0.092135
  20 C :   -0.088955
  21 H :    0.040924
  22 C :    0.092659
  23 H :    0.040164
  24 H :   -0.008832
  25 C :   -0.066876
  26 H :    0.013038
  27 H :    0.041607
  28 C :   -0.005108
  29 H :    0.012509
  30 H :    0.013992
  31 H :    0.031547
  32 H :    0.038711
  33 H :    0.053356
Sum of atomic charges:   -0.0000000

LOEWDIN ATOMIC CHARGES
----------------------
   0 S :    0.382052
   1 C :   -0.179753
   2 C :   -0.061647
   3 C :   -0.081294
   4 C :   -0.187387
   5 H :    0.029287
   6 C :   -0.036628
   7 H :    0.033966
   8 H :    0.033441
   9 C :   -0.024879
  10 H :    0.014102
  11 H :    0.020455
  12 C :   -0.075338
  13 H :    0.024998
  14 H :    0.022596
  15 H :    0.034426
  16 S :    0.391654
  17 C :   -0.171517
  18 C :   -0.071312
  19 C :   -0.055947
  20 C :   -0.191991
  21 H :    0.042881
  22 C :   -0.024816
  23 H :    0.036026
  24 H :    0.016668
  25 C :   -0.025250
  26 H :    0.018521
  27 H :    0.027389
  28 C :   -0.060446
  29 H :    0.017578
  30 H :    0.019437
  31 H :    0.026545
  32 H :    0.029927
  33 H :    0.026257

  Mayer bond orders larger than 0.100000
B(  0-S ,  1-C ) :   1.1082 B(  0-S ,  4-C ) :   1.1413 B(  1-C ,  2-C ) :   1.6312
B(  1-C , 32-H ) :   0.9656 B(  2-C ,  3-C ) :   1.2218 B(  2-C ,  6-C ) :   1.0338
B(  3-C ,  4-C ) :   1.5750 B(  3-C ,  5-H ) :   0.9890 B(  4-C , 20-C ) :   1.0809
B(  6-C ,  7-H ) :   0.9550 B(  6-C ,  8-H ) :   0.9395 B(  6-C ,  9-C ) :   1.0563
B(  9-C , 10-H ) :   0.9623 B(  9-C , 11-H ) :   0.9593 B(  9-C , 12-C ) :   1.0798
B( 12-C , 13-H ) :   0.9725 B( 12-C , 14-H ) :   0.9768 B( 12-C , 15-H ) :   0.9699
B( 16-S , 17-C ) :   1.1410 B( 16-S , 20-C ) :   1.1308 B( 17-C , 18-C ) :   1.6291
B( 17-C , 33-H ) :   0.9627 B( 18-C , 19-C ) :   1.2597 B( 18-C , 21-H ) :   0.9764
B( 19-C , 20-C ) :   1.5812 B( 19-C , 22-C ) :   1.0452 B( 22-C , 23-H ) :   0.9318
B( 22-C , 24-H ) :   0.9245 B( 22-C , 25-C ) :   1.0623 B( 25-C , 26-H ) :   0.9493
B( 25-C , 27-H ) :   0.9598 B( 25-C , 28-C ) :   1.0735 B( 28-C , 29-H ) :   0.9732
B( 28-C , 30-H ) :   0.9739 B( 28-C , 31-H ) :   0.9788

Dispersion correction           -0.014485650
FINAL SINGLE POINT ENERGY     -1339.858402503563

DIPOLE MOMENT
-------------
                                X             Y             Z
Electronic contribution:    -15.99303     -24.64754     -10.13842
Nuclear contribution   :     16.42688      25.14955      10.63323
                        -----------------------------------------
Total Dipole Moment    :      0.43385       0.50200       0.49482
                        -----------------------------------------
Magnitude (a.u.)       :      0.82770
Magnitude (Debye)      :      2.10384

Rotational constants in cm-1:     0.016842     0.010136     0.006879
Rotational constants in MHz :   504.921099   303.858204   206.213254

                             ****ORCA TERMINATED NORMALLY****
TOTAL RUN TIME: 0 days 0 hours 0 minutes 30 seconds 752 msec
