                         Program Version 4.2.1 -  RELEASE  -
|  1> ! wB97X-D3 SP def2-SVP
|  2> %pal
|  3> nprocs 16
|  4> end
|  5>
|  6> * xyz 0 1
|  7> S 	 -1.76348 	 -14.459 	 82.9132
|  8> C 	 -3.33989 	 -15.1341 	 83.2615
|  9> C 	 -3.3714 	 -16.46 	 83.5296
| 10> C 	 -2.02807 	 -16.9325 	 83.7316
| 11> C 	 -1.06554 	 -15.9914 	 83.3967
| 12> H 	 -1.71774 	 -17.9189 	 83.9788
| 13> C 	 -4.61416 	 -17.3303 	 83.9819
| 14> H 	 -5.21875 	 -16.6496 	 84.4775
| 15> H 	 -4.32279 	 -17.9635 	 84.8518
| 16> C 	 -5.35481 	 -18.0602 	 82.8126
| 17> H 	 -6.2897 	 -18.4162 	 83.2921
| 18> H 	 -5.54943 	 -17.3737 	 81.9882
| 19> C 	 -4.53759 	 -19.257 	 82.2267
| 20> H 	 -4.5106 	 -20.1282 	 82.9187
| 21> H 	 -4.92487 	 -19.6143 	 81.3119
| 22> H 	 -3.55243 	 -18.8999 	 82.0853
| 23> S 	 1.07988 	 -15.6471 	 84.9909
| 24> C 	 2.67439 	 -15.8224 	 84.3424
| 25> C 	 2.68666 	 -15.6913 	 82.9694
| 26> C 	 1.33266 	 -15.6944 	 82.4176
| 27> C 	 0.402483 	 -16.0112 	 83.4155
| 28> H 	 3.64714 	 -15.5386 	 82.4422
| 29> C 	 1.02004 	 -15.5272 	 80.9144
| 30> H 	 1.07278 	 -14.4891 	 80.5769
| 31> H 	 0.00914172 	 -15.892 	 80.7092
| 32> C 	 1.93426 	 -16.3791 	 79.9261
| 33> H 	 2.93771 	 -16.0279 	 80.1334
| 34> H 	 1.56317 	 -16.1648 	 78.9085
| 35> C 	 1.82482 	 -17.872 	 80.2067
| 36> H 	 2.14997 	 -18.2057 	 81.217
| 37> H 	 2.40004 	 -18.3572 	 79.3662
| 38> H 	 0.774049 	 -18.2104 	 80.0864
| 39> H 	 -4.20218 	 -14.5104 	 83.2386
| 40> H 	 3.54967 	 -15.7213 	 84.9316
| 41> *
| 42>
| 43>                          ****END OF INPUT****

CARTESIAN COORDINATES (ANGSTROEM)
---------------------------------
  S     -1.763480  -14.459000   82.913200
  C     -3.339890  -15.134100   83.261500
  C     -3.371400  -16.460000   83.529600
  C     -2.028070  -16.932500   83.731600
  C     -1.065540  -15.991400   83.396700
  H     -1.717740  -17.918900   83.978800
  C     -4.614160  -17.330300   83.981900
  H     -5.218750  -16.649600   84.477500
  H     -4.322790  -17.963500   84.851800
  C     -5.354810  -18.060200   82.812600
  H     -6.289700  -18.416200   83.292100
  H     -5.549430  -17.373700   81.988200
  C     -4.537590  -19.257000   82.226700
  H     -4.510600  -20.128200   82.918700
  H     -4.924870  -19.614300   81.311900
  H     -3.552430  -18.899900   82.085300
  S      1.079880  -15.647100   84.990900
  C      2.674390  -15.822400   84.342400
  C      2.686660  -15.691300   82.969400
  C      1.332660  -15.694400   82.417600
  C      0.402483  -16.011200   83.415500
  H      3.647140  -15.538600   82.442200
  C      1.020040  -15.527200   80.914400
  H      1.072780  -14.489100   80.576900
  H      0.009142  -15.892000   80.709200
  C      1.934260  -16.379100   79.926100
  H      2.937710  -16.027900   80.133400
  H      1.563170  -16.164800   78.908500
  C      1.824820  -17.872000   80.206700
  H      2.149970  -18.205700   81.217000
  H      2.400040  -18.357200   79.366200
  H      0.774049  -18.210400   80.086400
  H     -4.202180  -14.510400   83.238600
  H      3.549670  -15.721300   84.931600

 Total Charge           Charge          ....    0
 Multiplicity           Mult            ....    1
 Number of Electrons    NEL             ....  134
 Basis Dimension        Dim             ....  322

ORBITAL ENERGIES
----------------

  NO   OCC          E(Eh)            E(eV)
   0   2.0000     -88.964265     -2420.8407
   1   2.0000     -88.960734     -2420.7446
   2   2.0000     -10.326071      -280.9867
   3   2.0000     -10.324416      -280.9416
   4   2.0000     -10.311664      -280.5946
   5   2.0000     -10.311301      -280.5848
   6   2.0000     -10.309412      -280.5334
   7   2.0000     -10.301514      -280.3185
   8   2.0000     -10.298498      -280.2364
   9   2.0000     -10.296376      -280.1786
  10   2.0000     -10.294071      -280.1159
  11   2.0000     -10.293947      -280.1125
  12   2.0000     -10.292702      -280.0787
  13   2.0000     -10.288236      -279.9571
  14   2.0000     -10.279501      -279.7194
  15   2.0000     -10.273281      -279.5502
  16   2.0000      -8.079163      -219.8452
  17   2.0000      -8.076130      -219.7627
  18   2.0000      -6.037576      -164.2908
  19   2.0000      -6.034627      -164.2105
  20   2.0000      -6.033769      -164.1872
  21   2.0000      -6.030883      -164.1087
  22   2.0000      -6.029905      -164.0820
  23   2.0000      -6.026519      -163.9899
  24   2.0000      -1.006443       -27.3867
  25   2.0000      -0.982967       -26.7479
  26   2.0000      -0.902834       -24.5674
  27   2.0000      -0.900270       -24.4976
  28   2.0000      -0.866536       -23.5797
  29   2.0000      -0.844920       -22.9914
  30   2.0000      -0.839658       -22.8482
  31   2.0000      -0.813042       -22.1240
  32   2.0000      -0.783989       -21.3334
  33   2.0000      -0.770203       -20.9583
  34   2.0000      -0.700525       -19.0623
  35   2.0000      -0.698368       -19.0036
  36   2.0000      -0.687513       -18.7082
  37   2.0000      -0.653002       -17.7691
  38   2.0000      -0.644114       -17.5272
  39   2.0000      -0.613437       -16.6925
  40   2.0000      -0.597107       -16.2481
  41   2.0000      -0.568644       -15.4736
  42   2.0000      -0.546766       -14.8783
  43   2.0000      -0.545690       -14.8490
  44   2.0000      -0.541772       -14.7424
  45   2.0000      -0.534307       -14.5392
  46   2.0000      -0.515512       -14.0278
  47   2.0000      -0.509161       -13.8550
  48   2.0000      -0.495910       -13.4944
  49   2.0000      -0.493846       -13.4382
  50   2.0000      -0.486175       -13.2295
  51   2.0000      -0.476139       -12.9564
  52   2.0000      -0.467286       -12.7155
  53   2.0000      -0.461147       -12.5484
  54   2.0000      -0.454200       -12.3594
  55   2.0000      -0.448371       -12.2008
  56   2.0000      -0.447185       -12.1685
  57   2.0000      -0.441651       -12.0179
  58   2.0000      -0.429823       -11.6961
  59   2.0000      -0.425509       -11.5787
  60   2.0000      -0.423449       -11.5226
  61   2.0000      -0.413573       -11.2539
  62   2.0000      -0.408081       -11.1044
  63   2.0000      -0.336424        -9.1546
  64   2.0000      -0.329332        -8.9616
  65   2.0000      -0.321126        -8.7383
  66   2.0000      -0.303375        -8.2552
  67   0.0000       0.035744         0.9726
  68   0.0000       0.058012         1.5786
  69   0.0000       0.097782         2.6608
  70   0.0000       0.117576         3.1994
  71   0.0000       0.122841         3.3427

MULLIKEN ATOMIC CHARGES
-----------------------
   0 S :    0.121401
   1 C :   -0.117521
   2 C :   -0.074426
   3 C :    0.047159
   4 C :   -0.190535
   5 H :    0.000877
   6 C :    0.058593
   7 H :    0.004559
   8 H :    0.034280
   9 C :   -0.066500
  10 H :    0.037852
  11 H :    0.038629
  12 C :   -0.032226
  13 H :    0.030492
  14 H :    0.026948
  15 H :    0.025366
  16 S :    0.105671
  17 C :   -0.063102
  18 C :   -0.058565
  19 C :   -0.033680
  20 C :   -0.154407
  21 H :    0.035683
  22 C :    0.045762
  23 H :    0.044984
  24 H :    0.025154
  25 C :   -0.084143
  26 H :    0.029536
  27 H :    0.038770
  28 C :   -0.076598
  29 H :    0.054695
  30 H :    0.041861
  31 H :    0.028836
  32 H :    0.031685
  33 H :    0.042910
Sum of atomic charges:   -0.0000000

LOEWDIN ATOMIC CHARGES
----------------------
   0 S :    0.406330
   1 C :   -0.182646
   2 C :   -0.067038
   3 C :   -0.053330
   4 C :   -0.198949
   5 H :    0.027037
   6 C :   -0.025347
   7 H :    0.019695
   8 H :    0.036980
   9 C :   -0.033794
  10 H :    0.026657
  11 H :    0.026744
  12 C :   -0.060184
  13 H :    0.027947
  14 H :    0.019548
  15 H :    0.020145
  16 S :    0.411427
  17 C :   -0.182522
  18 C :   -0.076584
  19 C :   -0.051563
  20 C :   -0.207837
  21 H :    0.037123
  22 C :   -0.037416
  23 H :    0.032907
  24 H :    0.025741
  25 C :   -0.038649
  26 H :    0.017009
  27 H :    0.029273
  28 C :   -0.074729
  29 H :    0.030719
  30 H :    0.032113
  31 H :    0.025630
  32 H :    0.017241
  33 H :    0.020323

  Mayer bond orders larger than 0.100000
B(  0-S ,  1-C ) :   1.1457 B(  0-S ,  4-C ) :   1.1433 B(  1-C ,  2-C ) :   1.6571
B(  1-C , 32-H ) :   0.9654 B(  2-C ,  3-C ) :   1.1972 B(  2-C ,  6-C ) :   0.9906
B(  3-C ,  4-C ) :   1.6216 B(  3-C ,  5-H ) :   0.9983 B(  4-C , 20-C ) :   1.0107
B(  6-C ,  7-H ) :   0.9449 B(  6-C ,  8-H ) :   0.9532 B(  6-C ,  9-C ) :   1.0563
B(  9-C , 10-H ) :   0.9585 B(  9-C , 11-H ) :   0.9604 B(  9-C , 12-C ) :   1.0699
B( 12-C , 13-H ) :   0.9771 B( 12-C , 14-H ) :   0.9763 B( 12-C , 15-H ) :   0.9777
B( 16-S , 17-C ) :   1.1561 B( 16-S , 20-C ) :   1.1571 B( 17-C , 18-C ) :   1.6260
B( 17-C , 33-H ) :   0.9699 B( 18-C , 19-C ) :   1.2069 B( 18-C , 21-H ) :   0.9867
B( 19-C , 20-C ) :   1.5905 B( 19-C , 22-C ) :   1.0360 B( 22-C , 23-H ) :   0.9393
B( 22-C , 24-H ) :   0.9407 B( 22-C , 25-C ) :   1.0666 B( 25-C , 26-H ) :   0.9553
B( 25-C , 27-H ) :   0.9566 B( 25-C , 28-C ) :   1.0787 B( 28-C , 29-H ) :   0.9714
B( 28-C , 30-H ) :   0.9738 B( 28-C , 31-H ) :   0.9742

Dispersion correction           -0.014525112
FINAL SINGLE POINT ENERGY     -1339.865321436579

DIPOLE MOMENT
-------------
                                X             Y             Z
Electronic contribution:      7.62417      16.69052      15.21034
Nuclear contribution   :     -7.77935     -16.76683     -15.44895
                        -----------------------------------------
Total Dipole Moment    :     -0.15517      -0.07631      -0.23860
                        -----------------------------------------
Magnitude (a.u.)       :      0.29468
Magnitude (Debye)      :      0.74901

Rotational constants in cm-1:     0.019838     0.008219     0.007080
Rotational constants in MHz :   594.730043   246.411067   212.258528

                             ****ORCA TERMINATED NORMALLY****
TOTAL RUN TIME: 0 days 0 hours 0 minutes 33 seconds 346 msec
