                         Program Version 4.2.1 -  RELEASE  -
|  1> ! wB97X-D3 SP def2-SVP
|  2> %pal
|  3> nprocs 16
|  4> end
|  5>
|  6> * xyz 0 1
|  7> S 	 -15.1842 	 58.0238 	 59.3402
|  8> C 	 -15.0009 	 56.7583 	 58.1763
|  9> C 	 -14.3766 	 55.6414 	 58.7175
| 10> C 	 -14.1102 	 55.7585 	 60.0927
| 11> C 	 -14.3408 	 57.0556 	 60.4994
| 12> H 	 -13.6089 	 55.0438 	 60.7442
| 13> C 	 -14.0161 	 54.3926 	 57.9982
| 14> H 	 -13.0356 	 54.1986 	 58.3083
| 15> H 	 -13.8605 	 54.6804 	 56.9911
| 16> C 	 -14.9933 	 53.2172 	 58.2062
| 17> H 	 -14.3866 	 52.4678 	 58.7505
| 18> H 	 -15.8154 	 53.4439 	 58.9294
| 19> C 	 -15.5274 	 52.5534 	 56.9172
| 20> H 	 -16.2502 	 51.8476 	 57.157
| 21> H 	 -15.9678 	 53.2583 	 56.2125
| 22> H 	 -14.7896 	 51.9748 	 56.3498
| 23> S 	 -12.804 	 58.9491 	 61.7868
| 24> C 	 -12.6973 	 58.8928 	 63.5687
| 25> C 	 -13.528 	 57.9142 	 64.102
| 26> C 	 -14.1824 	 57.1115 	 63.0791
| 27> C 	 -13.931 	 57.5494 	 61.7805
| 28> H 	 -13.4997 	 57.7207 	 65.1763
| 29> C 	 -15.0475 	 55.9164 	 63.435
| 30> H 	 -14.441 	 55.0318 	 63.4246
| 31> H 	 -15.8166 	 55.822 	 62.6607
| 32> C 	 -15.8791 	 55.9063 	 64.6902
| 33> H 	 -15.2854 	 56.2347 	 65.58
| 34> H 	 -16.1409 	 54.8989 	 64.9573
| 35> C 	 -17.0652 	 56.7678 	 64.6706
| 36> H 	 -17.8125 	 56.1563 	 64.1229
| 37> H 	 -16.8529 	 57.829 	 64.3056
| 38> H 	 -17.4564 	 56.8672 	 65.6683
| 39> H 	 -15.3384 	 56.8297 	 57.1486
| 40> H 	 -12.098 	 59.5202 	 64.1833
| 41> *
| 42>
| 43>                          ****END OF INPUT****

CARTESIAN COORDINATES (ANGSTROEM)
---------------------------------
  S    -15.184200   58.023800   59.340200
  C    -15.000900   56.758300   58.176300
  C    -14.376600   55.641400   58.717500
  C    -14.110200   55.758500   60.092700
  C    -14.340800   57.055600   60.499400
  H    -13.608900   55.043800   60.744200
  C    -14.016100   54.392600   57.998200
  H    -13.035600   54.198600   58.308300
  H    -13.860500   54.680400   56.991100
  C    -14.993300   53.217200   58.206200
  H    -14.386600   52.467800   58.750500
  H    -15.815400   53.443900   58.929400
  C    -15.527400   52.553400   56.917200
  H    -16.250200   51.847600   57.157000
  H    -15.967800   53.258300   56.212500
  H    -14.789600   51.974800   56.349800
  S    -12.804000   58.949100   61.786800
  C    -12.697300   58.892800   63.568700
  C    -13.528000   57.914200   64.102000
  C    -14.182400   57.111500   63.079100
  C    -13.931000   57.549400   61.780500
  H    -13.499700   57.720700   65.176300
  C    -15.047500   55.916400   63.435000
  H    -14.441000   55.031800   63.424600
  H    -15.816600   55.822000   62.660700
  C    -15.879100   55.906300   64.690200
  H    -15.285400   56.234700   65.580000
  H    -16.140900   54.898900   64.957300
  C    -17.065200   56.767800   64.670600
  H    -17.812500   56.156300   64.122900
  H    -16.852900   57.829000   64.305600
  H    -17.456400   56.867200   65.668300
  H    -15.338400   56.829700   57.148600
  H    -12.098000   59.520200   64.183300

 Total Charge           Charge          ....    0
 Multiplicity           Mult            ....    1
 Number of Electrons    NEL             ....  134
 Basis Dimension        Dim             ....  322

ORBITAL ENERGIES
----------------

  NO   OCC          E(Eh)            E(eV)
   0   2.0000     -88.967952     -2420.9411
   1   2.0000     -88.962997     -2420.8062
   2   2.0000     -10.325546      -280.9724
   3   2.0000     -10.322685      -280.8945
   4   2.0000     -10.318749      -280.7874
   5   2.0000     -10.309200      -280.5276
   6   2.0000     -10.306227      -280.4467
   7   2.0000     -10.297028      -280.1964
   8   2.0000     -10.294198      -280.1194
   9   2.0000     -10.292904      -280.0842
  10   2.0000     -10.289594      -279.9941
  11   2.0000     -10.285971      -279.8955
  12   2.0000     -10.278953      -279.7045
  13   2.0000     -10.278694      -279.6975
  14   2.0000     -10.275298      -279.6051
  15   2.0000     -10.275020      -279.5975
  16   2.0000      -8.083299      -219.9578
  17   2.0000      -8.076540      -219.7738
  18   2.0000      -6.041661      -164.4019
  19   2.0000      -6.037743      -164.2953
  20   2.0000      -6.035198      -164.2261
  21   2.0000      -6.034170      -164.1981
  22   2.0000      -6.031228      -164.1180
  23   2.0000      -6.027203      -164.0085
  24   2.0000      -1.008320       -27.4378
  25   2.0000      -0.976731       -26.5782
  26   2.0000      -0.916758       -24.9462
  27   2.0000      -0.912172       -24.8215
  28   2.0000      -0.868762       -23.6402
  29   2.0000      -0.855584       -23.2816
  30   2.0000      -0.845713       -23.0130
  31   2.0000      -0.814134       -22.1537
  32   2.0000      -0.785675       -21.3793
  33   2.0000      -0.772055       -21.0087
  34   2.0000      -0.710355       -19.3297
  35   2.0000      -0.699814       -19.0429
  36   2.0000      -0.689843       -18.7716
  37   2.0000      -0.653134       -17.7727
  38   2.0000      -0.642528       -17.4841
  39   2.0000      -0.619088       -16.8462
  40   2.0000      -0.597205       -16.2508
  41   2.0000      -0.568588       -15.4721
  42   2.0000      -0.564387       -15.3578
  43   2.0000      -0.551390       -15.0041
  44   2.0000      -0.544144       -14.8069
  45   2.0000      -0.527258       -14.3474
  46   2.0000      -0.520517       -14.1640
  47   2.0000      -0.518626       -14.1125
  48   2.0000      -0.500345       -13.6151
  49   2.0000      -0.496812       -13.5189
  50   2.0000      -0.485564       -13.2129
  51   2.0000      -0.479258       -13.0413
  52   2.0000      -0.472814       -12.8659
  53   2.0000      -0.466491       -12.6939
  54   2.0000      -0.455505       -12.3949
  55   2.0000      -0.448455       -12.2031
  56   2.0000      -0.444065       -12.0836
  57   2.0000      -0.440084       -11.9753
  58   2.0000      -0.437335       -11.9005
  59   2.0000      -0.430025       -11.7016
  60   2.0000      -0.418236       -11.3808
  61   2.0000      -0.409731       -11.1493
  62   2.0000      -0.400096       -10.8872
  63   2.0000      -0.343942        -9.3591
  64   2.0000      -0.330373        -8.9899
  65   2.0000      -0.327212        -8.9039
  66   2.0000      -0.289808        -7.8861
  67   0.0000       0.032789         0.8922
  68   0.0000       0.066643         1.8134
  69   0.0000       0.117104         3.1866
  70   0.0000       0.126120         3.4319
  71   0.0000       0.127845         3.4788

MULLIKEN ATOMIC CHARGES
-----------------------
   0 S :    0.135696
   1 C :   -0.124927
   2 C :   -0.118864
   3 C :    0.023291
   4 C :   -0.169154
   5 H :    0.020209
   6 C :    0.136130
   7 H :    0.010027
   8 H :    0.001022
   9 C :   -0.078705
  10 H :    0.026561
  11 H :    0.048797
  12 C :   -0.031004
  13 H :    0.016999
  14 H :    0.032074
  15 H :    0.029065
  16 S :    0.094529
  17 C :   -0.079666
  18 C :   -0.043895
  19 C :   -0.035150
  20 C :   -0.163451
  21 H :    0.029969
  22 C :    0.088523
  23 H :    0.032874
  24 H :    0.022603
  25 C :   -0.083329
  26 H :    0.011905
  27 H :    0.016093
  28 C :   -0.050478
  29 H :    0.031452
  30 H :    0.058209
  31 H :    0.024317
  32 H :    0.043317
  33 H :    0.044962
Sum of atomic charges:   -0.0000000

LOEWDIN ATOMIC CHARGES
----------------------
   0 S :    0.427879
   1 C :   -0.212213
   2 C :   -0.059270
   3 C :   -0.056663
   4 C :   -0.202162
   5 H :    0.036381
   6 C :   -0.029309
   7 H :    0.026500
   8 H :    0.025338
   9 C :   -0.040789
  10 H :    0.028628
  11 H :    0.032027
  12 C :   -0.061903
  13 H :    0.018266
  14 H :    0.024485
  15 H :    0.027233
  16 S :    0.368911
  17 C :   -0.167547
  18 C :   -0.074053
  19 C :   -0.053867
  20 C :   -0.185515
  21 H :    0.033896
  22 C :   -0.033357
  23 H :    0.030540
  24 H :    0.033547
  25 C :   -0.051274
  26 H :    0.018556
  27 H :    0.023897
  28 C :   -0.069548
  29 H :    0.029009
  30 H :    0.038959
  31 H :    0.023441
  32 H :    0.026740
  33 H :    0.023237

  Mayer bond orders larger than 0.100000
B(  0-S ,  1-C ) :   1.1305 B(  0-S ,  4-C ) :   1.1743 B(  1-C ,  2-C ) :   1.6016
B(  1-C , 32-H ) :   0.9686 B(  2-C ,  3-C ) :   1.2465 B(  2-C ,  6-C ) :   1.0288
B(  3-C ,  4-C ) :   1.5482 B(  3-C ,  5-H ) :   0.9966 B(  4-C , 20-C ) :   1.0564
B(  6-C ,  7-H ) :   0.9338 B(  6-C ,  8-H ) :   0.9400 B(  6-C ,  9-C ) :   1.0201
B(  9-C , 10-H ) :   0.9536 B(  9-C , 11-H ) :   0.9683 B(  9-C , 12-C ) :   1.0878
B( 12-C , 13-H ) :   0.9729 B( 12-C , 14-H ) :   0.9772 B( 12-C , 15-H ) :   0.9755
B( 16-S , 17-C ) :   1.1398 B( 16-S , 20-C ) :   1.1162 B( 17-C , 18-C ) :   1.6399
B( 17-C , 33-H ) :   0.9677 B( 18-C , 19-C ) :   1.2092 B( 18-C , 21-H ) :   0.9829
B( 19-C , 20-C ) :   1.6213 B( 19-C , 22-C ) :   1.0382 B( 22-C , 23-H ) :   0.9256
B( 22-C , 24-H ) :   0.9314 B( 22-C , 25-C ) :   1.0817 B( 25-C , 26-H ) :   0.9465
B( 25-C , 27-H ) :   0.9473 B( 25-C , 28-C ) :   1.0957 B( 28-C , 29-H ) :   0.9700
B( 28-C , 30-H ) :   0.9714 B( 28-C , 31-H ) :   0.9702

Dispersion correction           -0.014056949
FINAL SINGLE POINT ENERGY     -1339.871947857247

DIPOLE MOMENT
-------------
                                X             Y             Z
Electronic contribution:     10.77778      23.62309      -2.48891
Nuclear contribution   :    -10.81250     -24.35494       2.66984
                        -----------------------------------------
Total Dipole Moment    :     -0.03472      -0.73185       0.18092
                        -----------------------------------------
Magnitude (a.u.)       :      0.75468
Magnitude (Debye)      :      1.91824

Rotational constants in cm-1:     0.019584     0.007964     0.006552
Rotational constants in MHz :   587.100779   238.760863   196.415933

                             ****ORCA TERMINATED NORMALLY****
TOTAL RUN TIME: 0 days 0 hours 0 minutes 33 seconds 186 msec
