                         Program Version 4.2.1 -  RELEASE  -
|  1> ! wB97X-D3 SP def2-SVP
|  2> %pal
|  3> nprocs 16
|  4> end
|  5>
|  6> * xyz 0 1
|  7> S 	 -8.36269 	 62.9527 	 57.1906
|  8> C 	 -7.16337 	 62.4867 	 58.368
|  9> C 	 -7.46985 	 61.2618 	 58.9231
| 10> C 	 -8.82251 	 60.8047 	 58.6138
| 11> C 	 -9.44339 	 61.6385 	 57.7224
| 12> H 	 -9.26556 	 59.8916 	 58.9886
| 13> C 	 -6.46376 	 60.3777 	 59.6525
| 14> H 	 -6.71453 	 60.1825 	 60.6711
| 15> H 	 -5.66589 	 61.1727 	 59.8933
| 16> C 	 -6.06937 	 59.0531 	 59.0886
| 17> H 	 -5.16091 	 58.6761 	 59.5615
| 18> H 	 -6.85318 	 58.2525 	 59.1722
| 19> C 	 -5.80377 	 59.0067 	 57.5437
| 20> H 	 -6.67832 	 59.3385 	 56.9467
| 21> H 	 -4.96005 	 59.6744 	 57.3168
| 22> H 	 -5.60805 	 58.0064 	 57.2614
| 23> S 	 -11.248 	 59.965 	 56.3836
| 24> C 	 -12.8087 	 60.6681 	 55.8706
| 25> C 	 -12.8855 	 62.0193 	 56.2909
| 26> C 	 -11.8283 	 62.5053 	 57.1114
| 27> C 	 -10.8193 	 61.5718 	 57.208
| 28> H 	 -13.8174 	 62.5485 	 56.2272
| 29> C 	 -11.9059 	 63.9548 	 57.6982
| 30> H 	 -11.5509 	 64.6706 	 56.9796
| 31> H 	 -11.1656 	 63.9135 	 58.5061
| 32> C 	 -13.2511 	 64.4824 	 58.2418
| 33> H 	 -14.102 	 64.3787 	 57.5416
| 34> H 	 -13.2141 	 65.5911 	 58.6537
| 35> C 	 -13.7508 	 63.7177 	 59.5299
| 36> H 	 -13.0455 	 63.4573 	 60.3174
| 37> H 	 -14.3688 	 62.8451 	 59.3024
| 38> H 	 -14.3788 	 64.4 	 60.0334
| 39> H 	 -6.18854 	 63.0524 	 58.5081
| 40> H 	 -13.6435 	 60.1348 	 55.446
| 41> *
| 42>
| 43>                          ****END OF INPUT****

CARTESIAN COORDINATES (ANGSTROEM)
---------------------------------
  S     -8.362690   62.952700   57.190600
  C     -7.163370   62.486700   58.368000
  C     -7.469850   61.261800   58.923100
  C     -8.822510   60.804700   58.613800
  C     -9.443390   61.638500   57.722400
  H     -9.265560   59.891600   58.988600
  C     -6.463760   60.377700   59.652500
  H     -6.714530   60.182500   60.671100
  H     -5.665890   61.172700   59.893300
  C     -6.069370   59.053100   59.088600
  H     -5.160910   58.676100   59.561500
  H     -6.853180   58.252500   59.172200
  C     -5.803770   59.006700   57.543700
  H     -6.678320   59.338500   56.946700
  H     -4.960050   59.674400   57.316800
  H     -5.608050   58.006400   57.261400
  S    -11.248000   59.965000   56.383600
  C    -12.808700   60.668100   55.870600
  C    -12.885500   62.019300   56.290900
  C    -11.828300   62.505300   57.111400
  C    -10.819300   61.571800   57.208000
  H    -13.817400   62.548500   56.227200
  C    -11.905900   63.954800   57.698200
  H    -11.550900   64.670600   56.979600
  H    -11.165600   63.913500   58.506100
  C    -13.251100   64.482400   58.241800
  H    -14.102000   64.378700   57.541600
  H    -13.214100   65.591100   58.653700
  C    -13.750800   63.717700   59.529900
  H    -13.045500   63.457300   60.317400
  H    -14.368800   62.845100   59.302400
  H    -14.378800   64.400000   60.033400
  H     -6.188540   63.052400   58.508100
  H    -13.643500   60.134800   55.446000

 Total Charge           Charge          ....    0
 Multiplicity           Mult            ....    1
 Number of Electrons    NEL             ....  134
 Basis Dimension        Dim             ....  322

ORBITAL ENERGIES
----------------

  NO   OCC          E(Eh)            E(eV)
   0   2.0000     -88.967933     -2420.9405
   1   2.0000     -88.966148     -2420.8920
   2   2.0000     -10.335861      -281.2531
   3   2.0000     -10.332561      -281.1633
   4   2.0000     -10.326019      -280.9853
   5   2.0000     -10.320773      -280.8425
   6   2.0000     -10.310297      -280.5574
   7   2.0000     -10.305538      -280.4279
   8   2.0000     -10.304956      -280.4121
   9   2.0000     -10.298245      -280.2295
  10   2.0000     -10.297149      -280.1997
  11   2.0000     -10.295067      -280.1430
  12   2.0000     -10.293311      -280.0952
  13   2.0000     -10.291444      -280.0444
  14   2.0000     -10.271481      -279.5012
  15   2.0000     -10.271357      -279.4978
  16   2.0000      -8.080496      -219.8815
  17   2.0000      -8.080458      -219.8804
  18   2.0000      -6.039084      -164.3318
  19   2.0000      -6.039061      -164.3312
  20   2.0000      -6.035388      -164.2313
  21   2.0000      -6.035197      -164.2261
  22   2.0000      -6.031113      -164.1149
  23   2.0000      -6.031064      -164.1136
  24   2.0000      -0.998306       -27.1653
  25   2.0000      -0.973583       -26.4925
  26   2.0000      -0.908213       -24.7137
  27   2.0000      -0.898682       -24.4544
  28   2.0000      -0.864219       -23.5166
  29   2.0000      -0.846417       -23.0322
  30   2.0000      -0.840478       -22.8706
  31   2.0000      -0.809458       -22.0265
  32   2.0000      -0.786644       -21.4057
  33   2.0000      -0.774028       -21.0624
  34   2.0000      -0.705121       -19.1873
  35   2.0000      -0.695564       -18.9273
  36   2.0000      -0.686136       -18.6707
  37   2.0000      -0.660869       -17.9832
  38   2.0000      -0.637235       -17.3401
  39   2.0000      -0.611877       -16.6500
  40   2.0000      -0.593663       -16.1544
  41   2.0000      -0.558898       -15.2084
  42   2.0000      -0.551443       -15.0055
  43   2.0000      -0.547486       -14.8979
  44   2.0000      -0.545383       -14.8406
  45   2.0000      -0.537918       -14.6375
  46   2.0000      -0.521700       -14.1962
  47   2.0000      -0.511923       -13.9301
  48   2.0000      -0.499975       -13.6050
  49   2.0000      -0.492200       -13.3934
  50   2.0000      -0.489470       -13.3192
  51   2.0000      -0.470853       -12.8126
  52   2.0000      -0.461290       -12.5523
  53   2.0000      -0.459924       -12.5152
  54   2.0000      -0.452700       -12.3186
  55   2.0000      -0.448502       -12.2044
  56   2.0000      -0.443113       -12.0577
  57   2.0000      -0.437278       -11.8989
  58   2.0000      -0.431614       -11.7448
  59   2.0000      -0.424223       -11.5437
  60   2.0000      -0.418604       -11.3908
  61   2.0000      -0.410486       -11.1699
  62   2.0000      -0.398120       -10.8334
  63   2.0000      -0.344257        -9.3677
  64   2.0000      -0.334273        -9.0960
  65   2.0000      -0.324644        -8.8340
  66   2.0000      -0.296752        -8.0750
  67   0.0000       0.023173         0.6306
  68   0.0000       0.066781         1.8172
  69   0.0000       0.093496         2.5441
  70   0.0000       0.111988         3.0473
  71   0.0000       0.124415         3.3855

MULLIKEN ATOMIC CHARGES
-----------------------
   0 S :    0.110418
   1 C :   -0.149681
   2 C :   -0.113774
   3 C :    0.039267
   4 C :   -0.151899
   5 H :    0.017926
   6 C :    0.083118
   7 H :    0.021242
   8 H :    0.016715
   9 C :   -0.086556
  10 H :    0.037503
  11 H :    0.036206
  12 C :   -0.057926
  13 H :    0.045883
  14 H :    0.030337
  15 H :    0.024669
  16 S :    0.086907
  17 C :   -0.091871
  18 C :   -0.033912
  19 C :   -0.026716
  20 C :   -0.170175
  21 H :    0.013122
  22 C :    0.111823
  23 H :    0.045970
  24 H :    0.032351
  25 C :   -0.141625
  26 H :    0.043938
  27 H :    0.058052
  28 C :   -0.055568
  29 H :    0.033642
  30 H :    0.037269
  31 H :    0.011913
  32 H :    0.078164
  33 H :    0.063269
Sum of atomic charges:   -0.0000000

LOEWDIN ATOMIC CHARGES
----------------------
   0 S :    0.393881
   1 C :   -0.207058
   2 C :   -0.065674
   3 C :   -0.058476
   4 C :   -0.184252
   5 H :    0.033577
   6 C :   -0.047759
   7 H :    0.028749
   8 H :    0.039304
   9 C :   -0.044346
  10 H :    0.030589
  11 H :    0.029834
  12 C :   -0.065213
  13 H :    0.029579
  14 H :    0.023129
  15 H :    0.017834
  16 S :    0.351417
  17 C :   -0.170696
  18 C :   -0.070223
  19 C :   -0.052022
  20 C :   -0.165680
  21 H :    0.024426
  22 C :   -0.029288
  23 H :    0.033533
  24 H :    0.033118
  25 C :   -0.047341
  26 H :    0.025362
  27 H :    0.044357
  28 C :   -0.073709
  29 H :    0.026031
  30 H :    0.024756
  31 H :    0.018541
  32 H :    0.043463
  33 H :    0.030256

  Mayer bond orders larger than 0.100000
B(  0-S ,  1-C ) :   1.1325 B(  0-S ,  4-C ) :   1.1311 B(  1-C ,  2-C ) :   1.6384
B(  1-C , 32-H ) :   0.9535 B(  2-C ,  3-C ) :   1.2043 B(  2-C ,  6-C ) :   1.0251
B(  3-C ,  4-C ) :   1.5931 B(  3-C ,  5-H ) :   0.9991 B(  4-C , 20-C ) :   1.0301
B(  6-C ,  7-H ) :   0.9317 B(  6-C ,  8-H ) :   0.9353 B(  6-C ,  9-C ) :   1.0662
B(  9-C , 10-H ) :   0.9532 B(  9-C , 11-H ) :   0.9539 B(  9-C , 12-C ) :   1.0817
B( 12-C , 13-H ) :   0.9712 B( 12-C , 14-H ) :   0.9787 B( 12-C , 15-H ) :   0.9765
B( 16-S , 17-C ) :   1.1392 B( 16-S , 20-C ) :   1.1128 B( 17-C , 18-C ) :   1.6217
B( 17-C , 20-C ) :   0.1069 B( 17-C , 33-H ) :   0.9677 B( 18-C , 19-C ) :   1.2333
B( 18-C , 21-H ) :   0.9761 B( 19-C , 20-C ) :   1.6270 B( 19-C , 22-C ) :   1.0094
B( 22-C , 23-H ) :   0.9378 B( 22-C , 24-H ) :   0.9372 B( 22-C , 25-C ) :   1.0651
B( 25-C , 26-H ) :   0.9549 B( 25-C , 27-H ) :   0.9626 B( 25-C , 28-C ) :   1.0593
B( 28-C , 29-H ) :   0.9771 B( 28-C , 30-H ) :   0.9784 B( 28-C , 31-H ) :   0.9781

Dispersion correction           -0.014712853
FINAL SINGLE POINT ENERGY     -1339.857572222368

DIPOLE MOMENT
-------------
                                X             Y             Z
Electronic contribution:     -1.17902      -0.82865     -11.40509
Nuclear contribution   :      1.07708       0.89630      11.78524
                        -----------------------------------------
Total Dipole Moment    :     -0.10194       0.06764       0.38015
                        -----------------------------------------
Magnitude (a.u.)       :      0.39935
Magnitude (Debye)      :      1.01508

Rotational constants in cm-1:     0.022556     0.007802     0.006706
Rotational constants in MHz :   676.212281   233.912256   201.026554

                             ****ORCA TERMINATED NORMALLY****
TOTAL RUN TIME: 0 days 0 hours 0 minutes 30 seconds 220 msec
