                         Program Version 4.2.1 -  RELEASE  -
|  1> ! wB97X-D3 SP def2-SVP
|  2> %pal
|  3> nprocs 16
|  4> end
|  5>
|  6> * xyz 0 1
|  7> S 	 -42.7606 	 48.5817 	 106.726
|  8> C 	 -42.1241 	 48.0208 	 105.167
|  9> C 	 -42.3149 	 48.9755 	 104.205
| 10> C 	 -42.8678 	 50.2426 	 104.688
| 11> C 	 -43.1606 	 50.1443 	 106.025
| 12> H 	 -43.0715 	 51.1172 	 104.11
| 13> C 	 -42.0356 	 48.6801 	 102.714
| 14> H 	 -41.5385 	 47.7247 	 102.707
| 15> H 	 -41.3481 	 49.4237 	 102.372
| 16> C 	 -43.2226 	 48.6488 	 101.713
| 17> H 	 -43.6343 	 49.6142 	 101.62
| 18> H 	 -42.864 	 48.3239 	 100.773
| 19> C 	 -44.3901 	 47.7273 	 102.151
| 20> H 	 -44.9597 	 47.3402 	 101.292
| 21> H 	 -43.9814 	 46.7776 	 102.595
| 22> H 	 -45.1178 	 48.1037 	 102.817
| 23> S 	 -44.113 	 50.7503 	 108.57
| 24> C 	 -44.1437 	 52.4215 	 108.995
| 25> C 	 -43.7736 	 53.2649 	 107.96
| 26> C 	 -43.516 	 52.6114 	 106.734
| 27> C 	 -43.5699 	 51.238 	 106.954
| 28> H 	 -43.6532 	 54.3438 	 108.039
| 29> C 	 -43.0923 	 53.4114 	 105.496
| 30> H 	 -42.275 	 52.9576 	 105.012
| 31> H 	 -42.6416 	 54.3956 	 105.616
| 32> C 	 -44.2897 	 53.7676 	 104.518
| 33> H 	 -44.8983 	 52.8757 	 104.395
| 34> H 	 -43.9894 	 54.2403 	 103.583
| 35> C 	 -45.209 	 54.8361 	 105.145
| 36> H 	 -44.6018 	 55.7584 	 105.371
| 37> H 	 -45.7088 	 54.4716 	 106.105
| 38> H 	 -46.003 	 55.0616 	 104.373
| 39> H 	 -41.8614 	 46.9676 	 105.076
| 40> H 	 -44.4022 	 52.6909 	 110.044
| 41> *
| 42>
| 43>                          ****END OF INPUT****

CARTESIAN COORDINATES (ANGSTROEM)
---------------------------------
  S    -42.760600   48.581700  106.726000
  C    -42.124100   48.020800  105.167000
  C    -42.314900   48.975500  104.205000
  C    -42.867800   50.242600  104.688000
  C    -43.160600   50.144300  106.025000
  H    -43.071500   51.117200  104.110000
  C    -42.035600   48.680100  102.714000
  H    -41.538500   47.724700  102.707000
  H    -41.348100   49.423700  102.372000
  C    -43.222600   48.648800  101.713000
  H    -43.634300   49.614200  101.620000
  H    -42.864000   48.323900  100.773000
  C    -44.390100   47.727300  102.151000
  H    -44.959700   47.340200  101.292000
  H    -43.981400   46.777600  102.595000
  H    -45.117800   48.103700  102.817000
  S    -44.113000   50.750300  108.570000
  C    -44.143700   52.421500  108.995000
  C    -43.773600   53.264900  107.960000
  C    -43.516000   52.611400  106.734000
  C    -43.569900   51.238000  106.954000
  H    -43.653200   54.343800  108.039000
  C    -43.092300   53.411400  105.496000
  H    -42.275000   52.957600  105.012000
  H    -42.641600   54.395600  105.616000
  C    -44.289700   53.767600  104.518000
  H    -44.898300   52.875700  104.395000
  H    -43.989400   54.240300  103.583000
  C    -45.209000   54.836100  105.145000
  H    -44.601800   55.758400  105.371000
  H    -45.708800   54.471600  106.105000
  H    -46.003000   55.061600  104.373000
  H    -41.861400   46.967600  105.076000
  H    -44.402200   52.690900  110.044000

 Total Charge           Charge          ....    0
 Multiplicity           Mult            ....    1
 Number of Electrons    NEL             ....  134
 Basis Dimension        Dim             ....  322

ORBITAL ENERGIES
----------------

  NO   OCC          E(Eh)            E(eV)
   0   2.0000     -88.971913     -2421.0488
   1   2.0000     -88.960581     -2420.7405
   2   2.0000     -10.333292      -281.1832
   3   2.0000     -10.331625      -281.1378
   4   2.0000     -10.320165      -280.8260
   5   2.0000     -10.313233      -280.6373
   6   2.0000     -10.308275      -280.5024
   7   2.0000     -10.304845      -280.4091
   8   2.0000     -10.297890      -280.2198
   9   2.0000     -10.295159      -280.1455
  10   2.0000     -10.293552      -280.1018
  11   2.0000     -10.292982      -280.0863
  12   2.0000     -10.289834      -280.0006
  13   2.0000     -10.288571      -279.9662
  14   2.0000     -10.282901      -279.8120
  15   2.0000     -10.273544      -279.5574
  16   2.0000      -8.086730      -220.0511
  17   2.0000      -8.075333      -219.7410
  18   2.0000      -6.045109      -164.4958
  19   2.0000      -6.041406      -164.3950
  20   2.0000      -6.037458      -164.2876
  21   2.0000      -6.033952      -164.1922
  22   2.0000      -6.030016      -164.0851
  23   2.0000      -6.025824      -163.9710
  24   2.0000      -1.006447       -27.3868
  25   2.0000      -0.981463       -26.7070
  26   2.0000      -0.909466       -24.7478
  27   2.0000      -0.904654       -24.6169
  28   2.0000      -0.862768       -23.4771
  29   2.0000      -0.856319       -23.3016
  30   2.0000      -0.839449       -22.8426
  31   2.0000      -0.810640       -22.0586
  32   2.0000      -0.786359       -21.3979
  33   2.0000      -0.772055       -21.0087
  34   2.0000      -0.705319       -19.1927
  35   2.0000      -0.696933       -18.9645
  36   2.0000      -0.684696       -18.6315
  37   2.0000      -0.663955       -18.0671
  38   2.0000      -0.639399       -17.3989
  39   2.0000      -0.621919       -16.9233
  40   2.0000      -0.605965       -16.4891
  41   2.0000      -0.561826       -15.2881
  42   2.0000      -0.556780       -15.1508
  43   2.0000      -0.551849       -15.0166
  44   2.0000      -0.547307       -14.8930
  45   2.0000      -0.535958       -14.5842
  46   2.0000      -0.516348       -14.0506
  47   2.0000      -0.500243       -13.6123
  48   2.0000      -0.498136       -13.5550
  49   2.0000      -0.494330       -13.4514
  50   2.0000      -0.486357       -13.2344
  51   2.0000      -0.481957       -13.1147
  52   2.0000      -0.468465       -12.7476
  53   2.0000      -0.462861       -12.5951
  54   2.0000      -0.459948       -12.5158
  55   2.0000      -0.449802       -12.2397
  56   2.0000      -0.441271       -12.0076
  57   2.0000      -0.433732       -11.8025
  58   2.0000      -0.433285       -11.7903
  59   2.0000      -0.431311       -11.7366
  60   2.0000      -0.422392       -11.4939
  61   2.0000      -0.414970       -11.2919
  62   2.0000      -0.412287       -11.2189
  63   2.0000      -0.358913        -9.7665
  64   2.0000      -0.341022        -9.2797
  65   2.0000      -0.326928        -8.8962
  66   2.0000      -0.283542        -7.7156
  67   0.0000       0.021210         0.5772
  68   0.0000       0.077743         2.1155
  69   0.0000       0.098290         2.6746
  70   0.0000       0.121783         3.3139
  71   0.0000       0.133399         3.6300

MULLIKEN ATOMIC CHARGES
-----------------------
   0 S :    0.065377
   1 C :   -0.136078
   2 C :   -0.079538
   3 C :   -0.014988
   4 C :   -0.075436
   5 H :    0.006580
   6 C :    0.077332
   7 H :    0.011244
   8 H :    0.024905
   9 C :   -0.019249
  10 H :    0.018758
  11 H :    0.023594
  12 C :   -0.071438
  13 H :    0.026842
  14 H :    0.019572
  15 H :    0.038361
  16 S :    0.116429
  17 C :   -0.105511
  18 C :   -0.013177
  19 C :   -0.044534
  20 C :   -0.128803
  21 H :    0.017216
  22 C :    0.045049
  23 H :    0.021648
  24 H :    0.014672
  25 C :   -0.072871
  26 H :    0.040104
  27 H :    0.037208
  28 C :   -0.115483
  29 H :    0.034342
  30 H :    0.058279
  31 H :    0.048958
  32 H :    0.059630
  33 H :    0.071004
Sum of atomic charges:    0.0000000

LOEWDIN ATOMIC CHARGES
----------------------
   0 S :    0.368620
   1 C :   -0.192090
   2 C :   -0.053341
   3 C :   -0.073179
   4 C :   -0.168576
   5 H :    0.029247
   6 C :   -0.025553
   7 H :    0.025340
   8 H :    0.027600
   9 C :   -0.028675
  10 H :    0.017660
  11 H :    0.022694
  12 C :   -0.069859
  13 H :    0.027102
  14 H :    0.026152
  15 H :    0.020953
  16 S :    0.408074
  17 C :   -0.198135
  18 C :   -0.067527
  19 C :   -0.052788
  20 C :   -0.181002
  21 H :    0.032306
  22 C :   -0.033300
  23 H :    0.023190
  24 H :    0.032309
  25 C :   -0.039247
  26 H :    0.022494
  27 H :    0.025818
  28 C :   -0.078362
  29 H :    0.023920
  30 H :    0.032143
  31 H :    0.032218
  32 H :    0.029640
  33 H :    0.034154

  Mayer bond orders larger than 0.100000
B(  0-S ,  1-C ) :   1.1049 B(  0-S ,  4-C ) :   1.1420 B(  1-C ,  2-C ) :   1.6511
B(  1-C , 32-H ) :   0.9680 B(  2-C ,  3-C ) :   1.1866 B(  2-C ,  6-C ) :   1.0243
B(  3-C ,  4-C ) :   1.6024 B(  3-C ,  5-H ) :   0.9975 B(  4-C , 20-C ) :   1.0478
B(  6-C ,  7-H ) :   0.9424 B(  6-C ,  8-H ) :   0.9365 B(  6-C ,  9-C ) :   1.0806
B(  9-C , 10-H ) :   0.9554 B(  9-C , 11-H ) :   0.9567 B(  9-C , 12-C ) :   1.0713
B( 12-C , 13-H ) :   0.9753 B( 12-C , 14-H ) :   0.9777 B( 12-C , 15-H ) :   0.9772
B( 16-S , 17-C ) :   1.1537 B( 16-S , 20-C ) :   1.1497 B( 17-C , 18-C ) :   1.5840
B( 17-C , 33-H ) :   0.9657 B( 18-C , 19-C ) :   1.2647 B( 18-C , 21-H ) :   0.9875
B( 19-C , 20-C ) :   1.5977 B( 19-C , 22-C ) :   1.0229 B( 22-C , 23-H ) :   0.9386
B( 22-C , 24-H ) :   0.9428 B( 22-C , 25-C ) :   1.0533 B( 25-C , 26-H ) :   0.9564
B( 25-C , 27-H ) :   0.9593 B( 25-C , 28-C ) :   1.0763 B( 28-C , 29-H ) :   0.9733
B( 28-C , 30-H ) :   0.9721 B( 28-C , 31-H ) :   0.9737

Dispersion correction           -0.014716112
FINAL SINGLE POINT ENERGY     -1339.879676700095

DIPOLE MOMENT
-------------
                                X             Y             Z
Electronic contribution:      4.45183      -9.07038      25.28951
Nuclear contribution   :     -4.40740       9.47914     -25.82685
                        -----------------------------------------
Total Dipole Moment    :      0.04443       0.40875      -0.53734
                        -----------------------------------------
Magnitude (a.u.)       :      0.67660
Magnitude (Debye)      :      1.71978

Rotational constants in cm-1:     0.018834     0.009287     0.006821
Rotational constants in MHz :   564.619985   278.420826   204.489951

                             ****ORCA TERMINATED NORMALLY****
TOTAL RUN TIME: 0 days 0 hours 0 minutes 28 seconds 948 msec
