                         Program Version 4.2.1 -  RELEASE  -
|  1> ! wB97X-D3 SP def2-SVP
|  2> %pal
|  3> nprocs 16
|  4> end
|  5>
|  6> * xyz 0 1
|  7> S 	 -92.8447 	 57.3786 	 124.355
|  8> C 	 -91.9717 	 57.0323 	 125.88
|  9> C 	 -90.6059 	 56.9768 	 125.601
| 10> C 	 -90.2751 	 57.2862 	 124.237
| 11> C 	 -91.3859 	 57.7552 	 123.501
| 12> H 	 -89.3205 	 57.4551 	 123.72
| 13> C 	 -89.5385 	 56.487 	 126.551
| 14> H 	 -89.8411 	 56.5032 	 127.599
| 15> H 	 -88.7028 	 57.1979 	 126.508
| 16> C 	 -88.9426 	 55.0287 	 126.256
| 17> H 	 -89.6932 	 54.2013 	 126.373
| 18> H 	 -88.5642 	 54.8333 	 125.217
| 19> C 	 -87.8637 	 54.7056 	 127.201
| 20> H 	 -88.151 	 54.9987 	 128.164
| 21> H 	 -87.5129 	 53.6416 	 127.268
| 22> H 	 -87.0196 	 55.3379 	 126.828
| 23> S 	 -92.1903 	 60.144 	 122.351
| 24> C 	 -92.2098 	 60.2247 	 120.591
| 25> C 	 -91.6142 	 59.0888 	 120.012
| 26> C 	 -91.209 	 58.1391 	 121.002
| 27> C 	 -91.4688 	 58.5633 	 122.296
| 28> H 	 -91.5032 	 58.9329 	 118.908
| 29> C 	 -90.6116 	 56.8023 	 120.745
| 30> H 	 -89.8792 	 56.4372 	 121.473
| 31> H 	 -89.9245 	 56.8345 	 119.814
| 32> C 	 -91.6697 	 55.581 	 120.53
| 33> H 	 -92.2766 	 55.7836 	 119.641
| 34> H 	 -92.3702 	 55.5073 	 121.357
| 35> C 	 -90.9212 	 54.3125 	 120.263
| 36> H 	 -90.618 	 54.3251 	 119.252
| 37> H 	 -91.6268 	 53.4842 	 120.228
| 38> H 	 -90.0976 	 54.1223 	 120.934
| 39> H 	 -92.3228 	 56.5987 	 126.763
| 40> H 	 -92.507 	 61.0757 	 120.02
| 41> *
| 42>
| 43>                          ****END OF INPUT****

CARTESIAN COORDINATES (ANGSTROEM)
---------------------------------
  S    -92.844700   57.378600  124.355000
  C    -91.971700   57.032300  125.880000
  C    -90.605900   56.976800  125.601000
  C    -90.275100   57.286200  124.237000
  C    -91.385900   57.755200  123.501000
  H    -89.320500   57.455100  123.720000
  C    -89.538500   56.487000  126.551000
  H    -89.841100   56.503200  127.599000
  H    -88.702800   57.197900  126.508000
  C    -88.942600   55.028700  126.256000
  H    -89.693200   54.201300  126.373000
  H    -88.564200   54.833300  125.217000
  C    -87.863700   54.705600  127.201000
  H    -88.151000   54.998700  128.164000
  H    -87.512900   53.641600  127.268000
  H    -87.019600   55.337900  126.828000
  S    -92.190300   60.144000  122.351000
  C    -92.209800   60.224700  120.591000
  C    -91.614200   59.088800  120.012000
  C    -91.209000   58.139100  121.002000
  C    -91.468800   58.563300  122.296000
  H    -91.503200   58.932900  118.908000
  C    -90.611600   56.802300  120.745000
  H    -89.879200   56.437200  121.473000
  H    -89.924500   56.834500  119.814000
  C    -91.669700   55.581000  120.530000
  H    -92.276600   55.783600  119.641000
  H    -92.370200   55.507300  121.357000
  C    -90.921200   54.312500  120.263000
  H    -90.618000   54.325100  119.252000
  H    -91.626800   53.484200  120.228000
  H    -90.097600   54.122300  120.934000
  H    -92.322800   56.598700  126.763000
  H    -92.507000   61.075700  120.020000

 Total Charge           Charge          ....    0
 Multiplicity           Mult            ....    1
 Number of Electrons    NEL             ....  134
 Basis Dimension        Dim             ....  322

ORBITAL ENERGIES
----------------

  NO   OCC          E(Eh)            E(eV)
   0   2.0000     -88.970927     -2421.0220
   1   2.0000     -88.965336     -2420.8699
   2   2.0000     -10.330542      -281.1083
   3   2.0000     -10.323671      -280.9214
   4   2.0000     -10.322010      -280.8762
   5   2.0000     -10.312634      -280.6210
   6   2.0000     -10.307073      -280.4697
   7   2.0000     -10.303368      -280.3689
   8   2.0000     -10.302798      -280.3534
   9   2.0000     -10.300417      -280.2886
  10   2.0000     -10.299363      -280.2599
  11   2.0000     -10.298492      -280.2362
  12   2.0000     -10.292165      -280.0641
  13   2.0000     -10.286077      -279.8984
  14   2.0000     -10.275054      -279.5984
  15   2.0000     -10.268782      -279.4278
  16   2.0000      -8.085310      -220.0125
  17   2.0000      -8.079427      -219.8524
  18   2.0000      -6.043794      -164.4600
  19   2.0000      -6.039836      -164.3523
  20   2.0000      -6.038021      -164.3029
  21   2.0000      -6.036132      -164.2515
  22   2.0000      -6.033959      -164.1924
  23   2.0000      -6.030186      -164.0897
  24   2.0000      -1.006109       -27.3776
  25   2.0000      -0.979922       -26.6650
  26   2.0000      -0.910937       -24.7878
  27   2.0000      -0.902582       -24.5605
  28   2.0000      -0.871964       -23.7274
  29   2.0000      -0.857075       -23.3222
  30   2.0000      -0.844716       -22.9859
  31   2.0000      -0.813486       -22.1361
  32   2.0000      -0.778430       -21.1822
  33   2.0000      -0.765837       -20.8395
  34   2.0000      -0.705171       -19.1887
  35   2.0000      -0.695851       -18.9351
  36   2.0000      -0.693216       -18.8634
  37   2.0000      -0.660611       -17.9761
  38   2.0000      -0.644691       -17.5429
  39   2.0000      -0.613140       -16.6844
  40   2.0000      -0.598738       -16.2925
  41   2.0000      -0.569696       -15.5022
  42   2.0000      -0.562289       -15.3007
  43   2.0000      -0.559321       -15.2199
  44   2.0000      -0.529437       -14.4067
  45   2.0000      -0.521746       -14.1974
  46   2.0000      -0.516875       -14.0649
  47   2.0000      -0.509403       -13.8616
  48   2.0000      -0.508535       -13.8379
  49   2.0000      -0.500923       -13.6308
  50   2.0000      -0.492324       -13.3968
  51   2.0000      -0.475226       -12.9316
  52   2.0000      -0.467469       -12.7205
  53   2.0000      -0.461406       -12.5555
  54   2.0000      -0.453886       -12.3509
  55   2.0000      -0.451721       -12.2920
  56   2.0000      -0.447347       -12.1729
  57   2.0000      -0.437440       -11.9034
  58   2.0000      -0.434076       -11.8118
  59   2.0000      -0.421589       -11.4720
  60   2.0000      -0.419677       -11.4200
  61   2.0000      -0.414507       -11.2793
  62   2.0000      -0.408462       -11.1148
  63   2.0000      -0.340214        -9.2577
  64   2.0000      -0.332446        -9.0463
  65   2.0000      -0.323666        -8.8074
  66   2.0000      -0.295464        -8.0400
  67   0.0000       0.027722         0.7543
  68   0.0000       0.059485         1.6187
  69   0.0000       0.106634         2.9017
  70   0.0000       0.114311         3.1106
  71   0.0000       0.129318         3.5189

MULLIKEN ATOMIC CHARGES
-----------------------
   0 S :    0.109691
   1 C :   -0.074447
   2 C :   -0.086630
   3 C :    0.055037
   4 C :   -0.199774
   5 H :    0.024998
   6 C :    0.042152
   7 H :    0.020566
   8 H :    0.030709
   9 C :   -0.093444
  10 H :    0.027718
  11 H :    0.033642
  12 C :   -0.040934
  13 H :    0.013866
  14 H :    0.045112
  15 H :    0.029911
  16 S :    0.134838
  17 C :   -0.099234
  18 C :   -0.036364
  19 C :    0.013076
  20 C :   -0.166791
  21 H :    0.038643
  22 C :   -0.003031
  23 H :    0.018586
  24 H :    0.027977
  25 C :   -0.072354
  26 H :    0.024242
  27 H :    0.034186
  28 C :   -0.006559
  29 H :    0.012920
  30 H :    0.024267
  31 H :    0.034820
  32 H :    0.027590
  33 H :    0.055014
Sum of atomic charges:    0.0000000

LOEWDIN ATOMIC CHARGES
----------------------
   0 S :    0.402059
   1 C :   -0.187078
   2 C :   -0.058698
   3 C :   -0.067427
   4 C :   -0.190935
   5 H :    0.034527
   6 C :   -0.029576
   7 H :    0.029441
   8 H :    0.032698
   9 C :   -0.048250
  10 H :    0.024246
  11 H :    0.026001
  12 C :   -0.069003
  13 H :    0.013150
  14 H :    0.033008
  15 H :    0.029390
  16 S :    0.421505
  17 C :   -0.180311
  18 C :   -0.070068
  19 C :   -0.058693
  20 C :   -0.215892
  21 H :    0.041439
  22 C :   -0.042243
  23 H :    0.027117
  24 H :    0.036334
  25 C :   -0.031319
  26 H :    0.024013
  27 H :    0.020010
  28 C :   -0.063259
  29 H :    0.021148
  30 H :    0.029148
  31 H :    0.023155
  32 H :    0.018840
  33 H :    0.025522

  Mayer bond orders larger than 0.100000
B(  0-S ,  1-C ) :   1.1159 B(  0-S ,  4-C ) :   1.1686 B(  1-C ,  2-C ) :   1.6130
B(  1-C ,  4-C ) :   0.1035 B(  1-C , 32-H ) :   0.9727 B(  2-C ,  3-C ) :   1.2288
B(  2-C ,  6-C ) :   1.0383 B(  3-C ,  4-C ) :   1.5665 B(  3-C ,  5-H ) :   0.9809
B(  4-C , 20-C ) :   1.0334 B(  6-C ,  7-H ) :   0.9436 B(  6-C ,  8-H ) :   0.9417
B(  6-C ,  9-C ) :   1.0404 B(  9-C , 10-H ) :   0.9566 B(  9-C , 11-H ) :   0.9592
B(  9-C , 12-C ) :   1.0802 B( 12-C , 13-H ) :   0.9713 B( 12-C , 14-H ) :   0.9721
B( 12-C , 15-H ) :   0.9757 B( 16-S , 17-C ) :   1.1648 B( 16-S , 20-C ) :   1.1461
B( 17-C , 18-C ) :   1.5817 B( 17-C , 33-H ) :   0.9704 B( 18-C , 19-C ) :   1.2686
B( 18-C , 21-H ) :   0.9807 B( 19-C , 20-C ) :   1.5724 B( 19-C , 22-C ) :   1.0547
B( 22-C , 23-H ) :   0.9366 B( 22-C , 24-H ) :   0.9378 B( 22-C , 25-C ) :   1.0405
B( 25-C , 26-H ) :   0.9561 B( 25-C , 27-H ) :   0.9614 B( 25-C , 28-C ) :   1.0882
B( 28-C , 29-H ) :   0.9712 B( 28-C , 30-H ) :   0.9673 B( 28-C , 31-H ) :   0.9748

Dispersion correction           -0.014148159
FINAL SINGLE POINT ENERGY     -1339.863803893550

DIPOLE MOMENT
-------------
                                X             Y             Z
Electronic contribution:    -17.20577      23.59114      -1.78202
Nuclear contribution   :     17.61730     -23.98119       1.58736
                        -----------------------------------------
Total Dipole Moment    :      0.41153      -0.39005      -0.19466
                        -----------------------------------------
Magnitude (a.u.)       :      0.59949
Magnitude (Debye)      :      1.52379

Rotational constants in cm-1:     0.018812     0.008390     0.006771
Rotational constants in MHz :   563.977193   251.526007   203.002686

                             ****ORCA TERMINATED NORMALLY****
TOTAL RUN TIME: 0 days 0 hours 0 minutes 32 seconds 472 msec
