                         Program Version 4.2.1 -  RELEASE  -
|  1> ! wB97X-D3 SP def2-SVP
|  2> %pal
|  3> nprocs 16
|  4> end
|  5>
|  6> * xyz 0 1
|  7> S 	 39.6827 	 27.1121 	 95.2257
|  8> C 	 40.4651 	 28.4552 	 95.8634
|  9> C 	 41.4168 	 28.0716 	 96.7941
| 10> C 	 41.545 	 26.6521 	 97.017
| 11> C 	 40.6341 	 26.0071 	 96.2049
| 12> H 	 42.256 	 26.193 	 97.664
| 13> C 	 42.2491 	 29.1072 	 97.5216
| 14> H 	 42.5221 	 28.7314 	 98.559
| 15> H 	 41.6079 	 29.9657 	 97.7175
| 16> C 	 43.5646 	 29.4573 	 96.7721
| 17> H 	 43.2871 	 29.8886 	 95.8803
| 18> H 	 44.2874 	 29.922 	 97.3864
| 19> C 	 44.5269 	 28.2477 	 96.4442
| 20> H 	 44.8688 	 27.732 	 97.326
| 21> H 	 43.9847 	 27.4834 	 95.8176
| 22> H 	 45.4488 	 28.574 	 95.9496
| 23> S 	 39.4478 	 23.6771 	 96.9103
| 24> C 	 39.8336 	 22.2596 	 95.9485
| 25> C 	 40.5505 	 22.5891 	 94.785
| 26> C 	 40.9398 	 23.9761 	 94.7904
| 27> C 	 40.5614 	 24.6366 	 95.9178
| 28> H 	 40.745 	 21.8447 	 93.986
| 29> C 	 41.8692 	 24.4326 	 93.698
| 30> H 	 42.3516 	 25.3295 	 94.0177
| 31> H 	 41.2112 	 24.8507 	 92.9325
| 32> C 	 42.8962 	 23.4772 	 92.9632
| 33> H 	 43.5731 	 24.0885 	 92.3874
| 34> H 	 42.2757 	 22.899 	 92.2641
| 35> C 	 43.7571 	 22.5953 	 93.8443
| 36> H 	 43.2193 	 21.8799 	 94.5445
| 37> H 	 44.3852 	 23.2707 	 94.4819
| 38> H 	 44.5035 	 22.071 	 93.2223
| 39> H 	 40.1795 	 29.4922 	 95.5668
| 40> H 	 39.4374 	 21.2396 	 96.1391
| 41> *
| 42>
| 43>                          ****END OF INPUT****

CARTESIAN COORDINATES (ANGSTROEM)
---------------------------------
  S     39.682700   27.112100   95.225700
  C     40.465100   28.455200   95.863400
  C     41.416800   28.071600   96.794100
  C     41.545000   26.652100   97.017000
  C     40.634100   26.007100   96.204900
  H     42.256000   26.193000   97.664000
  C     42.249100   29.107200   97.521600
  H     42.522100   28.731400   98.559000
  H     41.607900   29.965700   97.717500
  C     43.564600   29.457300   96.772100
  H     43.287100   29.888600   95.880300
  H     44.287400   29.922000   97.386400
  C     44.526900   28.247700   96.444200
  H     44.868800   27.732000   97.326000
  H     43.984700   27.483400   95.817600
  H     45.448800   28.574000   95.949600
  S     39.447800   23.677100   96.910300
  C     39.833600   22.259600   95.948500
  C     40.550500   22.589100   94.785000
  C     40.939800   23.976100   94.790400
  C     40.561400   24.636600   95.917800
  H     40.745000   21.844700   93.986000
  C     41.869200   24.432600   93.698000
  H     42.351600   25.329500   94.017700
  H     41.211200   24.850700   92.932500
  C     42.896200   23.477200   92.963200
  H     43.573100   24.088500   92.387400
  H     42.275700   22.899000   92.264100
  C     43.757100   22.595300   93.844300
  H     43.219300   21.879900   94.544500
  H     44.385200   23.270700   94.481900
  H     44.503500   22.071000   93.222300
  H     40.179500   29.492200   95.566800
  H     39.437400   21.239600   96.139100

 Total Charge           Charge          ....    0
 Multiplicity           Mult            ....    1
 Number of Electrons    NEL             ....  134
 Basis Dimension        Dim             ....  322

ORBITAL ENERGIES
----------------

  NO   OCC          E(Eh)            E(eV)
   0   2.0000     -88.963583     -2420.8222
   1   2.0000     -88.962395     -2420.7898
   2   2.0000     -10.321551      -280.8637
   3   2.0000     -10.321110      -280.8517
   4   2.0000     -10.314640      -280.6756
   5   2.0000     -10.312501      -280.6174
   6   2.0000     -10.300856      -280.3005
   7   2.0000     -10.299122      -280.2533
   8   2.0000     -10.297053      -280.1971
   9   2.0000     -10.296534      -280.1829
  10   2.0000     -10.293704      -280.1059
  11   2.0000     -10.292214      -280.0654
  12   2.0000     -10.286798      -279.9180
  13   2.0000     -10.283813      -279.8368
  14   2.0000     -10.280067      -279.7348
  15   2.0000     -10.279473      -279.7187
  16   2.0000      -8.079746      -219.8611
  17   2.0000      -8.076909      -219.7839
  18   2.0000      -6.038054      -164.3038
  19   2.0000      -6.035428      -164.2324
  20   2.0000      -6.033946      -164.1920
  21   2.0000      -6.031585      -164.1278
  22   2.0000      -6.030728      -164.1045
  23   2.0000      -6.027524      -164.0173
  24   2.0000      -1.011641       -27.5282
  25   2.0000      -0.983120       -26.7520
  26   2.0000      -0.906813       -24.6756
  27   2.0000      -0.903236       -24.5783
  28   2.0000      -0.873017       -23.7560
  29   2.0000      -0.849745       -23.1227
  30   2.0000      -0.846638       -23.0382
  31   2.0000      -0.812432       -22.1074
  32   2.0000      -0.783756       -21.3271
  33   2.0000      -0.764781       -20.8107
  34   2.0000      -0.704380       -19.1671
  35   2.0000      -0.697529       -18.9807
  36   2.0000      -0.690094       -18.7784
  37   2.0000      -0.658582       -17.9209
  38   2.0000      -0.649776       -17.6813
  39   2.0000      -0.611120       -16.6294
  40   2.0000      -0.591271       -16.0893
  41   2.0000      -0.577195       -15.7063
  42   2.0000      -0.550690       -14.9850
  43   2.0000      -0.545845       -14.8532
  44   2.0000      -0.540343       -14.7035
  45   2.0000      -0.539176       -14.6717
  46   2.0000      -0.517749       -14.0887
  47   2.0000      -0.513330       -13.9684
  48   2.0000      -0.502397       -13.6709
  49   2.0000      -0.492090       -13.3905
  50   2.0000      -0.489456       -13.3188
  51   2.0000      -0.477336       -12.9890
  52   2.0000      -0.465419       -12.6647
  53   2.0000      -0.463117       -12.6021
  54   2.0000      -0.455731       -12.4011
  55   2.0000      -0.450495       -12.2586
  56   2.0000      -0.446275       -12.1438
  57   2.0000      -0.436182       -11.8691
  58   2.0000      -0.434884       -11.8338
  59   2.0000      -0.423935       -11.5359
  60   2.0000      -0.420751       -11.4492
  61   2.0000      -0.411116       -11.1870
  62   2.0000      -0.399917       -10.8823
  63   2.0000      -0.340048        -9.2532
  64   2.0000      -0.327398        -8.9090
  65   2.0000      -0.314417        -8.5557
  66   2.0000      -0.306983        -8.3534
  67   0.0000       0.041558         1.1309
  68   0.0000       0.057970         1.5775
  69   0.0000       0.109649         2.9837
  70   0.0000       0.119290         3.2460
  71   0.0000       0.126576         3.4443

MULLIKEN ATOMIC CHARGES
-----------------------
   0 S :    0.131235
   1 C :   -0.136446
   2 C :   -0.113991
   3 C :    0.071626
   4 C :   -0.175773
   5 H :    0.011886
   6 C :    0.044232
   7 H :    0.023394
   8 H :    0.030725
   9 C :    0.000083
  10 H :    0.015030
  11 H :    0.027543
  12 C :   -0.114938
  13 H :    0.021909
  14 H :    0.048965
  15 H :    0.039282
  16 S :    0.104804
  17 C :   -0.099475
  18 C :   -0.066093
  19 C :   -0.009893
  20 C :   -0.194907
  21 H :    0.038746
  22 C :    0.071609
  23 H :    0.013163
  24 H :    0.030492
  25 C :   -0.049560
  26 H :    0.028765
  27 H :    0.028522
  28 C :   -0.073684
  29 H :    0.053798
  30 H :    0.029979
  31 H :    0.036271
  32 H :    0.066177
  33 H :    0.066524
Sum of atomic charges:    0.0000000

LOEWDIN ATOMIC CHARGES
----------------------
   0 S :    0.436366
   1 C :   -0.226134
   2 C :   -0.069251
   3 C :   -0.040811
   4 C :   -0.200040
   5 H :    0.033704
   6 C :   -0.036391
   7 H :    0.031544
   8 H :    0.029876
   9 C :   -0.026393
  10 H :    0.012208
  11 H :    0.023532
  12 C :   -0.069835
  13 H :    0.017445
  14 H :    0.025199
  15 H :    0.027395
  16 S :    0.392778
  17 C :   -0.185719
  18 C :   -0.076246
  19 C :   -0.049867
  20 C :   -0.210031
  21 H :    0.037965
  22 C :   -0.038448
  23 H :    0.024488
  24 H :    0.039614
  25 C :   -0.037508
  26 H :    0.029534
  27 H :    0.020811
  28 C :   -0.076800
  29 H :    0.032167
  30 H :    0.029323
  31 H :    0.028150
  32 H :    0.037385
  33 H :    0.033989

  Mayer bond orders larger than 0.100000
B(  0-S ,  1-C ) :   1.1561 B(  0-S ,  4-C ) :   1.1664 B(  1-C ,  2-C ) :   1.5916
B(  1-C , 32-H ) :   0.9654 B(  2-C ,  3-C ) :   1.2440 B(  2-C ,  6-C ) :   1.0217
B(  3-C ,  4-C ) :   1.5528 B(  3-C ,  5-H ) :   1.0049 B(  4-C , 20-C ) :   1.0308
B(  6-C ,  7-H ) :   0.9437 B(  6-C ,  8-H ) :   0.9480 B(  6-C ,  9-C ) :   1.0649
B(  9-C , 10-H ) :   0.9586 B(  9-C , 11-H ) :   0.9615 B(  9-C , 12-C ) :   1.0650
B( 12-C , 13-H ) :   0.9770 B( 12-C , 14-H ) :   0.9714 B( 12-C , 15-H ) :   0.9761
B( 16-S , 17-C ) :   1.1572 B( 16-S , 20-C ) :   1.1243 B( 17-C , 18-C ) :   1.6149
B( 17-C , 33-H ) :   0.9623 B( 18-C , 19-C ) :   1.2200 B( 18-C , 21-H ) :   0.9804
B( 19-C , 20-C ) :   1.6273 B( 19-C , 22-C ) :   1.0373 B( 22-C , 23-H ) :   0.9326
B( 22-C , 24-H ) :   0.9156 B( 22-C , 25-C ) :   1.0677 B( 25-C , 26-H ) :   0.9509
B( 25-C , 27-H ) :   0.9515 B( 25-C , 28-C ) :   1.0845 B( 28-C , 29-H ) :   0.9702
B( 28-C , 30-H ) :   0.9723 B( 28-C , 31-H ) :   0.9720

Dispersion correction           -0.015292340
FINAL SINGLE POINT ENERGY     -1339.867303453906

DIPOLE MOMENT
-------------
                                X             Y             Z
Electronic contribution:    -25.02383      -3.55258       6.21698
Nuclear contribution   :     25.51984       3.68663      -6.49157
                        -----------------------------------------
Total Dipole Moment    :      0.49601       0.13405      -0.27459
                        -----------------------------------------
Magnitude (a.u.)       :      0.58257
Magnitude (Debye)      :      1.48078

Rotational constants in cm-1:     0.018936     0.009241     0.007428
Rotational constants in MHz :   567.679377   277.040074   222.671474

                             ****ORCA TERMINATED NORMALLY****
TOTAL RUN TIME: 0 days 0 hours 0 minutes 31 seconds 266 msec
