                         Program Version 4.2.1 -  RELEASE  -
|  1> ! wB97X-D3 SP def2-SVP
|  2> %pal
|  3> nprocs 16
|  4> end
|  5>
|  6> * xyz 0 1
|  7> S 	 20.8364 	 31.6778 	 59.2631
|  8> C 	 19.7518 	 30.6347 	 60.0158
|  9> C 	 18.4696 	 31.1688 	 60.037
| 10> C 	 18.4286 	 32.4993 	 59.4749
| 11> C 	 19.6109 	 32.8199 	 58.9582
| 12> H 	 17.6074 	 33.1199 	 59.3727
| 13> C 	 17.1989 	 30.4535 	 60.5799
| 14> H 	 17.1979 	 30.7446 	 61.5917
| 15> H 	 17.3646 	 29.3462 	 60.7596
| 16> C 	 15.9328 	 30.7808 	 59.8276
| 17> H 	 15.47 	 31.7543 	 60.1746
| 18> H 	 16.166 	 30.7277 	 58.7454
| 19> C 	 14.7362 	 29.8001 	 60.0715
| 20> H 	 14.9428 	 28.7966 	 59.7783
| 21> H 	 14.4447 	 29.7453 	 61.1187
| 22> H 	 13.9251 	 30.1621 	 59.4374
| 23> S 	 19.8811 	 33.8227 	 56.4369
| 24> C 	 20.4455 	 35.4372 	 56.2661
| 25> C 	 20.6961 	 36.0733 	 57.4867
| 26> C 	 20.3605 	 35.304 	 58.6389
| 27> C 	 20.0044 	 33.9665 	 58.2011
| 28> H 	 21.1653 	 37.0426 	 57.4934
| 29> C 	 20.4423 	 35.8742 	 60.072
| 30> H 	 21.0439 	 36.7399 	 60.0413
| 31> H 	 21.0506 	 35.1903 	 60.5892
| 32> C 	 19.1186 	 36.1105 	 60.7924
| 33> H 	 19.2122 	 36.3662 	 61.8469
| 34> H 	 18.7283 	 35.1546 	 60.7907
| 35> C 	 18.2069 	 37.0986 	 60.0255
| 36> H 	 18.6998 	 37.9767 	 60.0503
| 37> H 	 17.255 	 37.1398 	 60.4144
| 38> H 	 18.2775 	 36.7761 	 58.9483
| 39> H 	 20.0532 	 29.716 	 60.4431
| 40> H 	 20.3185 	 36.0414 	 55.2906
| 41> *
| 42>
| 43>                          ****END OF INPUT****

CARTESIAN COORDINATES (ANGSTROEM)
---------------------------------
  S     20.836400   31.677800   59.263100
  C     19.751800   30.634700   60.015800
  C     18.469600   31.168800   60.037000
  C     18.428600   32.499300   59.474900
  C     19.610900   32.819900   58.958200
  H     17.607400   33.119900   59.372700
  C     17.198900   30.453500   60.579900
  H     17.197900   30.744600   61.591700
  H     17.364600   29.346200   60.759600
  C     15.932800   30.780800   59.827600
  H     15.470000   31.754300   60.174600
  H     16.166000   30.727700   58.745400
  C     14.736200   29.800100   60.071500
  H     14.942800   28.796600   59.778300
  H     14.444700   29.745300   61.118700
  H     13.925100   30.162100   59.437400
  S     19.881100   33.822700   56.436900
  C     20.445500   35.437200   56.266100
  C     20.696100   36.073300   57.486700
  C     20.360500   35.304000   58.638900
  C     20.004400   33.966500   58.201100
  H     21.165300   37.042600   57.493400
  C     20.442300   35.874200   60.072000
  H     21.043900   36.739900   60.041300
  H     21.050600   35.190300   60.589200
  C     19.118600   36.110500   60.792400
  H     19.212200   36.366200   61.846900
  H     18.728300   35.154600   60.790700
  C     18.206900   37.098600   60.025500
  H     18.699800   37.976700   60.050300
  H     17.255000   37.139800   60.414400
  H     18.277500   36.776100   58.948300
  H     20.053200   29.716000   60.443100
  H     20.318500   36.041400   55.290600

 Total Charge           Charge          ....    0
 Multiplicity           Mult            ....    1
 Number of Electrons    NEL             ....  134
 Basis Dimension        Dim             ....  322

ORBITAL ENERGIES
----------------

  NO   OCC          E(Eh)            E(eV)
   0   2.0000     -88.969165     -2420.9741
   1   2.0000     -88.958277     -2420.6778
   2   2.0000     -10.326012      -280.9851
   3   2.0000     -10.319715      -280.8137
   4   2.0000     -10.312351      -280.6133
   5   2.0000     -10.311890      -280.6008
   6   2.0000     -10.303024      -280.3595
   7   2.0000     -10.301670      -280.3227
   8   2.0000     -10.294552      -280.1290
   9   2.0000     -10.292647      -280.0772
  10   2.0000     -10.291249      -280.0391
  11   2.0000     -10.285438      -279.8810
  12   2.0000     -10.283915      -279.8396
  13   2.0000     -10.277020      -279.6519
  14   2.0000     -10.275679      -279.6154
  15   2.0000     -10.262279      -279.2508
  16   2.0000      -8.083788      -219.9711
  17   2.0000      -8.075664      -219.7500
  18   2.0000      -6.042022      -164.4118
  19   2.0000      -6.038305      -164.3106
  20   2.0000      -6.034857      -164.2168
  21   2.0000      -6.033870      -164.1899
  22   2.0000      -6.029763      -164.0782
  23   2.0000      -6.026616      -163.9925
  24   2.0000      -1.015315       -27.6281
  25   2.0000      -0.982506       -26.7353
  26   2.0000      -0.911724       -24.8093
  27   2.0000      -0.907955       -24.7067
  28   2.0000      -0.870567       -23.6893
  29   2.0000      -0.850579       -23.1454
  30   2.0000      -0.848902       -23.0998
  31   2.0000      -0.812043       -22.0968
  32   2.0000      -0.790149       -21.5011
  33   2.0000      -0.769435       -20.9374
  34   2.0000      -0.712871       -19.3982
  35   2.0000      -0.698830       -19.0161
  36   2.0000      -0.680641       -18.5212
  37   2.0000      -0.655700       -17.8425
  38   2.0000      -0.652153       -17.7460
  39   2.0000      -0.621763       -16.9190
  40   2.0000      -0.591049       -16.0833
  41   2.0000      -0.569049       -15.4846
  42   2.0000      -0.561513       -15.2796
  43   2.0000      -0.560593       -15.2545
  44   2.0000      -0.545327       -14.8391
  45   2.0000      -0.528578       -14.3834
  46   2.0000      -0.520022       -14.1505
  47   2.0000      -0.514193       -13.9919
  48   2.0000      -0.499851       -13.6017
  49   2.0000      -0.494618       -13.4592
  50   2.0000      -0.481287       -13.0965
  51   2.0000      -0.479278       -13.0418
  52   2.0000      -0.470969       -12.8157
  53   2.0000      -0.465707       -12.6725
  54   2.0000      -0.455614       -12.3979
  55   2.0000      -0.453057       -12.3283
  56   2.0000      -0.445980       -12.1357
  57   2.0000      -0.439763       -11.9666
  58   2.0000      -0.437796       -11.9130
  59   2.0000      -0.423214       -11.5162
  60   2.0000      -0.419780       -11.4228
  61   2.0000      -0.417671       -11.3654
  62   2.0000      -0.413474       -11.2512
  63   2.0000      -0.341409        -9.2902
  64   2.0000      -0.329231        -8.9588
  65   2.0000      -0.314984        -8.5711
  66   2.0000      -0.301585        -8.2066
  67   0.0000       0.042978         1.1695
  68   0.0000       0.061207         1.6655
  69   0.0000       0.117539         3.1984
  70   0.0000       0.121528         3.3069
  71   0.0000       0.130566         3.5529

MULLIKEN ATOMIC CHARGES
-----------------------
   0 S :    0.129014
   1 C :   -0.112944
   2 C :   -0.110678
   3 C :    0.087276
   4 C :   -0.184893
   5 H :   -0.014760
   6 C :    0.098720
   7 H :    0.019798
   8 H :    0.019942
   9 C :   -0.127077
  10 H :    0.047595
  11 H :    0.052486
  12 C :   -0.037900
  13 H :    0.021610
  14 H :    0.030733
  15 H :    0.036719
  16 S :    0.136945
  17 C :   -0.122532
  18 C :   -0.052855
  19 C :   -0.047570
  20 C :   -0.210344
  21 H :    0.018462
  22 C :    0.133040
  23 H :   -0.002529
  24 H :    0.016644
  25 C :   -0.044442
  26 H :    0.026663
  27 H :    0.001098
  28 C :    0.007071
  29 H :   -0.001060
  30 H :    0.026319
  31 H :    0.042091
  32 H :    0.028221
  33 H :    0.089137
Sum of atomic charges:    0.0000000

LOEWDIN ATOMIC CHARGES
----------------------
   0 S :    0.451736
   1 C :   -0.217480
   2 C :   -0.055280
   3 C :   -0.052311
   4 C :   -0.218584
   5 H :    0.022489
   6 C :   -0.042587
   7 H :    0.027383
   8 H :    0.035363
   9 C :   -0.048399
  10 H :    0.033933
  11 H :    0.032649
  12 C :   -0.061774
  13 H :    0.016433
  14 H :    0.023417
  15 H :    0.029132
  16 S :    0.425815
  17 C :   -0.219728
  18 C :   -0.079033
  19 C :   -0.041795
  20 C :   -0.208709
  21 H :    0.029148
  22 C :   -0.019226
  23 H :    0.020502
  24 H :    0.029836
  25 C :   -0.030496
  26 H :    0.024522
  27 H :    0.011688
  28 C :   -0.047631
  29 H :    0.008819
  30 H :    0.015369
  31 H :    0.038494
  32 H :    0.018207
  33 H :    0.048097

  Mayer bond orders larger than 0.100000
B(  0-S ,  1-C ) :   1.1546 B(  0-S ,  4-C ) :   1.1812 B(  1-C ,  2-C ) :   1.6109
B(  1-C , 32-H ) :   0.9789 B(  2-C ,  3-C ) :   1.2183 B(  2-C ,  6-C ) :   1.0062
B(  3-C ,  4-C ) :   1.6029 B(  3-C ,  5-H ) :   1.0093 B(  4-C , 20-C ) :   1.0040
B(  6-C ,  7-H ) :   0.9232 B(  6-C ,  8-H ) :   0.9467 B(  6-C ,  9-C ) :   1.0623
B(  9-C , 10-H ) :   0.9455 B(  9-C , 11-H ) :   0.9637 B(  9-C , 12-C ) :   1.0867
B( 12-C , 13-H ) :   0.9757 B( 12-C , 14-H ) :   0.9754 B( 12-C , 15-H ) :   0.9760
B( 16-S , 17-C ) :   1.1721 B( 16-S , 20-C ) :   1.1778 B( 17-C , 18-C ) :   1.5861
B( 17-C , 20-C ) :   0.1160 B( 17-C , 33-H ) :   0.9512 B( 18-C , 19-C ) :   1.2708
B( 18-C , 21-H ) :   0.9855 B( 19-C , 20-C ) :   1.5388 B( 19-C , 22-C ) :   1.0274
B( 22-C , 23-H ) :   0.9330 B( 22-C , 24-H ) :   0.9227 B( 22-C , 25-C ) :   1.0667
B( 25-C , 26-H ) :   0.9527 B( 25-C , 27-H ) :   0.9549 B( 25-C , 28-C ) :   1.0707
B( 28-C , 29-H ) :   0.9747 B( 28-C , 30-H ) :   0.9748 B( 28-C , 31-H ) :   0.9726

Dispersion correction           -0.014867940
FINAL SINGLE POINT ENERGY     -1339.851565351540

DIPOLE MOMENT
-------------
                                X             Y             Z
Electronic contribution:     20.03352      -3.52295     -14.01453
Nuclear contribution   :    -20.44299       3.66399      14.38984
                        -----------------------------------------
Total Dipole Moment    :     -0.40947       0.14105       0.37532
                        -----------------------------------------
Magnitude (a.u.)       :      0.57308
Magnitude (Debye)      :      1.45666

Rotational constants in cm-1:     0.018793     0.008325     0.007454
Rotational constants in MHz :   563.406867   249.590186   223.456253

                             ****ORCA TERMINATED NORMALLY****
TOTAL RUN TIME: 0 days 0 hours 0 minutes 35 seconds 834 msec
