                         Program Version 4.2.1 -  RELEASE  -
|  1> ! wB97X-D3 SP def2-SVP
|  2> %pal
|  3> nprocs 16
|  4> end
|  5>
|  6> * xyz 0 1
|  7> S 	 -73.1069 	 43.6892 	 137.699
|  8> C 	 -74.6396 	 43.1406 	 137.014
|  9> C 	 -74.484 	 41.8561 	 136.499
| 10> C 	 -73.1671 	 41.2883 	 136.68
| 11> C 	 -72.3084 	 42.1418 	 137.28
| 12> H 	 -72.8916 	 40.2999 	 136.286
| 13> C 	 -75.5461 	 40.9117 	 135.913
| 14> H 	 -76.4601 	 41.2989 	 136.26
| 15> H 	 -75.3202 	 39.9326 	 136.356
| 16> C 	 -75.5245 	 40.9293 	 134.355
| 17> H 	 -75.8931 	 41.8952 	 134.059
| 18> H 	 -74.5331 	 40.8134 	 133.961
| 19> C 	 -76.388 	 39.8651 	 133.775
| 20> H 	 -76.4517 	 39.7958 	 132.692
| 21> H 	 -76.0568 	 38.8583 	 134.068
| 22> H 	 -77.4197 	 40.1379 	 134.08
| 23> S 	 -70.6045 	 40.7439 	 139.039
| 24> C 	 -68.8718 	 40.9148 	 138.871
| 25> C 	 -68.5404 	 41.7615 	 137.822
| 26> C 	 -69.6899 	 42.2284 	 137.095
| 27> C 	 -70.9292 	 41.8183 	 137.634
| 28> H 	 -67.4389 	 41.9712 	 137.597
| 29> C 	 -69.4584 	 43.2725 	 135.985
| 30> H 	 -70.3096 	 43.2461 	 135.314
| 31> H 	 -68.5705 	 43.0555 	 135.397
| 32> C 	 -69.3347 	 44.6459 	 136.626
| 33> H 	 -68.6637 	 44.5423 	 137.445
| 34> H 	 -70.2814 	 44.8968 	 137.018
| 35> C 	 -68.8645 	 45.6933 	 135.57
| 36> H 	 -68.0838 	 45.2577 	 134.947
| 37> H 	 -68.3374 	 46.457 	 136.072
| 38> H 	 -69.6436 	 46.3331 	 135.035
| 39> H 	 -75.656 	 43.5818 	 137.091
| 40> H 	 -68.0716 	 40.5212 	 139.492
| 41> *
| 42>
| 43>                          ****END OF INPUT****

CARTESIAN COORDINATES (ANGSTROEM)
---------------------------------
  S    -73.106900   43.689200  137.699000
  C    -74.639600   43.140600  137.014000
  C    -74.484000   41.856100  136.499000
  C    -73.167100   41.288300  136.680000
  C    -72.308400   42.141800  137.280000
  H    -72.891600   40.299900  136.286000
  C    -75.546100   40.911700  135.913000
  H    -76.460100   41.298900  136.260000
  H    -75.320200   39.932600  136.356000
  C    -75.524500   40.929300  134.355000
  H    -75.893100   41.895200  134.059000
  H    -74.533100   40.813400  133.961000
  C    -76.388000   39.865100  133.775000
  H    -76.451700   39.795800  132.692000
  H    -76.056800   38.858300  134.068000
  H    -77.419700   40.137900  134.080000
  S    -70.604500   40.743900  139.039000
  C    -68.871800   40.914800  138.871000
  C    -68.540400   41.761500  137.822000
  C    -69.689900   42.228400  137.095000
  C    -70.929200   41.818300  137.634000
  H    -67.438900   41.971200  137.597000
  C    -69.458400   43.272500  135.985000
  H    -70.309600   43.246100  135.314000
  H    -68.570500   43.055500  135.397000
  C    -69.334700   44.645900  136.626000
  H    -68.663700   44.542300  137.445000
  H    -70.281400   44.896800  137.018000
  C    -68.864500   45.693300  135.570000
  H    -68.083800   45.257700  134.947000
  H    -68.337400   46.457000  136.072000
  H    -69.643600   46.333100  135.035000
  H    -75.656000   43.581800  137.091000
  H    -68.071600   40.521200  139.492000

 Total Charge           Charge          ....    0
 Multiplicity           Mult            ....    1
 Number of Electrons    NEL             ....  134
 Basis Dimension        Dim             ....  322

ORBITAL ENERGIES
----------------

  NO   OCC          E(Eh)            E(eV)
   0   2.0000     -88.969338     -2420.9788
   1   2.0000     -88.967091     -2420.9176
   2   2.0000     -10.331670      -281.1390
   3   2.0000     -10.331194      -281.1261
   4   2.0000     -10.321477      -280.8617
   5   2.0000     -10.319247      -280.8010
   6   2.0000     -10.307741      -280.4879
   7   2.0000     -10.301791      -280.3260
   8   2.0000     -10.298850      -280.2460
   9   2.0000     -10.294761      -280.1347
  10   2.0000     -10.292036      -280.0605
  11   2.0000     -10.285264      -279.8763
  12   2.0000     -10.282568      -279.8029
  13   2.0000     -10.277549      -279.6663
  14   2.0000     -10.276433      -279.6360
  15   2.0000     -10.276231      -279.6305
  16   2.0000      -8.082628      -219.9395
  17   2.0000      -8.080757      -219.8886
  18   2.0000      -6.041464      -164.3966
  19   2.0000      -6.039391      -164.3402
  20   2.0000      -6.037304      -164.2834
  21   2.0000      -6.035339      -164.2299
  22   2.0000      -6.033150      -164.1704
  23   2.0000      -6.031510      -164.1257
  24   2.0000      -0.999027       -27.1849
  25   2.0000      -0.977525       -26.5998
  26   2.0000      -0.913087       -24.8464
  27   2.0000      -0.907315       -24.6893
  28   2.0000      -0.868993       -23.6465
  29   2.0000      -0.849915       -23.1274
  30   2.0000      -0.840855       -22.8808
  31   2.0000      -0.812811       -22.1177
  32   2.0000      -0.778626       -21.1875
  33   2.0000      -0.766846       -20.8669
  34   2.0000      -0.706465       -19.2239
  35   2.0000      -0.699495       -19.0342
  36   2.0000      -0.695313       -18.9204
  37   2.0000      -0.656056       -17.8522
  38   2.0000      -0.635070       -17.2811
  39   2.0000      -0.619352       -16.8534
  40   2.0000      -0.591669       -16.1001
  41   2.0000      -0.572220       -15.5709
  42   2.0000      -0.565019       -15.3749
  43   2.0000      -0.562523       -15.3070
  44   2.0000      -0.526087       -14.3156
  45   2.0000      -0.518577       -14.1112
  46   2.0000      -0.511805       -13.9269
  47   2.0000      -0.506834       -13.7917
  48   2.0000      -0.504119       -13.7178
  49   2.0000      -0.501303       -13.6412
  50   2.0000      -0.497722       -13.5437
  51   2.0000      -0.476122       -12.9559
  52   2.0000      -0.466678       -12.6989
  53   2.0000      -0.465279       -12.6609
  54   2.0000      -0.454094       -12.3565
  55   2.0000      -0.451120       -12.2756
  56   2.0000      -0.442293       -12.0354
  57   2.0000      -0.432644       -11.7728
  58   2.0000      -0.431029       -11.7289
  59   2.0000      -0.424071       -11.5395
  60   2.0000      -0.421986       -11.4828
  61   2.0000      -0.415043       -11.2939
  62   2.0000      -0.412811       -11.2331
  63   2.0000      -0.338697        -9.2164
  64   2.0000      -0.331356        -9.0167
  65   2.0000      -0.322055        -8.7636
  66   2.0000      -0.306122        -8.3300
  67   0.0000       0.040914         1.1133
  68   0.0000       0.050757         1.3812
  69   0.0000       0.109485         2.9792
  70   0.0000       0.113860         3.0983
  71   0.0000       0.124259         3.3813

MULLIKEN ATOMIC CHARGES
-----------------------
   0 S :    0.108338
   1 C :   -0.125747
   2 C :   -0.122586
   3 C :    0.029500
   4 C :   -0.141167
   5 H :    0.029309
   6 C :    0.081683
   7 H :    0.001026
   8 H :    0.034109
   9 C :   -0.044559
  10 H :    0.019033
  11 H :    0.023097
  12 C :   -0.040859
  13 H :    0.030300
  14 H :    0.030695
  15 H :    0.026170
  16 S :    0.114196
  17 C :   -0.089746
  18 C :   -0.073316
  19 C :   -0.036996
  20 C :   -0.182337
  21 H :    0.049166
  22 C :    0.068394
  23 H :    0.026724
  24 H :    0.018395
  25 C :   -0.029540
  26 H :    0.016579
  27 H :    0.007904
  28 C :   -0.034494
  29 H :    0.023690
  30 H :    0.009415
  31 H :    0.052864
  32 H :    0.061536
  33 H :    0.059224
Sum of atomic charges:    0.0000000

LOEWDIN ATOMIC CHARGES
----------------------
   0 S :    0.385118
   1 C :   -0.207141
   2 C :   -0.060171
   3 C :   -0.055692
   4 C :   -0.185543
   5 H :    0.039184
   6 C :   -0.019271
   7 H :    0.019489
   8 H :    0.032441
   9 C :   -0.035517
  10 H :    0.023515
  11 H :    0.019488
  12 C :   -0.069008
  13 H :    0.024548
  14 H :    0.025172
  15 H :    0.027935
  16 S :    0.393939
  17 C :   -0.189206
  18 C :   -0.087714
  19 C :   -0.045719
  20 C :   -0.198182
  21 H :    0.044792
  22 C :   -0.026722
  23 H :    0.027865
  24 H :    0.024887
  25 C :   -0.027993
  26 H :    0.019278
  27 H :    0.014419
  28 C :   -0.073807
  29 H :    0.024320
  30 H :    0.019749
  31 H :    0.039399
  32 H :    0.041268
  33 H :    0.034880

  Mayer bond orders larger than 0.100000
B(  0-S ,  1-C ) :   1.1168 B(  0-S ,  4-C ) :   1.1212 B(  1-C ,  2-C ) :   1.6502
B(  1-C , 32-H ) :   0.9600 B(  2-C ,  3-C ) :   1.2137 B(  2-C ,  6-C ) :   1.0171
B(  3-C ,  4-C ) :   1.6217 B(  3-C ,  5-H ) :   0.9889 B(  4-C , 20-C ) :   1.0321
B(  6-C ,  7-H ) :   0.9346 B(  6-C ,  8-H ) :   0.9497 B(  6-C ,  9-C ) :   1.0567
B(  9-C , 10-H ) :   0.9515 B(  9-C , 11-H ) :   0.9608 B(  9-C , 12-C ) :   1.0913
B( 12-C , 13-H ) :   0.9729 B( 12-C , 14-H ) :   0.9741 B( 12-C , 15-H ) :   0.9714
B( 16-S , 17-C ) :   1.1582 B( 16-S , 20-C ) :   1.1243 B( 17-C , 18-C ) :   1.6216
B( 17-C , 20-C ) :   0.1007 B( 17-C , 33-H ) :   0.9620 B( 18-C , 19-C ) :   1.2420
B( 18-C , 21-H ) :   0.9731 B( 19-C , 20-C ) :   1.5912 B( 19-C , 22-C ) :   1.0554
B( 22-C , 23-H ) :   0.9309 B( 22-C , 24-H ) :   0.9379 B( 22-C , 25-C ) :   1.0673
B( 25-C , 26-H ) :   0.9602 B( 25-C , 27-H ) :   0.9467 B( 25-C , 28-C ) :   1.0728
B( 28-C , 29-H ) :   0.9740 B( 28-C , 30-H ) :   0.9707 B( 28-C , 31-H ) :   0.9745

Dispersion correction           -0.014062566
FINAL SINGLE POINT ENERGY     -1339.874251729246

DIPOLE MOMENT
-------------
                                X             Y             Z
Electronic contribution:      4.38844      -3.11811      19.92269
Nuclear contribution   :     -4.38852       3.06386     -20.29621
                        -----------------------------------------
Total Dipole Moment    :     -0.00008      -0.05426      -0.37352
                        -----------------------------------------
Magnitude (a.u.)       :      0.37744
Magnitude (Debye)      :      0.95936

Rotational constants in cm-1:     0.018976     0.007610     0.006605
Rotational constants in MHz :   568.896985   228.155248   198.006695

                             ****ORCA TERMINATED NORMALLY****
TOTAL RUN TIME: 0 days 0 hours 0 minutes 31 seconds 271 msec
