                         Program Version 4.2.1 -  RELEASE  -
|  1> ! wB97X-D3 SP def2-SVP
|  2> %pal
|  3> nprocs 16
|  4> end
|  5>
|  6> * xyz 0 1
|  7> S 	 2.11667 	 -18.1776 	 78.3375
|  8> C 	 1.62957 	 -18.6836 	 79.9396
|  9> C 	 1.84064 	 -17.6614 	 80.876
| 10> C 	 2.49409 	 -16.5687 	 80.286
| 11> C 	 2.76936 	 -16.6762 	 78.9246
| 12> H 	 2.72195 	 -15.5845 	 80.8371
| 13> C 	 1.51804 	 -17.7357 	 82.2942
| 14> H 	 0.543115 	 -18.1699 	 82.4986
| 15> H 	 1.62458 	 -16.7733 	 82.6771
| 16> C 	 2.47143 	 -18.6388 	 83.0628
| 17> H 	 2.65401 	 -19.5279 	 82.4795
| 18> H 	 3.43891 	 -18.2156 	 83.0793
| 19> C 	 1.91678 	 -18.8624 	 84.4549
| 20> H 	 0.831037 	 -18.9431 	 84.5141
| 21> H 	 2.33605 	 -19.7367 	 84.9669
| 22> H 	 2.05104 	 -17.9643 	 85.086
| 23> S 	 2.67099 	 -15.4175 	 76.5107
| 24> C 	 3.86824 	 -14.2128 	 76.1849
| 25> C 	 4.88386 	 -14.1955 	 77.1013
| 26> C 	 4.70296 	 -15.0783 	 78.1996
| 27> C 	 3.52069 	 -15.7878 	 78.0161
| 28> H 	 5.58623 	 -13.3847 	 76.9872
| 29> C 	 5.76185 	 -15.2635 	 79.2428
| 30> H 	 5.55051 	 -16.264 	 79.695
| 31> H 	 5.67939 	 -14.5218 	 80.0055
| 32> C 	 7.22957 	 -15.196 	 78.8259
| 33> H 	 7.56923 	 -14.2573 	 78.4221
| 34> H 	 7.32135 	 -15.9192 	 77.9635
| 35> C 	 8.28925 	 -15.6067 	 79.909
| 36> H 	 8.0218 	 -15.1175 	 80.7982
| 37> H 	 9.28981 	 -15.1846 	 79.6262
| 38> H 	 8.45061 	 -16.6632 	 80.0881
| 39> H 	 1.09225 	 -19.552 	 80.1976
| 40> H 	 3.81284 	 -13.5513 	 75.3694
| 41> *
| 42>
| 43>                          ****END OF INPUT****

CARTESIAN COORDINATES (ANGSTROEM)
---------------------------------
  S      2.116670  -18.177600   78.337500
  C      1.629570  -18.683600   79.939600
  C      1.840640  -17.661400   80.876000
  C      2.494090  -16.568700   80.286000
  C      2.769360  -16.676200   78.924600
  H      2.721950  -15.584500   80.837100
  C      1.518040  -17.735700   82.294200
  H      0.543115  -18.169900   82.498600
  H      1.624580  -16.773300   82.677100
  C      2.471430  -18.638800   83.062800
  H      2.654010  -19.527900   82.479500
  H      3.438910  -18.215600   83.079300
  C      1.916780  -18.862400   84.454900
  H      0.831037  -18.943100   84.514100
  H      2.336050  -19.736700   84.966900
  H      2.051040  -17.964300   85.086000
  S      2.670990  -15.417500   76.510700
  C      3.868240  -14.212800   76.184900
  C      4.883860  -14.195500   77.101300
  C      4.702960  -15.078300   78.199600
  C      3.520690  -15.787800   78.016100
  H      5.586230  -13.384700   76.987200
  C      5.761850  -15.263500   79.242800
  H      5.550510  -16.264000   79.695000
  H      5.679390  -14.521800   80.005500
  C      7.229570  -15.196000   78.825900
  H      7.569230  -14.257300   78.422100
  H      7.321350  -15.919200   77.963500
  C      8.289250  -15.606700   79.909000
  H      8.021800  -15.117500   80.798200
  H      9.289810  -15.184600   79.626200
  H      8.450610  -16.663200   80.088100
  H      1.092250  -19.552000   80.197600
  H      3.812840  -13.551300   75.369400

 Total Charge           Charge          ....    0
 Multiplicity           Mult            ....    1
 Number of Electrons    NEL             ....  134
 Basis Dimension        Dim             ....  322

ORBITAL ENERGIES
----------------

  NO   OCC          E(Eh)            E(eV)
   0   2.0000     -88.966085     -2420.8903
   1   2.0000     -88.965865     -2420.8843
   2   2.0000     -10.329895      -281.0907
   3   2.0000     -10.328806      -281.0611
   4   2.0000     -10.310850      -280.5725
   5   2.0000     -10.309327      -280.5310
   6   2.0000     -10.306079      -280.4427
   7   2.0000     -10.296623      -280.1853
   8   2.0000     -10.294385      -280.1245
   9   2.0000     -10.292832      -280.0822
  10   2.0000     -10.291053      -280.0338
  11   2.0000     -10.289603      -279.9943
  12   2.0000     -10.280036      -279.7340
  13   2.0000     -10.279854      -279.7291
  14   2.0000     -10.279266      -279.7130
  15   2.0000     -10.277987      -279.6782
  16   2.0000      -8.081297      -219.9033
  17   2.0000      -8.080592      -219.8841
  18   2.0000      -6.039649      -164.3472
  19   2.0000      -6.039033      -164.3304
  20   2.0000      -6.035892      -164.2450
  21   2.0000      -6.034974      -164.2200
  22   2.0000      -6.032039      -164.1401
  23   2.0000      -6.031565      -164.1272
  24   2.0000      -1.007901       -27.4264
  25   2.0000      -0.987160       -26.8620
  26   2.0000      -0.924169       -25.1479
  27   2.0000      -0.909736       -24.7552
  28   2.0000      -0.867897       -23.6167
  29   2.0000      -0.854018       -23.2390
  30   2.0000      -0.846767       -23.0417
  31   2.0000      -0.813266       -22.1301
  32   2.0000      -0.785699       -21.3799
  33   2.0000      -0.773054       -21.0359
  34   2.0000      -0.711010       -19.3476
  35   2.0000      -0.705056       -19.1856
  36   2.0000      -0.698925       -19.0187
  37   2.0000      -0.657176       -17.8827
  38   2.0000      -0.640974       -17.4418
  39   2.0000      -0.620418       -16.8824
  40   2.0000      -0.602070       -16.3831
  41   2.0000      -0.574583       -15.6352
  42   2.0000      -0.569642       -15.5007
  43   2.0000      -0.562131       -15.2964
  44   2.0000      -0.527873       -14.3642
  45   2.0000      -0.521721       -14.1968
  46   2.0000      -0.519033       -14.1236
  47   2.0000      -0.513636       -13.9767
  48   2.0000      -0.503873       -13.7111
  49   2.0000      -0.497598       -13.5403
  50   2.0000      -0.490572       -13.3491
  51   2.0000      -0.481781       -13.1099
  52   2.0000      -0.471096       -12.8192
  53   2.0000      -0.462279       -12.5792
  54   2.0000      -0.459556       -12.5052
  55   2.0000      -0.452564       -12.3149
  56   2.0000      -0.451797       -12.2940
  57   2.0000      -0.438626       -11.9356
  58   2.0000      -0.429728       -11.6935
  59   2.0000      -0.427041       -11.6204
  60   2.0000      -0.425335       -11.5740
  61   2.0000      -0.417674       -11.3655
  62   2.0000      -0.416430       -11.3316
  63   2.0000      -0.345131        -9.3915
  64   2.0000      -0.333365        -9.0713
  65   2.0000      -0.330693        -8.9986
  66   2.0000      -0.286590        -7.7985
  67   0.0000       0.029324         0.7979
  68   0.0000       0.067994         1.8502
  69   0.0000       0.106323         2.8932
  70   0.0000       0.125686         3.4201
  71   0.0000       0.133135         3.6228

MULLIKEN ATOMIC CHARGES
-----------------------
   0 S :    0.111365
   1 C :   -0.099604
   2 C :   -0.109685
   3 C :   -0.005284
   4 C :   -0.152071
   5 H :    0.038036
   6 C :    0.104353
   7 H :    0.022182
   8 H :    0.000805
   9 C :   -0.048349
  10 H :    0.017422
  11 H :    0.011566
  12 C :   -0.036740
  13 H :    0.018784
  14 H :    0.040975
  15 H :    0.025750
  16 S :    0.108823
  17 C :   -0.070143
  18 C :   -0.043871
  19 C :   -0.017035
  20 C :   -0.162908
  21 H :    0.017612
  22 C :    0.099731
  23 H :    0.041577
  24 H :    0.021158
  25 C :   -0.118340
  26 H :    0.027998
  27 H :    0.036187
  28 C :   -0.035190
  29 H :    0.015778
  30 H :    0.032852
  31 H :    0.042142
  32 H :    0.028724
  33 H :    0.035400
Sum of atomic charges:    0.0000000

LOEWDIN ATOMIC CHARGES
----------------------
   0 S :    0.415372
   1 C :   -0.196443
   2 C :   -0.063416
   3 C :   -0.079069
   4 C :   -0.203549
   5 H :    0.043587
   6 C :   -0.025137
   7 H :    0.031756
   8 H :    0.022738
   9 C :   -0.033318
  10 H :    0.020776
  11 H :    0.020153
  12 C :   -0.069679
  13 H :    0.022459
  14 H :    0.028499
  15 H :    0.029585
  16 S :    0.405342
  17 C :   -0.177365
  18 C :   -0.071072
  19 C :   -0.052487
  20 C :   -0.189862
  21 H :    0.031440
  22 C :   -0.034658
  23 H :    0.041579
  24 H :    0.026687
  25 C :   -0.043398
  26 H :    0.019110
  27 H :    0.029208
  28 C :   -0.060295
  29 H :    0.015329
  30 H :    0.033523
  31 H :    0.025768
  32 H :    0.018423
  33 H :    0.018415

  Mayer bond orders larger than 0.100000
B(  0-S ,  1-C ) :   1.1495 B(  0-S ,  4-C ) :   1.1719 B(  1-C ,  2-C ) :   1.5615
B(  1-C ,  4-C ) :   0.1111 B(  1-C , 32-H ) :   0.9733 B(  2-C ,  3-C ) :   1.2882
B(  2-C ,  6-C ) :   1.0480 B(  3-C ,  4-C ) :   1.5480 B(  3-C ,  5-H ) :   0.9796
B(  4-C , 20-C ) :   1.0071 B(  6-C ,  7-H ) :   0.9344 B(  6-C ,  8-H ) :   0.9290
B(  6-C ,  9-C ) :   1.0639 B(  9-C , 10-H ) :   0.9604 B(  9-C , 11-H ) :   0.9476
B(  9-C , 12-C ) :   1.0733 B( 12-C , 13-H ) :   0.9748 B( 12-C , 14-H ) :   0.9740
B( 12-C , 15-H ) :   0.9701 B( 16-S , 17-C ) :   1.1500 B( 16-S , 20-C ) :   1.1461
B( 17-C , 18-C ) :   1.6382 B( 17-C , 33-H ) :   0.9702 B( 18-C , 19-C ) :   1.2116
B( 18-C , 21-H ) :   0.9884 B( 19-C , 20-C ) :   1.6138 B( 19-C , 22-C ) :   1.0471
B( 22-C , 23-H ) :   0.9386 B( 22-C , 24-H ) :   0.9130 B( 22-C , 25-C ) :   1.0702
B( 25-C , 26-H ) :   0.9505 B( 25-C , 27-H ) :   0.9597 B( 25-C , 28-C ) :   1.0771
B( 28-C , 29-H ) :   0.9752 B( 28-C , 30-H ) :   0.9765 B( 28-C , 31-H ) :   0.9784

Dispersion correction           -0.013321593
FINAL SINGLE POINT ENERGY     -1339.876556296071

DIPOLE MOMENT
-------------
                                X             Y             Z
Electronic contribution:    -14.92351       1.68627     -26.17468
Nuclear contribution   :     15.24237      -1.40155      26.72442
                        -----------------------------------------
Total Dipole Moment    :      0.31886       0.28473       0.54975
                        -----------------------------------------
Magnitude (a.u.)       :      0.69639
Magnitude (Debye)      :      1.77009

Rotational constants in cm-1:     0.017444     0.008197     0.006070
Rotational constants in MHz :   522.948329   245.740731   181.981412

                             ****ORCA TERMINATED NORMALLY****
TOTAL RUN TIME: 0 days 0 hours 0 minutes 33 seconds 925 msec
