                         Program Version 4.2.1 -  RELEASE  -
|  1> ! wB97X-D3 SP def2-SVP
|  2> %pal
|  3> nprocs 16
|  4> end
|  5>
|  6> * xyz 0 1
|  7> S 	 29.5175 	 1.38645 	 71.6188
|  8> C 	 29.2485 	 2.56917 	 72.8958
|  9> C 	 29.1222 	 1.96877 	 74.1784
| 10> C 	 29.3316 	 0.57457 	 74.1108
| 11> C 	 29.7058 	 0.147277 	 72.8802
| 12> H 	 29.4254 	 -0.0472076 	 74.9746
| 13> C 	 28.8695 	 2.62206 	 75.483
| 14> H 	 29.6058 	 3.31066 	 75.7914
| 15> H 	 28.5816 	 1.9531 	 76.2915
| 16> C 	 27.5618 	 3.42047 	 75.4245
| 17> H 	 27.6986 	 4.17495 	 74.6345
| 18> H 	 26.8089 	 2.82803 	 75.0466
| 19> C 	 27.2296 	 3.97368 	 76.8447
| 20> H 	 27.0441 	 3.14875 	 77.5404
| 21> H 	 28.098 	 4.54578 	 77.2245
| 22> H 	 26.3218 	 4.5349 	 76.7791
| 23> S 	 28.4459 	 -2.12247 	 72.0009
| 24> C 	 29.4633 	 -3.59046 	 71.8431
| 25> C 	 30.744 	 -3.38307 	 72.241
| 26> C 	 31.0122 	 -2.04566 	 72.6734
| 27> C 	 29.8554 	 -1.23006 	 72.4839
| 28> H 	 31.4334 	 -4.17669 	 72.2874
| 29> C 	 32.2701 	 -1.46195 	 73.2993
| 30> H 	 32.7967 	 -2.32373 	 73.5858
| 31> H 	 32.0044 	 -0.791582 	 74.1703
| 32> C 	 33.0744 	 -0.631341 	 72.3793
| 33> H 	 33.1248 	 0.293065 	 72.8438
| 34> H 	 32.7142 	 -0.58506 	 71.375
| 35> C 	 34.5085 	 -1.17597 	 72.2934
| 36> H 	 35.0349 	 -0.540127 	 71.5765
| 37> H 	 34.5943 	 -2.15852 	 71.7338
| 38> H 	 34.9536 	 -1.20882 	 73.2794
| 39> H 	 29.1082 	 3.65137 	 72.8321
| 40> H 	 29.1604 	 -4.61143 	 71.6737
| 41> *
| 42>
| 43>                          ****END OF INPUT****

CARTESIAN COORDINATES (ANGSTROEM)
---------------------------------
  S     29.517500    1.386450   71.618800
  C     29.248500    2.569170   72.895800
  C     29.122200    1.968770   74.178400
  C     29.331600    0.574570   74.110800
  C     29.705800    0.147277   72.880200
  H     29.425400   -0.047208   74.974600
  C     28.869500    2.622060   75.483000
  H     29.605800    3.310660   75.791400
  H     28.581600    1.953100   76.291500
  C     27.561800    3.420470   75.424500
  H     27.698600    4.174950   74.634500
  H     26.808900    2.828030   75.046600
  C     27.229600    3.973680   76.844700
  H     27.044100    3.148750   77.540400
  H     28.098000    4.545780   77.224500
  H     26.321800    4.534900   76.779100
  S     28.445900   -2.122470   72.000900
  C     29.463300   -3.590460   71.843100
  C     30.744000   -3.383070   72.241000
  C     31.012200   -2.045660   72.673400
  C     29.855400   -1.230060   72.483900
  H     31.433400   -4.176690   72.287400
  C     32.270100   -1.461950   73.299300
  H     32.796700   -2.323730   73.585800
  H     32.004400   -0.791582   74.170300
  C     33.074400   -0.631341   72.379300
  H     33.124800    0.293065   72.843800
  H     32.714200   -0.585060   71.375000
  C     34.508500   -1.175970   72.293400
  H     35.034900   -0.540127   71.576500
  H     34.594300   -2.158520   71.733800
  H     34.953600   -1.208820   73.279400
  H     29.108200    3.651370   72.832100
  H     29.160400   -4.611430   71.673700

 Total Charge           Charge          ....    0
 Multiplicity           Mult            ....    1
 Number of Electrons    NEL             ....  134
 Basis Dimension        Dim             ....  322

ORBITAL ENERGIES
----------------

  NO   OCC          E(Eh)            E(eV)
   0   2.0000     -88.970625     -2421.0138
   1   2.0000     -88.967159     -2420.9195
   2   2.0000     -10.322578      -280.8916
   3   2.0000     -10.318141      -280.7709
   4   2.0000     -10.318019      -280.7676
   5   2.0000     -10.313408      -280.6421
   6   2.0000     -10.301255      -280.3114
   7   2.0000     -10.299047      -280.2513
   8   2.0000     -10.288687      -279.9694
   9   2.0000     -10.287561      -279.9388
  10   2.0000     -10.283876      -279.8385
  11   2.0000     -10.282022      -279.7880
  12   2.0000     -10.281991      -279.7872
  13   2.0000     -10.279040      -279.7069
  14   2.0000     -10.276196      -279.6295
  15   2.0000     -10.266323      -279.3609
  16   2.0000      -8.084314      -219.9854
  17   2.0000      -8.081066      -219.8970
  18   2.0000      -6.042826      -164.4337
  19   2.0000      -6.039626      -164.3466
  20   2.0000      -6.039051      -164.3309
  21   2.0000      -6.035773      -164.2417
  22   2.0000      -6.035049      -164.2220
  23   2.0000      -6.031752      -164.1323
  24   2.0000      -1.003718       -27.3126
  25   2.0000      -0.978501       -26.6264
  26   2.0000      -0.918991       -25.0070
  27   2.0000      -0.916343       -24.9350
  28   2.0000      -0.868158       -23.6238
  29   2.0000      -0.852345       -23.1935
  30   2.0000      -0.844995       -22.9935
  31   2.0000      -0.813392       -22.1335
  32   2.0000      -0.780746       -21.2452
  33   2.0000      -0.763390       -20.7729
  34   2.0000      -0.710637       -19.3374
  35   2.0000      -0.703381       -19.1400
  36   2.0000      -0.687157       -18.6985
  37   2.0000      -0.657661       -17.8959
  38   2.0000      -0.642759       -17.4904
  39   2.0000      -0.622801       -16.9473
  40   2.0000      -0.599381       -16.3100
  41   2.0000      -0.578100       -15.7309
  42   2.0000      -0.566029       -15.4024
  43   2.0000      -0.560110       -15.2414
  44   2.0000      -0.534378       -14.5412
  45   2.0000      -0.523998       -14.2587
  46   2.0000      -0.521118       -14.1804
  47   2.0000      -0.509848       -13.8737
  48   2.0000      -0.499678       -13.5969
  49   2.0000      -0.491497       -13.3743
  50   2.0000      -0.485602       -13.2139
  51   2.0000      -0.475759       -12.9461
  52   2.0000      -0.468500       -12.7485
  53   2.0000      -0.466097       -12.6832
  54   2.0000      -0.459412       -12.5012
  55   2.0000      -0.452461       -12.3121
  56   2.0000      -0.444702       -12.1010
  57   2.0000      -0.441076       -12.0023
  58   2.0000      -0.434045       -11.8110
  59   2.0000      -0.429708       -11.6929
  60   2.0000      -0.420464       -11.4414
  61   2.0000      -0.412137       -11.2148
  62   2.0000      -0.408209       -11.1079
  63   2.0000      -0.344262        -9.3678
  64   2.0000      -0.331343        -9.0163
  65   2.0000      -0.311974        -8.4892
  66   2.0000      -0.299254        -8.1431
  67   0.0000       0.041249         1.1225
  68   0.0000       0.047515         1.2929
  69   0.0000       0.109680         2.9846
  70   0.0000       0.113720         3.0945
  71   0.0000       0.129021         3.5108

MULLIKEN ATOMIC CHARGES
-----------------------
   0 S :    0.124831
   1 C :   -0.114101
   2 C :   -0.089153
   3 C :    0.057684
   4 C :   -0.189564
   5 H :    0.011477
   6 C :    0.089498
   7 H :    0.027683
   8 H :    0.016108
   9 C :   -0.109902
  10 H :    0.018276
  11 H :    0.014831
  12 C :   -0.031435
  13 H :    0.031885
  14 H :    0.036895
  15 H :    0.037316
  16 S :    0.125573
  17 C :   -0.078350
  18 C :   -0.020429
  19 C :   -0.073130
  20 C :   -0.177177
  21 H :   -0.002830
  22 C :    0.116412
  23 H :    0.002127
  24 H :    0.038654
  25 C :   -0.010016
  26 H :    0.016896
  27 H :    0.031987
  28 C :   -0.096874
  29 H :    0.026676
  30 H :    0.033846
  31 H :    0.041320
  32 H :    0.045727
  33 H :    0.047261
Sum of atomic charges:   -0.0000000

LOEWDIN ATOMIC CHARGES
----------------------
   0 S :    0.401894
   1 C :   -0.202179
   2 C :   -0.058274
   3 C :   -0.051650
   4 C :   -0.190880
   5 H :    0.032165
   6 C :   -0.031110
   7 H :    0.026549
   8 H :    0.031109
   9 C :   -0.031361
  10 H :    0.017478
  11 H :    0.011806
  12 C :   -0.062308
  13 H :    0.026132
  14 H :    0.029168
  15 H :    0.024874
  16 S :    0.401711
  17 C :   -0.177974
  18 C :   -0.066859
  19 C :   -0.045071
  20 C :   -0.217159
  21 H :    0.024050
  22 C :   -0.029934
  23 H :    0.020756
  24 H :    0.042684
  25 C :   -0.035044
  26 H :    0.020104
  27 H :    0.024302
  28 C :   -0.067128
  29 H :    0.023929
  30 H :    0.028646
  31 H :    0.021936
  32 H :    0.027721
  33 H :    0.029917

  Mayer bond orders larger than 0.100000
B(  0-S ,  1-C ) :   1.1404 B(  0-S ,  4-C ) :   1.1383 B(  1-C ,  2-C ) :   1.5930
B(  1-C ,  4-C ) :   0.1010 B(  1-C , 32-H ) :   0.9632 B(  2-C ,  3-C ) :   1.2540
B(  2-C ,  6-C ) :   1.0311 B(  3-C ,  4-C ) :   1.5956 B(  3-C ,  5-H ) :   0.9944
B(  4-C , 20-C ) :   1.0189 B(  6-C ,  7-H ) :   0.9344 B(  6-C ,  8-H ) :   0.9503
B(  6-C ,  9-C ) :   1.0429 B(  9-C , 10-H ) :   0.9566 B(  9-C , 11-H ) :   0.9602
B(  9-C , 12-C ) :   1.0792 B( 12-C , 13-H ) :   0.9725 B( 12-C , 14-H ) :   0.9738
B( 12-C , 15-H ) :   0.9735 B( 16-S , 17-C ) :   1.1331 B( 16-S , 20-C ) :   1.1563
B( 17-C , 18-C ) :   1.6341 B( 17-C , 33-H ) :   0.9621 B( 18-C , 19-C ) :   1.2550
B( 18-C , 21-H ) :   0.9903 B( 19-C , 20-C ) :   1.5680 B( 19-C , 22-C ) :   1.0543
B( 22-C , 23-H ) :   0.9283 B( 22-C , 24-H ) :   0.9267 B( 22-C , 25-C ) :   1.0496
B( 25-C , 26-H ) :   0.9504 B( 25-C , 27-H ) :   0.9617 B( 25-C , 28-C ) :   1.1006
B( 28-C , 29-H ) :   0.9739 B( 28-C , 30-H ) :   0.9728 B( 28-C , 31-H ) :   0.9759

Dispersion correction           -0.014290276
FINAL SINGLE POINT ENERGY     -1339.850195589927

DIPOLE MOMENT
-------------
                                X             Y             Z
Electronic contribution:    -10.05287     -10.56772     -16.03685
Nuclear contribution   :     10.24170      10.63147      16.61790
                        -----------------------------------------
Total Dipole Moment    :      0.18884       0.06375       0.58106
                        -----------------------------------------
Magnitude (a.u.)       :      0.61429
Magnitude (Debye)      :      1.56139

Rotational constants in cm-1:     0.020532     0.007713     0.006691
Rotational constants in MHz :   615.547167   231.221506   200.590393

                             ****ORCA TERMINATED NORMALLY****
TOTAL RUN TIME: 0 days 0 hours 0 minutes 28 seconds 492 msec
