                         Program Version 4.2.1 -  RELEASE  -
|  1> ! wB97X-D3 SP def2-SVP
|  2> %pal
|  3> nprocs 16
|  4> end
|  5>
|  6> * xyz 0 1
|  7> S 	 -119.416 	 48.6118 	 134.786
|  8> C 	 -118.701 	 49.4887 	 136.05
|  9> C 	 -117.375 	 49.7247 	 136
| 10> C 	 -116.882 	 48.9444 	 134.884
| 11> C 	 -117.814 	 48.2991 	 134.155
| 12> H 	 -115.862 	 48.6876 	 134.623
| 13> C 	 -116.515 	 50.5528 	 136.933
| 14> H 	 -115.644 	 49.9729 	 137.223
| 15> H 	 -117.074 	 50.7034 	 137.891
| 16> C 	 -116.158 	 51.9508 	 136.396
| 17> H 	 -115.345 	 52.4584 	 136.888
| 18> H 	 -115.666 	 51.8583 	 135.443
| 19> C 	 -117.407 	 52.8298 	 136.304
| 20> H 	 -117.258 	 53.8135 	 135.843
| 21> H 	 -118.254 	 52.3498 	 135.773
| 22> H 	 -117.665 	 53.1225 	 137.298
| 23> S 	 -117.971 	 45.724 	 133.317
| 24> C 	 -117.501 	 45.359 	 131.728
| 25> C 	 -116.87 	 46.4166 	 131.113
| 26> C 	 -116.84 	 47.6165 	 131.876
| 27> C 	 -117.497 	 47.3693 	 133.084
| 28> H 	 -116.621 	 46.1645 	 130.069
| 29> C 	 -116.446 	 48.9379 	 131.417
| 30> H 	 -115.426 	 49.0979 	 131.732
| 31> H 	 -116.975 	 49.6474 	 132.057
| 32> C 	 -116.825 	 49.1926 	 129.961
| 33> H 	 -116.366 	 48.5125 	 129.256
| 34> H 	 -116.377 	 50.1657 	 129.71
| 35> C 	 -118.282 	 49.4863 	 129.755
| 36> H 	 -118.626 	 50.2922 	 130.386
| 37> H 	 -118.915 	 48.7719 	 130.172
| 38> H 	 -118.533 	 49.7949 	 128.756
| 39> H 	 -119.221 	 50.0335 	 136.885
| 40> H 	 -117.679 	 44.4114 	 131.216
| 41> *
| 42>
| 43>                          ****END OF INPUT****

CARTESIAN COORDINATES (ANGSTROEM)
---------------------------------
  S    -119.416000   48.611800  134.786000
  C    -118.701000   49.488700  136.050000
  C    -117.375000   49.724700  136.000000
  C    -116.882000   48.944400  134.884000
  C    -117.814000   48.299100  134.155000
  H    -115.862000   48.687600  134.623000
  C    -116.515000   50.552800  136.933000
  H    -115.644000   49.972900  137.223000
  H    -117.074000   50.703400  137.891000
  C    -116.158000   51.950800  136.396000
  H    -115.345000   52.458400  136.888000
  H    -115.666000   51.858300  135.443000
  C    -117.407000   52.829800  136.304000
  H    -117.258000   53.813500  135.843000
  H    -118.254000   52.349800  135.773000
  H    -117.665000   53.122500  137.298000
  S    -117.971000   45.724000  133.317000
  C    -117.501000   45.359000  131.728000
  C    -116.870000   46.416600  131.113000
  C    -116.840000   47.616500  131.876000
  C    -117.497000   47.369300  133.084000
  H    -116.621000   46.164500  130.069000
  C    -116.446000   48.937900  131.417000
  H    -115.426000   49.097900  131.732000
  H    -116.975000   49.647400  132.057000
  C    -116.825000   49.192600  129.961000
  H    -116.366000   48.512500  129.256000
  H    -116.377000   50.165700  129.710000
  C    -118.282000   49.486300  129.755000
  H    -118.626000   50.292200  130.386000
  H    -118.915000   48.771900  130.172000
  H    -118.533000   49.794900  128.756000
  H    -119.221000   50.033500  136.885000
  H    -117.679000   44.411400  131.216000

 Total Charge           Charge          ....    0
 Multiplicity           Mult            ....    1
 Number of Electrons    NEL             ....  134
 Basis Dimension        Dim             ....  322

ORBITAL ENERGIES
----------------

  NO   OCC          E(Eh)            E(eV)
   0   2.0000     -88.967265     -2420.9224
   1   2.0000     -88.961836     -2420.7746
   2   2.0000     -10.317999      -280.7670
   3   2.0000     -10.316838      -280.7354
   4   2.0000     -10.309906      -280.5468
   5   2.0000     -10.307817      -280.4900
   6   2.0000     -10.299189      -280.2552
   7   2.0000     -10.298559      -280.2380
   8   2.0000     -10.298157      -280.2271
   9   2.0000     -10.289103      -279.9807
  10   2.0000     -10.288377      -279.9610
  11   2.0000     -10.285828      -279.8916
  12   2.0000     -10.283950      -279.8405
  13   2.0000     -10.283147      -279.8186
  14   2.0000     -10.276066      -279.6260
  15   2.0000     -10.264272      -279.3050
  16   2.0000      -8.083015      -219.9500
  17   2.0000      -8.078084      -219.8158
  18   2.0000      -6.041445      -164.3961
  19   2.0000      -6.037570      -164.2906
  20   2.0000      -6.036292      -164.2558
  21   2.0000      -6.033602      -164.1827
  22   2.0000      -6.032389      -164.1497
  23   2.0000      -6.029083      -164.0597
  24   2.0000      -1.015475       -27.6325
  25   2.0000      -0.993499       -27.0345
  26   2.0000      -0.920228       -25.0407
  27   2.0000      -0.913673       -24.8623
  28   2.0000      -0.872135       -23.7320
  29   2.0000      -0.855596       -23.2819
  30   2.0000      -0.849129       -23.1060
  31   2.0000      -0.814508       -22.1639
  32   2.0000      -0.786981       -21.4148
  33   2.0000      -0.775978       -21.1154
  34   2.0000      -0.713428       -19.4134
  35   2.0000      -0.706484       -19.2244
  36   2.0000      -0.693733       -18.8774
  37   2.0000      -0.650128       -17.6909
  38   2.0000      -0.639199       -17.3935
  39   2.0000      -0.619196       -16.8492
  40   2.0000      -0.600058       -16.3284
  41   2.0000      -0.572343       -15.5742
  42   2.0000      -0.564533       -15.3617
  43   2.0000      -0.553346       -15.0573
  44   2.0000      -0.542156       -14.7528
  45   2.0000      -0.534298       -14.5390
  46   2.0000      -0.520694       -14.1688
  47   2.0000      -0.504181       -13.7195
  48   2.0000      -0.498509       -13.5651
  49   2.0000      -0.492829       -13.4106
  50   2.0000      -0.484085       -13.1726
  51   2.0000      -0.479887       -13.0584
  52   2.0000      -0.470825       -12.8118
  53   2.0000      -0.464984       -12.6528
  54   2.0000      -0.459273       -12.4974
  55   2.0000      -0.451042       -12.2735
  56   2.0000      -0.444708       -12.1011
  57   2.0000      -0.439072       -11.9478
  58   2.0000      -0.437922       -11.9165
  59   2.0000      -0.434365       -11.8197
  60   2.0000      -0.425774       -11.5859
  61   2.0000      -0.415972       -11.3192
  62   2.0000      -0.404484       -11.0066
  63   2.0000      -0.342830        -9.3289
  64   2.0000      -0.331532        -9.0214
  65   2.0000      -0.327345        -8.9075
  66   2.0000      -0.297698        -8.1008
  67   0.0000       0.039546         1.0761
  68   0.0000       0.078344         2.1319
  69   0.0000       0.122469         3.3326
  70   0.0000       0.129154         3.5145
  71   0.0000       0.132536         3.6065

MULLIKEN ATOMIC CHARGES
-----------------------
   0 S :    0.135218
   1 C :   -0.116120
   2 C :   -0.099649
   3 C :    0.029965
   4 C :   -0.184364
   5 H :    0.008354
   6 C :    0.074442
   7 H :    0.032467
   8 H :    0.020970
   9 C :   -0.035354
  10 H :    0.020756
  11 H :    0.014290
  12 C :   -0.060307
  13 H :    0.028462
  14 H :    0.051610
  15 H :    0.016391
  16 S :    0.129541
  17 C :   -0.106554
  18 C :   -0.064948
  19 C :   -0.012923
  20 C :   -0.205569
  21 H :    0.022391
  22 C :    0.100603
  23 H :    0.029479
  24 H :    0.019816
  25 C :   -0.063698
  26 H :    0.032881
  27 H :    0.018656
  28 C :    0.006407
  29 H :    0.005798
  30 H :    0.012597
  31 H :    0.033958
  32 H :    0.049755
  33 H :    0.054677
Sum of atomic charges:    0.0000000

LOEWDIN ATOMIC CHARGES
----------------------
   0 S :    0.417816
   1 C :   -0.211108
   2 C :   -0.070638
   3 C :   -0.053657
   4 C :   -0.208053
   5 H :    0.029824
   6 C :   -0.027797
   7 H :    0.032775
   8 H :    0.032782
   9 C :   -0.043054
  10 H :    0.024643
  11 H :    0.020326
  12 C :   -0.068247
  13 H :    0.027639
  14 H :    0.031480
  15 H :    0.019748
  16 S :    0.434442
  17 C :   -0.206792
  18 C :   -0.080651
  19 C :   -0.053768
  20 C :   -0.211566
  21 H :    0.035626
  22 C :   -0.033852
  23 H :    0.034970
  24 H :    0.035547
  25 C :   -0.038275
  26 H :    0.021285
  27 H :    0.029122
  28 C :   -0.059945
  29 H :    0.027999
  30 H :    0.017520
  31 H :    0.026921
  32 H :    0.036069
  33 H :    0.030868

  Mayer bond orders larger than 0.100000
B(  0-S ,  1-C ) :   1.1419 B(  0-S ,  4-C ) :   1.1172 B(  1-C ,  2-C ) :   1.6714
B(  1-C , 32-H ) :   0.9418 B(  2-C ,  3-C ) :   1.1930 B(  2-C ,  6-C ) :   1.0232
B(  3-C ,  4-C ) :   1.6334 B(  3-C ,  5-H ) :   0.9913 B(  4-C , 20-C ) :   1.0352
B(  6-C ,  7-H ) :   0.9382 B(  6-C ,  8-H ) :   0.9424 B(  6-C ,  9-C ) :   1.0619
B(  9-C , 10-H ) :   0.9545 B(  9-C , 11-H ) :   0.9547 B(  9-C , 12-C ) :   1.0703
B( 12-C , 13-H ) :   0.9715 B( 12-C , 14-H ) :   0.9759 B( 12-C , 15-H ) :   0.9744
B( 16-S , 17-C ) :   1.1618 B( 16-S , 20-C ) :   1.1714 B( 17-C , 18-C ) :   1.6238
B( 17-C , 33-H ) :   0.9640 B( 18-C , 19-C ) :   1.2148 B( 18-C , 21-H ) :   0.9879
B( 19-C , 20-C ) :   1.5670 B( 19-C , 22-C ) :   1.0531 B( 22-C , 23-H ) :   0.9104
B( 22-C , 24-H ) :   0.9231 B( 22-C , 25-C ) :   1.0804 B( 25-C , 26-H ) :   0.9555
B( 25-C , 27-H ) :   0.9477 B( 25-C , 28-C ) :   1.0771 B( 28-C , 29-H ) :   0.9600
B( 28-C , 30-H ) :   0.9723 B( 28-C , 31-H ) :   0.9735

Dispersion correction           -0.014996274
FINAL SINGLE POINT ENERGY     -1339.873223076642

DIPOLE MOMENT
-------------
                                X             Y             Z
Electronic contribution:     -8.21939     -22.95726       4.40780
Nuclear contribution   :      8.59668      23.40936      -4.48646
                        -----------------------------------------
Total Dipole Moment    :      0.37729       0.45211      -0.07866
                        -----------------------------------------
Magnitude (a.u.)       :      0.59408
Magnitude (Debye)      :      1.51004

Rotational constants in cm-1:     0.020850     0.008627     0.007199
Rotational constants in MHz :   625.071192   258.637000   215.809402

                             ****ORCA TERMINATED NORMALLY****
TOTAL RUN TIME: 0 days 0 hours 0 minutes 34 seconds 682 msec
