                         Program Version 4.2.1 -  RELEASE  -
|  1> ! wB97X-D3 SP def2-SVP
|  2> %pal
|  3> nprocs 16
|  4> end
|  5>
|  6> * xyz 0 1
|  7> S 	 -34.2876 	 46.6565 	 98.7851
|  8> C 	 -34.6333 	 45.3772 	 97.6506
|  9> C 	 -34.063 	 45.5879 	 96.4316
| 10> C 	 -33.1454 	 46.6852 	 96.4157
| 11> C 	 -33.0844 	 47.2655 	 97.6588
| 12> H 	 -32.5143 	 47.016 	 95.6451
| 13> C 	 -34.2304 	 44.7986 	 95.1967
| 14> H 	 -34.199 	 43.7381 	 95.421
| 15> H 	 -33.2977 	 45.0337 	 94.6545
| 16> C 	 -35.4682 	 45.1777 	 94.4042
| 17> H 	 -36.2862 	 44.8097 	 94.9661
| 18> H 	 -35.6708 	 46.2503 	 94.2621
| 19> C 	 -35.5848 	 44.4223 	 93.1344
| 20> H 	 -36.5824 	 44.5948 	 92.679
| 21> H 	 -34.8544 	 44.8148 	 92.4817
| 22> H 	 -35.3537 	 43.3369 	 93.2811
| 23> S 	 -32.7642 	 49.9968 	 97.9661
| 24> C 	 -31.2207 	 50.5947 	 98.4893
| 25> C 	 -30.2532 	 49.6267 	 98.5081
| 26> C 	 -30.8445 	 48.3416 	 98.3029
| 27> C 	 -32.1744 	 48.3491 	 97.9439
| 28> H 	 -29.1907 	 49.8734 	 98.6445
| 29> C 	 -29.974 	 47.0602 	 98.4518
| 30> H 	 -29.1322 	 47.285 	 97.7672
| 31> H 	 -30.3971 	 46.2387 	 97.8984
| 32> C 	 -29.5714 	 46.4937 	 99.8319
| 33> H 	 -28.9639 	 45.6016 	 99.6737
| 34> H 	 -30.447 	 46.1461 	 100.374
| 35> C 	 -28.779 	 47.4406 	 100.731
| 36> H 	 -28.4893 	 46.9698 	 101.691
| 37> H 	 -29.3985 	 48.3325 	 100.874
| 38> H 	 -27.8569 	 47.7597 	 100.239
| 39> H 	 -35.37 	 44.6207 	 97.7453
| 40> H 	 -31.008 	 51.6364 	 98.4429
| 41> *
| 42>
| 43>                          ****END OF INPUT****

CARTESIAN COORDINATES (ANGSTROEM)
---------------------------------
  S    -34.287600   46.656500   98.785100
  C    -34.633300   45.377200   97.650600
  C    -34.063000   45.587900   96.431600
  C    -33.145400   46.685200   96.415700
  C    -33.084400   47.265500   97.658800
  H    -32.514300   47.016000   95.645100
  C    -34.230400   44.798600   95.196700
  H    -34.199000   43.738100   95.421000
  H    -33.297700   45.033700   94.654500
  C    -35.468200   45.177700   94.404200
  H    -36.286200   44.809700   94.966100
  H    -35.670800   46.250300   94.262100
  C    -35.584800   44.422300   93.134400
  H    -36.582400   44.594800   92.679000
  H    -34.854400   44.814800   92.481700
  H    -35.353700   43.336900   93.281100
  S    -32.764200   49.996800   97.966100
  C    -31.220700   50.594700   98.489300
  C    -30.253200   49.626700   98.508100
  C    -30.844500   48.341600   98.302900
  C    -32.174400   48.349100   97.943900
  H    -29.190700   49.873400   98.644500
  C    -29.974000   47.060200   98.451800
  H    -29.132200   47.285000   97.767200
  H    -30.397100   46.238700   97.898400
  C    -29.571400   46.493700   99.831900
  H    -28.963900   45.601600   99.673700
  H    -30.447000   46.146100  100.374000
  C    -28.779000   47.440600  100.731000
  H    -28.489300   46.969800  101.691000
  H    -29.398500   48.332500  100.874000
  H    -27.856900   47.759700  100.239000
  H    -35.370000   44.620700   97.745300
  H    -31.008000   51.636400   98.442900

 Total Charge           Charge          ....    0
 Multiplicity           Mult            ....    1
 Number of Electrons    NEL             ....  134
 Basis Dimension        Dim             ....  322

ORBITAL ENERGIES
----------------

  NO   OCC          E(Eh)            E(eV)
   0   2.0000     -88.968131     -2420.9459
   1   2.0000     -88.961397     -2420.7627
   2   2.0000     -10.324229      -280.9365
   3   2.0000     -10.320268      -280.8288
   4   2.0000     -10.312437      -280.6157
   5   2.0000     -10.307067      -280.4696
   6   2.0000     -10.302796      -280.3533
   7   2.0000     -10.294319      -280.1227
   8   2.0000     -10.292858      -280.0829
   9   2.0000     -10.288991      -279.9777
  10   2.0000     -10.288434      -279.9625
  11   2.0000     -10.287773      -279.9445
  12   2.0000     -10.283315      -279.8232
  13   2.0000     -10.278469      -279.6914
  14   2.0000     -10.274868      -279.5934
  15   2.0000     -10.273713      -279.5619
  16   2.0000      -8.082741      -219.9426
  17   2.0000      -8.076776      -219.7803
  18   2.0000      -6.041269      -164.3913
  19   2.0000      -6.037453      -164.2874
  20   2.0000      -6.035221      -164.2267
  21   2.0000      -6.033302      -164.1745
  22   2.0000      -6.031177      -164.1167
  23   2.0000      -6.027591      -164.0191
  24   2.0000      -1.009081       -27.4585
  25   2.0000      -0.987646       -26.8752
  26   2.0000      -0.922328       -25.0978
  27   2.0000      -0.899917       -24.4880
  28   2.0000      -0.874503       -23.7964
  29   2.0000      -0.858126       -23.3508
  30   2.0000      -0.844975       -22.9930
  31   2.0000      -0.816513       -22.2184
  32   2.0000      -0.781619       -21.2689
  33   2.0000      -0.770701       -20.9718
  34   2.0000      -0.708234       -19.2720
  35   2.0000      -0.700475       -19.0609
  36   2.0000      -0.688879       -18.7454
  37   2.0000      -0.660178       -17.9644
  38   2.0000      -0.647360       -17.6155
  39   2.0000      -0.619066       -16.8456
  40   2.0000      -0.590412       -16.0659
  41   2.0000      -0.571219       -15.5437
  42   2.0000      -0.566537       -15.4162
  43   2.0000      -0.549005       -14.9392
  44   2.0000      -0.539258       -14.6740
  45   2.0000      -0.531569       -14.4647
  46   2.0000      -0.518600       -14.1118
  47   2.0000      -0.512349       -13.9417
  48   2.0000      -0.510585       -13.8937
  49   2.0000      -0.497961       -13.5502
  50   2.0000      -0.486310       -13.2332
  51   2.0000      -0.477109       -12.9828
  52   2.0000      -0.470275       -12.7968
  53   2.0000      -0.466825       -12.7029
  54   2.0000      -0.460506       -12.5310
  55   2.0000      -0.446811       -12.1583
  56   2.0000      -0.443475       -12.0676
  57   2.0000      -0.441603       -12.0166
  58   2.0000      -0.431793       -11.7497
  59   2.0000      -0.426289       -11.5999
  60   2.0000      -0.416885       -11.3440
  61   2.0000      -0.412492       -11.2245
  62   2.0000      -0.407206       -11.0806
  63   2.0000      -0.336787        -9.1645
  64   2.0000      -0.329347        -8.9620
  65   2.0000      -0.324976        -8.8430
  66   2.0000      -0.307728        -8.3737
  67   0.0000       0.045659         1.2424
  68   0.0000       0.054383         1.4798
  69   0.0000       0.115446         3.1414
  70   0.0000       0.122170         3.3244
  71   0.0000       0.130916         3.5624

MULLIKEN ATOMIC CHARGES
-----------------------
   0 S :    0.127159
   1 C :   -0.092025
   2 C :   -0.085260
   3 C :    0.047495
   4 C :   -0.156146
   5 H :    0.001897
   6 C :    0.064818
   7 H :    0.024107
   8 H :    0.016330
   9 C :   -0.059726
  10 H :    0.007859
  11 H :    0.036184
  12 C :   -0.025464
  13 H :    0.040719
  14 H :    0.015074
  15 H :    0.031859
  16 S :    0.100542
  17 C :   -0.079264
  18 C :   -0.043402
  19 C :   -0.040001
  20 C :   -0.189960
  21 H :    0.035363
  22 C :    0.058292
  23 H :    0.022490
  24 H :    0.013780
  25 C :   -0.042735
  26 H :    0.025596
  27 H :    0.031927
  28 C :   -0.063556
  29 H :    0.039517
  30 H :    0.042488
  31 H :    0.019468
  32 H :    0.023685
  33 H :    0.050889
Sum of atomic charges:    0.0000000

LOEWDIN ATOMIC CHARGES
----------------------
   0 S :    0.405693
   1 C :   -0.195327
   2 C :   -0.061331
   3 C :   -0.046361
   4 C :   -0.190150
   5 H :    0.027536
   6 C :   -0.032128
   7 H :    0.031526
   8 H :    0.030059
   9 C :   -0.042635
  10 H :    0.018681
  11 H :    0.030145
  12 C :   -0.062597
  13 H :    0.031010
  14 H :    0.015466
  15 H :    0.029460
  16 S :    0.405556
  17 C :   -0.181408
  18 C :   -0.074419
  19 C :   -0.055943
  20 C :   -0.206793
  21 H :    0.039223
  22 C :   -0.037623
  23 H :    0.033071
  24 H :    0.028252
  25 C :   -0.037845
  26 H :    0.025379
  27 H :    0.026299
  28 C :   -0.070405
  29 H :    0.029133
  30 H :    0.026162
  31 H :    0.019856
  32 H :    0.020592
  33 H :    0.021869

  Mayer bond orders larger than 0.100000
B(  0-S ,  1-C ) :   1.1189 B(  0-S ,  4-C ) :   1.1423 B(  1-C ,  2-C ) :   1.6491
B(  1-C , 32-H ) :   0.9670 B(  2-C ,  3-C ) :   1.2102 B(  2-C ,  6-C ) :   1.0238
B(  3-C ,  4-C ) :   1.6011 B(  3-C ,  5-H ) :   1.0010 B(  4-C , 20-C ) :   1.0264
B(  6-C ,  7-H ) :   0.9308 B(  6-C ,  8-H ) :   0.9408 B(  6-C ,  9-C ) :   1.0666
B(  9-C , 10-H ) :   0.9489 B(  9-C , 11-H ) :   0.9542 B(  9-C , 12-C ) :   1.0926
B( 12-C , 13-H ) :   0.9716 B( 12-C , 14-H ) :   0.9737 B( 12-C , 15-H ) :   0.9676
B( 16-S , 17-C ) :   1.1661 B( 16-S , 20-C ) :   1.1385 B( 17-C , 18-C ) :   1.6108
B( 17-C , 33-H ) :   0.9640 B( 18-C , 19-C ) :   1.2325 B( 18-C , 21-H ) :   0.9874
B( 19-C , 20-C ) :   1.6317 B( 19-C , 22-C ) :   1.0221 B( 22-C , 23-H ) :   0.9383
B( 22-C , 24-H ) :   0.9295 B( 22-C , 25-C ) :   1.0751 B( 25-C , 26-H ) :   0.9509
B( 25-C , 27-H ) :   0.9527 B( 25-C , 28-C ) :   1.0874 B( 28-C , 29-H ) :   0.9721
B( 28-C , 30-H ) :   0.9723 B( 28-C , 31-H ) :   0.9740

Dispersion correction           -0.014290351
FINAL SINGLE POINT ENERGY     -1339.880919313628

DIPOLE MOMENT
-------------
                                X             Y             Z
Electronic contribution:     -7.83803      15.24900       9.09442
Nuclear contribution   :      8.09941     -15.55931      -9.52048
                        -----------------------------------------
Total Dipole Moment    :      0.26138      -0.31031      -0.42606
                        -----------------------------------------
Magnitude (a.u.)       :      0.58833
Magnitude (Debye)      :      1.49543

Rotational constants in cm-1:     0.022752     0.007184     0.006529
Rotational constants in MHz :   682.082216   215.366204   195.738402

                             ****ORCA TERMINATED NORMALLY****
TOTAL RUN TIME: 0 days 0 hours 0 minutes 29 seconds 433 msec
