                         Program Version 4.2.1 -  RELEASE  -
|  1> ! wB97X-D3 SP def2-SVP
|  2> %pal
|  3> nprocs 16
|  4> end
|  5>
|  6> * xyz 0 1
|  7> S 	 -11.8734 	 -4.85587 	 84.1498
|  8> C 	 -11.1438 	 -4.63477 	 85.783
|  9> C 	 -11.438 	 -5.68324 	 86.5915
| 10> C 	 -12.3343 	 -6.61669 	 85.9903
| 11> C 	 -12.5308 	 -6.42661 	 84.5905
| 12> H 	 -12.803 	 -7.49398 	 86.4012
| 13> C 	 -10.9161 	 -5.93805 	 87.9932
| 14> H 	 -9.86506 	 -5.58383 	 88.133
| 15> H 	 -10.7545 	 -6.96208 	 88.089
| 16> C 	 -11.8266 	 -5.31763 	 89.099
| 17> H 	 -12.2227 	 -4.41364 	 88.6627
| 18> H 	 -12.6004 	 -6.07833 	 89.2575
| 19> C 	 -11.0703 	 -5.01703 	 90.3734
| 20> H 	 -10.1609 	 -4.50398 	 90.1227
| 21> H 	 -11.5599 	 -4.35842 	 91.1139
| 22> H 	 -10.8423 	 -5.90632 	 90.9639
| 23> S 	 -14.319 	 -6.53238 	 82.5642
| 24> C 	 -14.7389 	 -8.09849 	 81.8485
| 25> C 	 -14.1971 	 -9.11694 	 82.5126
| 26> C 	 -13.4038 	 -8.77363 	 83.6221
| 27> C 	 -13.231 	 -7.36895 	 83.7172
| 28> H 	 -14.4595 	 -10.1268 	 82.1669
| 29> C 	 -12.7544 	 -9.86082 	 84.3689
| 30> H 	 -11.8133 	 -9.38521 	 84.7242
| 31> H 	 -12.4437 	 -10.6557 	 83.7197
| 32> C 	 -13.6483 	 -10.2011 	 85.6142
| 33> H 	 -14.7102 	 -10.1137 	 85.3208
| 34> H 	 -13.4663 	 -9.55014 	 86.4203
| 35> C 	 -13.1238 	 -11.5533 	 86.0442
| 36> H 	 -13.4286 	 -12.2928 	 85.3475
| 37> H 	 -13.5496 	 -11.7869 	 87.0442
| 38> H 	 -12.0854 	 -11.6185 	 86.1067
| 39> H 	 -10.5865 	 -3.73569 	 86.0817
| 40> H 	 -15.3551 	 -8.21367 	 81.0102
| 41> *
| 42>
| 43>                          ****END OF INPUT****

CARTESIAN COORDINATES (ANGSTROEM)
---------------------------------
  S    -11.873400   -4.855870   84.149800
  C    -11.143800   -4.634770   85.783000
  C    -11.438000   -5.683240   86.591500
  C    -12.334300   -6.616690   85.990300
  C    -12.530800   -6.426610   84.590500
  H    -12.803000   -7.493980   86.401200
  C    -10.916100   -5.938050   87.993200
  H     -9.865060   -5.583830   88.133000
  H    -10.754500   -6.962080   88.089000
  C    -11.826600   -5.317630   89.099000
  H    -12.222700   -4.413640   88.662700
  H    -12.600400   -6.078330   89.257500
  C    -11.070300   -5.017030   90.373400
  H    -10.160900   -4.503980   90.122700
  H    -11.559900   -4.358420   91.113900
  H    -10.842300   -5.906320   90.963900
  S    -14.319000   -6.532380   82.564200
  C    -14.738900   -8.098490   81.848500
  C    -14.197100   -9.116940   82.512600
  C    -13.403800   -8.773630   83.622100
  C    -13.231000   -7.368950   83.717200
  H    -14.459500  -10.126800   82.166900
  C    -12.754400   -9.860820   84.368900
  H    -11.813300   -9.385210   84.724200
  H    -12.443700  -10.655700   83.719700
  C    -13.648300  -10.201100   85.614200
  H    -14.710200  -10.113700   85.320800
  H    -13.466300   -9.550140   86.420300
  C    -13.123800  -11.553300   86.044200
  H    -13.428600  -12.292800   85.347500
  H    -13.549600  -11.786900   87.044200
  H    -12.085400  -11.618500   86.106700
  H    -10.586500   -3.735690   86.081700
  H    -15.355100   -8.213670   81.010200

 Total Charge           Charge          ....    0
 Multiplicity           Mult            ....    1
 Number of Electrons    NEL             ....  134
 Basis Dimension        Dim             ....  322

ORBITAL ENERGIES
----------------

  NO   OCC          E(Eh)            E(eV)
   0   2.0000     -88.966909     -2420.9127
   1   2.0000     -88.960722     -2420.7443
   2   2.0000     -10.335025      -281.2303
   3   2.0000     -10.333781      -281.1965
   4   2.0000     -10.317260      -280.7469
   5   2.0000     -10.308988      -280.5218
   6   2.0000     -10.304122      -280.3894
   7   2.0000     -10.300974      -280.3038
   8   2.0000     -10.294180      -280.1189
   9   2.0000     -10.290118      -280.0083
  10   2.0000     -10.289470      -279.9907
  11   2.0000     -10.289116      -279.9811
  12   2.0000     -10.287302      -279.9317
  13   2.0000     -10.286659      -279.9142
  14   2.0000     -10.277801      -279.6732
  15   2.0000     -10.272729      -279.5352
  16   2.0000      -8.080448      -219.8802
  17   2.0000      -8.074938      -219.7302
  18   2.0000      -6.039145      -164.3335
  19   2.0000      -6.035121      -164.2240
  20   2.0000      -6.033515      -164.1803
  21   2.0000      -6.031067      -164.1137
  22   2.0000      -6.029606      -164.0739
  23   2.0000      -6.025584      -163.9645
  24   2.0000      -1.001344       -27.2480
  25   2.0000      -0.980909       -26.6919
  26   2.0000      -0.918527       -24.9944
  27   2.0000      -0.911313       -24.7981
  28   2.0000      -0.871340       -23.7104
  29   2.0000      -0.855430       -23.2774
  30   2.0000      -0.844614       -22.9831
  31   2.0000      -0.812677       -22.1141
  32   2.0000      -0.781287       -21.2599
  33   2.0000      -0.770218       -20.9587
  34   2.0000      -0.714092       -19.4314
  35   2.0000      -0.703716       -19.1491
  36   2.0000      -0.701600       -19.0915
  37   2.0000      -0.663309       -18.0496
  38   2.0000      -0.639037       -17.3891
  39   2.0000      -0.615093       -16.7375
  40   2.0000      -0.598346       -16.2818
  41   2.0000      -0.576419       -15.6851
  42   2.0000      -0.570895       -15.5348
  43   2.0000      -0.558025       -15.1846
  44   2.0000      -0.533226       -14.5098
  45   2.0000      -0.525927       -14.3112
  46   2.0000      -0.519568       -14.1382
  47   2.0000      -0.510680       -13.8963
  48   2.0000      -0.509011       -13.8509
  49   2.0000      -0.502422       -13.6716
  50   2.0000      -0.497003       -13.5242
  51   2.0000      -0.477852       -13.0030
  52   2.0000      -0.474570       -12.9137
  53   2.0000      -0.465565       -12.6687
  54   2.0000      -0.457305       -12.4439
  55   2.0000      -0.455114       -12.3843
  56   2.0000      -0.443773       -12.0757
  57   2.0000      -0.435348       -11.8464
  58   2.0000      -0.429192       -11.6789
  59   2.0000      -0.426803       -11.6139
  60   2.0000      -0.426588       -11.6081
  61   2.0000      -0.417223       -11.3532
  62   2.0000      -0.407633       -11.0923
  63   2.0000      -0.350493        -9.5374
  64   2.0000      -0.330207        -8.9854
  65   2.0000      -0.328228        -8.9315
  66   2.0000      -0.284573        -7.7436
  67   0.0000       0.019678         0.5355
  68   0.0000       0.079103         2.1525
  69   0.0000       0.101088         2.7508
  70   0.0000       0.120221         3.2714
  71   0.0000       0.135004         3.6737

MULLIKEN ATOMIC CHARGES
-----------------------
   0 S :    0.102847
   1 C :   -0.138467
   2 C :   -0.062526
   3 C :    0.027006
   4 C :   -0.132384
   5 H :   -0.019565
   6 C :    0.056196
   7 H :    0.019512
   8 H :    0.008754
   9 C :   -0.036923
  10 H :    0.034691
  11 H :    0.034513
  12 C :   -0.055476
  13 H :    0.024037
  14 H :    0.035485
  15 H :    0.030297
  16 S :    0.071954
  17 C :   -0.052571
  18 C :   -0.040611
  19 C :   -0.037258
  20 C :   -0.152838
  21 H :    0.019898
  22 C :    0.034605
  23 H :    0.030974
  24 H :    0.032324
  25 C :   -0.073740
  26 H :    0.049892
  27 H :    0.034632
  28 C :   -0.003892
  29 H :    0.022619
  30 H :    0.027470
  31 H :    0.019742
  32 H :    0.057766
  33 H :    0.031039
Sum of atomic charges:   -0.0000000

LOEWDIN ATOMIC CHARGES
----------------------
   0 S :    0.379737
   1 C :   -0.183598
   2 C :   -0.064275
   3 C :   -0.065275
   4 C :   -0.193587
   5 H :    0.022968
   6 C :   -0.028576
   7 H :    0.031559
   8 H :    0.019525
   9 C :   -0.033342
  10 H :    0.025183
  11 H :    0.027276
  12 C :   -0.070868
  13 H :    0.020904
  14 H :    0.029552
  15 H :    0.026284
  16 S :    0.369379
  17 C :   -0.160236
  18 C :   -0.077850
  19 C :   -0.053563
  20 C :   -0.179509
  21 H :    0.037114
  22 C :   -0.031608
  23 H :    0.038000
  24 H :    0.029499
  25 C :   -0.025892
  26 H :    0.030294
  27 H :    0.016899
  28 C :   -0.054971
  29 H :    0.020698
  30 H :    0.026112
  31 H :    0.018388
  32 H :    0.035153
  33 H :    0.018626

  Mayer bond orders larger than 0.100000
B(  0-S ,  1-C ) :   1.1124 B(  0-S ,  4-C ) :   1.1477 B(  1-C ,  2-C ) :   1.6245
B(  1-C , 32-H ) :   0.9679 B(  2-C ,  3-C ) :   1.2301 B(  2-C ,  6-C ) :   1.0239
B(  3-C ,  4-C ) :   1.5486 B(  3-C ,  5-H ) :   0.9956 B(  4-C , 20-C ) :   1.0755
B(  6-C ,  7-H ) :   0.9488 B(  6-C ,  8-H ) :   0.9376 B(  6-C ,  9-C ) :   1.0385
B(  9-C , 10-H ) :   0.9630 B(  9-C , 11-H ) :   0.9554 B(  9-C , 12-C ) :   1.0861
B( 12-C , 13-H ) :   0.9755 B( 12-C , 14-H ) :   0.9743 B( 12-C , 15-H ) :   0.9736
B( 16-S , 17-C ) :   1.1319 B( 16-S , 20-C ) :   1.1273 B( 17-C , 18-C ) :   1.6477
B( 17-C , 33-H ) :   0.9706 B( 18-C , 19-C ) :   1.2200 B( 18-C , 21-H ) :   0.9874
B( 19-C , 20-C ) :   1.5753 B( 19-C , 22-C ) :   1.0490 B( 22-C , 23-H ) :   0.9199
B( 22-C , 24-H ) :   0.9582 B( 22-C , 25-C ) :   1.0323 B( 25-C , 26-H ) :   0.9644
B( 25-C , 27-H ) :   0.9448 B( 25-C , 28-C ) :   1.0840 B( 28-C , 29-H ) :   0.9782
B( 28-C , 30-H ) :   0.9716 B( 28-C , 31-H ) :   0.9658

Dispersion correction           -0.013879945
FINAL SINGLE POINT ENERGY     -1339.859502455960

DIPOLE MOMENT
-------------
                                X             Y             Z
Electronic contribution:     -5.59893      14.34339     -26.78324
Nuclear contribution   :      5.69511     -14.97511      27.30780
                        -----------------------------------------
Total Dipole Moment    :      0.09619      -0.63172       0.52456
                        -----------------------------------------
Magnitude (a.u.)       :      0.82673
Magnitude (Debye)      :      2.10138

Rotational constants in cm-1:     0.017941     0.008559     0.006170
Rotational constants in MHz :   537.857260   256.589305   184.966406

                             ****ORCA TERMINATED NORMALLY****
TOTAL RUN TIME: 0 days 0 hours 0 minutes 33 seconds 692 msec
