                         Program Version 4.2.1 -  RELEASE  -
|  1> ! wB97X-D3 SP def2-SVP
|  2> %pal
|  3> nprocs 16
|  4> end
|  5>
|  6> * xyz 0 1
|  7> S 	 40.0266 	 13.1498 	 87.8686
|  8> C 	 40.8557 	 12.2777 	 86.6479
|  9> C 	 41.4718 	 11.1026 	 87.1371
| 10> C 	 41.1163 	 10.9108 	 88.5245
| 11> C 	 40.2429 	 11.856 	 89.0692
| 12> H 	 41.6023 	 10.1324 	 89.086
| 13> C 	 42.2834 	 10.1781 	 86.2956
| 14> H 	 41.945 	 10.2772 	 85.2887
| 15> H 	 42.1421 	 9.15905 	 86.6019
| 16> C 	 43.7812 	 10.5321 	 86.1917
| 17> H 	 44.0908 	 10.7802 	 87.2261
| 18> H 	 44.5012 	 9.69959 	 85.9581
| 19> C 	 44.168 	 11.7744 	 85.3954
| 20> H 	 45.2818 	 12.0325 	 85.2841
| 21> H 	 43.844 	 11.6264 	 84.3379
| 22> H 	 43.7314 	 12.6738 	 85.733
| 23> S 	 38.056 	 12.593 	 90.491
| 24> C 	 37.8652 	 12.2084 	 92.2147
| 25> C 	 38.9418 	 11.4625 	 92.6478
| 26> C 	 40.0107 	 11.4185 	 91.6864
| 27> C 	 39.6776 	 11.936 	 90.4057
| 28> H 	 38.9857 	 11.04 	 93.648
| 29> C 	 41.2293 	 10.5927 	 91.9684
| 30> H 	 41.5221 	 10.7374 	 93.0186
| 31> H 	 41.9613 	 10.977 	 91.2688
| 32> C 	 40.9216 	 9.11 	 91.7254
| 33> H 	 40.4359 	 8.88467 	 90.7626
| 34> H 	 40.1512 	 8.73739 	 92.4154
| 35> C 	 42.2152 	 8.33655 	 91.6242
| 36> H 	 42.8149 	 8.2096 	 92.5197
| 37> H 	 42.9766 	 8.63037 	 90.9121
| 38> H 	 41.9274 	 7.33832 	 91.3073
| 39> H 	 40.8119 	 12.5318 	 85.6161
| 40> H 	 36.9329 	 12.3176 	 92.8235
| 41> *
| 42>
| 43>                          ****END OF INPUT****

CARTESIAN COORDINATES (ANGSTROEM)
---------------------------------
  S     40.026600   13.149800   87.868600
  C     40.855700   12.277700   86.647900
  C     41.471800   11.102600   87.137100
  C     41.116300   10.910800   88.524500
  C     40.242900   11.856000   89.069200
  H     41.602300   10.132400   89.086000
  C     42.283400   10.178100   86.295600
  H     41.945000   10.277200   85.288700
  H     42.142100    9.159050   86.601900
  C     43.781200   10.532100   86.191700
  H     44.090800   10.780200   87.226100
  H     44.501200    9.699590   85.958100
  C     44.168000   11.774400   85.395400
  H     45.281800   12.032500   85.284100
  H     43.844000   11.626400   84.337900
  H     43.731400   12.673800   85.733000
  S     38.056000   12.593000   90.491000
  C     37.865200   12.208400   92.214700
  C     38.941800   11.462500   92.647800
  C     40.010700   11.418500   91.686400
  C     39.677600   11.936000   90.405700
  H     38.985700   11.040000   93.648000
  C     41.229300   10.592700   91.968400
  H     41.522100   10.737400   93.018600
  H     41.961300   10.977000   91.268800
  C     40.921600    9.110000   91.725400
  H     40.435900    8.884670   90.762600
  H     40.151200    8.737390   92.415400
  C     42.215200    8.336550   91.624200
  H     42.814900    8.209600   92.519700
  H     42.976600    8.630370   90.912100
  H     41.927400    7.338320   91.307300
  H     40.811900   12.531800   85.616100
  H     36.932900   12.317600   92.823500

 Total Charge           Charge          ....    0
 Multiplicity           Mult            ....    1
 Number of Electrons    NEL             ....  134
 Basis Dimension        Dim             ....  322

ORBITAL ENERGIES
----------------

  NO   OCC          E(Eh)            E(eV)
   0   2.0000     -88.968994     -2420.9694
   1   2.0000     -88.964355     -2420.8432
   2   2.0000     -10.338169      -281.3159
   3   2.0000     -10.331600      -281.1371
   4   2.0000     -10.324087      -280.9327
   5   2.0000     -10.314739      -280.6783
   6   2.0000     -10.305597      -280.4296
   7   2.0000     -10.305447      -280.4255
   8   2.0000     -10.299631      -280.2672
   9   2.0000     -10.296715      -280.1879
  10   2.0000     -10.292636      -280.0769
  11   2.0000     -10.292267      -280.0668
  12   2.0000     -10.290552      -280.0202
  13   2.0000     -10.289889      -280.0021
  14   2.0000     -10.281218      -279.7662
  15   2.0000     -10.276338      -279.6334
  16   2.0000      -8.083724      -219.9693
  17   2.0000      -8.078700      -219.8326
  18   2.0000      -6.042300      -164.4193
  19   2.0000      -6.038145      -164.3063
  20   2.0000      -6.037309      -164.2835
  21   2.0000      -6.034498      -164.2070
  22   2.0000      -6.033204      -164.1718
  23   2.0000      -6.029399      -164.0683
  24   2.0000      -1.004403       -27.3312
  25   2.0000      -0.982043       -26.7227
  26   2.0000      -0.915938       -24.9239
  27   2.0000      -0.913007       -24.8442
  28   2.0000      -0.869887       -23.6708
  29   2.0000      -0.852307       -23.1924
  30   2.0000      -0.846589       -23.0369
  31   2.0000      -0.817023       -22.2323
  32   2.0000      -0.783074       -21.3085
  33   2.0000      -0.768842       -20.9213
  34   2.0000      -0.711226       -19.3534
  35   2.0000      -0.701185       -19.0802
  36   2.0000      -0.694490       -18.8980
  37   2.0000      -0.664935       -18.0938
  38   2.0000      -0.641025       -17.4432
  39   2.0000      -0.626729       -17.0542
  40   2.0000      -0.591418       -16.0933
  41   2.0000      -0.571388       -15.5482
  42   2.0000      -0.566917       -15.4266
  43   2.0000      -0.550165       -14.9707
  44   2.0000      -0.543880       -14.7997
  45   2.0000      -0.531158       -14.4535
  46   2.0000      -0.515588       -14.0299
  47   2.0000      -0.510630       -13.8950
  48   2.0000      -0.507786       -13.8176
  49   2.0000      -0.501732       -13.6528
  50   2.0000      -0.493362       -13.4251
  51   2.0000      -0.482298       -13.1240
  52   2.0000      -0.475556       -12.9405
  53   2.0000      -0.462835       -12.5944
  54   2.0000      -0.459440       -12.5020
  55   2.0000      -0.450952       -12.2710
  56   2.0000      -0.446660       -12.1542
  57   2.0000      -0.442006       -12.0276
  58   2.0000      -0.433441       -11.7945
  59   2.0000      -0.423259       -11.5175
  60   2.0000      -0.421550       -11.4709
  61   2.0000      -0.407892       -11.0993
  62   2.0000      -0.406990       -11.0748
  63   2.0000      -0.356388        -9.6978
  64   2.0000      -0.331504        -9.0207
  65   2.0000      -0.325469        -8.8565
  66   2.0000      -0.284356        -7.7377
  67   0.0000       0.017562         0.4779
  68   0.0000       0.075751         2.0613
  69   0.0000       0.104096         2.8326
  70   0.0000       0.109450         2.9783
  71   0.0000       0.130112         3.5405

MULLIKEN ATOMIC CHARGES
-----------------------
   0 S :    0.119949
   1 C :   -0.106090
   2 C :   -0.128563
   3 C :    0.023563
   4 C :   -0.113137
   5 H :   -0.008885
   6 C :    0.124074
   7 H :    0.011898
   8 H :    0.024792
   9 C :   -0.083302
  10 H :    0.019324
  11 H :    0.040756
  12 C :   -0.079386
  13 H :    0.045713
  14 H :    0.021323
  15 H :    0.030957
  16 S :    0.087406
  17 C :   -0.095663
  18 C :   -0.045091
  19 C :   -0.069290
  20 C :   -0.122737
  21 H :    0.026822
  22 C :    0.069005
  23 H :    0.031783
  24 H :    0.024862
  25 C :   -0.074089
  26 H :    0.031898
  27 H :    0.028690
  28 C :   -0.035096
  29 H :    0.023669
  30 H :    0.029408
  31 H :    0.022507
  32 H :    0.045283
  33 H :    0.077645
Sum of atomic charges:   -0.0000000

LOEWDIN ATOMIC CHARGES
----------------------
   0 S :    0.415357
   1 C :   -0.201520
   2 C :   -0.059456
   3 C :   -0.063235
   4 C :   -0.187976
   5 H :    0.025995
   6 C :   -0.027433
   7 H :    0.028567
   8 H :    0.032533
   9 C :   -0.050479
  10 H :    0.023328
  11 H :    0.031467
  12 C :   -0.075264
  13 H :    0.038687
  14 H :    0.021909
  15 H :    0.016559
  16 S :    0.397541
  17 C :   -0.184799
  18 C :   -0.074930
  19 C :   -0.053573
  20 C :   -0.201911
  21 H :    0.033511
  22 C :   -0.032033
  23 H :    0.033956
  24 H :    0.029064
  25 C :   -0.042051
  26 H :    0.028937
  27 H :    0.029474
  28 C :   -0.070530
  29 H :    0.022051
  30 H :    0.024536
  31 H :    0.026316
  32 H :    0.022674
  33 H :    0.042728

  Mayer bond orders larger than 0.100000
B(  0-S ,  1-C ) :   1.1600 B(  0-S ,  4-C ) :   1.1468 B(  1-C ,  2-C ) :   1.5697
B(  1-C ,  4-C ) :   0.1013 B(  1-C , 32-H ) :   0.9667 B(  2-C ,  3-C ) :   1.2815
B(  2-C ,  6-C ) :   1.0384 B(  3-C ,  4-C ) :   1.5311 B(  3-C ,  5-H ) :   0.9919
B(  4-C , 20-C ) :   1.0724 B(  6-C ,  7-H ) :   0.9405 B(  6-C ,  8-H ) :   0.9366
B(  6-C ,  9-C ) :   1.0483 B(  9-C , 10-H ) :   0.9545 B(  9-C , 11-H ) :   0.9584
B(  9-C , 12-C ) :   1.0758 B( 12-C , 13-H ) :   0.9730 B( 12-C , 14-H ) :   0.9738
B( 12-C , 15-H ) :   0.9746 B( 16-S , 17-C ) :   1.1516 B( 16-S , 20-C ) :   1.1369
B( 17-C , 18-C ) :   1.6010 B( 17-C , 20-C ) :   0.1004 B( 17-C , 33-H ) :   0.9612
B( 18-C , 19-C ) :   1.2542 B( 18-C , 21-H ) :   0.9859 B( 19-C , 20-C ) :   1.5520
B( 19-C , 22-C ) :   1.0660 B( 22-C , 23-H ) :   0.9274 B( 22-C , 24-H ) :   0.9383
B( 22-C , 25-C ) :   1.0588 B( 25-C , 26-H ) :   0.9576 B( 25-C , 27-H ) :   0.9489
B( 25-C , 28-C ) :   1.0730 B( 28-C , 29-H ) :   0.9719 B( 28-C , 30-H ) :   0.9730
B( 28-C , 31-H ) :   0.9731

Dispersion correction           -0.014747382
FINAL SINGLE POINT ENERGY     -1339.873863602925

DIPOLE MOMENT
-------------
                                X             Y             Z
Electronic contribution:    -22.94176      17.91520       3.81028
Nuclear contribution   :     23.29415     -18.55952      -3.67856
                        -----------------------------------------
Total Dipole Moment    :      0.35240      -0.64432       0.13172
                        -----------------------------------------
Magnitude (a.u.)       :      0.74611
Magnitude (Debye)      :      1.89646

Rotational constants in cm-1:     0.019929     0.008931     0.006500
Rotational constants in MHz :   597.451960   267.744471   194.875266

                             ****ORCA TERMINATED NORMALLY****
TOTAL RUN TIME: 0 days 0 hours 0 minutes 30 seconds 932 msec
