                         Program Version 4.2.1 -  RELEASE  -
|  1> ! wB97X-D3 SP def2-SVP
|  2> %pal
|  3> nprocs 16
|  4> end
|  5>
|  6> * xyz 0 1
|  7> S 	 -112.872 	 54.8799 	 108.818
|  8> C 	 -111.773 	 55.0404 	 107.476
|  9> C 	 -110.457 	 55.1493 	 107.949
| 10> C 	 -110.328 	 55.1794 	 109.358
| 11> C 	 -111.524 	 54.9156 	 109.986
| 12> H 	 -109.496 	 55.3696 	 110.003
| 13> C 	 -109.161 	 55.2027 	 107.153
| 14> H 	 -109.251 	 54.5234 	 106.353
| 15> H 	 -108.427 	 54.7133 	 107.876
| 16> C 	 -108.814 	 56.6071 	 106.632
| 17> H 	 -107.946 	 56.6779 	 105.977
| 18> H 	 -109.676 	 57.1268 	 106.052
| 19> C 	 -108.565 	 57.6922 	 107.707
| 20> H 	 -107.852 	 57.2577 	 108.465
| 21> H 	 -108.04 	 58.5123 	 107.247
| 22> H 	 -109.513 	 57.9432 	 108.201
| 23> S 	 -112.58 	 56.2657 	 112.159
| 24> C 	 -112.275 	 55.6184 	 113.753
| 25> C 	 -111.749 	 54.3616 	 113.786
| 26> C 	 -111.499 	 53.9438 	 112.426
| 27> C 	 -111.779 	 54.8878 	 111.433
| 28> H 	 -111.457 	 53.7833 	 114.593
| 29> C 	 -110.879 	 52.6174 	 112.117
| 30> H 	 -109.922 	 52.5943 	 112.569
| 31> H 	 -110.642 	 52.5946 	 111.078
| 32> C 	 -111.69 	 51.4091 	 112.5
| 33> H 	 -111.744 	 51.2295 	 113.551
| 34> H 	 -111.048 	 50.6411 	 112.139
| 35> C 	 -113.085 	 51.2721 	 111.829
| 36> H 	 -113.254 	 51.8143 	 110.89
| 37> H 	 -113.939 	 51.5506 	 112.421
| 38> H 	 -113.192 	 50.207 	 111.528
| 39> H 	 -112.005 	 55.1329 	 106.431
| 40> H 	 -112.491 	 56.006 	 114.736
| 41> *
| 42>
| 43>                          ****END OF INPUT****

CARTESIAN COORDINATES (ANGSTROEM)
---------------------------------
  S    -112.872000   54.879900  108.818000
  C    -111.773000   55.040400  107.476000
  C    -110.457000   55.149300  107.949000
  C    -110.328000   55.179400  109.358000
  C    -111.524000   54.915600  109.986000
  H    -109.496000   55.369600  110.003000
  C    -109.161000   55.202700  107.153000
  H    -109.251000   54.523400  106.353000
  H    -108.427000   54.713300  107.876000
  C    -108.814000   56.607100  106.632000
  H    -107.946000   56.677900  105.977000
  H    -109.676000   57.126800  106.052000
  C    -108.565000   57.692200  107.707000
  H    -107.852000   57.257700  108.465000
  H    -108.040000   58.512300  107.247000
  H    -109.513000   57.943200  108.201000
  S    -112.580000   56.265700  112.159000
  C    -112.275000   55.618400  113.753000
  C    -111.749000   54.361600  113.786000
  C    -111.499000   53.943800  112.426000
  C    -111.779000   54.887800  111.433000
  H    -111.457000   53.783300  114.593000
  C    -110.879000   52.617400  112.117000
  H    -109.922000   52.594300  112.569000
  H    -110.642000   52.594600  111.078000
  C    -111.690000   51.409100  112.500000
  H    -111.744000   51.229500  113.551000
  H    -111.048000   50.641100  112.139000
  C    -113.085000   51.272100  111.829000
  H    -113.254000   51.814300  110.890000
  H    -113.939000   51.550600  112.421000
  H    -113.192000   50.207000  111.528000
  H    -112.005000   55.132900  106.431000
  H    -112.491000   56.006000  114.736000

 Total Charge           Charge          ....    0
 Multiplicity           Mult            ....    1
 Number of Electrons    NEL             ....  134
 Basis Dimension        Dim             ....  322

ORBITAL ENERGIES
----------------

  NO   OCC          E(Eh)            E(eV)
   0   2.0000     -88.968399     -2420.9532
   1   2.0000     -88.965529     -2420.8751
   2   2.0000     -10.330515      -281.1076
   3   2.0000     -10.322519      -280.8900
   4   2.0000     -10.317069      -280.7417
   5   2.0000     -10.315379      -280.6957
   6   2.0000     -10.301988      -280.3314
   7   2.0000     -10.298226      -280.2290
   8   2.0000     -10.295039      -280.1423
   9   2.0000     -10.293696      -280.1057
  10   2.0000     -10.292470      -280.0724
  11   2.0000     -10.287184      -279.9285
  12   2.0000     -10.279281      -279.7135
  13   2.0000     -10.277479      -279.6644
  14   2.0000     -10.275407      -279.6080
  15   2.0000     -10.272939      -279.5409
  16   2.0000      -8.082419      -219.9338
  17   2.0000      -8.080184      -219.8730
  18   2.0000      -6.040959      -164.3829
  19   2.0000      -6.038852      -164.3255
  20   2.0000      -6.036924      -164.2731
  21   2.0000      -6.034712      -164.2129
  22   2.0000      -6.033293      -164.1742
  23   2.0000      -6.030770      -164.1056
  24   2.0000      -1.004139       -27.3240
  25   2.0000      -0.983649       -26.7664
  26   2.0000      -0.910551       -24.7774
  27   2.0000      -0.907303       -24.6890
  28   2.0000      -0.869000       -23.6467
  29   2.0000      -0.849349       -23.1120
  30   2.0000      -0.842801       -22.9338
  31   2.0000      -0.817763       -22.2525
  32   2.0000      -0.782925       -21.3045
  33   2.0000      -0.769766       -20.9464
  34   2.0000      -0.707513       -19.2524
  35   2.0000      -0.697517       -18.9804
  36   2.0000      -0.690379       -18.7862
  37   2.0000      -0.662452       -18.0262
  38   2.0000      -0.646311       -17.5870
  39   2.0000      -0.613612       -16.6972
  40   2.0000      -0.593809       -16.1584
  41   2.0000      -0.571720       -15.5573
  42   2.0000      -0.552521       -15.0349
  43   2.0000      -0.551617       -15.0102
  44   2.0000      -0.545622       -14.8471
  45   2.0000      -0.536531       -14.5997
  46   2.0000      -0.516474       -14.0540
  47   2.0000      -0.509303       -13.8588
  48   2.0000      -0.503534       -13.7019
  49   2.0000      -0.497347       -13.5335
  50   2.0000      -0.487096       -13.2546
  51   2.0000      -0.473832       -12.8936
  52   2.0000      -0.468544       -12.7497
  53   2.0000      -0.467316       -12.7163
  54   2.0000      -0.454325       -12.3628
  55   2.0000      -0.452886       -12.3237
  56   2.0000      -0.445176       -12.1139
  57   2.0000      -0.432914       -11.7802
  58   2.0000      -0.431539       -11.7428
  59   2.0000      -0.422491       -11.4966
  60   2.0000      -0.417517       -11.3612
  61   2.0000      -0.407746       -11.0953
  62   2.0000      -0.406032       -11.0487
  63   2.0000      -0.342837        -9.3291
  64   2.0000      -0.329919        -8.9776
  65   2.0000      -0.321525        -8.7491
  66   2.0000      -0.302353        -8.2274
  67   0.0000       0.039665         1.0793
  68   0.0000       0.057017         1.5515
  69   0.0000       0.116368         3.1665
  70   0.0000       0.124162         3.3786
  71   0.0000       0.126023         3.4293

MULLIKEN ATOMIC CHARGES
-----------------------
   0 S :    0.114679
   1 C :   -0.098401
   2 C :   -0.116994
   3 C :    0.054735
   4 C :   -0.185477
   5 H :    0.014090
   6 C :    0.097020
   7 H :    0.015623
   8 H :    0.040708
   9 C :   -0.101492
  10 H :    0.031599
  11 H :    0.039619
  12 C :   -0.075522
  13 H :    0.025004
  14 H :    0.035943
  15 H :    0.055082
  16 S :    0.119367
  17 C :   -0.052921
  18 C :   -0.006147
  19 C :   -0.054736
  20 C :   -0.182164
  21 H :   -0.007835
  22 C :    0.094992
  23 H :    0.012933
  24 H :    0.009141
  25 C :   -0.042412
  26 H :    0.021062
  27 H :    0.018285
  28 C :   -0.058676
  29 H :    0.028259
  30 H :    0.036026
  31 H :    0.030982
  32 H :    0.043533
  33 H :    0.044098
Sum of atomic charges:   -0.0000000

LOEWDIN ATOMIC CHARGES
----------------------
   0 S :    0.399089
   1 C :   -0.200974
   2 C :   -0.063837
   3 C :   -0.056953
   4 C :   -0.185568
   5 H :    0.035181
   6 C :   -0.032392
   7 H :    0.024258
   8 H :    0.040967
   9 C :   -0.049828
  10 H :    0.020809
  11 H :    0.035143
  12 C :   -0.069314
  13 H :    0.022753
  14 H :    0.024762
  15 H :    0.027573
  16 S :    0.405829
  17 C :   -0.176400
  18 C :   -0.062909
  19 C :   -0.044155
  20 C :   -0.217098
  21 H :    0.021962
  22 C :   -0.032640
  23 H :    0.027346
  24 H :    0.025981
  25 C :   -0.036155
  26 H :    0.019255
  27 H :    0.025428
  28 C :   -0.071049
  29 H :    0.027295
  30 H :    0.024673
  31 H :    0.031483
  32 H :    0.029420
  33 H :    0.030064

  Mayer bond orders larger than 0.100000
B(  0-S ,  1-C ) :   1.1398 B(  0-S ,  4-C ) :   1.1497 B(  1-C ,  2-C ) :   1.6080
B(  1-C ,  4-C ) :   0.1021 B(  1-C , 32-H ) :   0.9704 B(  2-C ,  3-C ) :   1.2291
B(  2-C ,  6-C ) :   0.9990 B(  3-C ,  4-C ) :   1.5928 B(  3-C ,  5-H ) :   0.9950
B(  4-C , 20-C ) :   1.0175 B(  6-C ,  7-H ) :   0.9375 B(  6-C ,  8-H ) :   0.9509
B(  6-C ,  9-C ) :   1.0585 B(  9-C , 10-H ) :   0.9628 B(  9-C , 11-H ) :   0.9598
B(  9-C , 12-C ) :   1.0717 B( 12-C , 13-H ) :   0.9751 B( 12-C , 14-H ) :   0.9751
B( 12-C , 15-H ) :   0.9759 B( 16-S , 17-C ) :   1.1542 B( 16-S , 20-C ) :   1.1172
B( 17-C , 18-C ) :   1.6181 B( 17-C , 33-H ) :   0.9598 B( 18-C , 19-C ) :   1.2290
B( 18-C , 21-H ) :   1.0020 B( 19-C , 20-C ) :   1.6172 B( 19-C , 22-C ) :   1.0545
B( 22-C , 23-H ) :   0.9249 B( 22-C , 24-H ) :   0.9259 B( 22-C , 25-C ) :   1.0881
B( 25-C , 26-H ) :   0.9554 B( 25-C , 27-H ) :   0.9565 B( 25-C , 28-C ) :   1.0551
B( 28-C , 29-H ) :   0.9780 B( 28-C , 30-H ) :   0.9777 B( 28-C , 31-H ) :   0.9782

Dispersion correction           -0.015137200
FINAL SINGLE POINT ENERGY     -1339.865942962977

DIPOLE MOMENT
-------------
                                X             Y             Z
Electronic contribution:    -13.69046       8.03766       5.35889
Nuclear contribution   :     14.25179      -8.30072      -5.35110
                        -----------------------------------------
Total Dipole Moment    :      0.56133      -0.26306       0.00779
                        -----------------------------------------
Magnitude (a.u.)       :      0.61996
Magnitude (Debye)      :      1.57582

Rotational constants in cm-1:     0.021207     0.008178     0.007416
Rotational constants in MHz :   635.777993   245.158679   222.325020

                             ****ORCA TERMINATED NORMALLY****
TOTAL RUN TIME: 0 days 0 hours 0 minutes 30 seconds 854 msec
