                         Program Version 4.2.1 -  RELEASE  -
|  1> ! wB97X-D3 SP def2-SVP
|  2> %pal
|  3> nprocs 16
|  4> end
|  5>
|  6> * xyz 0 1
|  7> S 	 -111.046 	 47.0149 	 127.444
|  8> C 	 -111.486 	 48.3094 	 128.543
|  9> C 	 -111.807 	 47.916 	 129.807
| 10> C 	 -111.564 	 46.5266 	 129.997
| 11> C 	 -111.039 	 45.8723 	 128.846
| 12> H 	 -111.57 	 46.0328 	 130.962
| 13> C 	 -112.103 	 48.8869 	 130.93
| 14> H 	 -112.196 	 48.293 	 131.812
| 15> H 	 -113.112 	 49.3892 	 130.853
| 16> C 	 -111.128 	 50.0412 	 130.982
| 17> H 	 -110.105 	 49.6326 	 130.797
| 18> H 	 -111.305 	 50.601 	 130.114
| 19> C 	 -111.127 	 50.8928 	 132.286
| 20> H 	 -112.061 	 51.2389 	 132.391
| 21> H 	 -110.858 	 50.2313 	 133.176
| 22> H 	 -110.384 	 51.7058 	 132.304
| 23> S 	 -111.656 	 43.6733 	 127.414
| 24> C 	 -111.011 	 42.1407 	 127.899
| 25> C 	 -110.193 	 42.2285 	 128.971
| 26> C 	 -110.044 	 43.5603 	 129.441
| 27> C 	 -110.795 	 44.4569 	 128.652
| 28> H 	 -109.685 	 41.3538 	 129.256
| 29> C 	 -109.172 	 43.9592 	 130.663
| 30> H 	 -108.799 	 43.1631 	 131.291
| 31> H 	 -109.806 	 44.4255 	 131.357
| 32> C 	 -107.988 	 44.8718 	 130.286
| 33> H 	 -108.487 	 45.7705 	 129.939
| 34> H 	 -107.525 	 44.3839 	 129.436
| 35> C 	 -106.958 	 45.2054 	 131.38
| 36> H 	 -106.287 	 44.3856 	 131.362
| 37> H 	 -107.506 	 45.2099 	 132.337
| 38> H 	 -106.48 	 46.123 	 131.14
| 39> H 	 -111.571 	 49.3664 	 128.211
| 40> H 	 -111.127 	 41.1783 	 127.352
| 41> *
| 42>
| 43>                          ****END OF INPUT****

CARTESIAN COORDINATES (ANGSTROEM)
---------------------------------
  S    -111.046000   47.014900  127.444000
  C    -111.486000   48.309400  128.543000
  C    -111.807000   47.916000  129.807000
  C    -111.564000   46.526600  129.997000
  C    -111.039000   45.872300  128.846000
  H    -111.570000   46.032800  130.962000
  C    -112.103000   48.886900  130.930000
  H    -112.196000   48.293000  131.812000
  H    -113.112000   49.389200  130.853000
  C    -111.128000   50.041200  130.982000
  H    -110.105000   49.632600  130.797000
  H    -111.305000   50.601000  130.114000
  C    -111.127000   50.892800  132.286000
  H    -112.061000   51.238900  132.391000
  H    -110.858000   50.231300  133.176000
  H    -110.384000   51.705800  132.304000
  S    -111.656000   43.673300  127.414000
  C    -111.011000   42.140700  127.899000
  C    -110.193000   42.228500  128.971000
  C    -110.044000   43.560300  129.441000
  C    -110.795000   44.456900  128.652000
  H    -109.685000   41.353800  129.256000
  C    -109.172000   43.959200  130.663000
  H    -108.799000   43.163100  131.291000
  H    -109.806000   44.425500  131.357000
  C    -107.988000   44.871800  130.286000
  H    -108.487000   45.770500  129.939000
  H    -107.525000   44.383900  129.436000
  C    -106.958000   45.205400  131.380000
  H    -106.287000   44.385600  131.362000
  H    -107.506000   45.209900  132.337000
  H    -106.480000   46.123000  131.140000
  H    -111.571000   49.366400  128.211000
  H    -111.127000   41.178300  127.352000

 Total Charge           Charge          ....    0
 Multiplicity           Mult            ....    1
 Number of Electrons    NEL             ....  134
 Basis Dimension        Dim             ....  322

ORBITAL ENERGIES
----------------

  NO   OCC          E(Eh)            E(eV)
   0   2.0000     -88.969301     -2420.9778
   1   2.0000     -88.966770     -2420.9089
   2   2.0000     -10.336656      -281.2747
   3   2.0000     -10.323198      -280.9085
   4   2.0000     -10.314829      -280.6808
   5   2.0000     -10.311642      -280.5941
   6   2.0000     -10.305784      -280.4346
   7   2.0000     -10.300998      -280.3044
   8   2.0000     -10.299031      -280.2509
   9   2.0000     -10.293332      -280.0958
  10   2.0000     -10.285954      -279.8950
  11   2.0000     -10.285735      -279.8891
  12   2.0000     -10.285231      -279.8754
  13   2.0000     -10.280313      -279.7415
  14   2.0000     -10.274825      -279.5922
  15   2.0000     -10.272345      -279.5247
  16   2.0000      -8.083024      -219.9503
  17   2.0000      -8.082677      -219.9408
  18   2.0000      -6.041557      -164.3991
  19   2.0000      -6.041051      -164.3853
  20   2.0000      -6.037743      -164.2953
  21   2.0000      -6.036966      -164.2742
  22   2.0000      -6.033753      -164.1868
  23   2.0000      -6.033557      -164.1814
  24   2.0000      -1.009861       -27.4797
  25   2.0000      -0.984002       -26.7760
  26   2.0000      -0.914682       -24.8897
  27   2.0000      -0.905188       -24.6314
  28   2.0000      -0.871748       -23.7215
  29   2.0000      -0.850555       -23.1448
  30   2.0000      -0.847915       -23.0729
  31   2.0000      -0.814151       -22.1542
  32   2.0000      -0.786343       -21.3975
  33   2.0000      -0.771235       -20.9864
  34   2.0000      -0.713332       -19.4108
  35   2.0000      -0.702196       -19.1077
  36   2.0000      -0.688062       -18.7231
  37   2.0000      -0.661497       -18.0002
  38   2.0000      -0.634590       -17.2681
  39   2.0000      -0.618487       -16.8299
  40   2.0000      -0.597559       -16.2604
  41   2.0000      -0.570118       -15.5137
  42   2.0000      -0.565627       -15.3915
  43   2.0000      -0.563678       -15.3384
  44   2.0000      -0.525939       -14.3115
  45   2.0000      -0.524732       -14.2787
  46   2.0000      -0.518324       -14.1043
  47   2.0000      -0.508412       -13.8346
  48   2.0000      -0.503315       -13.6959
  49   2.0000      -0.500387       -13.6162
  50   2.0000      -0.491870       -13.3845
  51   2.0000      -0.485775       -13.2186
  52   2.0000      -0.476179       -12.9575
  53   2.0000      -0.468882       -12.7589
  54   2.0000      -0.459494       -12.5035
  55   2.0000      -0.447334       -12.1726
  56   2.0000      -0.442932       -12.0528
  57   2.0000      -0.437503       -11.9050
  58   2.0000      -0.431473       -11.7410
  59   2.0000      -0.428015       -11.6469
  60   2.0000      -0.422959       -11.5093
  61   2.0000      -0.416782       -11.3412
  62   2.0000      -0.408725       -11.1220
  63   2.0000      -0.349457        -9.5092
  64   2.0000      -0.334431        -9.1003
  65   2.0000      -0.330203        -8.9853
  66   2.0000      -0.287946        -7.8354
  67   0.0000       0.026685         0.7261
  68   0.0000       0.067198         1.8286
  69   0.0000       0.108567         2.9543
  70   0.0000       0.126068         3.4305
  71   0.0000       0.134395         3.6571

MULLIKEN ATOMIC CHARGES
-----------------------
   0 S :    0.106784
   1 C :   -0.142765
   2 C :   -0.073510
   3 C :    0.042029
   4 C :   -0.180410
   5 H :    0.018623
   6 C :    0.087203
   7 H :    0.002759
   8 H :    0.036568
   9 C :   -0.104218
  10 H :    0.033506
  11 H :    0.015939
  12 C :   -0.008174
  13 H :    0.007417
  14 H :    0.037567
  15 H :    0.040947
  16 S :    0.128798
  17 C :   -0.108831
  18 C :   -0.023826
  19 C :   -0.028992
  20 C :   -0.158140
  21 H :   -0.000438
  22 C :    0.106198
  23 H :    0.001436
  24 H :   -0.002536
  25 C :   -0.121167
  26 H :    0.037088
  27 H :    0.029202
  28 C :    0.007531
  29 H :    0.023787
  30 H :    0.028015
  31 H :    0.037899
  32 H :    0.059620
  33 H :    0.064092
Sum of atomic charges:   -0.0000000

LOEWDIN ATOMIC CHARGES
----------------------
   0 S :    0.381879
   1 C :   -0.192942
   2 C :   -0.068769
   3 C :   -0.052669
   4 C :   -0.177157
   5 H :    0.030915
   6 C :   -0.031022
   7 H :    0.020934
   8 H :    0.038002
   9 C :   -0.040581
  10 H :    0.025805
  11 H :    0.013583
  12 C :   -0.053505
  13 H :    0.005040
  14 H :    0.035240
  15 H :    0.031072
  16 S :    0.439924
  17 C :   -0.199965
  18 C :   -0.068215
  19 C :   -0.048318
  20 C :   -0.221281
  21 H :    0.026969
  22 C :   -0.030317
  23 H :    0.024027
  24 H :    0.017478
  25 C :   -0.040107
  26 H :    0.021562
  27 H :    0.021409
  28 C :   -0.054860
  29 H :    0.021368
  30 H :    0.027720
  31 H :    0.026408
  32 H :    0.032487
  33 H :    0.037887

  Mayer bond orders larger than 0.100000
B(  0-S ,  1-C ) :   1.1379 B(  0-S ,  4-C ) :   1.1375 B(  1-C ,  2-C ) :   1.6160
B(  1-C ,  4-C ) :   0.1020 B(  1-C , 32-H ) :   0.9608 B(  2-C ,  3-C ) :   1.2581
B(  2-C ,  6-C ) :   1.0264 B(  3-C ,  4-C ) :   1.5599 B(  3-C ,  5-H ) :   0.9839
B(  4-C , 20-C ) :   1.0552 B(  6-C ,  7-H ) :   0.9447 B(  6-C ,  8-H ) :   0.9271
B(  6-C ,  9-C ) :   1.0581 B(  9-C , 10-H ) :   0.9629 B(  9-C , 11-H ) :   0.9482
B(  9-C , 12-C ) :   1.0764 B( 12-C , 13-H ) :   0.9753 B( 12-C , 14-H ) :   0.9763
B( 12-C , 15-H ) :   0.9754 B( 16-S , 17-C ) :   1.1535 B( 16-S , 20-C ) :   1.1733
B( 17-C , 18-C ) :   1.6164 B( 17-C , 33-H ) :   0.9592 B( 18-C , 19-C ) :   1.2561
B( 18-C , 21-H ) :   1.0007 B( 19-C , 20-C ) :   1.5559 B( 19-C , 22-C ) :   1.0354
B( 22-C , 23-H ) :   0.9378 B( 22-C , 24-H ) :   0.9227 B( 22-C , 25-C ) :   1.0538
B( 25-C , 26-H ) :   0.9570 B( 25-C , 27-H ) :   0.9629 B( 25-C , 28-C ) :   1.0751
B( 28-C , 29-H ) :   0.9765 B( 28-C , 30-H ) :   0.9752 B( 28-C , 31-H ) :   0.9747

Dispersion correction           -0.014188307
FINAL SINGLE POINT ENERGY     -1339.868860423780

DIPOLE MOMENT
-------------
                                X             Y             Z
Electronic contribution:    -11.90016     -14.63195     -24.00823
Nuclear contribution   :     12.06688      14.77160      24.55522
                        -----------------------------------------
Total Dipole Moment    :      0.16672       0.13965       0.54699
                        -----------------------------------------
Magnitude (a.u.)       :      0.58864
Magnitude (Debye)      :      1.49620

Rotational constants in cm-1:     0.019396     0.008478     0.006602
Rotational constants in MHz :   581.485618   254.157681   197.908269

                             ****ORCA TERMINATED NORMALLY****
TOTAL RUN TIME: 0 days 0 hours 0 minutes 35 seconds 447 msec
