                         Program Version 4.2.1 -  RELEASE  -
|  1> ! wB97X-D3 SP def2-SVP
|  2> %pal
|  3> nprocs 16
|  4> end
|  5>
|  6> * xyz 0 1
|  7> S 	 0.53976 	 -13.9411 	 80.9627
|  8> C 	 0.0274254 	 -14.3009 	 82.5805
|  9> C 	 -0.386001 	 -13.146 	 83.2207
| 10> C 	 -0.670453 	 -12.0657 	 82.2968
| 11> C 	 -0.295203 	 -12.4066 	 81.0238
| 12> H 	 -0.990394 	 -11.0626 	 82.5111
| 13> C 	 -0.728327 	 -12.9812 	 84.6958
| 14> H 	 -1.42227 	 -12.1393 	 84.7517
| 15> H 	 0.215157 	 -12.7716 	 85.1533
| 16> C 	 -1.36434 	 -14.1566 	 85.4347
| 17> H 	 -2.14503 	 -14.6027 	 84.9111
| 18> H 	 -0.631675 	 -15.0074 	 85.4997
| 19> C 	 -1.76566 	 -13.814 	 86.9562
| 20> H 	 -2.63923 	 -13.1249 	 86.9965
| 21> H 	 -1.99219 	 -14.7537 	 87.4975
| 22> H 	 -0.990687 	 -13.405 	 87.5388
| 23> S 	 1.33876 	 -11.4392 	 79.0238
| 24> C 	 0.538875 	 -10.3922 	 77.8238
| 25> C 	 -0.686823 	 -9.97423 	 78.255
| 26> C 	 -1.22792 	 -10.7031 	 79.3168
| 27> C 	 -0.237262 	 -11.5596 	 79.8613
| 28> H 	 -1.13836 	 -9.20844 	 77.6745
| 29> C 	 -2.63839 	 -10.5945 	 79.826
| 30> H 	 -3.06578 	 -9.95172 	 79.0576
| 31> H 	 -2.59715 	 -9.9932 	 80.6893
| 32> C 	 -3.45035 	 -11.8086 	 80.0796
| 33> H 	 -2.98914 	 -12.4333 	 80.932
| 34> H 	 -3.5566 	 -12.4319 	 79.1565
| 35> C 	 -4.79375 	 -11.4548 	 80.6009
| 36> H 	 -4.61494 	 -11.2805 	 81.708
| 37> H 	 -5.49928 	 -12.2967 	 80.364
| 38> H 	 -5.19324 	 -10.6107 	 80.0696
| 39> H 	 0.259041 	 -15.2154 	 83.1181
| 40> H 	 0.982172 	 -9.88809 	 76.9584
| 41> *
| 42>
| 43>                          ****END OF INPUT****

CARTESIAN COORDINATES (ANGSTROEM)
---------------------------------
  S      0.539760  -13.941100   80.962700
  C      0.027425  -14.300900   82.580500
  C     -0.386001  -13.146000   83.220700
  C     -0.670453  -12.065700   82.296800
  C     -0.295203  -12.406600   81.023800
  H     -0.990394  -11.062600   82.511100
  C     -0.728327  -12.981200   84.695800
  H     -1.422270  -12.139300   84.751700
  H      0.215157  -12.771600   85.153300
  C     -1.364340  -14.156600   85.434700
  H     -2.145030  -14.602700   84.911100
  H     -0.631675  -15.007400   85.499700
  C     -1.765660  -13.814000   86.956200
  H     -2.639230  -13.124900   86.996500
  H     -1.992190  -14.753700   87.497500
  H     -0.990687  -13.405000   87.538800
  S      1.338760  -11.439200   79.023800
  C      0.538875  -10.392200   77.823800
  C     -0.686823   -9.974230   78.255000
  C     -1.227920  -10.703100   79.316800
  C     -0.237262  -11.559600   79.861300
  H     -1.138360   -9.208440   77.674500
  C     -2.638390  -10.594500   79.826000
  H     -3.065780   -9.951720   79.057600
  H     -2.597150   -9.993200   80.689300
  C     -3.450350  -11.808600   80.079600
  H     -2.989140  -12.433300   80.932000
  H     -3.556600  -12.431900   79.156500
  C     -4.793750  -11.454800   80.600900
  H     -4.614940  -11.280500   81.708000
  H     -5.499280  -12.296700   80.364000
  H     -5.193240  -10.610700   80.069600
  H      0.259041  -15.215400   83.118100
  H      0.982172   -9.888090   76.958400

 Total Charge           Charge          ....    0
 Multiplicity           Mult            ....    1
 Number of Electrons    NEL             ....  134
 Basis Dimension        Dim             ....  322

ORBITAL ENERGIES
----------------

  NO   OCC          E(Eh)            E(eV)
   0   2.0000     -88.967717     -2420.9347
   1   2.0000     -88.963533     -2420.8208
   2   2.0000     -10.325491      -280.9709
   3   2.0000     -10.324890      -280.9546
   4   2.0000     -10.314100      -280.6609
   5   2.0000     -10.311219      -280.5825
   6   2.0000     -10.303578      -280.3746
   7   2.0000     -10.300577      -280.2929
   8   2.0000     -10.294008      -280.1142
   9   2.0000     -10.291969      -280.0587
  10   2.0000     -10.291214      -280.0382
  11   2.0000     -10.286601      -279.9126
  12   2.0000     -10.285692      -279.8879
  13   2.0000     -10.284445      -279.8540
  14   2.0000     -10.281896      -279.7846
  15   2.0000     -10.277863      -279.6749
  16   2.0000      -8.081126      -219.8986
  17   2.0000      -8.078793      -219.8351
  18   2.0000      -6.039683      -164.3481
  19   2.0000      -6.037258      -164.2821
  20   2.0000      -6.036039      -164.2490
  21   2.0000      -6.033425      -164.1778
  22   2.0000      -6.031693      -164.1307
  23   2.0000      -6.029350      -164.0670
  24   2.0000      -1.007236       -27.4083
  25   2.0000      -0.981543       -26.7092
  26   2.0000      -0.919223       -25.0133
  27   2.0000      -0.908482       -24.7210
  28   2.0000      -0.868325       -23.6283
  29   2.0000      -0.856388       -23.3035
  30   2.0000      -0.846251       -23.0277
  31   2.0000      -0.814342       -22.1594
  32   2.0000      -0.783080       -21.3087
  33   2.0000      -0.768046       -20.8996
  34   2.0000      -0.714247       -19.4356
  35   2.0000      -0.704031       -19.1577
  36   2.0000      -0.682181       -18.5631
  37   2.0000      -0.659405       -17.9433
  38   2.0000      -0.640157       -17.4195
  39   2.0000      -0.614470       -16.7206
  40   2.0000      -0.594177       -16.1684
  41   2.0000      -0.577951       -15.7269
  42   2.0000      -0.569773       -15.5043
  43   2.0000      -0.560126       -15.2418
  44   2.0000      -0.524607       -14.2753
  45   2.0000      -0.519363       -14.1326
  46   2.0000      -0.516565       -14.0564
  47   2.0000      -0.513825       -13.9819
  48   2.0000      -0.505812       -13.7638
  49   2.0000      -0.496935       -13.5223
  50   2.0000      -0.490408       -13.3447
  51   2.0000      -0.484223       -13.1764
  52   2.0000      -0.478097       -13.0097
  53   2.0000      -0.460718       -12.5368
  54   2.0000      -0.458038       -12.4639
  55   2.0000      -0.452484       -12.3127
  56   2.0000      -0.443016       -12.0551
  57   2.0000      -0.436811       -11.8862
  58   2.0000      -0.431556       -11.7432
  59   2.0000      -0.423515       -11.5244
  60   2.0000      -0.420438       -11.4407
  61   2.0000      -0.417641       -11.3646
  62   2.0000      -0.410376       -11.1669
  63   2.0000      -0.346927        -9.4404
  64   2.0000      -0.332482        -9.0473
  65   2.0000      -0.326739        -8.8910
  66   2.0000      -0.283269        -7.7081
  67   0.0000       0.023336         0.6350
  68   0.0000       0.067033         1.8241
  69   0.0000       0.098549         2.6817
  70   0.0000       0.124733         3.3942
  71   0.0000       0.128516         3.4971

MULLIKEN ATOMIC CHARGES
-----------------------
   0 S :    0.107238
   1 C :   -0.113311
   2 C :   -0.104091
   3 C :    0.016555
   4 C :   -0.151147
   5 H :    0.013265
   6 C :    0.101891
   7 H :    0.023323
   8 H :    0.036528
   9 C :   -0.093039
  10 H :    0.021746
  11 H :    0.025371
  12 C :   -0.058945
  13 H :    0.042860
  14 H :    0.036500
  15 H :    0.023690
  16 S :    0.103044
  17 C :   -0.088817
  18 C :   -0.046772
  19 C :   -0.026060
  20 C :   -0.154331
  21 H :    0.004121
  22 C :    0.106162
  23 H :    0.005512
  24 H :    0.013439
  25 C :   -0.109842
  26 H :    0.062693
  27 H :    0.037394
  28 C :   -0.041355
  29 H :    0.042278
  30 H :    0.042158
  31 H :    0.019407
  32 H :    0.047390
  33 H :    0.055146
Sum of atomic charges:   -0.0000000

LOEWDIN ATOMIC CHARGES
----------------------
   0 S :    0.409567
   1 C :   -0.208754
   2 C :   -0.056283
   3 C :   -0.064016
   4 C :   -0.187536
   5 H :    0.030995
   6 C :   -0.031086
   7 H :    0.029142
   8 H :    0.034823
   9 C :   -0.036275
  10 H :    0.014568
  11 H :    0.024875
  12 C :   -0.064762
  13 H :    0.028017
  14 H :    0.031343
  15 H :    0.017487
  16 S :    0.375153
  17 C :   -0.181036
  18 C :   -0.069117
  19 C :   -0.054946
  20 C :   -0.183189
  21 H :    0.027210
  22 C :   -0.034242
  23 H :    0.031554
  24 H :    0.026057
  25 C :   -0.054789
  26 H :    0.038989
  27 H :    0.027923
  28 C :   -0.067370
  29 H :    0.034031
  30 H :    0.034362
  31 H :    0.016592
  32 H :    0.027850
  33 H :    0.032859

  Mayer bond orders larger than 0.100000
B(  0-S ,  1-C ) :   1.1255 B(  0-S ,  4-C ) :   1.1522 B(  1-C ,  2-C ) :   1.6234
B(  1-C , 32-H ) :   0.9695 B(  2-C ,  3-C ) :   1.2204 B(  2-C ,  6-C ) :   1.0138
B(  3-C ,  4-C ) :   1.5649 B(  3-C ,  5-H ) :   0.9967 B(  4-C , 20-C ) :   1.0758
B(  6-C ,  7-H ) :   0.9529 B(  6-C ,  8-H ) :   0.9203 B(  6-C ,  9-C ) :   1.0758
B(  9-C , 10-H ) :   0.9639 B(  9-C , 11-H ) :   0.9497 B(  9-C , 12-C ) :   1.0721
B( 12-C , 13-H ) :   0.9789 B( 12-C , 14-H ) :   0.9766 B( 12-C , 15-H ) :   0.9777
B( 16-S , 17-C ) :   1.1237 B( 16-S , 20-C ) :   1.1377 B( 17-C , 18-C ) :   1.6451
B( 17-C , 20-C ) :   0.1036 B( 17-C , 33-H ) :   0.9604 B( 18-C , 19-C ) :   1.2443
B( 18-C , 21-H ) :   0.9865 B( 19-C , 20-C ) :   1.5694 B( 19-C , 22-C ) :   1.0263
B( 22-C , 23-H ) :   0.9196 B( 22-C , 24-H ) :   0.9159 B( 22-C , 25-C ) :   1.0831
B( 25-C , 26-H ) :   0.9469 B( 25-C , 27-H ) :   0.9534 B( 25-C , 28-C ) :   1.0785
B( 28-C , 29-H ) :   0.9772 B( 28-C , 30-H ) :   0.9731 B( 28-C , 31-H ) :   0.9709

Dispersion correction           -0.014257352
FINAL SINGLE POINT ENERGY     -1339.859442780440

DIPOLE MOMENT
-------------
                                X             Y             Z
Electronic contribution:     22.53952      -0.17352     -20.67319
Nuclear contribution   :    -22.91690       0.47419      21.10450
                        -----------------------------------------
Total Dipole Moment    :     -0.37737       0.30068       0.43131
                        -----------------------------------------
Magnitude (a.u.)       :      0.64718
Magnitude (Debye)      :      1.64501

Rotational constants in cm-1:     0.020205     0.008291     0.006491
Rotational constants in MHz :   605.719646   248.551131   194.580583

                             ****ORCA TERMINATED NORMALLY****
TOTAL RUN TIME: 0 days 0 hours 0 minutes 33 seconds 571 msec
