                         Program Version 4.2.1 -  RELEASE  -
|  1> ! wB97X-D3 SP def2-SVP
|  2> %pal
|  3> nprocs 16
|  4> end
|  5>
|  6> * xyz 0 1
|  7> S 	 15.078 	 19.5414 	 38.9704
|  8> C 	 14.7815 	 19.8765 	 37.2684
|  9> C 	 13.685 	 19.1685 	 36.7941
| 10> C 	 13.019 	 18.4589 	 37.8654
| 11> C 	 13.6682 	 18.5168 	 39.0614
| 12> H 	 12.0771 	 17.8491 	 37.7338
| 13> C 	 13.2936 	 19.2679 	 35.3199
| 14> H 	 12.7351 	 18.4085 	 35.1097
| 15> H 	 14.0903 	 19.3221 	 34.6241
| 16> C 	 12.253 	 20.4172 	 34.9542
| 17> H 	 11.7048 	 20.228 	 34.0008
| 18> H 	 11.5663 	 20.4777 	 35.7959
| 19> C 	 12.8643 	 21.7971 	 34.7475
| 20> H 	 13.3681 	 22.1046 	 35.7173
| 21> H 	 13.5162 	 21.6892 	 33.848
| 22> H 	 12.0955 	 22.566 	 34.6946
| 23> S 	 14.4728 	 17.5508 	 41.4975
| 24> C 	 13.2718 	 16.89 	 42.5607
| 25> C 	 12.0001 	 17.1774 	 42.1622
| 26> C 	 11.961 	 17.8846 	 40.8918
| 27> C 	 13.2394 	 17.9967 	 40.3467
| 28> H 	 11.1277 	 16.8748 	 42.7742
| 29> C 	 10.6232 	 18.1789 	 40.236
| 30> H 	 9.73206 	 17.7838 	 40.8738
| 31> H 	 10.5785 	 17.5481 	 39.3761
| 32> C 	 10.5223 	 19.6845 	 39.801
| 33> H 	 9.54929 	 19.7569 	 39.3042
| 34> H 	 11.4474 	 19.9965 	 39.3383
| 35> C 	 10.5626 	 20.5461 	 41.1129
| 36> H 	 11.5976 	 20.6213 	 41.4902
| 37> H 	 9.88167 	 20.2476 	 41.867
| 38> H 	 10.3003 	 21.4854 	 40.8866
| 39> H 	 15.3987 	 20.5312 	 36.5513
| 40> H 	 13.5325 	 16.2742 	 43.3665
| 41> *
| 42>
| 43>                          ****END OF INPUT****

CARTESIAN COORDINATES (ANGSTROEM)
---------------------------------
  S     15.078000   19.541400   38.970400
  C     14.781500   19.876500   37.268400
  C     13.685000   19.168500   36.794100
  C     13.019000   18.458900   37.865400
  C     13.668200   18.516800   39.061400
  H     12.077100   17.849100   37.733800
  C     13.293600   19.267900   35.319900
  H     12.735100   18.408500   35.109700
  H     14.090300   19.322100   34.624100
  C     12.253000   20.417200   34.954200
  H     11.704800   20.228000   34.000800
  H     11.566300   20.477700   35.795900
  C     12.864300   21.797100   34.747500
  H     13.368100   22.104600   35.717300
  H     13.516200   21.689200   33.848000
  H     12.095500   22.566000   34.694600
  S     14.472800   17.550800   41.497500
  C     13.271800   16.890000   42.560700
  C     12.000100   17.177400   42.162200
  C     11.961000   17.884600   40.891800
  C     13.239400   17.996700   40.346700
  H     11.127700   16.874800   42.774200
  C     10.623200   18.178900   40.236000
  H      9.732060   17.783800   40.873800
  H     10.578500   17.548100   39.376100
  C     10.522300   19.684500   39.801000
  H      9.549290   19.756900   39.304200
  H     11.447400   19.996500   39.338300
  C     10.562600   20.546100   41.112900
  H     11.597600   20.621300   41.490200
  H      9.881670   20.247600   41.867000
  H     10.300300   21.485400   40.886600
  H     15.398700   20.531200   36.551300
  H     13.532500   16.274200   43.366500

 Total Charge           Charge          ....    0
 Multiplicity           Mult            ....    1
 Number of Electrons    NEL             ....  134
 Basis Dimension        Dim             ....  322

ORBITAL ENERGIES
----------------

  NO   OCC          E(Eh)            E(eV)
   0   2.0000     -88.967549     -2420.9301
   1   2.0000     -88.964642     -2420.8510
   2   2.0000     -10.329440      -281.0784
   3   2.0000     -10.326906      -281.0094
   4   2.0000     -10.320977      -280.8481
   5   2.0000     -10.311616      -280.5933
   6   2.0000     -10.306590      -280.4566
   7   2.0000     -10.306567      -280.4559
   8   2.0000     -10.301028      -280.3052
   9   2.0000     -10.297934      -280.2210
  10   2.0000     -10.296302      -280.1766
  11   2.0000     -10.290318      -280.0138
  12   2.0000     -10.289179      -279.9828
  13   2.0000     -10.287628      -279.9406
  14   2.0000     -10.282258      -279.7945
  15   2.0000     -10.259998      -279.1887
  16   2.0000      -8.082238      -219.9289
  17   2.0000      -8.080141      -219.8718
  18   2.0000      -6.040850      -164.3799
  19   2.0000      -6.038646      -164.3199
  20   2.0000      -6.036770      -164.2689
  21   2.0000      -6.034665      -164.2116
  22   2.0000      -6.032867      -164.1626
  23   2.0000      -6.030747      -164.1050
  24   2.0000      -1.010185       -27.4885
  25   2.0000      -0.984770       -26.7969
  26   2.0000      -0.908254       -24.7148
  27   2.0000      -0.905977       -24.6529
  28   2.0000      -0.869194       -23.6520
  29   2.0000      -0.849020       -23.1030
  30   2.0000      -0.842576       -22.9277
  31   2.0000      -0.815965       -22.2035
  32   2.0000      -0.784817       -21.3560
  33   2.0000      -0.773765       -21.0552
  34   2.0000      -0.708891       -19.2899
  35   2.0000      -0.690825       -18.7983
  36   2.0000      -0.684062       -18.6143
  37   2.0000      -0.663623       -18.0581
  38   2.0000      -0.635848       -17.3023
  39   2.0000      -0.618412       -16.8279
  40   2.0000      -0.597792       -16.2667
  41   2.0000      -0.572053       -15.5664
  42   2.0000      -0.557086       -15.1591
  43   2.0000      -0.548980       -14.9385
  44   2.0000      -0.544546       -14.8178
  45   2.0000      -0.537320       -14.6212
  46   2.0000      -0.515433       -14.0256
  47   2.0000      -0.513284       -13.9672
  48   2.0000      -0.501537       -13.6475
  49   2.0000      -0.495943       -13.4953
  50   2.0000      -0.488005       -13.2793
  51   2.0000      -0.477882       -13.0038
  52   2.0000      -0.469661       -12.7801
  53   2.0000      -0.467460       -12.7202
  54   2.0000      -0.456698       -12.4274
  55   2.0000      -0.450145       -12.2491
  56   2.0000      -0.441030       -12.0010
  57   2.0000      -0.434176       -11.8145
  58   2.0000      -0.432442       -11.7674
  59   2.0000      -0.424671       -11.5559
  60   2.0000      -0.418152       -11.3785
  61   2.0000      -0.413101       -11.2410
  62   2.0000      -0.411051       -11.1853
  63   2.0000      -0.356194        -9.6925
  64   2.0000      -0.334114        -9.0917
  65   2.0000      -0.328152        -8.9295
  66   2.0000      -0.286477        -7.7954
  67   0.0000       0.025689         0.6990
  68   0.0000       0.073522         2.0006
  69   0.0000       0.101290         2.7562
  70   0.0000       0.119051         3.2395
  71   0.0000       0.130840         3.5603

MULLIKEN ATOMIC CHARGES
-----------------------
   0 S :    0.103687
   1 C :   -0.141327
   2 C :   -0.109910
   3 C :   -0.024852
   4 C :   -0.112952
   5 H :    0.033082
   6 C :    0.121018
   7 H :    0.006695
   8 H :    0.016536
   9 C :   -0.101786
  10 H :    0.038459
  11 H :    0.025613
  12 C :   -0.074598
  13 H :    0.034257
  14 H :    0.043513
  15 H :    0.035523
  16 S :    0.100856
  17 C :   -0.067679
  18 C :   -0.036815
  19 C :   -0.051994
  20 C :   -0.149169
  21 H :    0.031887
  22 C :    0.024647
  23 H :    0.038116
  24 H :    0.028104
  25 C :   -0.081716
  26 H :    0.037784
  27 H :    0.068535
  28 C :   -0.008355
  29 H :    0.044832
  30 H :    0.014549
  31 H :   -0.004555
  32 H :    0.078322
  33 H :    0.039695
Sum of atomic charges:    0.0000000

LOEWDIN ATOMIC CHARGES
----------------------
   0 S :    0.396196
   1 C :   -0.207836
   2 C :   -0.062951
   3 C :   -0.074040
   4 C :   -0.192972
   5 H :    0.041714
   6 C :   -0.021716
   7 H :    0.025521
   8 H :    0.023961
   9 C :   -0.041016
  10 H :    0.026238
  11 H :    0.020470
  12 C :   -0.077581
  13 H :    0.029612
  14 H :    0.028177
  15 H :    0.025774
  16 S :    0.405024
  17 C :   -0.176748
  18 C :   -0.071078
  19 C :   -0.050756
  20 C :   -0.203141
  21 H :    0.038329
  22 C :   -0.038138
  23 H :    0.039455
  24 H :    0.020781
  25 C :   -0.030330
  26 H :    0.025871
  27 H :    0.032939
  28 C :   -0.054469
  29 H :    0.033581
  30 H :    0.016459
  31 H :    0.006315
  32 H :    0.047619
  33 H :    0.018735

  Mayer bond orders larger than 0.100000
B(  0-S ,  1-C ) :   1.1265 B(  0-S ,  4-C ) :   1.1366 B(  1-C ,  2-C ) :   1.6285
B(  1-C , 32-H ) :   0.9533 B(  2-C ,  3-C ) :   1.2238 B(  2-C ,  6-C ) :   1.0350
B(  3-C ,  4-C ) :   1.5941 B(  3-C ,  5-H ) :   0.9869 B(  4-C , 20-C ) :   1.0578
B(  6-C ,  7-H ) :   0.9286 B(  6-C ,  8-H ) :   0.9476 B(  6-C ,  9-C ) :   1.0529
B(  9-C , 10-H ) :   0.9605 B(  9-C , 11-H ) :   0.9560 B(  9-C , 12-C ) :   1.0835
B( 12-C , 13-H ) :   0.9703 B( 12-C , 14-H ) :   0.9766 B( 12-C , 15-H ) :   0.9720
B( 16-S , 17-C ) :   1.1483 B( 16-S , 20-C ) :   1.1339 B( 17-C , 18-C ) :   1.6256
B( 17-C , 33-H ) :   0.9751 B( 18-C , 19-C ) :   1.2192 B( 18-C , 21-H ) :   0.9860
B( 19-C , 20-C ) :   1.5859 B( 19-C , 22-C ) :   1.0238 B( 22-C , 23-H ) :   0.9444
B( 22-C , 24-H ) :   0.9395 B( 22-C , 25-C ) :   1.0560 B( 25-C , 26-H ) :   0.9583
B( 25-C , 27-H ) :   0.9547 B( 25-C , 28-C ) :   1.0720 B( 28-C , 29-H ) :   0.9731
B( 28-C , 30-H ) :   0.9769 B( 28-C , 31-H ) :   0.9698

Dispersion correction           -0.015516793
FINAL SINGLE POINT ENERGY     -1339.862610223455

DIPOLE MOMENT
-------------
                                X             Y             Z
Electronic contribution:     19.19916     -12.36203      15.53047
Nuclear contribution   :    -19.85259      12.33499     -15.81556
                        -----------------------------------------
Total Dipole Moment    :     -0.65344      -0.02704      -0.28509
                        -----------------------------------------
Magnitude (a.u.)       :      0.71343
Magnitude (Debye)      :      1.81340

Rotational constants in cm-1:     0.022650     0.008818     0.007205
Rotational constants in MHz :   679.037118   264.348794   216.002532

                             ****ORCA TERMINATED NORMALLY****
TOTAL RUN TIME: 0 days 0 hours 0 minutes 37 seconds 38 msec
