                         Program Version 4.2.1 -  RELEASE  -
|  1> ! wB97X-D3 SP def2-SVP
|  2> %pal
|  3> nprocs 16
|  4> end
|  5>
|  6> * xyz 0 1
|  7> S 	 -58.2815 	 39.6997 	 114.742
|  8> C 	 -58.1055 	 39.642 	 112.927
|  9> C 	 -56.999 	 40.4508 	 112.529
| 10> C 	 -56.5004 	 41.2058 	 113.628
| 11> C 	 -57.0811 	 40.9777 	 114.852
| 12> H 	 -55.6419 	 41.918 	 113.711
| 13> C 	 -56.4691 	 40.4681 	 111.083
| 14> H 	 -56.6012 	 41.4571 	 110.615
| 15> H 	 -57.0376 	 39.7845 	 110.497
| 16> C 	 -55.0656 	 39.9868 	 110.885
| 17> H 	 -54.8191 	 40.3147 	 109.889
| 18> H 	 -54.3973 	 40.3407 	 111.606
| 19> C 	 -55.0451 	 38.4324 	 110.809
| 20> H 	 -53.9942 	 38.0853 	 110.653
| 21> H 	 -55.3895 	 38.0097 	 111.773
| 22> H 	 -55.5936 	 37.9574 	 109.988
| 23> S 	 -58.0855 	 42.3211 	 117.022
| 24> C 	 -57.0917 	 43.1328 	 118.128
| 25> C 	 -55.7881 	 42.7802 	 117.963
| 26> C 	 -55.5513 	 42.0201 	 116.761
| 27> C 	 -56.7515 	 41.6797 	 116.093
| 28> H 	 -54.9717 	 43.1299 	 118.653
| 29> C 	 -54.0571 	 41.6318 	 116.412
| 30> H 	 -53.452 	 42.5123 	 116.566
| 31> H 	 -53.9644 	 41.3687 	 115.404
| 32> C 	 -53.3239 	 40.5075 	 117.226
| 33> H 	 -53.0846 	 40.895 	 118.224
| 34> H 	 -52.3221 	 40.2394 	 116.662
| 35> C 	 -54.2619 	 39.3069 	 117.497
| 36> H 	 -55.2061 	 39.4009 	 118.063
| 37> H 	 -53.72 	 38.5811 	 118.128
| 38> H 	 -54.5498 	 38.9495 	 116.522
| 39> H 	 -58.7159 	 39.0952 	 112.233
| 40> H 	 -57.55 	 43.7013 	 118.946
| 41> *
| 42>
| 43>                          ****END OF INPUT****

CARTESIAN COORDINATES (ANGSTROEM)
---------------------------------
  S    -58.281500   39.699700  114.742000
  C    -58.105500   39.642000  112.927000
  C    -56.999000   40.450800  112.529000
  C    -56.500400   41.205800  113.628000
  C    -57.081100   40.977700  114.852000
  H    -55.641900   41.918000  113.711000
  C    -56.469100   40.468100  111.083000
  H    -56.601200   41.457100  110.615000
  H    -57.037600   39.784500  110.497000
  C    -55.065600   39.986800  110.885000
  H    -54.819100   40.314700  109.889000
  H    -54.397300   40.340700  111.606000
  C    -55.045100   38.432400  110.809000
  H    -53.994200   38.085300  110.653000
  H    -55.389500   38.009700  111.773000
  H    -55.593600   37.957400  109.988000
  S    -58.085500   42.321100  117.022000
  C    -57.091700   43.132800  118.128000
  C    -55.788100   42.780200  117.963000
  C    -55.551300   42.020100  116.761000
  C    -56.751500   41.679700  116.093000
  H    -54.971700   43.129900  118.653000
  C    -54.057100   41.631800  116.412000
  H    -53.452000   42.512300  116.566000
  H    -53.964400   41.368700  115.404000
  C    -53.323900   40.507500  117.226000
  H    -53.084600   40.895000  118.224000
  H    -52.322100   40.239400  116.662000
  C    -54.261900   39.306900  117.497000
  H    -55.206100   39.400900  118.063000
  H    -53.720000   38.581100  118.128000
  H    -54.549800   38.949500  116.522000
  H    -58.715900   39.095200  112.233000
  H    -57.550000   43.701300  118.946000

 Total Charge           Charge          ....    0
 Multiplicity           Mult            ....    1
 Number of Electrons    NEL             ....  134
 Basis Dimension        Dim             ....  322

ORBITAL ENERGIES
----------------

  NO   OCC          E(Eh)            E(eV)
   0   2.0000     -88.969035     -2420.9705
   1   2.0000     -88.963702     -2420.8254
   2   2.0000     -10.333072      -281.1772
   3   2.0000     -10.331952      -281.1467
   4   2.0000     -10.324172      -280.9350
   5   2.0000     -10.316634      -280.7299
   6   2.0000     -10.315036      -280.6864
   7   2.0000     -10.311127      -280.5800
   8   2.0000     -10.299783      -280.2714
   9   2.0000     -10.298406      -280.2339
  10   2.0000     -10.296393      -280.1791
  11   2.0000     -10.292518      -280.0737
  12   2.0000     -10.290082      -280.0074
  13   2.0000     -10.281619      -279.7771
  14   2.0000     -10.280677      -279.7514
  15   2.0000     -10.273582      -279.5584
  16   2.0000      -8.082243      -219.9290
  17   2.0000      -8.079923      -219.8659
  18   2.0000      -6.040864      -164.3803
  19   2.0000      -6.038263      -164.3095
  20   2.0000      -6.037021      -164.2757
  21   2.0000      -6.034074      -164.1955
  22   2.0000      -6.032918      -164.1640
  23   2.0000      -6.030896      -164.1090
  24   2.0000      -1.007690       -27.4206
  25   2.0000      -0.980728       -26.6870
  26   2.0000      -0.917193       -24.9581
  27   2.0000      -0.900194       -24.4955
  28   2.0000      -0.868074       -23.6215
  29   2.0000      -0.845050       -22.9950
  30   2.0000      -0.838515       -22.8172
  31   2.0000      -0.811449       -22.0806
  32   2.0000      -0.783534       -21.3210
  33   2.0000      -0.774471       -21.0744
  34   2.0000      -0.708331       -19.2747
  35   2.0000      -0.694412       -18.8959
  36   2.0000      -0.688509       -18.7353
  37   2.0000      -0.655169       -17.8280
  38   2.0000      -0.644089       -17.5265
  39   2.0000      -0.614336       -16.7169
  40   2.0000      -0.600086       -16.3292
  41   2.0000      -0.573768       -15.6130
  42   2.0000      -0.554686       -15.0938
  43   2.0000      -0.551129       -14.9970
  44   2.0000      -0.536990       -14.6122
  45   2.0000      -0.529174       -14.3996
  46   2.0000      -0.515745       -14.0341
  47   2.0000      -0.509143       -13.8545
  48   2.0000      -0.505934       -13.7672
  49   2.0000      -0.499525       -13.5928
  50   2.0000      -0.482977       -13.1425
  51   2.0000      -0.475905       -12.9500
  52   2.0000      -0.471091       -12.8190
  53   2.0000      -0.465573       -12.6689
  54   2.0000      -0.460936       -12.5427
  55   2.0000      -0.449173       -12.2226
  56   2.0000      -0.443360       -12.0644
  57   2.0000      -0.437197       -11.8967
  58   2.0000      -0.428591       -11.6626
  59   2.0000      -0.425258       -11.5719
  60   2.0000      -0.419654       -11.4194
  61   2.0000      -0.410146       -11.1606
  62   2.0000      -0.404200       -10.9988
  63   2.0000      -0.347802        -9.4642
  64   2.0000      -0.332317        -9.0428
  65   2.0000      -0.330225        -8.9859
  66   2.0000      -0.292933        -7.9711
  67   0.0000       0.026629         0.7246
  68   0.0000       0.068912         1.8752
  69   0.0000       0.104782         2.8513
  70   0.0000       0.123362         3.3569
  71   0.0000       0.127694         3.4747

MULLIKEN ATOMIC CHARGES
-----------------------
   0 S :    0.103514
   1 C :   -0.121381
   2 C :   -0.085611
   3 C :    0.015095
   4 C :   -0.145146
   5 H :    0.027512
   6 C :    0.084621
   7 H :    0.041209
   8 H :   -0.004435
   9 C :   -0.026087
  10 H :    0.022788
  11 H :    0.024396
  12 C :   -0.099203
  13 H :    0.033279
  14 H :    0.043700
  15 H :    0.034926
  16 S :    0.108793
  17 C :   -0.095175
  18 C :   -0.047947
  19 C :   -0.050738
  20 C :   -0.175914
  21 H :    0.040382
  22 C :    0.094189
  23 H :    0.024838
  24 H :    0.005295
  25 C :   -0.104766
  26 H :    0.024812
  27 H :    0.058042
  28 C :   -0.059552
  29 H :    0.047371
  30 H :    0.032953
  31 H :    0.028430
  32 H :    0.048508
  33 H :    0.071306
Sum of atomic charges:   -0.0000000

LOEWDIN ATOMIC CHARGES
----------------------
   0 S :    0.373757
   1 C :   -0.177648
   2 C :   -0.054203
   3 C :   -0.075136
   4 C :   -0.192683
   5 H :    0.039047
   6 C :   -0.028638
   7 H :    0.034039
   8 H :    0.024572
   9 C :   -0.029757
  10 H :    0.026524
  11 H :    0.016358
  12 C :   -0.071671
  13 H :    0.027465
  14 H :    0.027406
  15 H :    0.023876
  16 S :    0.434260
  17 C :   -0.200617
  18 C :   -0.082393
  19 C :   -0.050929
  20 C :   -0.206098
  21 H :    0.041092
  22 C :   -0.029541
  23 H :    0.030422
  24 H :    0.016161
  25 C :   -0.042578
  26 H :    0.017282
  27 H :    0.042325
  28 C :   -0.075164
  29 H :    0.033076
  30 H :    0.026648
  31 H :    0.021922
  32 H :    0.025693
  33 H :    0.035129

  Mayer bond orders larger than 0.100000
B(  0-S ,  1-C ) :   1.1237 B(  0-S ,  4-C ) :   1.1371 B(  1-C ,  2-C ) :   1.5994
B(  1-C ,  4-C ) :   0.1046 B(  1-C , 32-H ) :   0.9703 B(  2-C ,  3-C ) :   1.2211
B(  2-C ,  6-C ) :   1.0290 B(  3-C ,  4-C ) :   1.6054 B(  3-C ,  5-H ) :   0.9835
B(  4-C , 20-C ) :   1.0385 B(  6-C ,  7-H ) :   0.9415 B(  6-C ,  8-H ) :   0.9354
B(  6-C ,  9-C ) :   1.0694 B(  9-C , 10-H ) :   0.9506 B(  9-C , 11-H ) :   0.9619
B(  9-C , 12-C ) :   1.0798 B( 12-C , 13-H ) :   0.9753 B( 12-C , 14-H ) :   0.9786
B( 12-C , 15-H ) :   0.9735 B( 16-S , 17-C ) :   1.1817 B( 16-S , 20-C ) :   1.1570
B( 17-C , 18-C ) :   1.5746 B( 17-C , 33-H ) :   0.9670 B( 18-C , 19-C ) :   1.2620
B( 18-C , 21-H ) :   0.9843 B( 19-C , 20-C ) :   1.5647 B( 19-C , 22-C ) :   1.0325
B( 22-C , 23-H ) :   0.9385 B( 22-C , 24-H ) :   0.9396 B( 22-C , 25-C ) :   1.0637
B( 25-C , 26-H ) :   0.9563 B( 25-C , 27-H ) :   0.9546 B( 25-C , 28-C ) :   1.0712
B( 28-C , 29-H ) :   0.9699 B( 28-C , 30-H ) :   0.9748 B( 28-C , 31-H ) :   0.9797

Dispersion correction           -0.014673310
FINAL SINGLE POINT ENERGY     -1339.865403432721

DIPOLE MOMENT
-------------
                                X             Y             Z
Electronic contribution:    -22.20883       9.38906      11.41693
Nuclear contribution   :     22.78260      -9.28162     -11.59252
                        -----------------------------------------
Total Dipole Moment    :      0.57376       0.10744      -0.17559
                        -----------------------------------------
Magnitude (a.u.)       :      0.60957
Magnitude (Debye)      :      1.54941

Rotational constants in cm-1:     0.019710     0.008677     0.007081
Rotational constants in MHz :   590.904059   260.142043   212.297645

                             ****ORCA TERMINATED NORMALLY****
TOTAL RUN TIME: 0 days 0 hours 0 minutes 30 seconds 569 msec
