                         Program Version 4.2.1 -  RELEASE  -
|  1> ! wB97X-D3 SP def2-SVP
|  2> %pal
|  3> nprocs 16
|  4> end
|  5>
|  6> * xyz 0 1
|  7> S 	 -47.1136 	 33.8304 	 93.8445
|  8> C 	 -47.0065 	 33.0667 	 92.2114
|  9> C 	 -48.2807 	 33.1535 	 91.5441
| 10> C 	 -49.2349 	 33.7881 	 92.3677
| 11> C 	 -48.7571 	 34.3442 	 93.5257
| 12> H 	 -50.1709 	 34.0977 	 92.189
| 13> C 	 -48.514 	 32.7876 	 90.0929
| 14> H 	 -47.7535 	 33.1496 	 89.4147
| 15> H 	 -49.4338 	 33.308 	 89.7912
| 16> C 	 -48.664 	 31.2686 	 89.803
| 17> H 	 -48.6635 	 31.0716 	 88.767
| 18> H 	 -47.8149 	 30.7367 	 90.1221
| 19> C 	 -49.9361 	 30.5399 	 90.3529
| 20> H 	 -49.6257 	 30.0989 	 91.292
| 21> H 	 -50.7966 	 31.1605 	 90.5448
| 22> H 	 -50.2891 	 29.8211 	 89.7011
| 23> S 	 -48.6464 	 36.257 	 95.5175
| 24> C 	 -50.1338 	 36.7366 	 96.3784
| 25> C 	 -51.18 	 35.9098 	 96.0216
| 26> C 	 -50.908 	 35.0254 	 94.8928
| 27> C 	 -49.567 	 35.1727 	 94.4847
| 28> H 	 -52.0454 	 36.0553 	 96.5851
| 29> C 	 -51.9248 	 34.0059 	 94.3877
| 30> H 	 -51.3058 	 33.0346 	 94.1926
| 31> H 	 -52.2515 	 34.3407 	 93.4181
| 32> C 	 -53.1374 	 33.5034 	 95.2785
| 33> H 	 -53.9 	 34.2324 	 95.504
| 34> H 	 -52.8631 	 33.297 	 96.3193
| 35> C 	 -53.7905 	 32.2217 	 94.7229
| 36> H 	 -53.9703 	 32.3523 	 93.6113
| 37> H 	 -54.6738 	 31.9536 	 95.3362
| 38> H 	 -53.1114 	 31.4532 	 94.8743
| 39> H 	 -46.085 	 32.6562 	 91.8016
| 40> H 	 -50.2531 	 37.4908 	 97.1646
| 41> *
| 42>
| 43>                          ****END OF INPUT****

CARTESIAN COORDINATES (ANGSTROEM)
---------------------------------
  S    -47.113600   33.830400   93.844500
  C    -47.006500   33.066700   92.211400
  C    -48.280700   33.153500   91.544100
  C    -49.234900   33.788100   92.367700
  C    -48.757100   34.344200   93.525700
  H    -50.170900   34.097700   92.189000
  C    -48.514000   32.787600   90.092900
  H    -47.753500   33.149600   89.414700
  H    -49.433800   33.308000   89.791200
  C    -48.664000   31.268600   89.803000
  H    -48.663500   31.071600   88.767000
  H    -47.814900   30.736700   90.122100
  C    -49.936100   30.539900   90.352900
  H    -49.625700   30.098900   91.292000
  H    -50.796600   31.160500   90.544800
  H    -50.289100   29.821100   89.701100
  S    -48.646400   36.257000   95.517500
  C    -50.133800   36.736600   96.378400
  C    -51.180000   35.909800   96.021600
  C    -50.908000   35.025400   94.892800
  C    -49.567000   35.172700   94.484700
  H    -52.045400   36.055300   96.585100
  C    -51.924800   34.005900   94.387700
  H    -51.305800   33.034600   94.192600
  H    -52.251500   34.340700   93.418100
  C    -53.137400   33.503400   95.278500
  H    -53.900000   34.232400   95.504000
  H    -52.863100   33.297000   96.319300
  C    -53.790500   32.221700   94.722900
  H    -53.970300   32.352300   93.611300
  H    -54.673800   31.953600   95.336200
  H    -53.111400   31.453200   94.874300
  H    -46.085000   32.656200   91.801600
  H    -50.253100   37.490800   97.164600

 Total Charge           Charge          ....    0
 Multiplicity           Mult            ....    1
 Number of Electrons    NEL             ....  134
 Basis Dimension        Dim             ....  322

ORBITAL ENERGIES
----------------

  NO   OCC          E(Eh)            E(eV)
   0   2.0000     -88.968754     -2420.9629
   1   2.0000     -88.968002     -2420.9424
   2   2.0000     -10.335512      -281.2436
   3   2.0000     -10.331092      -281.1233
   4   2.0000     -10.322752      -280.8964
   5   2.0000     -10.320719      -280.8410
   6   2.0000     -10.315330      -280.6944
   7   2.0000     -10.309782      -280.5434
   8   2.0000     -10.307882      -280.4917
   9   2.0000     -10.295008      -280.1414
  10   2.0000     -10.294060      -280.1156
  11   2.0000     -10.293003      -280.0868
  12   2.0000     -10.282564      -279.8028
  13   2.0000     -10.282424      -279.7990
  14   2.0000     -10.279590      -279.7219
  15   2.0000     -10.267792      -279.4008
  16   2.0000      -8.082259      -219.9295
  17   2.0000      -8.081889      -219.9194
  18   2.0000      -6.040827      -164.3793
  19   2.0000      -6.040566      -164.3722
  20   2.0000      -6.036914      -164.2728
  21   2.0000      -6.036575      -164.2636
  22   2.0000      -6.033063      -164.1680
  23   2.0000      -6.032477      -164.1520
  24   2.0000      -0.999860       -27.2076
  25   2.0000      -0.975904       -26.5557
  26   2.0000      -0.906197       -24.6589
  27   2.0000      -0.902208       -24.5503
  28   2.0000      -0.862766       -23.4771
  29   2.0000      -0.854821       -23.2609
  30   2.0000      -0.844795       -22.9880
  31   2.0000      -0.817886       -22.2558
  32   2.0000      -0.783224       -21.3126
  33   2.0000      -0.769303       -20.9338
  34   2.0000      -0.710841       -19.3430
  35   2.0000      -0.706981       -19.2379
  36   2.0000      -0.693326       -18.8664
  37   2.0000      -0.657894       -17.9022
  38   2.0000      -0.644650       -17.5418
  39   2.0000      -0.617008       -16.7896
  40   2.0000      -0.593260       -16.1434
  41   2.0000      -0.571832       -15.5603
  42   2.0000      -0.561935       -15.2910
  43   2.0000      -0.545476       -14.8432
  44   2.0000      -0.542111       -14.7516
  45   2.0000      -0.529865       -14.4184
  46   2.0000      -0.518535       -14.1101
  47   2.0000      -0.511299       -13.9131
  48   2.0000      -0.502105       -13.6630
  49   2.0000      -0.495628       -13.4867
  50   2.0000      -0.481079       -13.0908
  51   2.0000      -0.477668       -12.9980
  52   2.0000      -0.473402       -12.8819
  53   2.0000      -0.467571       -12.7232
  54   2.0000      -0.459124       -12.4934
  55   2.0000      -0.451125       -12.2757
  56   2.0000      -0.446381       -12.1467
  57   2.0000      -0.436345       -11.8736
  58   2.0000      -0.430863       -11.7244
  59   2.0000      -0.428129       -11.6500
  60   2.0000      -0.420649       -11.4464
  61   2.0000      -0.418122       -11.3777
  62   2.0000      -0.414591       -11.2816
  63   2.0000      -0.350717        -9.5435
  64   2.0000      -0.333845        -9.0844
  65   2.0000      -0.328899        -8.9498
  66   2.0000      -0.284265        -7.7353
  67   0.0000       0.020783         0.5655
  68   0.0000       0.069235         1.8840
  69   0.0000       0.101256         2.7553
  70   0.0000       0.123445         3.3591
  71   0.0000       0.131814         3.5868

MULLIKEN ATOMIC CHARGES
-----------------------
   0 S :    0.102370
   1 C :   -0.138860
   2 C :   -0.040383
   3 C :    0.044800
   4 C :   -0.124885
   5 H :   -0.052010
   6 C :    0.069359
   7 H :    0.034473
   8 H :    0.023336
   9 C :   -0.054273
  10 H :    0.011281
  11 H :    0.012841
  12 C :   -0.033219
  13 H :    0.037270
  14 H :    0.019515
  15 H :    0.017934
  16 S :    0.093857
  17 C :   -0.092101
  18 C :   -0.029106
  19 C :   -0.018225
  20 C :   -0.146970
  21 H :   -0.000380
  22 C :   -0.008333
  23 H :    0.058304
  24 H :    0.048514
  25 C :   -0.063738
  26 H :    0.023712
  27 H :    0.023019
  28 C :   -0.045772
  29 H :    0.045627
  30 H :    0.041032
  31 H :    0.023319
  32 H :    0.056887
  33 H :    0.060807
Sum of atomic charges:   -0.0000000

LOEWDIN ATOMIC CHARGES
----------------------
   0 S :    0.383843
   1 C :   -0.187794
   2 C :   -0.050671
   3 C :   -0.064507
   4 C :   -0.180910
   5 H :    0.009503
   6 C :   -0.027458
   7 H :    0.034698
   8 H :    0.031730
   9 C :   -0.032731
  10 H :    0.016947
  11 H :    0.017194
  12 C :   -0.059355
  13 H :    0.028983
  14 H :    0.021952
  15 H :    0.016389
  16 S :    0.386503
  17 C :   -0.178150
  18 C :   -0.064025
  19 C :   -0.053335
  20 C :   -0.190919
  21 H :    0.022282
  22 C :   -0.040295
  23 H :    0.048764
  24 H :    0.028860
  25 C :   -0.046383
  26 H :    0.017873
  27 H :    0.025536
  28 C :   -0.059738
  29 H :    0.033259
  30 H :    0.033821
  31 H :    0.014782
  32 H :    0.027894
  33 H :    0.035458

  Mayer bond orders larger than 0.100000
B(  0-S ,  1-C ) :   1.1347 B(  0-S ,  4-C ) :   1.1462 B(  1-C ,  2-C ) :   1.5687
B(  1-C ,  4-C ) :   0.1053 B(  1-C , 32-H ) :   0.9723 B(  2-C ,  3-C ) :   1.2346
B(  2-C ,  6-C ) :   1.0200 B(  3-C ,  4-C ) :   1.5819 B(  3-C ,  5-H ) :   1.0110
B(  4-C , 20-C ) :   1.0494 B(  6-C ,  7-H ) :   0.9437 B(  6-C ,  8-H ) :   0.9457
B(  6-C ,  9-C ) :   1.0755 B(  9-C , 10-H ) :   0.9611 B(  9-C , 11-H ) :   0.9613
B(  9-C , 12-C ) :   1.0607 B( 12-C , 13-H ) :   0.9806 B( 12-C , 14-H ) :   0.9797
B( 12-C , 15-H ) :   0.9793 B( 16-S , 17-C ) :   1.1312 B( 16-S , 20-C ) :   1.1345
B( 17-C , 18-C ) :   1.6458 B( 17-C , 33-H ) :   0.9631 B( 18-C , 19-C ) :   1.2190
B( 18-C , 21-H ) :   0.9965 B( 19-C , 20-C ) :   1.5826 B( 19-C , 22-C ) :   1.0291
B( 22-C , 23-H ) :   0.9403 B( 22-C , 24-H ) :   0.9279 B( 22-C , 25-C ) :   1.0505
B( 25-C , 26-H ) :   0.9520 B( 25-C , 27-H ) :   0.9545 B( 25-C , 28-C ) :   1.0825
B( 28-C , 29-H ) :   0.9762 B( 28-C , 30-H ) :   0.9708 B( 28-C , 31-H ) :   0.9778

Dispersion correction           -0.013738339
FINAL SINGLE POINT ENERGY     -1339.849236496088

DIPOLE MOMENT
-------------
                                X             Y             Z
Electronic contribution:     20.89795      19.52224      13.34366
Nuclear contribution   :    -21.48585     -19.82452     -13.55596
                        -----------------------------------------
Total Dipole Moment    :     -0.58790      -0.30227      -0.21230
                        -----------------------------------------
Magnitude (a.u.)       :      0.69431
Magnitude (Debye)      :      1.76480

Rotational constants in cm-1:     0.016248     0.009341     0.006315
Rotational constants in MHz :   487.102554   280.029484   189.333021

                             ****ORCA TERMINATED NORMALLY****
TOTAL RUN TIME: 0 days 0 hours 0 minutes 28 seconds 258 msec
