                         Program Version 4.2.1 -  RELEASE  -
|  1> ! wB97X-D3 SP def2-SVP
|  2> %pal
|  3> nprocs 16
|  4> end
|  5>
|  6> * xyz 0 1
|  7> S 	 -0.789489 	 -20.3328 	 90.206
|  8> C 	 -1.87896 	 -19.9147 	 88.9324
|  9> C 	 -1.20572 	 -19.4377 	 87.8194
| 10> C 	 0.223397 	 -19.404 	 88.0538
| 11> C 	 0.641592 	 -19.8553 	 89.3014
| 12> H 	 1.00867 	 -19.1125 	 87.3882
| 13> C 	 -1.9289 	 -18.9448 	 86.5795
| 14> H 	 -1.73978 	 -17.8631 	 86.3476
| 15> H 	 -2.97341 	 -19.0538 	 86.817
| 16> C 	 -1.50475 	 -19.7898 	 85.2591
| 17> H 	 -2.08831 	 -19.4348 	 84.4115
| 18> H 	 -0.479096 	 -19.641 	 84.9622
| 19> C 	 -1.7171 	 -21.2921 	 85.3001
| 20> H 	 -1.24227 	 -21.6777 	 84.3829
| 21> H 	 -1.17687 	 -21.7077 	 86.1642
| 22> H 	 -2.79006 	 -21.6612 	 85.3087
| 23> S 	 2.41466 	 -19.8162 	 91.4495
| 24> C 	 4.15916 	 -20.0464 	 91.1644
| 25> C 	 4.34103 	 -20.4401 	 89.8519
| 26> C 	 3.17017 	 -20.4397 	 89.0401
| 27> C 	 2.03868 	 -20.0839 	 89.7315
| 28> H 	 5.34831 	 -20.6448 	 89.5783
| 29> C 	 3.22507 	 -20.9542 	 87.6115
| 30> H 	 2.17752 	 -20.9434 	 87.2869
| 31> H 	 3.47591 	 -22.0089 	 87.6149
| 32> C 	 4.09955 	 -20.1435 	 86.6609
| 33> H 	 5.04553 	 -20.1515 	 87.24
| 34> H 	 3.82432 	 -19.088 	 86.5844
| 35> C 	 4.21934 	 -20.787 	 85.2653
| 36> H 	 3.23459 	 -20.6171 	 84.7923
| 37> H 	 4.49948 	 -21.7641 	 85.3951
| 38> H 	 4.96303 	 -20.152 	 84.7773
| 39> H 	 -2.99402 	 -20.0184 	 89.0478
| 40> H 	 4.87238 	 -19.998 	 91.9811
| 41> *
| 42>
| 43>                          ****END OF INPUT****

CARTESIAN COORDINATES (ANGSTROEM)
---------------------------------
  S     -0.789489  -20.332800   90.206000
  C     -1.878960  -19.914700   88.932400
  C     -1.205720  -19.437700   87.819400
  C      0.223397  -19.404000   88.053800
  C      0.641592  -19.855300   89.301400
  H      1.008670  -19.112500   87.388200
  C     -1.928900  -18.944800   86.579500
  H     -1.739780  -17.863100   86.347600
  H     -2.973410  -19.053800   86.817000
  C     -1.504750  -19.789800   85.259100
  H     -2.088310  -19.434800   84.411500
  H     -0.479096  -19.641000   84.962200
  C     -1.717100  -21.292100   85.300100
  H     -1.242270  -21.677700   84.382900
  H     -1.176870  -21.707700   86.164200
  H     -2.790060  -21.661200   85.308700
  S      2.414660  -19.816200   91.449500
  C      4.159160  -20.046400   91.164400
  C      4.341030  -20.440100   89.851900
  C      3.170170  -20.439700   89.040100
  C      2.038680  -20.083900   89.731500
  H      5.348310  -20.644800   89.578300
  C      3.225070  -20.954200   87.611500
  H      2.177520  -20.943400   87.286900
  H      3.475910  -22.008900   87.614900
  C      4.099550  -20.143500   86.660900
  H      5.045530  -20.151500   87.240000
  H      3.824320  -19.088000   86.584400
  C      4.219340  -20.787000   85.265300
  H      3.234590  -20.617100   84.792300
  H      4.499480  -21.764100   85.395100
  H      4.963030  -20.152000   84.777300
  H     -2.994020  -20.018400   89.047800
  H      4.872380  -19.998000   91.981100

 Total Charge           Charge          ....    0
 Multiplicity           Mult            ....    1
 Number of Electrons    NEL             ....  134
 Basis Dimension        Dim             ....  322

ORBITAL ENERGIES
----------------

  NO   OCC          E(Eh)            E(eV)
   0   2.0000     -88.965643     -2420.8782
   1   2.0000     -88.962401     -2420.7900
   2   2.0000     -10.333963      -281.2014
   3   2.0000     -10.333439      -281.1872
   4   2.0000     -10.323689      -280.9218
   5   2.0000     -10.319773      -280.8153
   6   2.0000     -10.306174      -280.4452
   7   2.0000     -10.304657      -280.4040
   8   2.0000     -10.301801      -280.3263
   9   2.0000     -10.295965      -280.1674
  10   2.0000     -10.295109      -280.1442
  11   2.0000     -10.289944      -280.0036
  12   2.0000     -10.289016      -279.9783
  13   2.0000     -10.287953      -279.9494
  14   2.0000     -10.280032      -279.7339
  15   2.0000     -10.278276      -279.6861
  16   2.0000      -8.080656      -219.8858
  17   2.0000      -8.076660      -219.7771
  18   2.0000      -6.039213      -164.3353
  19   2.0000      -6.035273      -164.2281
  20   2.0000      -6.035048      -164.2220
  21   2.0000      -6.031411      -164.1230
  22   2.0000      -6.031265      -164.1191
  23   2.0000      -6.027302      -164.0112
  24   2.0000      -1.004468       -27.3330
  25   2.0000      -0.983550       -26.7638
  26   2.0000      -0.912164       -24.8212
  27   2.0000      -0.902775       -24.5658
  28   2.0000      -0.869833       -23.6694
  29   2.0000      -0.853090       -23.2137
  30   2.0000      -0.843757       -22.9598
  31   2.0000      -0.818140       -22.2627
  32   2.0000      -0.782123       -21.2826
  33   2.0000      -0.771007       -20.9802
  34   2.0000      -0.705967       -19.2103
  35   2.0000      -0.698975       -19.0201
  36   2.0000      -0.689848       -18.7717
  37   2.0000      -0.662438       -18.0259
  38   2.0000      -0.642324       -17.4785
  39   2.0000      -0.619262       -16.8510
  40   2.0000      -0.596767       -16.2388
  41   2.0000      -0.574008       -15.6196
  42   2.0000      -0.564656       -15.3651
  43   2.0000      -0.543223       -14.7818
  44   2.0000      -0.540579       -14.7099
  45   2.0000      -0.531705       -14.4684
  46   2.0000      -0.524505       -14.2725
  47   2.0000      -0.515093       -14.0164
  48   2.0000      -0.505572       -13.7573
  49   2.0000      -0.498806       -13.5732
  50   2.0000      -0.490311       -13.3420
  51   2.0000      -0.481116       -13.0918
  52   2.0000      -0.470236       -12.7958
  53   2.0000      -0.468513       -12.7489
  54   2.0000      -0.459685       -12.5087
  55   2.0000      -0.447775       -12.1846
  56   2.0000      -0.443086       -12.0570
  57   2.0000      -0.436173       -11.8689
  58   2.0000      -0.433299       -11.7907
  59   2.0000      -0.426393       -11.6027
  60   2.0000      -0.416432       -11.3317
  61   2.0000      -0.413794       -11.2599
  62   2.0000      -0.409298       -11.1376
  63   2.0000      -0.356193        -9.6925
  64   2.0000      -0.332249        -9.0410
  65   2.0000      -0.327831        -8.9207
  66   2.0000      -0.291347        -7.9280
  67   0.0000       0.024988         0.6800
  68   0.0000       0.076152         2.0722
  69   0.0000       0.109664         2.9841
  70   0.0000       0.116188         3.1616
  71   0.0000       0.120909         3.2901

MULLIKEN ATOMIC CHARGES
-----------------------
   0 S :    0.107361
   1 C :   -0.147009
   2 C :   -0.091540
   3 C :    0.018160
   4 C :   -0.126855
   5 H :    0.000845
   6 C :    0.082873
   7 H :    0.052356
   8 H :    0.013919
   9 C :   -0.086336
  10 H :    0.026352
  11 H :    0.027086
  12 C :   -0.082886
  13 H :    0.033043
  14 H :    0.048832
  15 H :    0.042790
  16 S :    0.077065
  17 C :   -0.098611
  18 C :   -0.024453
  19 C :   -0.035081
  20 C :   -0.137434
  21 H :    0.014781
  22 C :    0.063831
  23 H :    0.005479
  24 H :    0.033279
  25 C :   -0.129013
  26 H :    0.021185
  27 H :    0.032097
  28 C :    0.017014
  29 H :    0.038126
  30 H :    0.021405
  31 H :    0.039450
  32 H :    0.075962
  33 H :    0.065927
Sum of atomic charges:    0.0000000

LOEWDIN ATOMIC CHARGES
----------------------
   0 S :    0.408605
   1 C :   -0.209507
   2 C :   -0.069609
   3 C :   -0.064380
   4 C :   -0.189892
   5 H :    0.025887
   6 C :   -0.027575
   7 H :    0.039639
   8 H :    0.026442
   9 C :   -0.042433
  10 H :    0.023031
  11 H :    0.021138
  12 C :   -0.074373
  13 H :    0.028882
  14 H :    0.026539
  15 H :    0.029294
  16 S :    0.371867
  17 C :   -0.165279
  18 C :   -0.068670
  19 C :   -0.058986
  20 C :   -0.180691
  21 H :    0.027149
  22 C :   -0.034938
  23 H :    0.024076
  24 H :    0.032812
  25 C :   -0.044038
  26 H :    0.021192
  27 H :    0.023316
  28 C :   -0.049487
  29 H :    0.031456
  30 H :    0.013091
  31 H :    0.031965
  32 H :    0.042192
  33 H :    0.031285

  Mayer bond orders larger than 0.100000
B(  0-S ,  1-C ) :   1.1507 B(  0-S ,  4-C ) :   1.1492 B(  1-C ,  2-C ) :   1.5945
B(  1-C , 32-H ) :   0.9584 B(  2-C ,  3-C ) :   1.2271 B(  2-C ,  6-C ) :   1.0327
B(  3-C ,  4-C ) :   1.5781 B(  3-C ,  5-H ) :   0.9990 B(  4-C , 20-C ) :   1.0342
B(  6-C ,  7-H ) :   0.9455 B(  6-C ,  8-H ) :   0.9414 B(  6-C ,  9-C ) :   1.0454
B(  9-C , 10-H ) :   0.9590 B(  9-C , 11-H ) :   0.9613 B(  9-C , 12-C ) :   1.0783
B( 12-C , 13-H ) :   0.9719 B( 12-C , 14-H ) :   0.9727 B( 12-C , 15-H ) :   0.9765
B( 16-S , 17-C ) :   1.1447 B( 16-S , 20-C ) :   1.1269 B( 17-C , 18-C ) :   1.6169
B( 17-C , 33-H ) :   0.9702 B( 18-C , 19-C ) :   1.2119 B( 18-C , 21-H ) :   0.9947
B( 19-C , 20-C ) :   1.6196 B( 19-C , 22-C ) :   1.0326 B( 22-C , 23-H ) :   0.9311
B( 22-C , 24-H ) :   0.9349 B( 22-C , 25-C ) :   1.0499 B( 25-C , 26-H ) :   0.9580
B( 25-C , 27-H ) :   0.9544 B( 25-C , 28-C ) :   1.0768 B( 28-C , 29-H ) :   0.9745
B( 28-C , 30-H ) :   0.9744 B( 28-C , 31-H ) :   0.9740

Dispersion correction           -0.014379767
FINAL SINGLE POINT ENERGY     -1339.886279423288

DIPOLE MOMENT
-------------
                                X             Y             Z
Electronic contribution:     -1.77467       3.20648      31.32761
Nuclear contribution   :      2.00697      -3.25752     -32.01617
                        -----------------------------------------
Total Dipole Moment    :      0.23230      -0.05104      -0.68856
                        -----------------------------------------
Magnitude (a.u.)       :      0.72848
Magnitude (Debye)      :      1.85164

Rotational constants in cm-1:     0.016597     0.010130     0.006679
Rotational constants in MHz :   497.556067   303.698378   200.232617

                             ****ORCA TERMINATED NORMALLY****
TOTAL RUN TIME: 0 days 0 hours 0 minutes 34 seconds 343 msec
