                         Program Version 4.2.1 -  RELEASE  -
|  1> ! wB97X-D3 SP def2-SVP
|  2> %pal
|  3> nprocs 16
|  4> end
|  5>
|  6> * xyz 0 1
|  7> S 	 40.5117 	 13.9675 	 84.908
|  8> C 	 41.4102 	 15.3229 	 85.4714
|  9> C 	 42.5952 	 14.903 	 86.0856
| 10> C 	 42.73 	 13.4573 	 86.0843
| 11> C 	 41.6313 	 12.7857 	 85.62
| 12> H 	 43.6111 	 12.9832 	 86.4519
| 13> C 	 43.6617 	 15.7398 	 86.738
| 14> H 	 43.9055 	 15.3071 	 87.695
| 15> H 	 43.2957 	 16.6753 	 87.0809
| 16> C 	 44.8375 	 15.973 	 85.8061
| 17> H 	 45.5059 	 16.5785 	 86.3244
| 18> H 	 45.3172 	 15.0437 	 85.5606
| 19> C 	 44.4761 	 16.7863 	 84.5837
| 20> H 	 45.3523 	 17.2977 	 84.287
| 21> H 	 44.1886 	 16.0378 	 83.8583
| 22> H 	 43.7444 	 17.6037 	 84.8055
| 23> S 	 41.7168 	 10.7743 	 83.7596
| 24> C 	 41.6754 	 9.0997 	 84.1975
| 25> C 	 41.499 	 9.02167 	 85.5776
| 26> C 	 41.4224 	 10.2994 	 86.3037
| 27> C 	 41.4943 	 11.3558 	 85.4308
| 28> H 	 41.5272 	 8.0056 	 86.072
| 29> C 	 41.294 	 10.2732 	 87.7984
| 30> H 	 40.3083 	 9.89756 	 88.0861
| 31> H 	 41.2414 	 11.2804 	 88.1483
| 32> C 	 42.2965 	 9.42653 	 88.5909
| 33> H 	 43.3268 	 9.53764 	 88.2966
| 34> H 	 42.1392 	 8.35788 	 88.5955
| 35> C 	 42.4423 	 9.87303 	 90.0233
| 36> H 	 43.0546 	 9.07863 	 90.3852
| 37> H 	 41.4945 	 9.96282 	 90.5693
| 38> H 	 43.0985 	 10.7608 	 90.1588
| 39> H 	 41.0351 	 16.309 	 85.4064
| 40> H 	 41.4745 	 8.34658 	 83.4686
| 41> *
| 42>
| 43>                          ****END OF INPUT****

CARTESIAN COORDINATES (ANGSTROEM)
---------------------------------
  S     40.511700   13.967500   84.908000
  C     41.410200   15.322900   85.471400
  C     42.595200   14.903000   86.085600
  C     42.730000   13.457300   86.084300
  C     41.631300   12.785700   85.620000
  H     43.611100   12.983200   86.451900
  C     43.661700   15.739800   86.738000
  H     43.905500   15.307100   87.695000
  H     43.295700   16.675300   87.080900
  C     44.837500   15.973000   85.806100
  H     45.505900   16.578500   86.324400
  H     45.317200   15.043700   85.560600
  C     44.476100   16.786300   84.583700
  H     45.352300   17.297700   84.287000
  H     44.188600   16.037800   83.858300
  H     43.744400   17.603700   84.805500
  S     41.716800   10.774300   83.759600
  C     41.675400    9.099700   84.197500
  C     41.499000    9.021670   85.577600
  C     41.422400   10.299400   86.303700
  C     41.494300   11.355800   85.430800
  H     41.527200    8.005600   86.072000
  C     41.294000   10.273200   87.798400
  H     40.308300    9.897560   88.086100
  H     41.241400   11.280400   88.148300
  C     42.296500    9.426530   88.590900
  H     43.326800    9.537640   88.296600
  H     42.139200    8.357880   88.595500
  C     42.442300    9.873030   90.023300
  H     43.054600    9.078630   90.385200
  H     41.494500    9.962820   90.569300
  H     43.098500   10.760800   90.158800
  H     41.035100   16.309000   85.406400
  H     41.474500    8.346580   83.468600

 Total Charge           Charge          ....    0
 Multiplicity           Mult            ....    1
 Number of Electrons    NEL             ....  134
 Basis Dimension        Dim             ....  322

ORBITAL ENERGIES
----------------

  NO   OCC          E(Eh)            E(eV)
   0   2.0000     -88.962200     -2420.7845
   1   2.0000     -88.957306     -2420.6514
   2   2.0000     -10.328110      -281.0422
   3   2.0000     -10.327194      -281.0172
   4   2.0000     -10.315800      -280.7072
   5   2.0000     -10.313257      -280.6380
   6   2.0000     -10.306805      -280.4624
   7   2.0000     -10.300869      -280.3009
   8   2.0000     -10.299824      -280.2725
   9   2.0000     -10.293370      -280.0968
  10   2.0000     -10.289422      -279.9894
  11   2.0000     -10.283805      -279.8366
  12   2.0000     -10.283375      -279.8249
  13   2.0000     -10.276319      -279.6328
  14   2.0000     -10.274630      -279.5869
  15   2.0000     -10.271018      -279.4886
  16   2.0000      -8.077211      -219.7921
  17   2.0000      -8.072382      -219.6607
  18   2.0000      -6.035789      -164.2422
  19   2.0000      -6.031569      -164.1273
  20   2.0000      -6.031039      -164.1129
  21   2.0000      -6.027991      -164.0300
  22   2.0000      -6.026736      -163.9958
  23   2.0000      -6.023050      -163.8955
  24   2.0000      -1.002998       -27.2930
  25   2.0000      -0.980499       -26.6807
  26   2.0000      -0.918412       -24.9913
  27   2.0000      -0.914685       -24.8898
  28   2.0000      -0.871545       -23.7160
  29   2.0000      -0.853507       -23.2251
  30   2.0000      -0.847376       -23.0583
  31   2.0000      -0.810432       -22.0530
  32   2.0000      -0.782915       -21.3042
  33   2.0000      -0.775326       -21.0977
  34   2.0000      -0.704410       -19.1680
  35   2.0000      -0.698811       -19.0156
  36   2.0000      -0.693729       -18.8773
  37   2.0000      -0.655636       -17.8408
  38   2.0000      -0.647049       -17.6071
  39   2.0000      -0.625539       -17.0218
  40   2.0000      -0.601525       -16.3683
  41   2.0000      -0.572581       -15.5807
  42   2.0000      -0.568880       -15.4800
  43   2.0000      -0.552135       -15.0244
  44   2.0000      -0.546031       -14.8583
  45   2.0000      -0.537559       -14.6277
  46   2.0000      -0.518858       -14.1188
  47   2.0000      -0.514177       -13.9915
  48   2.0000      -0.509809       -13.8726
  49   2.0000      -0.493637       -13.4325
  50   2.0000      -0.488034       -13.2801
  51   2.0000      -0.484204       -13.1758
  52   2.0000      -0.471565       -12.8319
  53   2.0000      -0.463042       -12.6000
  54   2.0000      -0.460467       -12.5299
  55   2.0000      -0.440722       -11.9926
  56   2.0000      -0.439475       -11.9587
  57   2.0000      -0.434175       -11.8145
  58   2.0000      -0.432774       -11.7764
  59   2.0000      -0.428876       -11.6703
  60   2.0000      -0.420241       -11.4353
  61   2.0000      -0.409857       -11.1528
  62   2.0000      -0.407891       -11.0993
  63   2.0000      -0.339896        -9.2490
  64   2.0000      -0.325519        -8.8578
  65   2.0000      -0.319487        -8.6937
  66   2.0000      -0.305074        -8.3015
  67   0.0000       0.039025         1.0619
  68   0.0000       0.061125         1.6633
  69   0.0000       0.117600         3.2001
  70   0.0000       0.124636         3.3915
  71   0.0000       0.127616         3.4726

MULLIKEN ATOMIC CHARGES
-----------------------
   0 S :    0.102071
   1 C :   -0.099241
   2 C :   -0.116047
   3 C :    0.057244
   4 C :   -0.165683
   5 H :    0.005511
   6 C :    0.088192
   7 H :    0.017546
   8 H :   -0.003029
   9 C :   -0.045320
  10 H :    0.006993
  11 H :    0.025592
  12 C :   -0.034923
  13 H :    0.020652
  14 H :    0.049637
  15 H :    0.030316
  16 S :    0.087233
  17 C :   -0.086756
  18 C :   -0.069630
  19 C :   -0.018548
  20 C :   -0.159744
  21 H :    0.041957
  22 C :    0.119473
  23 H :    0.030487
  24 H :    0.010188
  25 C :   -0.088812
  26 H :    0.020952
  27 H :    0.029708
  28 C :   -0.057024
  29 H :    0.018543
  30 H :    0.037582
  31 H :    0.038879
  32 H :    0.039635
  33 H :    0.066366
Sum of atomic charges:    0.0000000

LOEWDIN ATOMIC CHARGES
----------------------
   0 S :    0.404783
   1 C :   -0.194118
   2 C :   -0.061883
   3 C :   -0.047401
   4 C :   -0.197146
   5 H :    0.027703
   6 C :   -0.031675
   7 H :    0.028871
   8 H :    0.022290
   9 C :   -0.031941
  10 H :    0.013826
  11 H :    0.021472
  12 C :   -0.058834
  13 H :    0.020717
  14 H :    0.030676
  15 H :    0.029364
  16 S :    0.392652
  17 C :   -0.191242
  18 C :   -0.076938
  19 C :   -0.051474
  20 C :   -0.191845
  21 H :    0.036858
  22 C :   -0.032619
  23 H :    0.039342
  24 H :    0.028638
  25 C :   -0.042109
  26 H :    0.026221
  27 H :    0.021784
  28 C :   -0.062690
  29 H :    0.025494
  30 H :    0.022276
  31 H :    0.028338
  32 H :    0.021663
  33 H :    0.028945

  Mayer bond orders larger than 0.100000
B(  0-S ,  1-C ) :   1.1520 B(  0-S ,  4-C ) :   1.1406 B(  1-C ,  2-C ) :   1.5906
B(  1-C , 32-H ) :   0.9778 B(  2-C ,  3-C ) :   1.2404 B(  2-C ,  6-C ) :   1.0281
B(  3-C ,  4-C ) :   1.5842 B(  3-C ,  5-H ) :   0.9981 B(  4-C , 20-C ) :   1.0127
B(  6-C ,  7-H ) :   0.9392 B(  6-C ,  8-H ) :   0.9357 B(  6-C ,  9-C ) :   1.0805
B(  9-C , 10-H ) :   0.9547 B(  9-C , 11-H ) :   0.9585 B(  9-C , 12-C ) :   1.0735
B( 12-C , 13-H ) :   0.9746 B( 12-C , 14-H ) :   0.9761 B( 12-C , 15-H ) :   0.9734
B( 16-S , 17-C ) :   1.1534 B( 16-S , 20-C ) :   1.1335 B( 17-C , 18-C ) :   1.6208
B( 17-C , 33-H ) :   0.9685 B( 18-C , 19-C ) :   1.2101 B( 18-C , 21-H ) :   0.9774
B( 19-C , 20-C ) :   1.6296 B( 19-C , 22-C ) :   1.0630 B( 22-C , 23-H ) :   0.9199
B( 22-C , 24-H ) :   0.9331 B( 22-C , 25-C ) :   1.0515 B( 25-C , 26-H ) :   0.9596
B( 25-C , 27-H ) :   0.9558 B( 25-C , 28-C ) :   1.0863 B( 28-C , 29-H ) :   0.9740
B( 28-C , 30-H ) :   0.9730 B( 28-C , 31-H ) :   0.9771

Dispersion correction           -0.013962258
FINAL SINGLE POINT ENERGY     -1339.868682614843

DIPOLE MOMENT
-------------
                                X             Y             Z
Electronic contribution:    -14.35705      -4.64828     -18.20535
Nuclear contribution   :     14.79382       4.65220      18.81168
                        -----------------------------------------
Total Dipole Moment    :      0.43677       0.00392       0.60633
                        -----------------------------------------
Magnitude (a.u.)       :      0.74727
Magnitude (Debye)      :      1.89942

Rotational constants in cm-1:     0.018364     0.008280     0.006745
Rotational constants in MHz :   550.552007   248.213608   202.211929

                             ****ORCA TERMINATED NORMALLY****
TOTAL RUN TIME: 0 days 0 hours 0 minutes 29 seconds 750 msec
