                         Program Version 4.2.1 -  RELEASE  -
|  1> ! wB97X-D3 SP def2-SVP
|  2> %pal
|  3> nprocs 16
|  4> end
|  5>
|  6> * xyz 0 1
|  7> S 	 -3.10146 	 77.3813 	 54.4521
|  8> C 	 -1.47791 	 78.101 	 54.8098
|  9> C 	 -0.553048 	 77.7116 	 53.8626
| 10> C 	 -1.13539 	 76.8877 	 52.8851
| 11> C 	 -2.50323 	 76.6493 	 52.996
| 12> H 	 -0.569207 	 76.4048 	 52.0701
| 13> C 	 0.890468 	 78.1269 	 53.9707
| 14> H 	 1.58529 	 77.2287 	 54.023
| 15> H 	 0.973175 	 78.7076 	 54.8967
| 16> C 	 1.44963 	 78.8864 	 52.676
| 17> H 	 2.42397 	 79.4302 	 52.8137
| 18> H 	 1.69191 	 78.203 	 51.84
| 19> C 	 0.468578 	 80.0369 	 52.2966
| 20> H 	 -0.519317 	 79.749 	 52.1274
| 21> H 	 0.412526 	 80.9211 	 52.9392
| 22> H 	 0.75747 	 80.4516 	 51.3136
| 23> S 	 -3.29771 	 74.1684 	 52.1809
| 24> C 	 -4.53293 	 73.9996 	 50.9806
| 25> C 	 -5.02453 	 75.2027 	 50.5972
| 26> C 	 -4.39023 	 76.3498 	 51.2033
| 27> C 	 -3.39118 	 75.9376 	 52.0422
| 28> H 	 -5.87646 	 75.1381 	 49.9016
| 29> C 	 -4.78812 	 77.6719 	 50.81
| 30> H 	 -4.39658 	 78.3262 	 51.5676
| 31> H 	 -5.85317 	 77.736 	 51.0246
| 32> C 	 -4.39869 	 78.0604 	 49.3799
| 33> H 	 -4.99145 	 78.9373 	 49.0698
| 34> H 	 -4.72804 	 77.3312 	 48.6859
| 35> C 	 -2.97321 	 78.3908 	 49.1692
| 36> H 	 -2.32126 	 77.5205 	 49.3864
| 37> H 	 -2.60186 	 79.2151 	 49.7435
| 38> H 	 -2.85732 	 78.6367 	 48.117
| 39> H 	 -1.24615 	 78.6229 	 55.6776
| 40> H 	 -4.85508 	 73.0084 	 50.7702
| 41> *
| 42>
| 43>                          ****END OF INPUT****

CARTESIAN COORDINATES (ANGSTROEM)
---------------------------------
  S     -3.101460   77.381300   54.452100
  C     -1.477910   78.101000   54.809800
  C     -0.553048   77.711600   53.862600
  C     -1.135390   76.887700   52.885100
  C     -2.503230   76.649300   52.996000
  H     -0.569207   76.404800   52.070100
  C      0.890468   78.126900   53.970700
  H      1.585290   77.228700   54.023000
  H      0.973175   78.707600   54.896700
  C      1.449630   78.886400   52.676000
  H      2.423970   79.430200   52.813700
  H      1.691910   78.203000   51.840000
  C      0.468578   80.036900   52.296600
  H     -0.519317   79.749000   52.127400
  H      0.412526   80.921100   52.939200
  H      0.757470   80.451600   51.313600
  S     -3.297710   74.168400   52.180900
  C     -4.532930   73.999600   50.980600
  C     -5.024530   75.202700   50.597200
  C     -4.390230   76.349800   51.203300
  C     -3.391180   75.937600   52.042200
  H     -5.876460   75.138100   49.901600
  C     -4.788120   77.671900   50.810000
  H     -4.396580   78.326200   51.567600
  H     -5.853170   77.736000   51.024600
  C     -4.398690   78.060400   49.379900
  H     -4.991450   78.937300   49.069800
  H     -4.728040   77.331200   48.685900
  C     -2.973210   78.390800   49.169200
  H     -2.321260   77.520500   49.386400
  H     -2.601860   79.215100   49.743500
  H     -2.857320   78.636700   48.117000
  H     -1.246150   78.622900   55.677600
  H     -4.855080   73.008400   50.770200

 Total Charge           Charge          ....    0
 Multiplicity           Mult            ....    1
 Number of Electrons    NEL             ....  134
 Basis Dimension        Dim             ....  322

ORBITAL ENERGIES
----------------

  NO   OCC          E(Eh)            E(eV)
   0   2.0000     -88.966190     -2420.8931
   1   2.0000     -88.957848     -2420.6661
   2   2.0000     -10.331118      -281.1240
   3   2.0000     -10.326819      -281.0070
   4   2.0000     -10.313283      -280.6387
   5   2.0000     -10.311368      -280.5866
   6   2.0000     -10.303274      -280.3663
   7   2.0000     -10.300852      -280.3004
   8   2.0000     -10.300202      -280.2828
   9   2.0000     -10.299723      -280.2697
  10   2.0000     -10.293869      -280.1104
  11   2.0000     -10.291697      -280.0513
  12   2.0000     -10.281958      -279.7863
  13   2.0000     -10.281168      -279.7648
  14   2.0000     -10.269907      -279.4584
  15   2.0000     -10.269836      -279.4564
  16   2.0000      -8.080008      -219.8682
  17   2.0000      -8.073299      -219.6856
  18   2.0000      -6.038502      -164.3160
  19   2.0000      -6.034564      -164.2088
  20   2.0000      -6.031730      -164.1317
  21   2.0000      -6.030910      -164.1094
  22   2.0000      -6.027774      -164.0241
  23   2.0000      -6.024040      -163.9225
  24   2.0000      -1.005525       -27.3617
  25   2.0000      -0.984406       -26.7871
  26   2.0000      -0.920133       -25.0381
  27   2.0000      -0.904327       -24.6080
  28   2.0000      -0.864100       -23.5134
  29   2.0000      -0.856468       -23.3057
  30   2.0000      -0.839485       -22.8436
  31   2.0000      -0.813539       -22.1375
  32   2.0000      -0.786343       -21.3975
  33   2.0000      -0.774035       -21.0626
  34   2.0000      -0.710627       -19.3371
  35   2.0000      -0.703722       -19.1492
  36   2.0000      -0.693854       -18.8807
  37   2.0000      -0.661529       -18.0011
  38   2.0000      -0.636414       -17.3177
  39   2.0000      -0.619194       -16.8491
  40   2.0000      -0.601557       -16.3692
  41   2.0000      -0.564558       -15.3624
  42   2.0000      -0.557778       -15.1779
  43   2.0000      -0.544725       -14.8227
  44   2.0000      -0.539586       -14.6829
  45   2.0000      -0.536332       -14.5943
  46   2.0000      -0.528730       -14.3875
  47   2.0000      -0.513546       -13.9743
  48   2.0000      -0.499898       -13.6029
  49   2.0000      -0.494815       -13.4646
  50   2.0000      -0.486912       -13.2495
  51   2.0000      -0.476627       -12.9697
  52   2.0000      -0.472442       -12.8558
  53   2.0000      -0.465824       -12.6757
  54   2.0000      -0.456860       -12.4318
  55   2.0000      -0.444108       -12.0848
  56   2.0000      -0.438853       -11.9418
  57   2.0000      -0.434591       -11.8258
  58   2.0000      -0.429688       -11.6924
  59   2.0000      -0.427655       -11.6371
  60   2.0000      -0.420846       -11.4518
  61   2.0000      -0.414032       -11.2664
  62   2.0000      -0.411827       -11.2064
  63   2.0000      -0.333596        -9.0776
  64   2.0000      -0.330453        -8.9921
  65   2.0000      -0.325452        -8.8560
  66   2.0000      -0.307181        -8.3588
  67   0.0000       0.042838         1.1657
  68   0.0000       0.061253         1.6668
  69   0.0000       0.112645         3.0652
  70   0.0000       0.119508         3.2520
  71   0.0000       0.122458         3.3322

MULLIKEN ATOMIC CHARGES
-----------------------
   0 S :    0.109655
   1 C :   -0.117489
   2 C :   -0.078280
   3 C :    0.036679
   4 C :   -0.164249
   5 H :    0.016854
   6 C :    0.076574
   7 H :    0.050540
   8 H :    0.023666
   9 C :   -0.104638
  10 H :    0.041768
  11 H :    0.043053
  12 C :   -0.053103
  13 H :    0.029859
  14 H :    0.032044
  15 H :    0.018308
  16 S :    0.089634
  17 C :   -0.081378
  18 C :   -0.049677
  19 C :   -0.025392
  20 C :   -0.190383
  21 H :    0.027113
  22 C :    0.113874
  23 H :    0.003149
  24 H :    0.025008
  25 C :   -0.045439
  26 H :    0.021736
  27 H :    0.015046
  28 C :   -0.028793
  29 H :    0.036292
  30 H :    0.028844
  31 H :    0.027240
  32 H :    0.023811
  33 H :    0.048069
Sum of atomic charges:    0.0000000

LOEWDIN ATOMIC CHARGES
----------------------
   0 S :    0.390800
   1 C :   -0.168223
   2 C :   -0.066064
   3 C :   -0.066622
   4 C :   -0.202811
   5 H :    0.034288
   6 C :   -0.030148
   7 H :    0.040589
   8 H :    0.031067
   9 C :   -0.045273
  10 H :    0.032685
  11 H :    0.027196
  12 C :   -0.072349
  13 H :    0.014406
  14 H :    0.026867
  15 H :    0.026425
  16 S :    0.392300
  17 C :   -0.175789
  18 C :   -0.075903
  19 C :   -0.052862
  20 C :   -0.192676
  21 H :    0.036035
  22 C :   -0.036167
  23 H :    0.027944
  24 H :    0.038643
  25 C :   -0.035549
  26 H :    0.027842
  27 H :    0.019851
  28 C :   -0.060512
  29 H :    0.028923
  30 H :    0.022329
  31 H :    0.028431
  32 H :    0.013132
  33 H :    0.021196

  Mayer bond orders larger than 0.100000
B(  0-S ,  1-C ) :   1.1339 B(  0-S ,  4-C ) :   1.1544 B(  1-C ,  2-C ) :   1.5965
B(  1-C ,  4-C ) :   0.1015 B(  1-C , 32-H ) :   0.9739 B(  2-C ,  3-C ) :   1.2439
B(  2-C ,  6-C ) :   1.0321 B(  3-C ,  4-C ) :   1.5810 B(  3-C ,  5-H ) :   0.9898
B(  4-C , 20-C ) :   0.9935 B(  6-C ,  7-H ) :   0.9421 B(  6-C ,  8-H ) :   0.9428
B(  6-C ,  9-C ) :   1.0462 B(  9-C , 10-H ) :   0.9615 B(  9-C , 11-H ) :   0.9590
B(  9-C , 12-C ) :   1.0659 B( 12-C , 13-H ) :   0.9743 B( 12-C , 14-H ) :   0.9776
B( 12-C , 15-H ) :   0.9726 B( 16-S , 17-C ) :   1.1494 B( 16-S , 20-C ) :   1.1428
B( 17-C , 18-C ) :   1.6372 B( 17-C , 33-H ) :   0.9730 B( 18-C , 19-C ) :   1.1763
B( 18-C , 21-H ) :   0.9894 B( 19-C , 20-C ) :   1.6275 B( 19-C , 22-C ) :   1.0702
B( 22-C , 23-H ) :   0.9158 B( 22-C , 24-H ) :   0.9141 B( 22-C , 25-C ) :   1.0678
B( 25-C , 26-H ) :   0.9477 B( 25-C , 27-H ) :   0.9543 B( 25-C , 28-C ) :   1.0914
B( 28-C , 29-H ) :   0.9729 B( 28-C , 30-H ) :   0.9726 B( 28-C , 31-H ) :   0.9666

Dispersion correction           -0.015577070
FINAL SINGLE POINT ENERGY     -1339.880750180104

DIPOLE MOMENT
-------------
                                X             Y             Z
Electronic contribution:    -11.29429     -18.88400      13.84811
Nuclear contribution   :     11.39394      19.14436     -14.22258
                        -----------------------------------------
Total Dipole Moment    :      0.09965       0.26035      -0.37447
                        -----------------------------------------
Magnitude (a.u.)       :      0.46684
Magnitude (Debye)      :      1.18662

Rotational constants in cm-1:     0.019383     0.009351     0.007753
Rotational constants in MHz :   581.088950   280.334410   232.414862

                             ****ORCA TERMINATED NORMALLY****
TOTAL RUN TIME: 0 days 0 hours 0 minutes 35 seconds 295 msec
