                         Program Version 4.2.1 -  RELEASE  -
|  1> ! wB97X-D3 SP def2-SVP
|  2> %pal
|  3> nprocs 16
|  4> end
|  5>
|  6> * xyz 0 1
|  7> S 	 -56.7313 	 43.3097 	 133.197
|  8> C 	 -55.7903 	 41.9252 	 133.775
|  9> C 	 -55.9238 	 41.7958 	 135.143
| 10> C 	 -56.9091 	 42.643 	 135.717
| 11> C 	 -57.4597 	 43.5099 	 134.81
| 12> H 	 -57.1996 	 42.601 	 136.758
| 13> C 	 -55.2418 	 40.6276 	 135.888
| 14> H 	 -54.6006 	 40.1074 	 135.177
| 15> H 	 -55.989 	 39.9144 	 136.235
| 16> C 	 -54.4583 	 41.0686 	 137.206
| 17> H 	 -53.7148 	 41.8689 	 136.997
| 18> H 	 -55.0819 	 41.5108 	 137.927
| 19> C 	 -53.7825 	 39.8969 	 137.898
| 20> H 	 -53.3103 	 39.2129 	 137.171
| 21> H 	 -52.9859 	 40.1541 	 138.551
| 22> H 	 -54.5135 	 39.2632 	 138.377
| 23> S 	 -57.8329 	 46.1482 	 135.153
| 24> C 	 -59.4035 	 46.8019 	 135.626
| 25> C 	 -60.3706 	 45.8435 	 135.526
| 26> C 	 -59.8291 	 44.5631 	 135.277
| 27> C 	 -58.4357 	 44.5609 	 135.11
| 28> H 	 -61.4134 	 46.0728 	 135.585
| 29> C 	 -60.8001 	 43.3898 	 135.063
| 30> H 	 -61.163 	 43.2223 	 136.063
| 31> H 	 -60.1446 	 42.5518 	 134.934
| 32> C 	 -61.9116 	 43.3832 	 133.905
| 33> H 	 -61.5177 	 43.4837 	 132.909
| 34> H 	 -62.4613 	 44.3523 	 134.082
| 35> C 	 -62.8803 	 42.2497 	 133.991
| 36> H 	 -63.6008 	 42.415 	 133.223
| 37> H 	 -63.4217 	 42.184 	 134.942
| 38> H 	 -62.6057 	 41.1738 	 133.886
| 39> H 	 -55.0216 	 41.3211 	 133.261
| 40> H 	 -59.7323 	 47.8544 	 135.549
| 41> *
| 42>
| 43>                          ****END OF INPUT****

CARTESIAN COORDINATES (ANGSTROEM)
---------------------------------
  S    -56.731300   43.309700  133.197000
  C    -55.790300   41.925200  133.775000
  C    -55.923800   41.795800  135.143000
  C    -56.909100   42.643000  135.717000
  C    -57.459700   43.509900  134.810000
  H    -57.199600   42.601000  136.758000
  C    -55.241800   40.627600  135.888000
  H    -54.600600   40.107400  135.177000
  H    -55.989000   39.914400  136.235000
  C    -54.458300   41.068600  137.206000
  H    -53.714800   41.868900  136.997000
  H    -55.081900   41.510800  137.927000
  C    -53.782500   39.896900  137.898000
  H    -53.310300   39.212900  137.171000
  H    -52.985900   40.154100  138.551000
  H    -54.513500   39.263200  138.377000
  S    -57.832900   46.148200  135.153000
  C    -59.403500   46.801900  135.626000
  C    -60.370600   45.843500  135.526000
  C    -59.829100   44.563100  135.277000
  C    -58.435700   44.560900  135.110000
  H    -61.413400   46.072800  135.585000
  C    -60.800100   43.389800  135.063000
  H    -61.163000   43.222300  136.063000
  H    -60.144600   42.551800  134.934000
  C    -61.911600   43.383200  133.905000
  H    -61.517700   43.483700  132.909000
  H    -62.461300   44.352300  134.082000
  C    -62.880300   42.249700  133.991000
  H    -63.600800   42.415000  133.223000
  H    -63.421700   42.184000  134.942000
  H    -62.605700   41.173800  133.886000
  H    -55.021600   41.321100  133.261000
  H    -59.732300   47.854400  135.549000

 Total Charge           Charge          ....    0
 Multiplicity           Mult            ....    1
 Number of Electrons    NEL             ....  134
 Basis Dimension        Dim             ....  322

ORBITAL ENERGIES
----------------

  NO   OCC          E(Eh)            E(eV)
   0   2.0000     -88.968468     -2420.9551
   1   2.0000     -88.964537     -2420.8481
   2   2.0000     -10.331931      -281.1461
   3   2.0000     -10.323573      -280.9187
   4   2.0000     -10.316904      -280.7372
   5   2.0000     -10.314094      -280.6608
   6   2.0000     -10.301160      -280.3088
   7   2.0000     -10.299525      -280.2643
   8   2.0000     -10.298613      -280.2395
   9   2.0000     -10.296662      -280.1864
  10   2.0000     -10.294203      -280.1195
  11   2.0000     -10.287382      -279.9339
  12   2.0000     -10.287131      -279.9271
  13   2.0000     -10.286699      -279.9153
  14   2.0000     -10.277561      -279.6666
  15   2.0000     -10.273862      -279.5660
  16   2.0000      -8.082170      -219.9270
  17   2.0000      -8.079927      -219.8660
  18   2.0000      -6.040796      -164.3784
  19   2.0000      -6.038442      -164.3144
  20   2.0000      -6.036866      -164.2715
  21   2.0000      -6.034297      -164.2016
  22   2.0000      -6.032805      -164.1610
  23   2.0000      -6.030666      -164.1028
  24   2.0000      -1.007934       -27.4273
  25   2.0000      -0.983907       -26.7735
  26   2.0000      -0.904113       -24.6022
  27   2.0000      -0.900130       -24.4938
  28   2.0000      -0.872163       -23.7328
  29   2.0000      -0.852933       -23.2095
  30   2.0000      -0.847351       -23.0576
  31   2.0000      -0.819893       -22.3104
  32   2.0000      -0.778367       -21.1805
  33   2.0000      -0.765780       -20.8379
  34   2.0000      -0.711771       -19.3683
  35   2.0000      -0.702926       -19.1276
  36   2.0000      -0.693672       -18.8758
  37   2.0000      -0.660114       -17.9626
  38   2.0000      -0.638086       -17.3632
  39   2.0000      -0.621018       -16.8988
  40   2.0000      -0.587866       -15.9966
  41   2.0000      -0.570440       -15.5225
  42   2.0000      -0.558028       -15.1847
  43   2.0000      -0.551977       -15.0201
  44   2.0000      -0.530194       -14.4273
  45   2.0000      -0.524597       -14.2750
  46   2.0000      -0.510888       -13.9020
  47   2.0000      -0.507010       -13.7965
  48   2.0000      -0.504213       -13.7203
  49   2.0000      -0.503413       -13.6986
  50   2.0000      -0.497212       -13.5298
  51   2.0000      -0.478565       -13.0224
  52   2.0000      -0.468891       -12.7592
  53   2.0000      -0.463999       -12.6261
  54   2.0000      -0.459470       -12.5028
  55   2.0000      -0.452498       -12.3131
  56   2.0000      -0.445555       -12.1242
  57   2.0000      -0.437437       -11.9033
  58   2.0000      -0.434541       -11.8245
  59   2.0000      -0.423090       -11.5129
  60   2.0000      -0.421826       -11.4785
  61   2.0000      -0.416736       -11.3400
  62   2.0000      -0.404283       -11.0011
  63   2.0000      -0.341928        -9.3043
  64   2.0000      -0.330929        -9.0050
  65   2.0000      -0.321934        -8.7603
  66   2.0000      -0.304997        -8.2994
  67   0.0000       0.041006         1.1158
  68   0.0000       0.054789         1.4909
  69   0.0000       0.112442         3.0597
  70   0.0000       0.120896         3.2897
  71   0.0000       0.130020         3.5380

MULLIKEN ATOMIC CHARGES
-----------------------
   0 S :    0.113893
   1 C :   -0.124746
   2 C :   -0.081065
   3 C :    0.057842
   4 C :   -0.160689
   5 H :    0.016860
   6 C :    0.052715
   7 H :    0.015286
   8 H :    0.038146
   9 C :   -0.084984
  10 H :    0.034248
  11 H :    0.021611
  12 C :   -0.033245
  13 H :    0.016878
  14 H :    0.032925
  15 H :    0.025010
  16 S :    0.115772
  17 C :   -0.088215
  18 C :   -0.050480
  19 C :   -0.048394
  20 C :   -0.185534
  21 H :    0.016439
  22 C :    0.090553
  23 H :    0.020642
  24 H :    0.007458
  25 C :   -0.042633
  26 H :    0.038570
  27 H :    0.026763
  28 C :   -0.053211
  29 H :    0.027085
  30 H :    0.023871
  31 H :    0.036670
  32 H :    0.057006
  33 H :    0.066951
Sum of atomic charges:   -0.0000000

LOEWDIN ATOMIC CHARGES
----------------------
   0 S :    0.385683
   1 C :   -0.197967
   2 C :   -0.066262
   3 C :   -0.054020
   4 C :   -0.187012
   5 H :    0.034917
   6 C :   -0.022573
   7 H :    0.025995
   8 H :    0.031664
   9 C :   -0.040878
  10 H :    0.027758
  11 H :    0.015811
  12 C :   -0.066031
  13 H :    0.024900
  14 H :    0.023823
  15 H :    0.023024
  16 S :    0.430814
  17 C :   -0.194981
  18 C :   -0.068135
  19 C :   -0.058956
  20 C :   -0.222944
  21 H :    0.029364
  22 C :   -0.035857
  23 H :    0.030255
  24 H :    0.023865
  25 C :   -0.032112
  26 H :    0.027166
  27 H :    0.029177
  28 C :   -0.074315
  29 H :    0.026141
  30 H :    0.026450
  31 H :    0.030817
  32 H :    0.036967
  33 H :    0.037452

  Mayer bond orders larger than 0.100000
B(  0-S ,  1-C ) :   1.1224 B(  0-S ,  4-C ) :   1.1374 B(  1-C ,  2-C ) :   1.6398
B(  1-C , 32-H ) :   0.9582 B(  2-C ,  3-C ) :   1.2238 B(  2-C ,  6-C ) :   1.0299
B(  3-C ,  4-C ) :   1.6024 B(  3-C ,  5-H ) :   0.9954 B(  4-C , 20-C ) :   1.0067
B(  6-C ,  7-H ) :   0.9455 B(  6-C ,  8-H ) :   0.9465 B(  6-C ,  9-C ) :   1.0443
B(  9-C , 10-H ) :   0.9604 B(  9-C , 11-H ) :   0.9576 B(  9-C , 12-C ) :   1.0862
B( 12-C , 13-H ) :   0.9736 B( 12-C , 14-H ) :   0.9744 B( 12-C , 15-H ) :   0.9739
B( 16-S , 17-C ) :   1.1568 B( 16-S , 20-C ) :   1.1722 B( 17-C , 18-C ) :   1.6035
B( 17-C , 20-C ) :   0.1015 B( 17-C , 33-H ) :   0.9568 B( 18-C , 19-C ) :   1.2701
B( 18-C , 21-H ) :   0.9917 B( 19-C , 20-C ) :   1.5745 B( 19-C , 22-C ) :   1.0340
B( 22-C , 23-H ) :   0.9350 B( 22-C , 24-H ) :   0.9295 B( 22-C , 25-C ) :   1.0425
B( 25-C , 26-H ) :   0.9590 B( 25-C , 27-H ) :   0.9523 B( 25-C , 28-C ) :   1.0847
B( 28-C , 29-H ) :   0.9711 B( 28-C , 30-H ) :   0.9724 B( 28-C , 31-H ) :   0.9754

Dispersion correction           -0.013299901
FINAL SINGLE POINT ENERGY     -1339.868044479063

DIPOLE MOMENT
-------------
                                X             Y             Z
Electronic contribution:      5.77266      20.17317      -9.54916
Nuclear contribution   :     -6.06693     -20.58639       9.73985
                        -----------------------------------------
Total Dipole Moment    :     -0.29427      -0.41321       0.19070
                        -----------------------------------------
Magnitude (a.u.)       :      0.54194
Magnitude (Debye)      :      1.37751

Rotational constants in cm-1:     0.018483     0.007125     0.006340
Rotational constants in MHz :   554.099391   213.616623   190.071446

                             ****ORCA TERMINATED NORMALLY****
TOTAL RUN TIME: 0 days 0 hours 0 minutes 32 seconds 380 msec
