                         Program Version 4.2.1 -  RELEASE  -
|  1> ! wB97X-D3 SP def2-SVP
|  2> %pal
|  3> nprocs 16
|  4> end
|  5>
|  6> * xyz 0 1
|  7> S 	 9.70932 	 -8.64965 	 63.3611
|  8> C 	 8.35305 	 -7.66286 	 63.9275
|  9> C 	 8.32002 	 -7.56637 	 65.3335
| 10> C 	 9.19446 	 -8.46393 	 65.9537
| 11> C 	 9.97839 	 -9.17124 	 65.0173
| 12> H 	 9.27173 	 -8.72857 	 66.9951
| 13> C 	 7.41162 	 -6.69347 	 66.1492
| 14> H 	 7.52821 	 -5.61109 	 65.8409
| 15> H 	 7.8073 	 -6.75134 	 67.1276
| 16> C 	 5.98372 	 -7.23134 	 66.4111
| 17> H 	 5.43338 	 -6.67104 	 67.1533
| 18> H 	 5.24773 	 -7.09739 	 65.5455
| 19> C 	 5.91318 	 -8.71925 	 66.7643
| 20> H 	 6.28253 	 -8.84306 	 67.7385
| 21> H 	 4.83282 	 -8.916 	 66.8715
| 22> H 	 6.35309 	 -9.43365 	 66.018
| 23> S 	 12.6289 	 -9.72045 	 64.6203
| 24> C 	 13.2519 	 -11.246 	 65.0715
| 25> C 	 12.3471 	 -11.9914 	 65.8014
| 26> C 	 11.0675 	 -11.342 	 65.9274
| 27> C 	 11.0333 	 -10.0776 	 65.3473
| 28> H 	 12.7099 	 -12.9408 	 66.1636
| 29> C 	 9.8731 	 -11.9978 	 66.5631
| 30> H 	 9.04533 	 -11.3853 	 66.9718
| 31> H 	 10.318 	 -12.4088 	 67.5218
| 32> C 	 9.20038 	 -13.168 	 65.7473
| 33> H 	 8.28671 	 -13.5223 	 66.2425
| 34> H 	 9.93557 	 -13.947 	 65.73
| 35> C 	 8.86361 	 -12.905 	 64.255
| 36> H 	 8.44764 	 -13.7496 	 63.8188
| 37> H 	 9.70837 	 -12.6152 	 63.6625
| 38> H 	 8.20924 	 -12.0743 	 64.1531
| 39> H 	 7.86292 	 -6.89447 	 63.3183
| 40> H 	 14.2552 	 -11.604 	 64.9279
| 41> *
| 42>
| 43>                          ****END OF INPUT****

CARTESIAN COORDINATES (ANGSTROEM)
---------------------------------
  S      9.709320   -8.649650   63.361100
  C      8.353050   -7.662860   63.927500
  C      8.320020   -7.566370   65.333500
  C      9.194460   -8.463930   65.953700
  C      9.978390   -9.171240   65.017300
  H      9.271730   -8.728570   66.995100
  C      7.411620   -6.693470   66.149200
  H      7.528210   -5.611090   65.840900
  H      7.807300   -6.751340   67.127600
  C      5.983720   -7.231340   66.411100
  H      5.433380   -6.671040   67.153300
  H      5.247730   -7.097390   65.545500
  C      5.913180   -8.719250   66.764300
  H      6.282530   -8.843060   67.738500
  H      4.832820   -8.916000   66.871500
  H      6.353090   -9.433650   66.018000
  S     12.628900   -9.720450   64.620300
  C     13.251900  -11.246000   65.071500
  C     12.347100  -11.991400   65.801400
  C     11.067500  -11.342000   65.927400
  C     11.033300  -10.077600   65.347300
  H     12.709900  -12.940800   66.163600
  C      9.873100  -11.997800   66.563100
  H      9.045330  -11.385300   66.971800
  H     10.318000  -12.408800   67.521800
  C      9.200380  -13.168000   65.747300
  H      8.286710  -13.522300   66.242500
  H      9.935570  -13.947000   65.730000
  C      8.863610  -12.905000   64.255000
  H      8.447640  -13.749600   63.818800
  H      9.708370  -12.615200   63.662500
  H      8.209240  -12.074300   64.153100
  H      7.862920   -6.894470   63.318300
  H     14.255200  -11.604000   64.927900

 Total Charge           Charge          ....    0
 Multiplicity           Mult            ....    1
 Number of Electrons    NEL             ....  134
 Basis Dimension        Dim             ....  322

ORBITAL ENERGIES
----------------

  NO   OCC          E(Eh)            E(eV)
   0   2.0000     -88.973194     -2421.0837
   1   2.0000     -88.963423     -2420.8178
   2   2.0000     -10.329497      -281.0799
   3   2.0000     -10.324899      -280.9548
   4   2.0000     -10.315306      -280.6937
   5   2.0000     -10.314404      -280.6692
   6   2.0000     -10.308763      -280.5157
   7   2.0000     -10.301149      -280.3085
   8   2.0000     -10.297087      -280.1980
   9   2.0000     -10.294682      -280.1325
  10   2.0000     -10.293347      -280.0962
  11   2.0000     -10.292792      -280.0811
  12   2.0000     -10.291719      -280.0519
  13   2.0000     -10.285588      -279.8851
  14   2.0000     -10.276670      -279.6424
  15   2.0000     -10.260226      -279.1950
  16   2.0000      -8.086862      -220.0547
  17   2.0000      -8.078495      -219.8270
  18   2.0000      -6.045235      -164.4992
  19   2.0000      -6.041577      -164.3997
  20   2.0000      -6.037764      -164.2959
  21   2.0000      -6.036974      -164.2744
  22   2.0000      -6.032843      -164.1620
  23   2.0000      -6.029384      -164.0679
  24   2.0000      -1.005888       -27.3716
  25   2.0000      -0.982058       -26.7232
  26   2.0000      -0.912653       -24.8345
  27   2.0000      -0.901114       -24.5206
  28   2.0000      -0.868604       -23.6359
  29   2.0000      -0.852355       -23.1938
  30   2.0000      -0.844864       -22.9899
  31   2.0000      -0.811596       -22.0847
  32   2.0000      -0.786092       -21.3906
  33   2.0000      -0.772747       -21.0275
  34   2.0000      -0.708145       -19.2696
  35   2.0000      -0.700642       -19.0654
  36   2.0000      -0.691317       -18.8117
  37   2.0000      -0.657479       -17.8909
  38   2.0000      -0.637754       -17.3542
  39   2.0000      -0.612754       -16.6739
  40   2.0000      -0.594236       -16.1700
  41   2.0000      -0.570338       -15.5197
  42   2.0000      -0.553384       -15.0584
  43   2.0000      -0.550358       -14.9760
  44   2.0000      -0.543543       -14.7906
  45   2.0000      -0.536966       -14.6116
  46   2.0000      -0.514355       -13.9963
  47   2.0000      -0.507352       -13.8058
  48   2.0000      -0.497675       -13.5424
  49   2.0000      -0.496163       -13.5013
  50   2.0000      -0.488452       -13.2915
  51   2.0000      -0.473229       -12.8772
  52   2.0000      -0.469682       -12.7807
  53   2.0000      -0.466267       -12.6878
  54   2.0000      -0.459941       -12.5156
  55   2.0000      -0.449023       -12.2185
  56   2.0000      -0.440532       -11.9875
  57   2.0000      -0.438887       -11.9427
  58   2.0000      -0.436552       -11.8792
  59   2.0000      -0.430787       -11.7223
  60   2.0000      -0.421633       -11.4732
  61   2.0000      -0.404235       -10.9998
  62   2.0000      -0.402046       -10.9402
  63   2.0000      -0.342773        -9.3273
  64   2.0000      -0.336376        -9.1533
  65   2.0000      -0.328900        -8.9498
  66   2.0000      -0.288946        -7.8626
  67   0.0000       0.025132         0.6839
  68   0.0000       0.060750         1.6531
  69   0.0000       0.110357         3.0030
  70   0.0000       0.119211         3.2439
  71   0.0000       0.124179         3.3791

MULLIKEN ATOMIC CHARGES
-----------------------
   0 S :    0.128294
   1 C :   -0.113435
   2 C :   -0.119422
   3 C :    0.032496
   4 C :   -0.149950
   5 H :    0.017748
   6 C :    0.103615
   7 H :    0.048517
   8 H :    0.004052
   9 C :   -0.093360
  10 H :    0.024879
  11 H :    0.027044
  12 C :   -0.060153
  13 H :    0.014517
  14 H :    0.029448
  15 H :    0.071154
  16 S :    0.098021
  17 C :   -0.085102
  18 C :   -0.043377
  19 C :   -0.001691
  20 C :   -0.181160
  21 H :    0.015803
  22 C :    0.025142
  23 H :    0.029634
  24 H :    0.034136
  25 C :   -0.072227
  26 H :    0.034406
  27 H :    0.017391
  28 C :   -0.012579
  29 H :    0.020320
  30 H :    0.028278
  31 H :    0.019740
  32 H :    0.055210
  33 H :    0.052610
Sum of atomic charges:   -0.0000000

LOEWDIN ATOMIC CHARGES
----------------------
   0 S :    0.411394
   1 C :   -0.204929
   2 C :   -0.061414
   3 C :   -0.055954
   4 C :   -0.192721
   5 H :    0.032272
   6 C :   -0.037799
   7 H :    0.041224
   8 H :    0.026254
   9 C :   -0.044242
  10 H :    0.022623
  11 H :    0.024151
  12 C :   -0.066868
  13 H :    0.013125
  14 H :    0.031866
  15 H :    0.036738
  16 S :    0.401109
  17 C :   -0.191393
  18 C :   -0.075421
  19 C :   -0.052876
  20 C :   -0.191983
  21 H :    0.031540
  22 C :   -0.042346
  23 H :    0.030082
  24 H :    0.039762
  25 C :   -0.032403
  26 H :    0.026279
  27 H :    0.016313
  28 C :   -0.057159
  29 H :    0.018371
  30 H :    0.025045
  31 H :    0.020086
  32 H :    0.029739
  33 H :    0.029538

  Mayer bond orders larger than 0.100000
B(  0-S ,  1-C ) :   1.1374 B(  0-S ,  4-C ) :   1.1614 B(  1-C ,  2-C ) :   1.5816
B(  1-C ,  4-C ) :   0.1086 B(  1-C , 32-H ) :   0.9624 B(  2-C ,  3-C ) :   1.2638
B(  2-C ,  6-C ) :   1.0325 B(  3-C ,  4-C ) :   1.5327 B(  3-C ,  5-H ) :   0.9929
B(  4-C , 20-C ) :   1.0749 B(  6-C ,  7-H ) :   0.9385 B(  6-C ,  8-H ) :   0.9327
B(  6-C ,  9-C ) :   1.0512 B(  9-C , 10-H ) :   0.9584 B(  9-C , 11-H ) :   0.9592
B(  9-C , 12-C ) :   1.0834 B( 12-C , 13-H ) :   0.9753 B( 12-C , 14-H ) :   0.9698
B( 12-C , 15-H ) :   0.9677 B( 16-S , 17-C ) :   1.1647 B( 16-S , 20-C ) :   1.1231
B( 17-C , 18-C ) :   1.6201 B( 17-C , 33-H ) :   0.9644 B( 18-C , 19-C ) :   1.2164
B( 18-C , 21-H ) :   0.9950 B( 19-C , 20-C ) :   1.5934 B( 19-C , 22-C ) :   1.0358
B( 22-C , 23-H ) :   0.9464 B( 22-C , 24-H ) :   0.9354 B( 22-C , 25-C ) :   1.0623
B( 25-C , 26-H ) :   0.9597 B( 25-C , 27-H ) :   0.9578 B( 25-C , 28-C ) :   1.0804
B( 28-C , 29-H ) :   0.9737 B( 28-C , 30-H ) :   0.9703 B( 28-C , 31-H ) :   0.9757

Dispersion correction           -0.015827386
FINAL SINGLE POINT ENERGY     -1339.870824279955

DIPOLE MOMENT
-------------
                                X             Y             Z
Electronic contribution:     22.16455       7.61425     -11.04367
Nuclear contribution   :    -22.44870      -7.76271      11.48596
                        -----------------------------------------
Total Dipole Moment    :     -0.28415      -0.14846       0.44229
                        -----------------------------------------
Magnitude (a.u.)       :      0.54626
Magnitude (Debye)      :      1.38849

Rotational constants in cm-1:     0.020376     0.009435     0.007749
Rotational constants in MHz :   610.856529   282.857768   232.322469

                             ****ORCA TERMINATED NORMALLY****
TOTAL RUN TIME: 0 days 0 hours 0 minutes 35 seconds 591 msec
