                         Program Version 4.2.1 -  RELEASE  -
|  1> ! wB97X-D3 SP def2-SVP
|  2> %pal
|  3> nprocs 16
|  4> end
|  5>
|  6> * xyz 0 1
|  7> S 	 46.2886 	 16.9457 	 79.2418
|  8> C 	 45.8017 	 16.825 	 80.9114
|  9> C 	 46.8663 	 16.6458 	 81.7915
| 10> C 	 48.1006 	 16.6101 	 81.0682
| 11> C 	 47.9696 	 16.7591 	 79.6903
| 12> H 	 49.0209 	 16.5856 	 81.5761
| 13> C 	 46.7393 	 16.6057 	 83.2712
| 14> H 	 47.5671 	 15.9745 	 83.6269
| 15> H 	 45.7651 	 16.132 	 83.4507
| 16> C 	 46.6906 	 17.9413 	 84.0709
| 17> H 	 45.7971 	 18.5856 	 83.9156
| 18> H 	 46.711 	 17.719 	 85.1119
| 19> C 	 47.8841 	 18.8938 	 83.7174
| 20> H 	 48.8969 	 18.3646 	 83.8635
| 21> H 	 47.9561 	 18.9461 	 82.6101
| 22> H 	 47.7708 	 19.8699 	 84.1296
| 23> S 	 48.5895 	 16.444 	 76.9561
| 24> C 	 50.2846 	 16.7148 	 76.4374
| 25> C 	 51.0135 	 17.1625 	 77.4871
| 26> C 	 50.3419 	 17.3513 	 78.7104
| 27> C 	 49.0176 	 16.8883 	 78.6609
| 28> H 	 52.0594 	 17.2386 	 77.1651
| 29> C 	 50.9285 	 17.9995 	 79.9741
| 30> H 	 50.298 	 17.9877 	 80.8631
| 31> H 	 51.0834 	 19.064 	 79.642
| 32> C 	 52.3878 	 17.4608 	 80.2305
| 33> H 	 52.8341 	 17.8126 	 81.1658
| 34> H 	 53.0657 	 17.7549 	 79.3756
| 35> C 	 52.4202 	 15.9405 	 80.3148
| 36> H 	 51.9299 	 15.435 	 79.4802
| 37> H 	 51.8603 	 15.534 	 81.0801
| 38> H 	 53.4223 	 15.4915 	 80.4331
| 39> H 	 44.8219 	 17.1516 	 81.1362
| 40> H 	 50.5699 	 16.7085 	 75.4057
| 41> *
| 42>
| 43>                          ****END OF INPUT****

CARTESIAN COORDINATES (ANGSTROEM)
---------------------------------
  S     46.288600   16.945700   79.241800
  C     45.801700   16.825000   80.911400
  C     46.866300   16.645800   81.791500
  C     48.100600   16.610100   81.068200
  C     47.969600   16.759100   79.690300
  H     49.020900   16.585600   81.576100
  C     46.739300   16.605700   83.271200
  H     47.567100   15.974500   83.626900
  H     45.765100   16.132000   83.450700
  C     46.690600   17.941300   84.070900
  H     45.797100   18.585600   83.915600
  H     46.711000   17.719000   85.111900
  C     47.884100   18.893800   83.717400
  H     48.896900   18.364600   83.863500
  H     47.956100   18.946100   82.610100
  H     47.770800   19.869900   84.129600
  S     48.589500   16.444000   76.956100
  C     50.284600   16.714800   76.437400
  C     51.013500   17.162500   77.487100
  C     50.341900   17.351300   78.710400
  C     49.017600   16.888300   78.660900
  H     52.059400   17.238600   77.165100
  C     50.928500   17.999500   79.974100
  H     50.298000   17.987700   80.863100
  H     51.083400   19.064000   79.642000
  C     52.387800   17.460800   80.230500
  H     52.834100   17.812600   81.165800
  H     53.065700   17.754900   79.375600
  C     52.420200   15.940500   80.314800
  H     51.929900   15.435000   79.480200
  H     51.860300   15.534000   81.080100
  H     53.422300   15.491500   80.433100
  H     44.821900   17.151600   81.136200
  H     50.569900   16.708500   75.405700

 Total Charge           Charge          ....    0
 Multiplicity           Mult            ....    1
 Number of Electrons    NEL             ....  134
 Basis Dimension        Dim             ....  322

ORBITAL ENERGIES
----------------

  NO   OCC          E(Eh)            E(eV)
   0   2.0000     -88.968125     -2420.9458
   1   2.0000     -88.961023     -2420.7525
   2   2.0000     -10.335832      -281.2523
   3   2.0000     -10.335718      -281.2492
   4   2.0000     -10.318671      -280.7853
   5   2.0000     -10.312251      -280.6106
   6   2.0000     -10.311372      -280.5867
   7   2.0000     -10.303485      -280.3721
   8   2.0000     -10.303315      -280.3675
   9   2.0000     -10.297735      -280.2156
  10   2.0000     -10.296141      -280.1722
  11   2.0000     -10.295269      -280.1485
  12   2.0000     -10.295128      -280.1447
  13   2.0000     -10.293485      -280.1000
  14   2.0000     -10.284164      -279.8463
  15   2.0000     -10.265929      -279.3501
  16   2.0000      -8.083123      -219.9529
  17   2.0000      -8.074594      -219.7209
  18   2.0000      -6.041567      -164.3994
  19   2.0000      -6.037594      -164.2913
  20   2.0000      -6.033945      -164.1920
  21   2.0000      -6.033250      -164.1731
  22   2.0000      -6.029380      -164.0678
  23   2.0000      -6.025167      -163.9531
  24   2.0000      -1.004172       -27.3249
  25   2.0000      -0.982236       -26.7280
  26   2.0000      -0.912619       -24.8336
  27   2.0000      -0.904968       -24.6254
  28   2.0000      -0.868266       -23.6267
  29   2.0000      -0.851241       -23.1634
  30   2.0000      -0.839878       -22.8542
  31   2.0000      -0.818535       -22.2735
  32   2.0000      -0.784824       -21.3562
  33   2.0000      -0.773627       -21.0515
  34   2.0000      -0.708333       -19.2747
  35   2.0000      -0.705990       -19.2110
  36   2.0000      -0.697979       -18.9930
  37   2.0000      -0.658128       -17.9086
  38   2.0000      -0.641280       -17.4501
  39   2.0000      -0.623418       -16.9641
  40   2.0000      -0.598382       -16.2828
  41   2.0000      -0.572371       -15.5750
  42   2.0000      -0.555247       -15.1090
  43   2.0000      -0.549317       -14.9477
  44   2.0000      -0.545074       -14.8322
  45   2.0000      -0.535257       -14.5651
  46   2.0000      -0.521150       -14.1812
  47   2.0000      -0.517826       -14.0908
  48   2.0000      -0.502044       -13.6613
  49   2.0000      -0.493090       -13.4177
  50   2.0000      -0.488767       -13.3000
  51   2.0000      -0.483849       -13.1662
  52   2.0000      -0.474250       -12.9050
  53   2.0000      -0.462823       -12.5941
  54   2.0000      -0.462438       -12.5836
  55   2.0000      -0.445603       -12.1255
  56   2.0000      -0.442062       -12.0291
  57   2.0000      -0.432275       -11.7628
  58   2.0000      -0.430417       -11.7122
  59   2.0000      -0.427251       -11.6261
  60   2.0000      -0.421459       -11.4685
  61   2.0000      -0.415408       -11.3038
  62   2.0000      -0.410314       -11.1652
  63   2.0000      -0.357380        -9.7248
  64   2.0000      -0.335951        -9.1417
  65   2.0000      -0.328335        -8.9344
  66   2.0000      -0.282952        -7.6995
  67   0.0000       0.017453         0.4749
  68   0.0000       0.074673         2.0320
  69   0.0000       0.095984         2.6119
  70   0.0000       0.114741         3.1223
  71   0.0000       0.128293         3.4910

MULLIKEN ATOMIC CHARGES
-----------------------
   0 S :    0.105786
   1 C :   -0.113141
   2 C :   -0.099506
   3 C :    0.009526
   4 C :   -0.106866
   5 H :   -0.013747
   6 C :    0.060705
   7 H :    0.035647
   8 H :    0.036853
   9 C :   -0.049586
  10 H :    0.032864
  11 H :    0.032467
  12 C :   -0.096379
  13 H :    0.026615
  14 H :    0.043178
  15 H :    0.045959
  16 S :    0.061031
  17 C :   -0.094686
  18 C :   -0.047865
  19 C :   -0.042480
  20 C :   -0.127535
  21 H :    0.030853
  22 C :    0.074572
  23 H :    0.031466
  24 H :    0.053823
  25 C :   -0.093352
  26 H :    0.035763
  27 H :    0.041649
  28 C :   -0.042384
  29 H :    0.035336
  30 H :    0.000499
  31 H :    0.033111
  32 H :    0.041015
  33 H :    0.058809
Sum of atomic charges:   -0.0000000

LOEWDIN ATOMIC CHARGES
----------------------
   0 S :    0.413802
   1 C :   -0.190160
   2 C :   -0.062485
   3 C :   -0.063880
   4 C :   -0.184415
   5 H :    0.017987
   6 C :   -0.034452
   7 H :    0.036025
   8 H :    0.039806
   9 C :   -0.035671
  10 H :    0.028120
  11 H :    0.020465
  12 C :   -0.077526
  13 H :    0.027457
  14 H :    0.027992
  15 H :    0.022445
  16 S :    0.343002
  17 C :   -0.160998
  18 C :   -0.079082
  19 C :   -0.058273
  20 C :   -0.171677
  21 H :    0.041057
  22 C :   -0.026360
  23 H :    0.028676
  24 H :    0.045728
  25 C :   -0.042608
  26 H :    0.025617
  27 H :    0.028851
  28 C :   -0.074914
  29 H :    0.028530
  30 H :    0.011945
  31 H :    0.028737
  32 H :    0.017054
  33 H :    0.029206

  Mayer bond orders larger than 0.100000
B(  0-S ,  1-C ) :   1.1513 B(  0-S ,  4-C ) :   1.1655 B(  1-C ,  2-C ) :   1.5853
B(  1-C , 32-H ) :   0.9735 B(  2-C ,  3-C ) :   1.2567 B(  2-C ,  6-C ) :   1.0293
B(  3-C ,  4-C ) :   1.5384 B(  3-C ,  5-H ) :   1.0019 B(  4-C , 20-C ) :   1.0622
B(  6-C ,  7-H ) :   0.9391 B(  6-C ,  8-H ) :   0.9358 B(  6-C ,  9-C ) :   1.0689
B(  9-C , 10-H ) :   0.9568 B(  9-C , 11-H ) :   0.9572 B(  9-C , 12-C ) :   1.0708
B( 12-C , 13-H ) :   0.9737 B( 12-C , 14-H ) :   0.9719 B( 12-C , 15-H ) :   0.9751
B( 16-S , 17-C ) :   1.1259 B( 16-S , 20-C ) :   1.1255 B( 17-C , 18-C ) :   1.6548
B( 17-C , 20-C ) :   0.1030 B( 17-C , 33-H ) :   0.9678 B( 18-C , 19-C ) :   1.1973
B( 18-C , 21-H ) :   0.9866 B( 19-C , 20-C ) :   1.5984 B( 19-C , 22-C ) :   1.0187
B( 22-C , 23-H ) :   0.9472 B( 22-C , 24-H ) :   0.9332 B( 22-C , 25-C ) :   1.0601
B( 25-C , 26-H ) :   0.9597 B( 25-C , 27-H ) :   0.9523 B( 25-C , 28-C ) :   1.0759
B( 28-C , 29-H ) :   0.9653 B( 28-C , 30-H ) :   0.9712 B( 28-C , 31-H ) :   0.9737

Dispersion correction           -0.015384809
FINAL SINGLE POINT ENERGY     -1339.870069363941

DIPOLE MOMENT
-------------
                                X             Y             Z
Electronic contribution:    -14.30613      -5.08646     -23.58779
Nuclear contribution   :     14.66463       5.41309      24.10520
                        -----------------------------------------
Total Dipole Moment    :      0.35849       0.32663       0.51741
                        -----------------------------------------
Magnitude (a.u.)       :      0.70916
Magnitude (Debye)      :      1.80255

Rotational constants in cm-1:     0.019149     0.009685     0.006972
Rotational constants in MHz :   574.069718   290.345005   209.025118

                             ****ORCA TERMINATED NORMALLY****
TOTAL RUN TIME: 0 days 0 hours 0 minutes 32 seconds 351 msec
