                         Program Version 4.2.1 -  RELEASE  -
|  1> ! wB97X-D3 SP def2-SVP
|  2> %pal
|  3> nprocs 16
|  4> end
|  5>
|  6> * xyz 0 1
|  7> S 	 6.70314 	 -10.737 	 70.6926
|  8> C 	 5.06077 	 -10.1061 	 70.7756
|  9> C 	 4.1005 	 -10.9825 	 70.155
| 10> C 	 4.766 	 -11.9869 	 69.4193
| 11> C 	 6.14669 	 -12.091 	 69.6341
| 12> H 	 4.31553 	 -12.6666 	 68.6715
| 13> C 	 2.5917 	 -10.6064 	 70.1049
| 14> H 	 2.48811 	 -9.56564 	 70.4316
| 15> H 	 2.06931 	 -11.0982 	 70.9926
| 16> C 	 1.9102 	 -11.0111 	 68.785
| 17> H 	 1.88207 	 -12.0649 	 68.5263
| 18> H 	 0.934928 	 -10.7253 	 69.0069
| 19> C 	 2.57189 	 -10.2822 	 67.566
| 20> H 	 3.59776 	 -10.4577 	 67.5335
| 21> H 	 1.97816 	 -10.6667 	 66.7252
| 22> H 	 2.38412 	 -9.17073 	 67.5087
| 23> S 	 8.61533 	 -12.0883 	 68.5889
| 24> C 	 9.13326 	 -13.4149 	 67.6009
| 25> C 	 8.16652 	 -14.3428 	 67.4461
| 26> C 	 6.98659 	 -14.0694 	 68.186
| 27> C 	 7.0981 	 -12.8692 	 68.8636
| 28> H 	 8.27301 	 -15.1279 	 66.7098
| 29> C 	 5.78537 	 -15.04 	 68.1189
| 30> H 	 5.1643 	 -14.8163 	 69.0178
| 31> H 	 6.00381 	 -16.0982 	 68.2169
| 32> C 	 4.87724 	 -14.785 	 66.9272
| 33> H 	 4.59845 	 -13.7375 	 66.6739
| 34> H 	 3.9671 	 -15.3458 	 66.9958
| 35> C 	 5.49632 	 -15.3608 	 65.6433
| 36> H 	 6.2063 	 -14.6496 	 65.2503
| 37> H 	 4.75138 	 -15.5288 	 64.8757
| 38> H 	 5.99534 	 -16.3424 	 65.736
| 39> H 	 4.74131 	 -9.20929 	 71.371
| 40> H 	 10.0495 	 -13.4592 	 66.9629
| 41> *
| 42>
| 43>                          ****END OF INPUT****

CARTESIAN COORDINATES (ANGSTROEM)
---------------------------------
  S      6.703140  -10.737000   70.692600
  C      5.060770  -10.106100   70.775600
  C      4.100500  -10.982500   70.155000
  C      4.766000  -11.986900   69.419300
  C      6.146690  -12.091000   69.634100
  H      4.315530  -12.666600   68.671500
  C      2.591700  -10.606400   70.104900
  H      2.488110   -9.565640   70.431600
  H      2.069310  -11.098200   70.992600
  C      1.910200  -11.011100   68.785000
  H      1.882070  -12.064900   68.526300
  H      0.934928  -10.725300   69.006900
  C      2.571890  -10.282200   67.566000
  H      3.597760  -10.457700   67.533500
  H      1.978160  -10.666700   66.725200
  H      2.384120   -9.170730   67.508700
  S      8.615330  -12.088300   68.588900
  C      9.133260  -13.414900   67.600900
  C      8.166520  -14.342800   67.446100
  C      6.986590  -14.069400   68.186000
  C      7.098100  -12.869200   68.863600
  H      8.273010  -15.127900   66.709800
  C      5.785370  -15.040000   68.118900
  H      5.164300  -14.816300   69.017800
  H      6.003810  -16.098200   68.216900
  C      4.877240  -14.785000   66.927200
  H      4.598450  -13.737500   66.673900
  H      3.967100  -15.345800   66.995800
  C      5.496320  -15.360800   65.643300
  H      6.206300  -14.649600   65.250300
  H      4.751380  -15.528800   64.875700
  H      5.995340  -16.342400   65.736000
  H      4.741310   -9.209290   71.371000
  H     10.049500  -13.459200   66.962900

 Total Charge           Charge          ....    0
 Multiplicity           Mult            ....    1
 Number of Electrons    NEL             ....  134
 Basis Dimension        Dim             ....  322

ORBITAL ENERGIES
----------------

  NO   OCC          E(Eh)            E(eV)
   0   2.0000     -88.970738     -2421.0169
   1   2.0000     -88.966253     -2420.8948
   2   2.0000     -10.334050      -281.2038
   3   2.0000     -10.326445      -280.9969
   4   2.0000     -10.322828      -280.8984
   5   2.0000     -10.312015      -280.6042
   6   2.0000     -10.308089      -280.4974
   7   2.0000     -10.302739      -280.3518
   8   2.0000     -10.302607      -280.3482
   9   2.0000     -10.299548      -280.2649
  10   2.0000     -10.297471      -280.2084
  11   2.0000     -10.288775      -279.9718
  12   2.0000     -10.287433      -279.9353
  13   2.0000     -10.286659      -279.9142
  14   2.0000     -10.277546      -279.6662
  15   2.0000     -10.274467      -279.5825
  16   2.0000      -8.083945      -219.9753
  17   2.0000      -8.081709      -219.9145
  18   2.0000      -6.042466      -164.4239
  19   2.0000      -6.040224      -164.3629
  20   2.0000      -6.038707      -164.3216
  21   2.0000      -6.036191      -164.2531
  22   2.0000      -6.034748      -164.2138
  23   2.0000      -6.032328      -164.1480
  24   2.0000      -1.010120       -27.4868
  25   2.0000      -0.977900       -26.6100
  26   2.0000      -0.913277       -24.8515
  27   2.0000      -0.907833       -24.7034
  28   2.0000      -0.868812       -23.6416
  29   2.0000      -0.852128       -23.1876
  30   2.0000      -0.839600       -22.8467
  31   2.0000      -0.813217       -22.1288
  32   2.0000      -0.785562       -21.3762
  33   2.0000      -0.770998       -20.9799
  34   2.0000      -0.711232       -19.3536
  35   2.0000      -0.698838       -19.0164
  36   2.0000      -0.687660       -18.7122
  37   2.0000      -0.661913       -18.0116
  38   2.0000      -0.635279       -17.2868
  39   2.0000      -0.620026       -16.8718
  40   2.0000      -0.600923       -16.3519
  41   2.0000      -0.563660       -15.3380
  42   2.0000      -0.550888       -14.9904
  43   2.0000      -0.549229       -14.9453
  44   2.0000      -0.543692       -14.7946
  45   2.0000      -0.532891       -14.5007
  46   2.0000      -0.520032       -14.1508
  47   2.0000      -0.507540       -13.8109
  48   2.0000      -0.502102       -13.6629
  49   2.0000      -0.496579       -13.5126
  50   2.0000      -0.491645       -13.3783
  51   2.0000      -0.481986       -13.1155
  52   2.0000      -0.473448       -12.8832
  53   2.0000      -0.466311       -12.6890
  54   2.0000      -0.461620       -12.5613
  55   2.0000      -0.446963       -12.1625
  56   2.0000      -0.441541       -12.0149
  57   2.0000      -0.438406       -11.9296
  58   2.0000      -0.434806       -11.8317
  59   2.0000      -0.425599       -11.5811
  60   2.0000      -0.418532       -11.3888
  61   2.0000      -0.413560       -11.2535
  62   2.0000      -0.408968       -11.1286
  63   2.0000      -0.358296        -9.7497
  64   2.0000      -0.335991        -9.1428
  65   2.0000      -0.329785        -8.9739
  66   2.0000      -0.278505        -7.5785
  67   0.0000       0.018893         0.5141
  68   0.0000       0.080468         2.1896
  69   0.0000       0.098139         2.6705
  70   0.0000       0.118703         3.2301
  71   0.0000       0.131464         3.5773

MULLIKEN ATOMIC CHARGES
-----------------------
   0 S :    0.101691
   1 C :   -0.149075
   2 C :   -0.093903
   3 C :   -0.011087
   4 C :   -0.119984
   5 H :    0.011690
   6 C :    0.046904
   7 H :    0.021129
   8 H :    0.043180
   9 C :   -0.052805
  10 H :    0.038867
  11 H :    0.015175
  12 C :   -0.057434
  13 H :    0.046355
  14 H :    0.032949
  15 H :    0.036161
  16 S :    0.106810
  17 C :   -0.094286
  18 C :   -0.036669
  19 C :   -0.049383
  20 C :   -0.129350
  21 H :    0.015561
  22 C :    0.061581
  23 H :    0.026882
  24 H :    0.035968
  25 C :   -0.075986
  26 H :    0.049181
  27 H :    0.025305
  28 C :   -0.071729
  29 H :    0.036523
  30 H :    0.025513
  31 H :    0.027200
  32 H :    0.070948
  33 H :    0.066119
Sum of atomic charges:    0.0000000

LOEWDIN ATOMIC CHARGES
----------------------
   0 S :    0.379871
   1 C :   -0.206783
   2 C :   -0.063163
   3 C :   -0.069816
   4 C :   -0.176346
   5 H :    0.034531
   6 C :   -0.034849
   7 H :    0.031458
   8 H :    0.039093
   9 C :   -0.037803
  10 H :    0.026828
  11 H :    0.019459
  12 C :   -0.061146
  13 H :    0.017267
  14 H :    0.028563
  15 H :    0.031448
  16 S :    0.419167
  17 C :   -0.200339
  18 C :   -0.072836
  19 C :   -0.059298
  20 C :   -0.196261
  21 H :    0.031176
  22 C :   -0.030687
  23 H :    0.033120
  24 H :    0.033445
  25 C :   -0.043632
  26 H :    0.030810
  27 H :    0.021577
  28 C :   -0.069817
  29 H :    0.021617
  30 H :    0.022936
  31 H :    0.023007
  32 H :    0.036892
  33 H :    0.040512

  Mayer bond orders larger than 0.100000
B(  0-S ,  1-C ) :   1.1496 B(  0-S ,  4-C ) :   1.1342 B(  1-C ,  2-C ) :   1.5705
B(  1-C ,  4-C ) :   0.1074 B(  1-C , 32-H ) :   0.9578 B(  2-C ,  3-C ) :   1.2756
B(  2-C ,  6-C ) :   1.0155 B(  3-C ,  4-C ) :   1.5559 B(  3-C ,  5-H ) :   0.9730
B(  4-C , 20-C ) :   1.0730 B(  6-C ,  7-H ) :   0.9456 B(  6-C ,  8-H ) :   0.9324
B(  6-C ,  9-C ) :   1.0703 B(  9-C , 10-H ) :   0.9547 B(  9-C , 11-H ) :   0.9504
B(  9-C , 12-C ) :   1.0652 B( 12-C , 13-H ) :   0.9774 B( 12-C , 14-H ) :   0.9764
B( 12-C , 15-H ) :   0.9763 B( 16-S , 17-C ) :   1.1419 B( 16-S , 20-C ) :   1.1448
B( 17-C , 18-C ) :   1.6340 B( 17-C , 33-H ) :   0.9576 B( 18-C , 19-C ) :   1.2468
B( 18-C , 21-H ) :   0.9857 B( 19-C , 20-C ) :   1.6005 B( 19-C , 22-C ) :   1.0301
B( 22-C , 23-H ) :   0.9302 B( 22-C , 24-H ) :   0.9445 B( 22-C , 25-C ) :   1.0755
B( 25-C , 26-H ) :   0.9470 B( 25-C , 27-H ) :   0.9580 B( 25-C , 28-C ) :   1.0780
B( 28-C , 29-H ) :   0.9750 B( 28-C , 30-H ) :   0.9726 B( 28-C , 31-H ) :   0.9731

Dispersion correction           -0.015228549
FINAL SINGLE POINT ENERGY     -1339.867173832596

DIPOLE MOMENT
-------------
                                X             Y             Z
Electronic contribution:     23.93021       7.97406      14.98528
Nuclear contribution   :    -24.62591      -8.16412     -15.42963
                        -----------------------------------------
Total Dipole Moment    :     -0.69570      -0.19006      -0.44435
                        -----------------------------------------
Magnitude (a.u.)       :      0.84709
Magnitude (Debye)      :      2.15314

Rotational constants in cm-1:     0.017487     0.010630     0.007322
Rotational constants in MHz :   524.253922   318.684557   219.507710

                             ****ORCA TERMINATED NORMALLY****
TOTAL RUN TIME: 0 days 0 hours 0 minutes 30 seconds 249 msec
