                         Program Version 4.2.1 -  RELEASE  -
|  1> ! wB97X-D3 SP def2-SVP
|  2> %pal
|  3> nprocs 16
|  4> end
|  5>
|  6> * xyz 0 1
|  7> S 	 2.42365 	 16.4163 	 88.1505
|  8> C 	 2.65233 	 17.979 	 87.414
|  9> C 	 3.908 	 18.2512 	 86.9522
| 10> C 	 4.68775 	 17.1227 	 87.0251
| 11> C 	 4.096 	 16.0989 	 87.7236
| 12> H 	 5.70707 	 16.9524 	 86.6784
| 13> C 	 4.37883 	 19.4858 	 86.2191
| 14> H 	 5.46797 	 19.4698 	 86.2732
| 15> H 	 3.98112 	 20.3499 	 86.6712
| 16> C 	 3.86594 	 19.5205 	 84.7484
| 17> H 	 4.12184 	 18.5929 	 84.1383
| 18> H 	 2.78386 	 19.4154 	 84.7312
| 19> C 	 4.31155 	 20.7613 	 84.0398
| 20> H 	 3.93524 	 20.7197 	 82.9795
| 21> H 	 3.90398 	 21.6735 	 84.4981
| 22> H 	 5.39314 	 20.9101 	 84.0489
| 23> S 	 3.70653 	 13.3937 	 87.3685
| 24> C 	 4.84361 	 12.3139 	 88.1007
| 25> C 	 6.00348 	 12.9646 	 88.4846
| 26> C 	 5.98777 	 14.3849 	 88.2343
| 27> C 	 4.66892 	 14.7918 	 87.898
| 28> H 	 6.78483 	 12.336 	 88.9914
| 29> C 	 7.14358 	 15.2789 	 88.7568
| 30> H 	 7.13216 	 16.2911 	 88.295
| 31> H 	 8.04388 	 14.7644 	 88.2922
| 32> C 	 7.34098 	 15.5589 	 90.2647
| 33> H 	 8.3178 	 15.9272 	 90.4761
| 34> H 	 7.1733 	 14.5995 	 90.7342
| 35> C 	 6.29164 	 16.5203 	 90.8339
| 36> H 	 6.55919 	 17.5084 	 90.4163
| 37> H 	 6.28629 	 16.6344 	 91.8829
| 38> H 	 5.26394 	 16.2244 	 90.5917
| 39> H 	 1.78738 	 18.5919 	 87.2375
| 40> H 	 4.74666 	 11.291 	 88.4719
| 41> *
| 42>
| 43>                          ****END OF INPUT****

CARTESIAN COORDINATES (ANGSTROEM)
---------------------------------
  S      2.423650   16.416300   88.150500
  C      2.652330   17.979000   87.414000
  C      3.908000   18.251200   86.952200
  C      4.687750   17.122700   87.025100
  C      4.096000   16.098900   87.723600
  H      5.707070   16.952400   86.678400
  C      4.378830   19.485800   86.219100
  H      5.467970   19.469800   86.273200
  H      3.981120   20.349900   86.671200
  C      3.865940   19.520500   84.748400
  H      4.121840   18.592900   84.138300
  H      2.783860   19.415400   84.731200
  C      4.311550   20.761300   84.039800
  H      3.935240   20.719700   82.979500
  H      3.903980   21.673500   84.498100
  H      5.393140   20.910100   84.048900
  S      3.706530   13.393700   87.368500
  C      4.843610   12.313900   88.100700
  C      6.003480   12.964600   88.484600
  C      5.987770   14.384900   88.234300
  C      4.668920   14.791800   87.898000
  H      6.784830   12.336000   88.991400
  C      7.143580   15.278900   88.756800
  H      7.132160   16.291100   88.295000
  H      8.043880   14.764400   88.292200
  C      7.340980   15.558900   90.264700
  H      8.317800   15.927200   90.476100
  H      7.173300   14.599500   90.734200
  C      6.291640   16.520300   90.833900
  H      6.559190   17.508400   90.416300
  H      6.286290   16.634400   91.882900
  H      5.263940   16.224400   90.591700
  H      1.787380   18.591900   87.237500
  H      4.746660   11.291000   88.471900

 Total Charge           Charge          ....    0
 Multiplicity           Mult            ....    1
 Number of Electrons    NEL             ....  134
 Basis Dimension        Dim             ....  322

ORBITAL ENERGIES
----------------

  NO   OCC          E(Eh)            E(eV)
   0   2.0000     -88.970633     -2421.0140
   1   2.0000     -88.964757     -2420.8541
   2   2.0000     -10.328265      -281.0464
   3   2.0000     -10.321934      -280.8741
   4   2.0000     -10.310282      -280.5570
   5   2.0000     -10.309773      -280.5432
   6   2.0000     -10.309490      -280.5355
   7   2.0000     -10.299311      -280.2585
   8   2.0000     -10.296086      -280.1708
   9   2.0000     -10.294912      -280.1388
  10   2.0000     -10.292231      -280.0658
  11   2.0000     -10.291022      -280.0330
  12   2.0000     -10.288066      -279.9525
  13   2.0000     -10.282515      -279.8015
  14   2.0000     -10.282007      -279.7876
  15   2.0000     -10.269596      -279.4499
  16   2.0000      -8.085395      -220.0148
  17   2.0000      -8.079246      -219.8475
  18   2.0000      -6.043599      -164.4547
  19   2.0000      -6.040138      -164.3605
  20   2.0000      -6.037867      -164.2987
  21   2.0000      -6.036240      -164.2544
  22   2.0000      -6.033830      -164.1889
  23   2.0000      -6.029863      -164.0809
  24   2.0000      -1.010959       -27.5096
  25   2.0000      -0.983169       -26.7534
  26   2.0000      -0.915247       -24.9051
  27   2.0000      -0.902562       -24.5600
  28   2.0000      -0.869449       -23.6589
  29   2.0000      -0.859110       -23.3776
  30   2.0000      -0.843895       -22.9636
  31   2.0000      -0.810269       -22.0485
  32   2.0000      -0.782678       -21.2978
  33   2.0000      -0.769013       -20.9259
  34   2.0000      -0.706522       -19.2254
  35   2.0000      -0.701794       -19.0968
  36   2.0000      -0.689441       -18.7606
  37   2.0000      -0.655723       -17.8431
  38   2.0000      -0.638762       -17.3816
  39   2.0000      -0.624298       -16.9880
  40   2.0000      -0.591065       -16.0837
  41   2.0000      -0.568010       -15.4563
  42   2.0000      -0.556511       -15.1434
  43   2.0000      -0.550078       -14.9684
  44   2.0000      -0.539988       -14.6938
  45   2.0000      -0.527372       -14.3505
  46   2.0000      -0.515359       -14.0236
  47   2.0000      -0.511726       -13.9248
  48   2.0000      -0.500750       -13.6261
  49   2.0000      -0.490909       -13.3583
  50   2.0000      -0.486388       -13.2353
  51   2.0000      -0.474138       -12.9019
  52   2.0000      -0.470235       -12.7957
  53   2.0000      -0.466988       -12.7074
  54   2.0000      -0.457998       -12.4627
  55   2.0000      -0.450020       -12.2457
  56   2.0000      -0.444990       -12.1088
  57   2.0000      -0.441486       -12.0134
  58   2.0000      -0.440436       -11.9849
  59   2.0000      -0.429591       -11.6898
  60   2.0000      -0.416996       -11.3470
  61   2.0000      -0.414758       -11.2861
  62   2.0000      -0.407252       -11.0819
  63   2.0000      -0.345574        -9.4036
  64   2.0000      -0.335316        -9.1244
  65   2.0000      -0.329362        -8.9624
  66   2.0000      -0.283639        -7.7182
  67   0.0000       0.019516         0.5311
  68   0.0000       0.074666         2.0318
  69   0.0000       0.104789         2.8515
  70   0.0000       0.112240         3.0542
  71   0.0000       0.141814         3.8590

MULLIKEN ATOMIC CHARGES
-----------------------
   0 S :    0.124791
   1 C :   -0.140522
   2 C :   -0.042565
   3 C :    0.001716
   4 C :   -0.162086
   5 H :    0.022759
   6 C :    0.115243
   7 H :    0.024445
   8 H :    0.012526
   9 C :   -0.102816
  10 H :    0.033830
  11 H :    0.021065
  12 C :   -0.036799
  13 H :    0.043949
  14 H :    0.026727
  15 H :    0.031846
  16 S :    0.108049
  17 C :   -0.086782
  18 C :   -0.082092
  19 C :   -0.015049
  20 C :   -0.159348
  21 H :    0.040865
  22 C :    0.001800
  23 H :    0.012698
  24 H :    0.040248
  25 C :   -0.013306
  26 H :    0.026719
  27 H :    0.016717
  28 C :   -0.051093
  29 H :    0.024409
  30 H :    0.022816
  31 H :    0.041702
  32 H :    0.039400
  33 H :    0.058137
Sum of atomic charges:    0.0000000

LOEWDIN ATOMIC CHARGES
----------------------
   0 S :    0.411616
   1 C :   -0.189834
   2 C :   -0.064742
   3 C :   -0.052401
   4 C :   -0.198842
   5 H :    0.035556
   6 C :   -0.018477
   7 H :    0.031263
   8 H :    0.025515
   9 C :   -0.046967
  10 H :    0.030837
  11 H :    0.022316
  12 C :   -0.071286
  13 H :    0.034884
  14 H :    0.024315
  15 H :    0.024542
  16 S :    0.395936
  17 C :   -0.209797
  18 C :   -0.075695
  19 C :   -0.062910
  20 C :   -0.184039
  21 H :    0.040042
  22 C :   -0.040231
  23 H :    0.024231
  24 H :    0.039374
  25 C :   -0.033279
  26 H :    0.022141
  27 H :    0.019736
  28 C :   -0.062120
  29 H :    0.025284
  30 H :    0.018603
  31 H :    0.029261
  32 H :    0.019045
  33 H :    0.036125

  Mayer bond orders larger than 0.100000
B(  0-S ,  1-C ) :   1.1505 B(  0-S ,  4-C ) :   1.1429 B(  1-C ,  2-C ) :   1.5875
B(  1-C , 32-H ) :   0.9679 B(  2-C ,  3-C ) :   1.2574 B(  2-C ,  6-C ) :   1.0304
B(  3-C ,  4-C ) :   1.5716 B(  3-C ,  5-H ) :   0.9859 B(  4-C , 20-C ) :   1.0765
B(  6-C ,  7-H ) :   0.9392 B(  6-C ,  8-H ) :   0.9296 B(  6-C ,  9-C ) :   1.0606
B(  9-C , 10-H ) :   0.9538 B(  9-C , 11-H ) :   0.9530 B(  9-C , 12-C ) :   1.0880
B( 12-C , 13-H ) :   0.9703 B( 12-C , 14-H ) :   0.9709 B( 12-C , 15-H ) :   0.9736
B( 16-S , 17-C ) :   1.1284 B( 16-S , 20-C ) :   1.1440 B( 17-C , 18-C ) :   1.6570
B( 17-C , 33-H ) :   0.9594 B( 18-C , 19-C ) :   1.2099 B( 18-C , 21-H ) :   0.9774
B( 19-C , 20-C ) :   1.5666 B( 19-C , 22-C ) :   1.0532 B( 22-C , 23-H ) :   0.9386
B( 22-C , 24-H ) :   0.9331 B( 22-C , 25-C ) :   1.0622 B( 25-C , 26-H ) :   0.9537
B( 25-C , 27-H ) :   0.9547 B( 25-C , 28-C ) :   1.0794 B( 28-C , 29-H ) :   0.9751
B( 28-C , 30-H ) :   0.9739 B( 28-C , 31-H ) :   0.9749

Dispersion correction           -0.014769374
FINAL SINGLE POINT ENERGY     -1339.869404860947

DIPOLE MOMENT
-------------
                                X             Y             Z
Electronic contribution:    -14.38260     -19.79200       2.12564
Nuclear contribution   :     14.73648      20.21494      -2.14648
                        -----------------------------------------
Total Dipole Moment    :      0.35388       0.42294      -0.02084
                        -----------------------------------------
Magnitude (a.u.)       :      0.55186
Magnitude (Debye)      :      1.40271

Rotational constants in cm-1:     0.020076     0.008154     0.007102
Rotational constants in MHz :   601.862328   244.442269   212.898612

                             ****ORCA TERMINATED NORMALLY****
TOTAL RUN TIME: 0 days 0 hours 0 minutes 37 seconds 469 msec
