                         Program Version 4.2.1 -  RELEASE  -
|  1> ! wB97X-D3 SP def2-SVP
|  2> %pal
|  3> nprocs 16
|  4> end
|  5>
|  6> * xyz 0 1
|  7> S 	 10.1583 	 19.5996 	 38.8794
|  8> C 	 10.6591 	 17.873 	 38.8621
|  9> C 	 10.3348 	 17.284 	 40.0523
| 10> C 	 9.57934 	 18.1641 	 40.9201
| 11> C 	 9.43651 	 19.4753 	 40.4853
| 12> H 	 9.29205 	 17.9222 	 41.892
| 13> C 	 10.5727 	 15.831 	 40.4213
| 14> H 	 10.7857 	 15.1711 	 39.5242
| 15> H 	 9.71595 	 15.3845 	 40.8216
| 16> C 	 11.6047 	 15.6484 	 41.5443
| 17> H 	 11.1705 	 16.0418 	 42.4384
| 18> H 	 11.6337 	 14.6193 	 41.7636
| 19> C 	 12.9954 	 16.2118 	 41.3009
| 20> H 	 13.5782 	 15.5122 	 40.6887
| 21> H 	 13.0821 	 17.219 	 40.8481
| 22> H 	 13.6085 	 16.2749 	 42.155
| 23> S 	 7.17442 	 21.0365 	 40.4968
| 24> C 	 6.99009 	 22.1666 	 41.7897
| 25> C 	 7.94214 	 22.0786 	 42.7858
| 26> C 	 8.89643 	 21.0768 	 42.4485
| 27> C 	 8.76063 	 20.505 	 41.1847
| 28> H 	 7.82751 	 22.6063 	 43.7456
| 29> C 	 10.0692 	 20.8122 	 43.4309
| 30> H 	 10.0566 	 19.688 	 43.5839
| 31> H 	 9.84891 	 21.2361 	 44.3575
| 32> C 	 11.5073 	 21.0883 	 42.9181
| 33> H 	 11.612 	 22.03 	 42.5015
| 34> H 	 11.718 	 20.3976 	 42.0888
| 35> C 	 12.5429 	 20.9318 	 44.0617
| 36> H 	 12.4329 	 21.7659 	 44.7322
| 37> H 	 13.6246 	 20.9934 	 43.7371
| 38> H 	 12.4673 	 20.0124 	 44.6444
| 39> H 	 11.0399 	 17.4182 	 37.898
| 40> H 	 6.17504 	 22.8771 	 41.8537
| 41> *
| 42>
| 43>                          ****END OF INPUT****

CARTESIAN COORDINATES (ANGSTROEM)
---------------------------------
  S     10.158300   19.599600   38.879400
  C     10.659100   17.873000   38.862100
  C     10.334800   17.284000   40.052300
  C      9.579340   18.164100   40.920100
  C      9.436510   19.475300   40.485300
  H      9.292050   17.922200   41.892000
  C     10.572700   15.831000   40.421300
  H     10.785700   15.171100   39.524200
  H      9.715950   15.384500   40.821600
  C     11.604700   15.648400   41.544300
  H     11.170500   16.041800   42.438400
  H     11.633700   14.619300   41.763600
  C     12.995400   16.211800   41.300900
  H     13.578200   15.512200   40.688700
  H     13.082100   17.219000   40.848100
  H     13.608500   16.274900   42.155000
  S      7.174420   21.036500   40.496800
  C      6.990090   22.166600   41.789700
  C      7.942140   22.078600   42.785800
  C      8.896430   21.076800   42.448500
  C      8.760630   20.505000   41.184700
  H      7.827510   22.606300   43.745600
  C     10.069200   20.812200   43.430900
  H     10.056600   19.688000   43.583900
  H      9.848910   21.236100   44.357500
  C     11.507300   21.088300   42.918100
  H     11.612000   22.030000   42.501500
  H     11.718000   20.397600   42.088800
  C     12.542900   20.931800   44.061700
  H     12.432900   21.765900   44.732200
  H     13.624600   20.993400   43.737100
  H     12.467300   20.012400   44.644400
  H     11.039900   17.418200   37.898000
  H      6.175040   22.877100   41.853700

 Total Charge           Charge          ....    0
 Multiplicity           Mult            ....    1
 Number of Electrons    NEL             ....  134
 Basis Dimension        Dim             ....  322

ORBITAL ENERGIES
----------------

  NO   OCC          E(Eh)            E(eV)
   0   2.0000     -88.965345     -2420.8701
   1   2.0000     -88.962299     -2420.7872
   2   2.0000     -10.329396      -281.0772
   3   2.0000     -10.326382      -280.9951
   4   2.0000     -10.323495      -280.9166
   5   2.0000     -10.318499      -280.7806
   6   2.0000     -10.309105      -280.5250
   7   2.0000     -10.304408      -280.3972
   8   2.0000     -10.295616      -280.1580
   9   2.0000     -10.292965      -280.0858
  10   2.0000     -10.292374      -280.0697
  11   2.0000     -10.291990      -280.0593
  12   2.0000     -10.281284      -279.7679
  13   2.0000     -10.281128      -279.7637
  14   2.0000     -10.279213      -279.7116
  15   2.0000     -10.271392      -279.4988
  16   2.0000      -8.079847      -219.8638
  17   2.0000      -8.076328      -219.7681
  18   2.0000      -6.038242      -164.3089
  19   2.0000      -6.034951      -164.2194
  20   2.0000      -6.034467      -164.2062
  21   2.0000      -6.030912      -164.1094
  22   2.0000      -6.030644      -164.1022
  23   2.0000      -6.027014      -164.0034
  24   2.0000      -1.002518       -27.2799
  25   2.0000      -0.979539       -26.6546
  26   2.0000      -0.913164       -24.8485
  27   2.0000      -0.902261       -24.5518
  28   2.0000      -0.872462       -23.7409
  29   2.0000      -0.848584       -23.0911
  30   2.0000      -0.841054       -22.8862
  31   2.0000      -0.810602       -22.0576
  32   2.0000      -0.786791       -21.4097
  33   2.0000      -0.772353       -21.0168
  34   2.0000      -0.714157       -19.4332
  35   2.0000      -0.702239       -19.1089
  36   2.0000      -0.693337       -18.8667
  37   2.0000      -0.661255       -17.9937
  38   2.0000      -0.641844       -17.4655
  39   2.0000      -0.619059       -16.8455
  40   2.0000      -0.592606       -16.1256
  41   2.0000      -0.569914       -15.5081
  42   2.0000      -0.563430       -15.3317
  43   2.0000      -0.550567       -14.9817
  44   2.0000      -0.541848       -14.7444
  45   2.0000      -0.515529       -14.0283
  46   2.0000      -0.514294       -13.9946
  47   2.0000      -0.508758       -13.8440
  48   2.0000      -0.506436       -13.7808
  49   2.0000      -0.497037       -13.5251
  50   2.0000      -0.489976       -13.3329
  51   2.0000      -0.482941       -13.1415
  52   2.0000      -0.470326       -12.7982
  53   2.0000      -0.462809       -12.5937
  54   2.0000      -0.459116       -12.4932
  55   2.0000      -0.448815       -12.2129
  56   2.0000      -0.446751       -12.1567
  57   2.0000      -0.436067       -11.8660
  58   2.0000      -0.432769       -11.7762
  59   2.0000      -0.421347       -11.4654
  60   2.0000      -0.418497       -11.3879
  61   2.0000      -0.415354       -11.3024
  62   2.0000      -0.413441       -11.2503
  63   2.0000      -0.336115        -9.1462
  64   2.0000      -0.331703        -9.0261
  65   2.0000      -0.327116        -8.9013
  66   2.0000      -0.300702        -8.1825
  67   0.0000       0.027404         0.7457
  68   0.0000       0.062469         1.6999
  69   0.0000       0.108859         2.9622
  70   0.0000       0.122581         3.3356
  71   0.0000       0.123548         3.3619

MULLIKEN ATOMIC CHARGES
-----------------------
   0 S :    0.090322
   1 C :   -0.166720
   2 C :   -0.050725
   3 C :    0.062883
   4 C :   -0.171582
   5 H :   -0.011984
   6 C :    0.074101
   7 H :    0.029172
   8 H :    0.010684
   9 C :   -0.043928
  10 H :    0.010592
  11 H :    0.013444
  12 C :   -0.039699
  13 H :    0.019355
  14 H :    0.047409
  15 H :    0.014961
  16 S :    0.108692
  17 C :   -0.076695
  18 C :   -0.052022
  19 C :   -0.024460
  20 C :   -0.162259
  21 H :    0.034980
  22 C :    0.073937
  23 H :    0.027545
  24 H :   -0.003782
  25 C :   -0.031670
  26 H :    0.016302
  27 H :    0.041309
  28 C :   -0.068323
  29 H :    0.024295
  30 H :    0.038831
  31 H :    0.029605
  32 H :    0.081431
  33 H :    0.053999
Sum of atomic charges:    0.0000000

LOEWDIN ATOMIC CHARGES
----------------------
   0 S :    0.373581
   1 C :   -0.185389
   2 C :   -0.063772
   3 C :   -0.047222
   4 C :   -0.197591
   5 H :    0.017363
   6 C :   -0.027532
   7 H :    0.034158
   8 H :    0.025087
   9 C :   -0.035437
  10 H :    0.018286
  11 H :    0.021371
  12 C :   -0.070773
  13 H :    0.026313
  14 H :    0.032247
  15 H :    0.020161
  16 S :    0.398787
  17 C :   -0.177498
  18 C :   -0.083912
  19 C :   -0.041124
  20 C :   -0.194879
  21 H :    0.040439
  22 C :   -0.025298
  23 H :    0.037788
  24 H :    0.014964
  25 C :   -0.031133
  26 H :    0.014184
  27 H :    0.028799
  28 C :   -0.069264
  29 H :    0.020787
  30 H :    0.032710
  31 H :    0.022531
  32 H :    0.044105
  33 H :    0.027163

  Mayer bond orders larger than 0.100000
B(  0-S ,  1-C ) :   1.1252 B(  0-S ,  4-C ) :   1.1281 B(  1-C ,  2-C ) :   1.6131
B(  1-C , 32-H ) :   0.9628 B(  2-C ,  3-C ) :   1.2201 B(  2-C ,  6-C ) :   1.0284
B(  3-C ,  4-C ) :   1.5858 B(  3-C ,  5-H ) :   0.9988 B(  4-C , 20-C ) :   1.0741
B(  6-C ,  7-H ) :   0.9490 B(  6-C ,  8-H ) :   0.9348 B(  6-C ,  9-C ) :   1.0760
B(  9-C , 10-H ) :   0.9554 B(  9-C , 11-H ) :   0.9510 B(  9-C , 12-C ) :   1.0751
B( 12-C , 13-H ) :   0.9734 B( 12-C , 14-H ) :   0.9746 B( 12-C , 15-H ) :   0.9718
B( 16-S , 17-C ) :   1.1785 B( 16-S , 20-C ) :   1.1164 B( 17-C , 18-C ) :   1.6031
B( 17-C , 20-C ) :   0.1019 B( 17-C , 33-H ) :   0.9617 B( 18-C , 19-C ) :   1.2446
B( 18-C , 21-H ) :   0.9872 B( 19-C , 20-C ) :   1.5947 B( 19-C , 22-C ) :   1.0418
B( 22-C , 23-H ) :   0.9278 B( 22-C , 24-H ) :   0.9421 B( 22-C , 25-C ) :   1.0567
B( 25-C , 26-H ) :   0.9590 B( 25-C , 27-H ) :   0.9532 B( 25-C , 28-C ) :   1.0778
B( 28-C , 29-H ) :   0.9768 B( 28-C , 30-H ) :   0.9750 B( 28-C , 31-H ) :   0.9770

Dispersion correction           -0.014981799
FINAL SINGLE POINT ENERGY     -1339.874885638448

DIPOLE MOMENT
-------------
                                X             Y             Z
Electronic contribution:    -21.26428      12.14969     -17.01845
Nuclear contribution   :     21.41846     -12.50037      17.62342
                        -----------------------------------------
Total Dipole Moment    :      0.15418      -0.35069       0.60497
                        -----------------------------------------
Magnitude (a.u.)       :      0.71606
Magnitude (Debye)      :      1.82007

Rotational constants in cm-1:     0.017817     0.009683     0.007346
Rotational constants in MHz :   534.127324   290.282753   220.241215

                             ****ORCA TERMINATED NORMALLY****
TOTAL RUN TIME: 0 days 0 hours 0 minutes 36 seconds 1 msec
