                         Program Version 4.2.1 -  RELEASE  -
|  1> ! wB97X-D3 SP def2-SVP
|  2> %pal
|  3> nprocs 16
|  4> end
|  5>
|  6> * xyz 0 1
|  7> S 	 46.8997 	 6.25427 	 84.2497
|  8> C 	 47.4106 	 7.60723 	 83.2723
|  9> C 	 48.5216 	 8.225 	 83.7849
| 10> C 	 49.0687 	 7.56979 	 84.9062
| 11> C 	 48.2511 	 6.53724 	 85.3644
| 12> H 	 49.9157 	 7.96802 	 85.4492
| 13> C 	 49.0785 	 9.5463 	 83.2364
| 14> H 	 49.1861 	 9.34047 	 82.1721
| 15> H 	 50.0971 	 9.63886 	 83.6311
| 16> C 	 48.3215 	 10.8618 	 83.5185
| 17> H 	 47.2263 	 10.8822 	 83.2054
| 18> H 	 48.2735 	 10.9813 	 84.6363
| 19> C 	 48.994 	 12.1622 	 82.9781
| 20> H 	 49.2616 	 11.9763 	 81.9582
| 21> H 	 48.3399 	 12.9857 	 83.0357
| 22> H 	 49.864 	 12.415 	 83.5429
| 23> S 	 48.3498 	 3.9826 	 86.3063
| 24> C 	 48.5946 	 3.70044 	 88.0333
| 25> C 	 48.8307 	 4.88019 	 88.6951
| 26> C 	 48.7109 	 6.08417 	 87.8991
| 27> C 	 48.3739 	 5.74389 	 86.5857
| 28> H 	 49.0137 	 4.88808 	 89.7386
| 29> C 	 48.8803 	 7.49024 	 88.4252
| 30> H 	 48.2082 	 7.43702 	 89.3858
| 31> H 	 48.3697 	 8.20041 	 87.7306
| 32> C 	 50.24 	 7.89373 	 88.8181
| 33> H 	 50.8833 	 7.8687 	 87.8909
| 34> H 	 50.5588 	 7.13977 	 89.574
| 35> C 	 50.35 	 9.2803 	 89.4432
| 36> H 	 50.4467 	 10.0851 	 88.6929
| 37> H 	 51.2119 	 9.41454 	 90.0969
| 38> H 	 49.5907 	 9.42483 	 90.1961
| 39> H 	 46.9449 	 7.90236 	 82.3194
| 40> H 	 48.6471 	 2.72839 	 88.4672
| 41> *
| 42>
| 43>                          ****END OF INPUT****

CARTESIAN COORDINATES (ANGSTROEM)
---------------------------------
  S     46.899700    6.254270   84.249700
  C     47.410600    7.607230   83.272300
  C     48.521600    8.225000   83.784900
  C     49.068700    7.569790   84.906200
  C     48.251100    6.537240   85.364400
  H     49.915700    7.968020   85.449200
  C     49.078500    9.546300   83.236400
  H     49.186100    9.340470   82.172100
  H     50.097100    9.638860   83.631100
  C     48.321500   10.861800   83.518500
  H     47.226300   10.882200   83.205400
  H     48.273500   10.981300   84.636300
  C     48.994000   12.162200   82.978100
  H     49.261600   11.976300   81.958200
  H     48.339900   12.985700   83.035700
  H     49.864000   12.415000   83.542900
  S     48.349800    3.982600   86.306300
  C     48.594600    3.700440   88.033300
  C     48.830700    4.880190   88.695100
  C     48.710900    6.084170   87.899100
  C     48.373900    5.743890   86.585700
  H     49.013700    4.888080   89.738600
  C     48.880300    7.490240   88.425200
  H     48.208200    7.437020   89.385800
  H     48.369700    8.200410   87.730600
  C     50.240000    7.893730   88.818100
  H     50.883300    7.868700   87.890900
  H     50.558800    7.139770   89.574000
  C     50.350000    9.280300   89.443200
  H     50.446700   10.085100   88.692900
  H     51.211900    9.414540   90.096900
  H     49.590700    9.424830   90.196100
  H     46.944900    7.902360   82.319400
  H     48.647100    2.728390   88.467200

 Total Charge           Charge          ....    0
 Multiplicity           Mult            ....    1
 Number of Electrons    NEL             ....  134
 Basis Dimension        Dim             ....  322

ORBITAL ENERGIES
----------------

  NO   OCC          E(Eh)            E(eV)
   0   2.0000     -88.967764     -2420.9359
   1   2.0000     -88.963141     -2420.8101
   2   2.0000     -10.332008      -281.1482
   3   2.0000     -10.328574      -281.0548
   4   2.0000     -10.317739      -280.7600
   5   2.0000     -10.312135      -280.6075
   6   2.0000     -10.307806      -280.4897
   7   2.0000     -10.299758      -280.2707
   8   2.0000     -10.297465      -280.2083
   9   2.0000     -10.297017      -280.1961
  10   2.0000     -10.295390      -280.1518
  11   2.0000     -10.294671      -280.1322
  12   2.0000     -10.294041      -280.1151
  13   2.0000     -10.293347      -280.0962
  14   2.0000     -10.280999      -279.7602
  15   2.0000     -10.273791      -279.5641
  16   2.0000      -8.082071      -219.9243
  17   2.0000      -8.077367      -219.7963
  18   2.0000      -6.040520      -164.3709
  19   2.0000      -6.036643      -164.2654
  20   2.0000      -6.035928      -164.2460
  21   2.0000      -6.032912      -164.1639
  22   2.0000      -6.032069      -164.1409
  23   2.0000      -6.027966      -164.0293
  24   2.0000      -1.002780       -27.2870
  25   2.0000      -0.980351       -26.6767
  26   2.0000      -0.917359       -24.9626
  27   2.0000      -0.904543       -24.6139
  28   2.0000      -0.866917       -23.5900
  29   2.0000      -0.853819       -23.2336
  30   2.0000      -0.847183       -23.0530
  31   2.0000      -0.814375       -22.1603
  32   2.0000      -0.785160       -21.3653
  33   2.0000      -0.772416       -21.0185
  34   2.0000      -0.704290       -19.1647
  35   2.0000      -0.698887       -19.0177
  36   2.0000      -0.692408       -18.8414
  37   2.0000      -0.663028       -18.0419
  38   2.0000      -0.636681       -17.3250
  39   2.0000      -0.618864       -16.8402
  40   2.0000      -0.596591       -16.2341
  41   2.0000      -0.575588       -15.6626
  42   2.0000      -0.566169       -15.4062
  43   2.0000      -0.553500       -15.0615
  44   2.0000      -0.526808       -14.3352
  45   2.0000      -0.522437       -14.2162
  46   2.0000      -0.520838       -14.1727
  47   2.0000      -0.516850       -14.0642
  48   2.0000      -0.505047       -13.7430
  49   2.0000      -0.496959       -13.5230
  50   2.0000      -0.492616       -13.4048
  51   2.0000      -0.480080       -13.0636
  52   2.0000      -0.476533       -12.9671
  53   2.0000      -0.463758       -12.6195
  54   2.0000      -0.457557       -12.4508
  55   2.0000      -0.453440       -12.3387
  56   2.0000      -0.446179       -12.1412
  57   2.0000      -0.440236       -11.9794
  58   2.0000      -0.430358       -11.7106
  59   2.0000      -0.420217       -11.4347
  60   2.0000      -0.418975       -11.4009
  61   2.0000      -0.416592       -11.3360
  62   2.0000      -0.414666       -11.2836
  63   2.0000      -0.344912        -9.3855
  64   2.0000      -0.333149        -9.0654
  65   2.0000      -0.328501        -8.9390
  66   2.0000      -0.291317        -7.9271
  67   0.0000       0.026906         0.7322
  68   0.0000       0.070891         1.9290
  69   0.0000       0.106090         2.8869
  70   0.0000       0.120973         3.2918
  71   0.0000       0.121270         3.2999

MULLIKEN ATOMIC CHARGES
-----------------------
   0 S :    0.117453
   1 C :   -0.123165
   2 C :   -0.114927
   3 C :    0.059063
   4 C :   -0.165447
   5 H :    0.003695
   6 C :    0.073767
   7 H :    0.029937
   8 H :    0.014901
   9 C :   -0.109907
  10 H :    0.040175
  11 H :    0.030638
  12 C :   -0.008582
  13 H :    0.024568
  14 H :    0.026459
  15 H :    0.025782
  16 S :    0.089866
  17 C :   -0.071673
  18 C :   -0.026091
  19 C :   -0.009358
  20 C :   -0.158475
  21 H :    0.004399
  22 C :    0.009062
  23 H :    0.037197
  24 H :    0.041494
  25 C :   -0.075237
  26 H :    0.038724
  27 H :    0.031350
  28 C :   -0.024545
  29 H :    0.041046
  30 H :    0.024207
  31 H :    0.019367
  32 H :    0.053327
  33 H :    0.050930
Sum of atomic charges:    0.0000000

LOEWDIN ATOMIC CHARGES
----------------------
   0 S :    0.403985
   1 C :   -0.201141
   2 C :   -0.069207
   3 C :   -0.061172
   4 C :   -0.187398
   5 H :    0.030394
   6 C :   -0.034606
   7 H :    0.030400
   8 H :    0.029368
   9 C :   -0.047287
  10 H :    0.029172
  11 H :    0.026414
  12 C :   -0.055721
  13 H :    0.021973
  14 H :    0.022488
  15 H :    0.021653
  16 S :    0.380023
  17 C :   -0.170328
  18 C :   -0.066223
  19 C :   -0.052316
  20 C :   -0.187618
  21 H :    0.023719
  22 C :   -0.043837
  23 H :    0.041197
  24 H :    0.034150
  25 C :   -0.049178
  26 H :    0.029297
  27 H :    0.030257
  28 C :   -0.069639
  29 H :    0.029456
  30 H :    0.028688
  31 H :    0.024374
  32 H :    0.033068
  33 H :    0.025592

  Mayer bond orders larger than 0.100000
B(  0-S ,  1-C ) :   1.1351 B(  0-S ,  4-C ) :   1.1629 B(  1-C ,  2-C ) :   1.6120
B(  1-C ,  4-C ) :   0.1007 B(  1-C , 32-H ) :   0.9651 B(  2-C ,  3-C ) :   1.2701
B(  2-C ,  6-C ) :   1.0153 B(  3-C ,  4-C ) :   1.5419 B(  3-C ,  5-H ) :   0.9923
B(  4-C , 20-C ) :   1.0317 B(  6-C ,  7-H ) :   0.9365 B(  6-C ,  8-H ) :   0.9407
B(  6-C ,  9-C ) :   1.0575 B(  9-C , 10-H ) :   0.9588 B(  9-C , 11-H ) :   0.9567
B(  9-C , 12-C ) :   1.0766 B( 12-C , 13-H ) :   0.9771 B( 12-C , 14-H ) :   0.9748
B( 12-C , 15-H ) :   0.9765 B( 16-S , 17-C ) :   1.1333 B( 16-S , 20-C ) :   1.1387
B( 17-C , 18-C ) :   1.6297 B( 17-C , 33-H ) :   0.9728 B( 18-C , 19-C ) :   1.2113
B( 18-C , 21-H ) :   0.9912 B( 19-C , 20-C ) :   1.6123 B( 19-C , 22-C ) :   1.0393
B( 22-C , 23-H ) :   0.9273 B( 22-C , 24-H ) :   0.9345 B( 22-C , 25-C ) :   1.0742
B( 25-C , 26-H ) :   0.9495 B( 25-C , 27-H ) :   0.9487 B( 25-C , 28-C ) :   1.0885
B( 28-C , 29-H ) :   0.9749 B( 28-C , 30-H ) :   0.9719 B( 28-C , 31-H ) :   0.9687

Dispersion correction           -0.013795878
FINAL SINGLE POINT ENERGY     -1339.886448274897

DIPOLE MOMENT
-------------
                                X             Y             Z
Electronic contribution:    -11.09483     -30.56893      -5.29477
Nuclear contribution   :     11.43763      31.18829       5.61860
                        -----------------------------------------
Total Dipole Moment    :      0.34279       0.61937       0.32383
                        -----------------------------------------
Magnitude (a.u.)       :      0.77845
Magnitude (Debye)      :      1.97867

Rotational constants in cm-1:     0.017400     0.008842     0.006143
Rotational constants in MHz :   521.651896   265.085686   184.158602

                             ****ORCA TERMINATED NORMALLY****
TOTAL RUN TIME: 0 days 0 hours 0 minutes 29 seconds 232 msec
