                         Program Version 4.2.1 -  RELEASE  -
|  1> ! wB97X-D3 SP def2-SVP
|  2> %pal
|  3> nprocs 16
|  4> end
|  5>
|  6> * xyz 0 1
|  7> S 	 -18.9628 	 52.3898 	 65.5689
|  8> C 	 -18.6786 	 50.631 	 65.5665
|  9> C 	 -19.7062 	 49.8868 	 66.1369
| 10> C 	 -20.7219 	 50.7578 	 66.7098
| 11> C 	 -20.5065 	 52.0737 	 66.4194
| 12> H 	 -21.6983 	 50.6052 	 67.1801
| 13> C 	 -19.8386 	 48.4173 	 66.0445
| 14> H 	 -19.4798 	 47.9053 	 66.9612
| 15> H 	 -18.9875 	 48.1752 	 65.2853
| 16> C 	 -21.2305 	 47.9502 	 65.6408
| 17> H 	 -21.1934 	 46.8635 	 65.5267
| 18> H 	 -21.8473 	 48.0322 	 66.5457
| 19> C 	 -21.9162 	 48.6783 	 64.4577
| 20> H 	 -21.1735 	 48.7976 	 63.7052
| 21> H 	 -22.7251 	 48.135 	 64.0572
| 22> H 	 -22.2322 	 49.666 	 64.8665
| 23> S 	 -21.9794 	 54.1809 	 65.4239
| 24> C 	 -22.9131 	 55.2207 	 66.461
| 25> C 	 -23.032 	 54.6307 	 67.6868
| 26> C 	 -22.1832 	 53.4905 	 67.8783
| 27> C 	 -21.4233 	 53.1711 	 66.7557
| 28> H 	 -23.4829 	 55.191 	 68.5008
| 29> C 	 -22.0524 	 52.8848 	 69.2816
| 30> H 	 -22.1014 	 51.7642 	 69.3632
| 31> H 	 -22.8015 	 53.3934 	 69.8511
| 32> C 	 -20.7303 	 53.2476 	 69.9566
| 33> H 	 -20.7266 	 54.3342 	 70.1029
| 34> H 	 -19.9431 	 52.9407 	 69.2862
| 35> C 	 -20.4739 	 52.5295 	 71.3014
| 36> H 	 -19.6201 	 52.8397 	 71.8081
| 37> H 	 -20.3631 	 51.4188 	 71.0745
| 38> H 	 -21.3751 	 52.6842 	 71.8143
| 39> H 	 -17.8003 	 50.2614 	 65.0633
| 40> H 	 -23.5719 	 55.9705 	 66.0019
| 41> *
| 42>
| 43>                          ****END OF INPUT****

CARTESIAN COORDINATES (ANGSTROEM)
---------------------------------
  S    -18.962800   52.389800   65.568900
  C    -18.678600   50.631000   65.566500
  C    -19.706200   49.886800   66.136900
  C    -20.721900   50.757800   66.709800
  C    -20.506500   52.073700   66.419400
  H    -21.698300   50.605200   67.180100
  C    -19.838600   48.417300   66.044500
  H    -19.479800   47.905300   66.961200
  H    -18.987500   48.175200   65.285300
  C    -21.230500   47.950200   65.640800
  H    -21.193400   46.863500   65.526700
  H    -21.847300   48.032200   66.545700
  C    -21.916200   48.678300   64.457700
  H    -21.173500   48.797600   63.705200
  H    -22.725100   48.135000   64.057200
  H    -22.232200   49.666000   64.866500
  S    -21.979400   54.180900   65.423900
  C    -22.913100   55.220700   66.461000
  C    -23.032000   54.630700   67.686800
  C    -22.183200   53.490500   67.878300
  C    -21.423300   53.171100   66.755700
  H    -23.482900   55.191000   68.500800
  C    -22.052400   52.884800   69.281600
  H    -22.101400   51.764200   69.363200
  H    -22.801500   53.393400   69.851100
  C    -20.730300   53.247600   69.956600
  H    -20.726600   54.334200   70.102900
  H    -19.943100   52.940700   69.286200
  C    -20.473900   52.529500   71.301400
  H    -19.620100   52.839700   71.808100
  H    -20.363100   51.418800   71.074500
  H    -21.375100   52.684200   71.814300
  H    -17.800300   50.261400   65.063300
  H    -23.571900   55.970500   66.001900

 Total Charge           Charge          ....    0
 Multiplicity           Mult            ....    1
 Number of Electrons    NEL             ....  134
 Basis Dimension        Dim             ....  322

ORBITAL ENERGIES
----------------

  NO   OCC          E(Eh)            E(eV)
   0   2.0000     -88.967612     -2420.9318
   1   2.0000     -88.960963     -2420.7509
   2   2.0000     -10.332755      -281.1686
   3   2.0000     -10.329062      -281.0681
   4   2.0000     -10.319008      -280.7945
   5   2.0000     -10.318337      -280.7762
   6   2.0000     -10.308258      -280.5020
   7   2.0000     -10.306640      -280.4579
   8   2.0000     -10.299945      -280.2757
   9   2.0000     -10.298814      -280.2450
  10   2.0000     -10.294851      -280.1371
  11   2.0000     -10.292747      -280.0799
  12   2.0000     -10.288834      -279.9734
  13   2.0000     -10.278038      -279.6796
  14   2.0000     -10.273485      -279.5557
  15   2.0000     -10.271846      -279.5111
  16   2.0000      -8.081388      -219.9058
  17   2.0000      -8.076219      -219.7651
  18   2.0000      -6.039915      -164.3544
  19   2.0000      -6.036250      -164.2547
  20   2.0000      -6.034625      -164.2105
  21   2.0000      -6.031969      -164.1382
  22   2.0000      -6.030554      -164.0997
  23   2.0000      -6.027138      -164.0068
  24   2.0000      -1.005110       -27.3504
  25   2.0000      -0.982510       -26.7355
  26   2.0000      -0.914119       -24.8744
  27   2.0000      -0.909619       -24.7520
  28   2.0000      -0.870033       -23.6748
  29   2.0000      -0.849205       -23.1080
  30   2.0000      -0.842557       -22.9271
  31   2.0000      -0.818990       -22.2858
  32   2.0000      -0.782807       -21.3013
  33   2.0000      -0.772659       -21.0251
  34   2.0000      -0.708771       -19.2866
  35   2.0000      -0.695811       -18.9340
  36   2.0000      -0.684615       -18.6293
  37   2.0000      -0.663120       -18.0444
  38   2.0000      -0.643943       -17.5226
  39   2.0000      -0.617698       -16.8084
  40   2.0000      -0.597226       -16.2514
  41   2.0000      -0.572332       -15.5740
  42   2.0000      -0.561302       -15.2738
  43   2.0000      -0.554231       -15.0814
  44   2.0000      -0.538669       -14.6579
  45   2.0000      -0.528261       -14.3747
  46   2.0000      -0.520509       -14.1638
  47   2.0000      -0.513625       -13.9765
  48   2.0000      -0.498014       -13.5516
  49   2.0000      -0.497912       -13.5489
  50   2.0000      -0.487899       -13.2764
  51   2.0000      -0.484941       -13.1959
  52   2.0000      -0.468965       -12.7612
  53   2.0000      -0.464835       -12.6488
  54   2.0000      -0.457580       -12.4514
  55   2.0000      -0.448688       -12.2094
  56   2.0000      -0.442155       -12.0316
  57   2.0000      -0.440199       -11.9784
  58   2.0000      -0.428673       -11.6648
  59   2.0000      -0.423192       -11.5156
  60   2.0000      -0.422165       -11.4877
  61   2.0000      -0.411335       -11.1930
  62   2.0000      -0.408143       -11.1061
  63   2.0000      -0.350449        -9.5362
  64   2.0000      -0.330898        -9.0042
  65   2.0000      -0.329016        -8.9530
  66   2.0000      -0.295167        -8.0319
  67   0.0000       0.026074         0.7095
  68   0.0000       0.066787         1.8174
  69   0.0000       0.108412         2.9500
  70   0.0000       0.115224         3.1354
  71   0.0000       0.124874         3.3980

MULLIKEN ATOMIC CHARGES
-----------------------
   0 S :    0.102736
   1 C :   -0.124462
   2 C :   -0.079664
   3 C :    0.012263
   4 C :   -0.160225
   5 H :    0.030610
   6 C :    0.052775
   7 H :    0.047749
   8 H :    0.024723
   9 C :   -0.111707
  10 H :    0.027648
  11 H :    0.026803
  12 C :    0.004597
  13 H :    0.026540
  14 H :    0.031319
  15 H :    0.044960
  16 S :    0.086798
  17 C :   -0.100321
  18 C :   -0.035193
  19 C :   -0.040206
  20 C :   -0.153979
  21 H :    0.030599
  22 C :    0.061944
  23 H :    0.031365
  24 H :    0.007977
  25 C :   -0.103477
  26 H :    0.026253
  27 H :    0.035452
  28 C :   -0.011046
  29 H :    0.032209
  30 H :    0.033330
  31 H :    0.016599
  32 H :    0.048642
  33 H :    0.076387
Sum of atomic charges:   -0.0000000

LOEWDIN ATOMIC CHARGES
----------------------
   0 S :    0.371102
   1 C :   -0.181424
   2 C :   -0.060826
   3 C :   -0.064210
   4 C :   -0.178544
   5 H :    0.039500
   6 C :   -0.042991
   7 H :    0.038467
   8 H :    0.036997
   9 C :   -0.047831
  10 H :    0.025246
  11 H :    0.023356
  12 C :   -0.054009
  13 H :    0.023633
  14 H :    0.022116
  15 H :    0.034962
  16 S :    0.402774
  17 C :   -0.187592
  18 C :   -0.078136
  19 C :   -0.059016
  20 C :   -0.194582
  21 H :    0.033515
  22 C :   -0.031929
  23 H :    0.031387
  24 H :    0.023551
  25 C :   -0.037873
  26 H :    0.021573
  27 H :    0.020343
  28 C :   -0.056089
  29 H :    0.018661
  30 H :    0.032368
  31 H :    0.016089
  32 H :    0.023270
  33 H :    0.036143

  Mayer bond orders larger than 0.100000
B(  0-S ,  1-C ) :   1.1197 B(  0-S ,  4-C ) :   1.1262 B(  1-C ,  2-C ) :   1.6488
B(  1-C , 32-H ) :   0.9663 B(  2-C ,  3-C ) :   1.1642 B(  2-C ,  6-C ) :   1.0251
B(  3-C ,  4-C ) :   1.6424 B(  3-C ,  5-H ) :   0.9815 B(  4-C , 20-C ) :   1.0290
B(  6-C ,  7-H ) :   0.9311 B(  6-C ,  8-H ) :   0.9387 B(  6-C ,  9-C ) :   1.0718
B(  9-C , 10-H ) :   0.9538 B(  9-C , 11-H ) :   0.9475 B(  9-C , 12-C ) :   1.0720
B( 12-C , 13-H ) :   0.9771 B( 12-C , 14-H ) :   0.9732 B( 12-C , 15-H ) :   0.9663
B( 16-S , 17-C ) :   1.1619 B( 16-S , 20-C ) :   1.1553 B( 17-C , 18-C ) :   1.6024
B( 17-C , 20-C ) :   0.1025 B( 17-C , 33-H ) :   0.9626 B( 18-C , 19-C ) :   1.2656
B( 18-C , 21-H ) :   0.9779 B( 19-C , 20-C ) :   1.5788 B( 19-C , 22-C ) :   1.0480
B( 22-C , 23-H ) :   0.9383 B( 22-C , 24-H ) :   0.9267 B( 22-C , 25-C ) :   1.0670
B( 25-C , 26-H ) :   0.9538 B( 25-C , 27-H ) :   0.9607 B( 25-C , 28-C ) :   1.0800
B( 28-C , 29-H ) :   0.9744 B( 28-C , 30-H ) :   0.9731 B( 28-C , 31-H ) :   0.9757

Dispersion correction           -0.014963514
FINAL SINGLE POINT ENERGY     -1339.872314547523

DIPOLE MOMENT
-------------
                                X             Y             Z
Electronic contribution:      3.65489      16.46098     -13.98000
Nuclear contribution   :     -3.89271     -16.85377      14.28192
                        -----------------------------------------
Total Dipole Moment    :     -0.23782      -0.39279       0.30192
                        -----------------------------------------
Magnitude (a.u.)       :      0.54954
Magnitude (Debye)      :      1.39682

Rotational constants in cm-1:     0.016996     0.009492     0.008018
Rotational constants in MHz :   509.538172   284.548431   240.385822

                             ****ORCA TERMINATED NORMALLY****
TOTAL RUN TIME: 0 days 0 hours 0 minutes 34 seconds 382 msec
