                         Program Version 4.2.1 -  RELEASE  -
|  1> ! wB97X-D3 SP def2-SVP
|  2> %pal
|  3> nprocs 16
|  4> end
|  5>
|  6> * xyz 0 1
|  7> S 	 31.8032 	 2.32782 	 71.1561
|  8> C 	 30.6067 	 2.86181 	 72.2851
|  9> C 	 29.3546 	 2.27616 	 72.0471
| 10> C 	 29.4766 	 1.22322 	 71.0686
| 11> C 	 30.7724 	 0.960528 	 70.685
| 12> H 	 28.7633 	 0.388298 	 70.9445
| 13> C 	 28.1384 	 2.5542 	 72.9036
| 14> H 	 28.0557 	 3.60601 	 73.1542
| 15> H 	 28.1804 	 2.02918 	 73.8582
| 16> C 	 26.7435 	 2.26297 	 72.3463
| 17> H 	 26.6154 	 1.24643 	 72.0238
| 18> H 	 25.9564 	 2.48193 	 73.0629
| 19> C 	 26.4924 	 3.08729 	 71.073
| 20> H 	 26.7348 	 4.15121 	 71.297
| 21> H 	 27.0163 	 2.77405 	 70.1371
| 22> H 	 25.3781 	 3.09875 	 70.9043
| 23> S 	 30.7937 	 -0.0728243 	 68.0252
| 24> C 	 31.2513 	 -1.72044 	 67.9325
| 25> C 	 31.5792 	 -2.26194 	 69.135
| 26> C 	 31.5664 	 -1.39552 	 70.23
| 27> C 	 31.1681 	 -0.104914 	 69.7923
| 28> H 	 31.6364 	 -3.34937 	 69.0593
| 29> C 	 31.9215 	 -1.92895 	 71.5986
| 30> H 	 31.0577 	 -1.84838 	 72.2916
| 31> H 	 32.705 	 -1.23259 	 71.929
| 32> C 	 32.4414 	 -3.39317 	 71.588
| 33> H 	 33.1845 	 -3.61595 	 70.7711
| 34> H 	 31.6048 	 -4.09766 	 71.3365
| 35> C 	 33.0601 	 -3.78864 	 72.9923
| 36> H 	 33.7178 	 -4.68465 	 72.7833
| 37> H 	 32.1908 	 -3.91251 	 73.6604
| 38> H 	 33.6 	 -2.94919 	 73.3756
| 39> H 	 30.8329 	 3.5876 	 73.094
| 40> H 	 31.2067 	 -2.31673 	 67.0156
| 41> *
| 42>
| 43>                          ****END OF INPUT****

CARTESIAN COORDINATES (ANGSTROEM)
---------------------------------
  S     31.803200    2.327820   71.156100
  C     30.606700    2.861810   72.285100
  C     29.354600    2.276160   72.047100
  C     29.476600    1.223220   71.068600
  C     30.772400    0.960528   70.685000
  H     28.763300    0.388298   70.944500
  C     28.138400    2.554200   72.903600
  H     28.055700    3.606010   73.154200
  H     28.180400    2.029180   73.858200
  C     26.743500    2.262970   72.346300
  H     26.615400    1.246430   72.023800
  H     25.956400    2.481930   73.062900
  C     26.492400    3.087290   71.073000
  H     26.734800    4.151210   71.297000
  H     27.016300    2.774050   70.137100
  H     25.378100    3.098750   70.904300
  S     30.793700   -0.072824   68.025200
  C     31.251300   -1.720440   67.932500
  C     31.579200   -2.261940   69.135000
  C     31.566400   -1.395520   70.230000
  C     31.168100   -0.104914   69.792300
  H     31.636400   -3.349370   69.059300
  C     31.921500   -1.928950   71.598600
  H     31.057700   -1.848380   72.291600
  H     32.705000   -1.232590   71.929000
  C     32.441400   -3.393170   71.588000
  H     33.184500   -3.615950   70.771100
  H     31.604800   -4.097660   71.336500
  C     33.060100   -3.788640   72.992300
  H     33.717800   -4.684650   72.783300
  H     32.190800   -3.912510   73.660400
  H     33.600000   -2.949190   73.375600
  H     30.832900    3.587600   73.094000
  H     31.206700   -2.316730   67.015600

 Total Charge           Charge          ....    0
 Multiplicity           Mult            ....    1
 Number of Electrons    NEL             ....  134
 Basis Dimension        Dim             ....  322

ORBITAL ENERGIES
----------------

  NO   OCC          E(Eh)            E(eV)
   0   2.0000     -88.967459     -2420.9276
   1   2.0000     -88.962231     -2420.7854
   2   2.0000     -10.326107      -280.9877
   3   2.0000     -10.324492      -280.9437
   4   2.0000     -10.315846      -280.7084
   5   2.0000     -10.311126      -280.5800
   6   2.0000     -10.306306      -280.4489
   7   2.0000     -10.305671      -280.4316
   8   2.0000     -10.299245      -280.2567
   9   2.0000     -10.297357      -280.2053
  10   2.0000     -10.295418      -280.1526
  11   2.0000     -10.289982      -280.0046
  12   2.0000     -10.286143      -279.9002
  13   2.0000     -10.283723      -279.8343
  14   2.0000     -10.283044      -279.8159
  15   2.0000     -10.279678      -279.7243
  16   2.0000      -8.081861      -219.9186
  17   2.0000      -8.077149      -219.7904
  18   2.0000      -6.040171      -164.3614
  19   2.0000      -6.036541      -164.2626
  20   2.0000      -6.035554      -164.2358
  21   2.0000      -6.032730      -164.1589
  22   2.0000      -6.031723      -164.1315
  23   2.0000      -6.027916      -164.0279
  24   2.0000      -1.003002       -27.2931
  25   2.0000      -0.983243       -26.7554
  26   2.0000      -0.911043       -24.7907
  27   2.0000      -0.906757       -24.6741
  28   2.0000      -0.868495       -23.6329
  29   2.0000      -0.848497       -23.0888
  30   2.0000      -0.841718       -22.9043
  31   2.0000      -0.810649       -22.0589
  32   2.0000      -0.781935       -21.2775
  33   2.0000      -0.765939       -20.8423
  34   2.0000      -0.704661       -19.1748
  35   2.0000      -0.700752       -19.0684
  36   2.0000      -0.686556       -18.6821
  37   2.0000      -0.643726       -17.5167
  38   2.0000      -0.634901       -17.2765
  39   2.0000      -0.618360       -16.8264
  40   2.0000      -0.599715       -16.3191
  41   2.0000      -0.566113       -15.4047
  42   2.0000      -0.564727       -15.3670
  43   2.0000      -0.550383       -14.9767
  44   2.0000      -0.538300       -14.6479
  45   2.0000      -0.530379       -14.4323
  46   2.0000      -0.513198       -13.9648
  47   2.0000      -0.505009       -13.7420
  48   2.0000      -0.502627       -13.6772
  49   2.0000      -0.492848       -13.4111
  50   2.0000      -0.482833       -13.1386
  51   2.0000      -0.473709       -12.8903
  52   2.0000      -0.469021       -12.7627
  53   2.0000      -0.465995       -12.6804
  54   2.0000      -0.456175       -12.4132
  55   2.0000      -0.446397       -12.1471
  56   2.0000      -0.441031       -12.0011
  57   2.0000      -0.435138       -11.8407
  58   2.0000      -0.429026       -11.6744
  59   2.0000      -0.424988       -11.5645
  60   2.0000      -0.418761       -11.3951
  61   2.0000      -0.418267       -11.3816
  62   2.0000      -0.414492       -11.2789
  63   2.0000      -0.337184        -9.1752
  64   2.0000      -0.329346        -8.9620
  65   2.0000      -0.311731        -8.4826
  66   2.0000      -0.306539        -8.3413
  67   0.0000       0.036409         0.9908
  68   0.0000       0.049654         1.3512
  69   0.0000       0.103727         2.8225
  70   0.0000       0.126254         3.4355
  71   0.0000       0.135242         3.6801

MULLIKEN ATOMIC CHARGES
-----------------------
   0 S :    0.107134
   1 C :   -0.133634
   2 C :   -0.076752
   3 C :    0.036234
   4 C :   -0.204192
   5 H :    0.036264
   6 C :    0.059199
   7 H :    0.021082
   8 H :    0.041985
   9 C :   -0.068930
  10 H :    0.022212
  11 H :    0.032553
  12 C :   -0.100917
  13 H :    0.025577
  14 H :    0.058341
  15 H :    0.034201
  16 S :    0.127149
  17 C :   -0.096909
  18 C :   -0.059534
  19 C :   -0.024226
  20 C :   -0.186743
  21 H :    0.021216
  22 C :    0.098114
  23 H :    0.046673
  24 H :    0.042503
  25 C :   -0.164082
  26 H :    0.044535
  27 H :    0.039717
  28 C :   -0.020581
  29 H :    0.055722
  30 H :    0.037923
  31 H :    0.029361
  32 H :    0.062505
  33 H :    0.056303
Sum of atomic charges:    0.0000000

LOEWDIN ATOMIC CHARGES
----------------------
   0 S :    0.395495
   1 C :   -0.200244
   2 C :   -0.064682
   3 C :   -0.064564
   4 C :   -0.192488
   5 H :    0.038405
   6 C :   -0.036517
   7 H :    0.029644
   8 H :    0.034457
   9 C :   -0.043231
  10 H :    0.017712
  11 H :    0.028581
  12 C :   -0.075701
  13 H :    0.022728
  14 H :    0.031467
  15 H :    0.028753
  16 S :    0.406108
  17 C :   -0.194473
  18 C :   -0.090408
  19 C :   -0.039908
  20 C :   -0.203912
  21 H :    0.035523
  22 C :   -0.033312
  23 H :    0.040517
  24 H :    0.040232
  25 C :   -0.051574
  26 H :    0.026270
  27 H :    0.025482
  28 C :   -0.064458
  29 H :    0.038284
  30 H :    0.029268
  31 H :    0.020140
  32 H :    0.034403
  33 H :    0.032007

  Mayer bond orders larger than 0.100000
B(  0-S ,  1-C ) :   1.1541 B(  0-S ,  4-C ) :   1.1295 B(  1-C ,  2-C ) :   1.6065
B(  1-C , 32-H ) :   0.9681 B(  2-C ,  3-C ) :   1.2293 B(  2-C ,  6-C ) :   1.0201
B(  3-C ,  4-C ) :   1.6150 B(  3-C ,  5-H ) :   0.9787 B(  4-C , 20-C ) :   1.0502
B(  6-C ,  7-H ) :   0.9421 B(  6-C ,  8-H ) :   0.9373 B(  6-C ,  9-C ) :   1.0899
B(  9-C , 10-H ) :   0.9485 B(  9-C , 11-H ) :   0.9553 B(  9-C , 12-C ) :   1.0747
B( 12-C , 13-H ) :   0.9756 B( 12-C , 14-H ) :   0.9740 B( 12-C , 15-H ) :   0.9760
B( 16-S , 17-C ) :   1.1686 B( 16-S , 20-C ) :   1.1413 B( 17-C , 18-C ) :   1.6125
B( 17-C , 33-H ) :   0.9538 B( 18-C , 19-C ) :   1.2695 B( 18-C , 21-H ) :   0.9805
B( 19-C , 20-C ) :   1.5695 B( 19-C , 22-C ) :   1.0163 B( 22-C , 23-H ) :   0.9216
B( 22-C , 24-H ) :   0.9258 B( 22-C , 25-C ) :   1.0912 B( 25-C , 26-H ) :   0.9544
B( 25-C , 27-H ) :   0.9477 B( 25-C , 28-C ) :   1.0590 B( 28-C , 29-H ) :   0.9750
B( 28-C , 30-H ) :   0.9752 B( 28-C , 31-H ) :   0.9785

Dispersion correction           -0.013957739
FINAL SINGLE POINT ENERGY     -1339.865131866965

DIPOLE MOMENT
-------------
                                X             Y             Z
Electronic contribution:     10.37779       8.97171     -15.38934
Nuclear contribution   :    -10.72189      -9.47642      15.85385
                        -----------------------------------------
Total Dipole Moment    :     -0.34410      -0.50471       0.46451
                        -----------------------------------------
Magnitude (a.u.)       :      0.76740
Magnitude (Debye)      :      1.95057

Rotational constants in cm-1:     0.017959     0.007856     0.006942
Rotational constants in MHz :   538.405355   235.512955   208.108875

                             ****ORCA TERMINATED NORMALLY****
TOTAL RUN TIME: 0 days 0 hours 0 minutes 29 seconds 584 msec
