                         Program Version 4.2.1 -  RELEASE  -
|  1> ! wB97X-D3 SP def2-SVP
|  2> %pal
|  3> nprocs 16
|  4> end
|  5>
|  6> * xyz 0 1
|  7> S 	 39.003 	 9.1529 	 76.4901
|  8> C 	 38.8307 	 7.74803 	 77.4969
|  9> C 	 37.785 	 7.85315 	 78.3505
| 10> C 	 37.1433 	 9.18396 	 78.2599
| 11> C 	 37.7879 	 10.0294 	 77.4128
| 12> H 	 36.3672 	 9.57144 	 78.9343
| 13> C 	 37.3307 	 6.86567 	 79.4588
| 14> H 	 37.9803 	 6.02589 	 79.519
| 15> H 	 36.5188 	 6.3055 	 79.1123
| 16> C 	 37.0187 	 7.37871 	 80.7655
| 17> H 	 36.2578 	 8.09604 	 80.7402
| 18> H 	 36.549 	 6.63466 	 81.3883
| 19> C 	 38.1788 	 8.09467 	 81.4433
| 20> H 	 37.8573 	 8.73847 	 82.2716
| 21> H 	 38.8172 	 7.31977 	 81.9698
| 22> H 	 38.7857 	 8.68742 	 80.7961
| 23> S 	 36.348 	 12.3464 	 78.311
| 24> C 	 36.4576 	 13.8711 	 77.4085
| 25> C 	 37.2231 	 13.6031 	 76.3065
| 26> C 	 37.7383 	 12.2923 	 76.154
| 27> C 	 37.4771 	 11.4508 	 77.2192
| 28> H 	 37.3798 	 14.4272 	 75.5029
| 29> C 	 38.6493 	 11.9025 	 75.0052
| 30> H 	 39.6181 	 11.3942 	 75.306
| 31> H 	 39.2103 	 12.8076 	 74.5628
| 32> C 	 37.9402 	 11.0567 	 73.9626
| 33> H 	 37.3736 	 10.1674 	 74.3605
| 34> H 	 38.7556 	 10.6159 	 73.3862
| 35> C 	 37.0846 	 11.9153 	 73.0716
| 36> H 	 36.5207 	 12.592 	 73.7775
| 37> H 	 36.3249 	 11.2176 	 72.6969
| 38> H 	 37.6102 	 12.4907 	 72.3442
| 39> H 	 39.3818 	 6.81426 	 77.3397
| 40> H 	 36.0461 	 14.789 	 77.7567
| 41> *
| 42>
| 43>                          ****END OF INPUT****

CARTESIAN COORDINATES (ANGSTROEM)
---------------------------------
  S     39.003000    9.152900   76.490100
  C     38.830700    7.748030   77.496900
  C     37.785000    7.853150   78.350500
  C     37.143300    9.183960   78.259900
  C     37.787900   10.029400   77.412800
  H     36.367200    9.571440   78.934300
  C     37.330700    6.865670   79.458800
  H     37.980300    6.025890   79.519000
  H     36.518800    6.305500   79.112300
  C     37.018700    7.378710   80.765500
  H     36.257800    8.096040   80.740200
  H     36.549000    6.634660   81.388300
  C     38.178800    8.094670   81.443300
  H     37.857300    8.738470   82.271600
  H     38.817200    7.319770   81.969800
  H     38.785700    8.687420   80.796100
  S     36.348000   12.346400   78.311000
  C     36.457600   13.871100   77.408500
  C     37.223100   13.603100   76.306500
  C     37.738300   12.292300   76.154000
  C     37.477100   11.450800   77.219200
  H     37.379800   14.427200   75.502900
  C     38.649300   11.902500   75.005200
  H     39.618100   11.394200   75.306000
  H     39.210300   12.807600   74.562800
  C     37.940200   11.056700   73.962600
  H     37.373600   10.167400   74.360500
  H     38.755600   10.615900   73.386200
  C     37.084600   11.915300   73.071600
  H     36.520700   12.592000   73.777500
  H     36.324900   11.217600   72.696900
  H     37.610200   12.490700   72.344200
  H     39.381800    6.814260   77.339700
  H     36.046100   14.789000   77.756700

 Total Charge           Charge          ....    0
 Multiplicity           Mult            ....    1
 Number of Electrons    NEL             ....  134
 Basis Dimension        Dim             ....  322

ORBITAL ENERGIES
----------------

  NO   OCC          E(Eh)            E(eV)
   0   2.0000     -88.967581     -2420.9310
   1   2.0000     -88.964842     -2420.8564
   2   2.0000     -10.336204      -281.2624
   3   2.0000     -10.334355      -281.2121
   4   2.0000     -10.323016      -280.9036
   5   2.0000     -10.313317      -280.6396
   6   2.0000     -10.306723      -280.4602
   7   2.0000     -10.303586      -280.3748
   8   2.0000     -10.302564      -280.3470
   9   2.0000     -10.297932      -280.2210
  10   2.0000     -10.296684      -280.1870
  11   2.0000     -10.281567      -279.7757
  12   2.0000     -10.281134      -279.7639
  13   2.0000     -10.273626      -279.5596
  14   2.0000     -10.272238      -279.5218
  15   2.0000     -10.271608      -279.5047
  16   2.0000      -8.081704      -219.9144
  17   2.0000      -8.078326      -219.8224
  18   2.0000      -6.040519      -164.3709
  19   2.0000      -6.037073      -164.2771
  20   2.0000      -6.036283      -164.2556
  21   2.0000      -6.033003      -164.1664
  22   2.0000      -6.032148      -164.1431
  23   2.0000      -6.028906      -164.0549
  24   2.0000      -1.007221       -27.4079
  25   2.0000      -0.985151       -26.8073
  26   2.0000      -0.924370       -25.1534
  27   2.0000      -0.911080       -24.7917
  28   2.0000      -0.875022       -23.8105
  29   2.0000      -0.847660       -23.0660
  30   2.0000      -0.839086       -22.8327
  31   2.0000      -0.815068       -22.1791
  32   2.0000      -0.787757       -21.4360
  33   2.0000      -0.775630       -21.1060
  34   2.0000      -0.713544       -19.4165
  35   2.0000      -0.696454       -18.9515
  36   2.0000      -0.684723       -18.6323
  37   2.0000      -0.668606       -18.1937
  38   2.0000      -0.633646       -17.2424
  39   2.0000      -0.622222       -16.9315
  40   2.0000      -0.601432       -16.3658
  41   2.0000      -0.568909       -15.4808
  42   2.0000      -0.563158       -15.3243
  43   2.0000      -0.551539       -15.0081
  44   2.0000      -0.549056       -14.9406
  45   2.0000      -0.537125       -14.6159
  46   2.0000      -0.518510       -14.1094
  47   2.0000      -0.513320       -13.9681
  48   2.0000      -0.505042       -13.7429
  49   2.0000      -0.498210       -13.5570
  50   2.0000      -0.489803       -13.3282
  51   2.0000      -0.481848       -13.1118
  52   2.0000      -0.472365       -12.8537
  53   2.0000      -0.465813       -12.6754
  54   2.0000      -0.456083       -12.4106
  55   2.0000      -0.449403       -12.2289
  56   2.0000      -0.442272       -12.0348
  57   2.0000      -0.434277       -11.8173
  58   2.0000      -0.425693       -11.5837
  59   2.0000      -0.422227       -11.4894
  60   2.0000      -0.407774       -11.0961
  61   2.0000      -0.403762       -10.9869
  62   2.0000      -0.397663       -10.8210
  63   2.0000      -0.368300       -10.0220
  64   2.0000      -0.331909        -9.0317
  65   2.0000      -0.327762        -8.9189
  66   2.0000      -0.289763        -7.8849
  67   0.0000       0.017609         0.4792
  68   0.0000       0.085573         2.3286
  69   0.0000       0.111142         3.0243
  70   0.0000       0.119619         3.2550
  71   0.0000       0.126959         3.4547

MULLIKEN ATOMIC CHARGES
-----------------------
   0 S :    0.089475
   1 C :   -0.115744
   2 C :   -0.095200
   3 C :   -0.036920
   4 C :   -0.106946
   5 H :    0.031244
   6 C :    0.149007
   7 H :   -0.009838
   8 H :    0.008524
   9 C :   -0.041196
  10 H :    0.003671
  11 H :    0.018161
  12 C :   -0.063225
  13 H :    0.027821
  14 H :    0.026733
  15 H :    0.045066
  16 S :    0.060006
  17 C :   -0.081052
  18 C :   -0.039182
  19 C :   -0.045087
  20 C :   -0.080622
  21 H :    0.050603
  22 C :   -0.064079
  23 H :    0.052637
  24 H :    0.035640
  25 C :   -0.077347
  26 H :    0.053069
  27 H :    0.019481
  28 C :   -0.016107
  29 H :    0.024797
  30 H :    0.031330
  31 H :    0.033596
  32 H :    0.054093
  33 H :    0.057593
Sum of atomic charges:    0.0000000

LOEWDIN ATOMIC CHARGES
----------------------
   0 S :    0.419788
   1 C :   -0.202909
   2 C :   -0.053246
   3 C :   -0.069864
   4 C :   -0.175141
   5 H :    0.030184
   6 C :   -0.031450
   7 H :    0.026386
   8 H :    0.030982
   9 C :   -0.045200
  10 H :    0.015234
  11 H :    0.030274
  12 C :   -0.063931
  13 H :    0.026187
  14 H :    0.028566
  15 H :    0.023731
  16 S :    0.366254
  17 C :   -0.169061
  18 C :   -0.083000
  19 C :   -0.071142
  20 C :   -0.162597
  21 H :    0.044690
  22 C :   -0.058998
  23 H :    0.027512
  24 H :    0.040208
  25 C :   -0.054794
  26 H :    0.028048
  27 H :    0.022407
  28 C :   -0.064894
  29 H :    0.030043
  30 H :    0.030142
  31 H :    0.020143
  32 H :    0.035033
  33 H :    0.030417

  Mayer bond orders larger than 0.100000
B(  0-S ,  1-C ) :   1.1113 B(  0-S ,  4-C ) :   1.1257 B(  1-C ,  2-C ) :   1.6750
B(  1-C , 32-H ) :   0.9598 B(  2-C ,  3-C ) :   1.1908 B(  2-C ,  6-C ) :   1.0076
B(  3-C ,  4-C ) :   1.6117 B(  3-C ,  5-H ) :   0.9829 B(  4-C , 20-C ) :   1.0869
B(  6-C ,  7-H ) :   0.9309 B(  6-C ,  8-H ) :   0.9128 B(  6-C ,  9-C ) :   1.1027
B(  9-C , 10-H ) :   0.9447 B(  9-C , 11-H ) :   0.9397 B(  9-C , 12-C ) :   1.0754
B( 12-C , 13-H ) :   0.9754 B( 12-C , 14-H ) :   0.9751 B( 12-C , 15-H ) :   0.9764
B( 16-S , 17-C ) :   1.1397 B( 16-S , 20-C ) :   1.1225 B( 17-C , 18-C ) :   1.5932
B( 17-C , 33-H ) :   0.9775 B( 18-C , 19-C ) :   1.2632 B( 18-C , 21-H ) :   0.9683
B( 19-C , 20-C ) :   1.5761 B( 19-C , 22-C ) :   1.0233 B( 22-C , 23-H ) :   0.9439
B( 22-C , 24-H ) :   0.9394 B( 22-C , 25-C ) :   1.0477 B( 25-C , 26-H ) :   0.9591
B( 25-C , 27-H ) :   0.9486 B( 25-C , 28-C ) :   1.0730 B( 28-C , 29-H ) :   0.9750
B( 28-C , 30-H ) :   0.9723 B( 28-C , 31-H ) :   0.9756

Dispersion correction           -0.014972776
FINAL SINGLE POINT ENERGY     -1339.861889048550

DIPOLE MOMENT
-------------
                                X             Y             Z
Electronic contribution:      0.00887       6.88905       0.19214
Nuclear contribution   :     -0.04515      -7.02931      -0.21447
                        -----------------------------------------
Total Dipole Moment    :     -0.03628      -0.14026      -0.02233
                        -----------------------------------------
Magnitude (a.u.)       :      0.14659
Magnitude (Debye)      :      0.37259

Rotational constants in cm-1:     0.022302     0.009038     0.006951
Rotational constants in MHz :   668.589834   270.967139   208.383558

                             ****ORCA TERMINATED NORMALLY****
TOTAL RUN TIME: 0 days 0 hours 0 minutes 29 seconds 287 msec
