                         Program Version 4.2.1 -  RELEASE  -
|  1> ! wB97X-D3 SP def2-SVP
|  2> %pal
|  3> nprocs 16
|  4> end
|  5>
|  6> * xyz 0 1
|  7> S 	 -40.8793 	 14.6544 	 77.9985
|  8> C 	 -40.2386 	 14.474 	 76.3817
|  9> C 	 -41.1915 	 14.1481 	 75.4391
| 10> C 	 -42.4805 	 14.1307 	 76.0512
| 11> C 	 -42.4835 	 14.2747 	 77.3734
| 12> H 	 -43.4852 	 13.9241 	 75.5313
| 13> C 	 -40.8869 	 13.7738 	 73.971
| 14> H 	 -41.5112 	 12.9309 	 73.7694
| 15> H 	 -39.973 	 13.2773 	 73.8437
| 16> C 	 -40.9888 	 14.7551 	 72.8031
| 17> H 	 -40.6873 	 15.8055 	 73.0378
| 18> H 	 -40.3622 	 14.2873 	 71.991
| 19> C 	 -42.3939 	 14.7524 	 72.3856
| 20> H 	 -42.6195 	 13.8098 	 71.8534
| 21> H 	 -43.1198 	 14.6937 	 73.2315
| 22> H 	 -42.6386 	 15.5691 	 71.73
| 23> S 	 -44.4138 	 15.4039 	 79.1116
| 24> C 	 -45.4818 	 14.3175 	 79.9393
| 25> C 	 -45.1608 	 13.0125 	 79.6926
| 26> C 	 -44.1224 	 12.8513 	 78.7313
| 27> C 	 -43.6123 	 14.0584 	 78.3171
| 28> H 	 -45.7215 	 12.2344 	 80.2016
| 29> C 	 -43.7365 	 11.4925 	 78.2185
| 30> H 	 -43.5209 	 10.8879 	 79.1516
| 31> H 	 -42.8974 	 11.5346 	 77.6309
| 32> C 	 -44.9552 	 10.8693 	 77.4329
| 33> H 	 -45.9146 	 10.9162 	 77.8666
| 34> H 	 -44.6718 	 9.78719 	 77.3226
| 35> C 	 -45.1161 	 11.388 	 76.0666
| 36> H 	 -44.1287 	 11.5301 	 75.4959
| 37> H 	 -45.6186 	 12.4016 	 76.2131
| 38> H 	 -45.7867 	 10.7662 	 75.5255
| 39> H 	 -39.174 	 14.5206 	 76.1251
| 40> H 	 -46.1082 	 14.6065 	 80.7208
| 41> *
| 42>
| 43>                          ****END OF INPUT****

CARTESIAN COORDINATES (ANGSTROEM)
---------------------------------
  S    -40.879300   14.654400   77.998500
  C    -40.238600   14.474000   76.381700
  C    -41.191500   14.148100   75.439100
  C    -42.480500   14.130700   76.051200
  C    -42.483500   14.274700   77.373400
  H    -43.485200   13.924100   75.531300
  C    -40.886900   13.773800   73.971000
  H    -41.511200   12.930900   73.769400
  H    -39.973000   13.277300   73.843700
  C    -40.988800   14.755100   72.803100
  H    -40.687300   15.805500   73.037800
  H    -40.362200   14.287300   71.991000
  C    -42.393900   14.752400   72.385600
  H    -42.619500   13.809800   71.853400
  H    -43.119800   14.693700   73.231500
  H    -42.638600   15.569100   71.730000
  S    -44.413800   15.403900   79.111600
  C    -45.481800   14.317500   79.939300
  C    -45.160800   13.012500   79.692600
  C    -44.122400   12.851300   78.731300
  C    -43.612300   14.058400   78.317100
  H    -45.721500   12.234400   80.201600
  C    -43.736500   11.492500   78.218500
  H    -43.520900   10.887900   79.151600
  H    -42.897400   11.534600   77.630900
  C    -44.955200   10.869300   77.432900
  H    -45.914600   10.916200   77.866600
  H    -44.671800    9.787190   77.322600
  C    -45.116100   11.388000   76.066600
  H    -44.128700   11.530100   75.495900
  H    -45.618600   12.401600   76.213100
  H    -45.786700   10.766200   75.525500
  H    -39.174000   14.520600   76.125100
  H    -46.108200   14.606500   80.720800

 Total Charge           Charge          ....    0
 Multiplicity           Mult            ....    1
 Number of Electrons    NEL             ....  134
 Basis Dimension        Dim             ....  322

ORBITAL ENERGIES
----------------

  NO   OCC          E(Eh)            E(eV)
   0   2.0000     -88.964794     -2420.8551
   1   2.0000     -88.962453     -2420.7914
   2   2.0000     -10.323756      -280.9237
   3   2.0000     -10.322627      -280.8930
   4   2.0000     -10.314618      -280.6750
   5   2.0000     -10.310341      -280.5586
   6   2.0000     -10.303090      -280.3613
   7   2.0000     -10.298848      -280.2459
   8   2.0000     -10.295270      -280.1486
   9   2.0000     -10.290787      -280.0265
  10   2.0000     -10.289882      -280.0019
  11   2.0000     -10.288629      -279.9678
  12   2.0000     -10.286144      -279.9002
  13   2.0000     -10.283917      -279.8396
  14   2.0000     -10.279820      -279.7281
  15   2.0000     -10.272463      -279.5279
  16   2.0000      -8.079565      -219.8561
  17   2.0000      -8.077570      -219.8019
  18   2.0000      -6.038040      -164.3034
  19   2.0000      -6.036008      -164.2481
  20   2.0000      -6.034206      -164.1991
  21   2.0000      -6.032048      -164.1404
  22   2.0000      -6.030221      -164.0907
  23   2.0000      -6.028371      -164.0403
  24   2.0000      -1.007950       -27.4277
  25   2.0000      -0.987674       -26.8760
  26   2.0000      -0.919355       -25.0169
  27   2.0000      -0.914111       -24.8742
  28   2.0000      -0.869506       -23.6605
  29   2.0000      -0.853710       -23.2306
  30   2.0000      -0.847858       -23.0714
  31   2.0000      -0.818377       -22.2692
  32   2.0000      -0.784679       -21.3522
  33   2.0000      -0.772408       -21.0183
  34   2.0000      -0.697120       -18.9696
  35   2.0000      -0.696978       -18.9657
  36   2.0000      -0.693486       -18.8707
  37   2.0000      -0.654622       -17.8132
  38   2.0000      -0.643555       -17.5120
  39   2.0000      -0.617487       -16.8027
  40   2.0000      -0.604731       -16.4556
  41   2.0000      -0.575320       -15.6552
  42   2.0000      -0.556168       -15.1341
  43   2.0000      -0.551920       -15.0185
  44   2.0000      -0.541745       -14.7416
  45   2.0000      -0.537749       -14.6329
  46   2.0000      -0.528111       -14.3706
  47   2.0000      -0.514964       -14.0129
  48   2.0000      -0.500020       -13.6062
  49   2.0000      -0.493810       -13.4373
  50   2.0000      -0.485692       -13.2163
  51   2.0000      -0.478439       -13.0190
  52   2.0000      -0.468040       -12.7360
  53   2.0000      -0.466073       -12.6825
  54   2.0000      -0.463521       -12.6130
  55   2.0000      -0.443867       -12.0782
  56   2.0000      -0.440589       -11.9890
  57   2.0000      -0.436855       -11.8874
  58   2.0000      -0.435714       -11.8564
  59   2.0000      -0.432976       -11.7819
  60   2.0000      -0.419614       -11.4183
  61   2.0000      -0.412508       -11.2249
  62   2.0000      -0.401984       -10.9385
  63   2.0000      -0.338828        -9.2200
  64   2.0000      -0.329315        -8.9611
  65   2.0000      -0.325408        -8.8548
  66   2.0000      -0.309664        -8.4264
  67   0.0000       0.048419         1.3176
  68   0.0000       0.060069         1.6346
  69   0.0000       0.115044         3.1305
  70   0.0000       0.123843         3.3699
  71   0.0000       0.127722         3.4755

MULLIKEN ATOMIC CHARGES
-----------------------
   0 S :    0.116012
   1 C :   -0.119689
   2 C :   -0.075175
   3 C :    0.012424
   4 C :   -0.175810
   5 H :    0.044118
   6 C :    0.075461
   7 H :    0.001989
   8 H :   -0.004951
   9 C :   -0.047195
  10 H :    0.044712
  11 H :    0.037727
  12 C :   -0.061239
  13 H :    0.020831
  14 H :    0.029505
  15 H :    0.030066
  16 S :    0.107496
  17 C :   -0.067638
  18 C :   -0.043430
  19 C :   -0.035353
  20 C :   -0.197028
  21 H :    0.019679
  22 C :    0.133040
  23 H :    0.041174
  24 H :    0.006958
  25 C :   -0.085037
  26 H :    0.027026
  27 H :    0.028694
  28 C :   -0.073080
  29 H :    0.043488
  30 H :    0.045298
  31 H :    0.031515
  32 H :    0.049820
  33 H :    0.038594
Sum of atomic charges:    0.0000000

LOEWDIN ATOMIC CHARGES
----------------------
   0 S :    0.395790
   1 C :   -0.188563
   2 C :   -0.066135
   3 C :   -0.071511
   4 C :   -0.192298
   5 H :    0.046650
   6 C :   -0.031230
   7 H :    0.028832
   8 H :    0.023075
   9 C :   -0.043578
  10 H :    0.031283
  11 H :    0.034004
  12 C :   -0.071712
  13 H :    0.025378
  14 H :    0.026672
  15 H :    0.019943
  16 S :    0.403639
  17 C :   -0.177583
  18 C :   -0.071957
  19 C :   -0.054371
  20 C :   -0.209764
  21 H :    0.032145
  22 C :   -0.014589
  23 H :    0.042166
  24 H :    0.016935
  25 C :   -0.040082
  26 H :    0.019738
  27 H :    0.025364
  28 C :   -0.070226
  29 H :    0.029218
  30 H :    0.032186
  31 H :    0.021266
  32 H :    0.030738
  33 H :    0.018578

  Mayer bond orders larger than 0.100000
B(  0-S ,  1-C ) :   1.1385 B(  0-S ,  4-C ) :   1.1342 B(  1-C ,  2-C ) :   1.6500
B(  1-C , 32-H ) :   0.9630 B(  2-C ,  3-C ) :   1.2087 B(  2-C ,  6-C ) :   1.0110
B(  3-C ,  4-C ) :   1.6590 B(  3-C ,  5-H ) :   0.9698 B(  4-C , 20-C ) :   0.9915
B(  6-C ,  7-H ) :   0.9348 B(  6-C ,  8-H ) :   0.9369 B(  6-C ,  9-C ) :   1.0620
B(  9-C , 10-H ) :   0.9578 B(  9-C , 11-H ) :   0.9516 B(  9-C , 12-C ) :   1.0835
B( 12-C , 13-H ) :   0.9692 B( 12-C , 14-H ) :   0.9756 B( 12-C , 15-H ) :   0.9713
B( 16-S , 17-C ) :   1.1573 B( 16-S , 20-C ) :   1.1408 B( 17-C , 18-C ) :   1.6250
B( 17-C , 33-H ) :   0.9704 B( 18-C , 19-C ) :   1.2269 B( 18-C , 21-H ) :   0.9891
B( 19-C , 20-C ) :   1.6129 B( 19-C , 22-C ) :   1.0490 B( 22-C , 23-H ) :   0.9314
B( 22-C , 24-H ) :   0.9292 B( 22-C , 25-C ) :   1.0591 B( 25-C , 26-H ) :   0.9604
B( 25-C , 27-H ) :   0.9543 B( 25-C , 28-C ) :   1.0846 B( 28-C , 29-H ) :   0.9684
B( 28-C , 30-H ) :   0.9703 B( 28-C , 31-H ) :   0.9671

Dispersion correction           -0.015524533
FINAL SINGLE POINT ENERGY     -1339.868338800221

DIPOLE MOMENT
-------------
                                X             Y             Z
Electronic contribution:      4.18208      13.76927      23.80915
Nuclear contribution   :     -4.28721     -14.39542     -24.14671
                        -----------------------------------------
Total Dipole Moment    :     -0.10512      -0.62615      -0.33756
                        -----------------------------------------
Magnitude (a.u.)       :      0.71907
Magnitude (Debye)      :      1.82773

Rotational constants in cm-1:     0.019492     0.008939     0.007476
Rotational constants in MHz :   584.351993   267.976536   224.130992

                             ****ORCA TERMINATED NORMALLY****
TOTAL RUN TIME: 0 days 0 hours 0 minutes 31 seconds 735 msec
