                         Program Version 4.2.1 -  RELEASE  -
|  1> ! wB97X-D3 SP def2-SVP
|  2> %pal
|  3> nprocs 16
|  4> end
|  5>
|  6> * xyz 0 1
|  7> S 	 -6.15163 	 -14.1552 	 82.63
|  8> C 	 -5.05778 	 -13.969 	 81.2598
|  9> C 	 -3.96381 	 -13.2011 	 81.6245
| 10> C 	 -4.02387 	 -12.7274 	 82.9514
| 11> C 	 -5.15936 	 -13.096 	 83.6756
| 12> H 	 -3.31173 	 -12.1612 	 83.4594
| 13> C 	 -2.79992 	 -12.7546 	 80.7594
| 14> H 	 -2.6606 	 -11.6274 	 80.726
| 15> H 	 -2.95295 	 -12.8893 	 79.6778
| 16> C 	 -1.54688 	 -13.5662 	 81.1108
| 17> H 	 -1.31036 	 -13.7931 	 82.1476
| 18> H 	 -1.66249 	 -14.5934 	 80.6569
| 19> C 	 -0.336951 	 -12.9398 	 80.4563
| 20> H 	 -0.60145 	 -12.6009 	 79.4378
| 21> H 	 -0.0611217 	 -11.9737 	 80.8605
| 22> H 	 0.536666 	 -13.635 	 80.422
| 23> S 	 -5.91287 	 -14.179 	 86.0644
| 24> C 	 -5.72969 	 -13.2703 	 87.5085
| 25> C 	 -5.36975 	 -11.9556 	 87.2486
| 26> C 	 -5.28176 	 -11.6728 	 85.8638
| 27> C 	 -5.42238 	 -12.7831 	 85.0918
| 28> H 	 -5.32123 	 -11.2984 	 88.0877
| 29> C 	 -4.85073 	 -10.2847 	 85.4233
| 30> H 	 -3.77034 	 -10.2967 	 85.1082
| 31> H 	 -4.9608 	 -9.60797 	 86.2332
| 32> C 	 -5.62001 	 -9.7474 	 84.1799
| 33> H 	 -6.69223 	 -10.0082 	 84.1834
| 34> H 	 -5.20435 	 -10.1576 	 83.3607
| 35> C 	 -5.49598 	 -8.22099 	 83.9274
| 36> H 	 -6.17184 	 -7.8894 	 84.6745
| 37> H 	 -5.83424 	 -8.01497 	 82.9397
| 38> H 	 -4.46848 	 -7.92829 	 84.0496
| 39> H 	 -5.15768 	 -14.5061 	 80.3958
| 40> H 	 -5.79856 	 -13.6486 	 88.4816
| 41> *
| 42>
| 43>                          ****END OF INPUT****

CARTESIAN COORDINATES (ANGSTROEM)
---------------------------------
  S     -6.151630  -14.155200   82.630000
  C     -5.057780  -13.969000   81.259800
  C     -3.963810  -13.201100   81.624500
  C     -4.023870  -12.727400   82.951400
  C     -5.159360  -13.096000   83.675600
  H     -3.311730  -12.161200   83.459400
  C     -2.799920  -12.754600   80.759400
  H     -2.660600  -11.627400   80.726000
  H     -2.952950  -12.889300   79.677800
  C     -1.546880  -13.566200   81.110800
  H     -1.310360  -13.793100   82.147600
  H     -1.662490  -14.593400   80.656900
  C     -0.336951  -12.939800   80.456300
  H     -0.601450  -12.600900   79.437800
  H     -0.061122  -11.973700   80.860500
  H      0.536666  -13.635000   80.422000
  S     -5.912870  -14.179000   86.064400
  C     -5.729690  -13.270300   87.508500
  C     -5.369750  -11.955600   87.248600
  C     -5.281760  -11.672800   85.863800
  C     -5.422380  -12.783100   85.091800
  H     -5.321230  -11.298400   88.087700
  C     -4.850730  -10.284700   85.423300
  H     -3.770340  -10.296700   85.108200
  H     -4.960800   -9.607970   86.233200
  C     -5.620010   -9.747400   84.179900
  H     -6.692230  -10.008200   84.183400
  H     -5.204350  -10.157600   83.360700
  C     -5.495980   -8.220990   83.927400
  H     -6.171840   -7.889400   84.674500
  H     -5.834240   -8.014970   82.939700
  H     -4.468480   -7.928290   84.049600
  H     -5.157680  -14.506100   80.395800
  H     -5.798560  -13.648600   88.481600

 Total Charge           Charge          ....    0
 Multiplicity           Mult            ....    1
 Number of Electrons    NEL             ....  134
 Basis Dimension        Dim             ....  322

ORBITAL ENERGIES
----------------

  NO   OCC          E(Eh)            E(eV)
   0   2.0000     -88.965858     -2420.8841
   1   2.0000     -88.965069     -2420.8626
   2   2.0000     -10.335077      -281.2317
   3   2.0000     -10.327834      -281.0347
   4   2.0000     -10.312604      -280.6202
   5   2.0000     -10.312050      -280.6051
   6   2.0000     -10.303166      -280.3634
   7   2.0000     -10.302194      -280.3370
   8   2.0000     -10.300397      -280.2880
   9   2.0000     -10.294664      -280.1320
  10   2.0000     -10.290908      -280.0298
  11   2.0000     -10.288941      -279.9763
  12   2.0000     -10.288141      -279.9545
  13   2.0000     -10.278971      -279.7050
  14   2.0000     -10.270848      -279.4840
  15   2.0000     -10.268509      -279.4203
  16   2.0000      -8.080381      -219.8784
  17   2.0000      -8.079675      -219.8591
  18   2.0000      -6.038824      -164.3248
  19   2.0000      -6.038346      -164.3118
  20   2.0000      -6.034814      -164.2156
  21   2.0000      -6.034186      -164.1986
  22   2.0000      -6.031164      -164.1163
  23   2.0000      -6.030446      -164.0968
  24   2.0000      -1.007449       -27.4141
  25   2.0000      -0.984412       -26.7872
  26   2.0000      -0.912679       -24.8353
  27   2.0000      -0.908299       -24.7161
  28   2.0000      -0.869642       -23.6641
  29   2.0000      -0.856960       -23.3191
  30   2.0000      -0.847060       -23.0497
  31   2.0000      -0.814982       -22.1768
  32   2.0000      -0.782174       -21.2840
  33   2.0000      -0.770807       -20.9747
  34   2.0000      -0.710484       -19.3332
  35   2.0000      -0.700191       -19.0532
  36   2.0000      -0.691553       -18.8181
  37   2.0000      -0.667702       -18.1691
  38   2.0000      -0.650727       -17.7072
  39   2.0000      -0.624252       -16.9867
  40   2.0000      -0.596894       -16.2423
  41   2.0000      -0.574788       -15.6408
  42   2.0000      -0.568936       -15.4815
  43   2.0000      -0.552113       -15.0238
  44   2.0000      -0.533307       -14.5120
  45   2.0000      -0.524190       -14.2639
  46   2.0000      -0.521376       -14.1874
  47   2.0000      -0.515223       -14.0199
  48   2.0000      -0.510134       -13.8815
  49   2.0000      -0.500303       -13.6139
  50   2.0000      -0.499032       -13.5793
  51   2.0000      -0.490727       -13.3534
  52   2.0000      -0.469549       -12.7771
  53   2.0000      -0.464424       -12.6376
  54   2.0000      -0.453447       -12.3389
  55   2.0000      -0.449128       -12.2214
  56   2.0000      -0.444315       -12.0904
  57   2.0000      -0.436290       -11.8721
  58   2.0000      -0.430842       -11.7238
  59   2.0000      -0.425459       -11.5773
  60   2.0000      -0.417046       -11.3484
  61   2.0000      -0.411579       -11.1996
  62   2.0000      -0.408619       -11.1191
  63   2.0000      -0.349304        -9.5051
  64   2.0000      -0.333957        -9.0874
  65   2.0000      -0.329732        -8.9725
  66   2.0000      -0.289923        -7.8892
  67   0.0000       0.026616         0.7243
  68   0.0000       0.070072         1.9068
  69   0.0000       0.109474         2.9789
  70   0.0000       0.118504         3.2246
  71   0.0000       0.139222         3.7884

MULLIKEN ATOMIC CHARGES
-----------------------
   0 S :    0.094572
   1 C :   -0.084509
   2 C :   -0.039868
   3 C :    0.049094
   4 C :   -0.132536
   5 H :   -0.017789
   6 C :    0.011886
   7 H :    0.044617
   8 H :    0.019633
   9 C :   -0.081469
  10 H :    0.039439
  11 H :    0.033887
  12 C :   -0.042563
  13 H :    0.012707
  14 H :    0.022575
  15 H :    0.044991
  16 S :    0.107772
  17 C :   -0.065128
  18 C :   -0.048238
  19 C :   -0.022081
  20 C :   -0.156900
  21 H :    0.012018
  22 C :    0.070987
  23 H :    0.046201
  24 H :    0.004947
  25 C :   -0.086491
  26 H :    0.034021
  27 H :    0.002745
  28 C :   -0.011150
  29 H :    0.029574
  30 H :    0.029816
  31 H :    0.024989
  32 H :    0.015529
  33 H :    0.036722
Sum of atomic charges:   -0.0000000

LOEWDIN ATOMIC CHARGES
----------------------
   0 S :    0.381811
   1 C :   -0.177095
   2 C :   -0.060120
   3 C :   -0.055325
   4 C :   -0.177161
   5 H :    0.019813
   6 C :   -0.038952
   7 H :    0.036654
   8 H :    0.031014
   9 C :   -0.045277
  10 H :    0.023634
  11 H :    0.032792
  12 C :   -0.071119
  13 H :    0.022855
  14 H :    0.020517
  15 H :    0.030336
  16 S :    0.413959
  17 C :   -0.180220
  18 C :   -0.069715
  19 C :   -0.057469
  20 C :   -0.187593
  21 H :    0.028663
  22 C :   -0.024329
  23 H :    0.039300
  24 H :    0.020861
  25 C :   -0.032930
  26 H :    0.026493
  27 H :    0.002382
  28 C :   -0.050780
  29 H :    0.022277
  30 H :    0.023643
  31 H :    0.020775
  32 H :    0.010996
  33 H :    0.019311

  Mayer bond orders larger than 0.100000
B(  0-S ,  1-C ) :   1.1322 B(  0-S ,  4-C ) :   1.1432 B(  1-C ,  2-C ) :   1.5966
B(  1-C ,  4-C ) :   0.1017 B(  1-C , 32-H ) :   0.9826 B(  2-C ,  3-C ) :   1.2452
B(  2-C ,  6-C ) :   1.0200 B(  3-C ,  4-C ) :   1.5635 B(  3-C ,  5-H ) :   1.0026
B(  4-C , 20-C ) :   1.0449 B(  6-C ,  7-H ) :   0.9574 B(  6-C ,  8-H ) :   0.9373
B(  6-C ,  9-C ) :   1.0388 B(  9-C , 10-H ) :   0.9663 B(  9-C , 11-H ) :   0.9506
B(  9-C , 12-C ) :   1.0813 B( 12-C , 13-H ) :   0.9657 B( 12-C , 14-H ) :   0.9743
B( 12-C , 15-H ) :   0.9732 B( 16-S , 17-C ) :   1.1688 B( 16-S , 20-C ) :   1.1325
B( 17-C , 18-C ) :   1.6089 B( 17-C , 33-H ) :   0.9726 B( 18-C , 19-C ) :   1.2313
B( 18-C , 21-H ) :   0.9964 B( 19-C , 20-C ) :   1.6057 B( 19-C , 22-C ) :   1.0489
B( 22-C , 23-H ) :   0.9290 B( 22-C , 24-H ) :   0.9375 B( 22-C , 25-C ) :   1.0541
B( 25-C , 26-H ) :   0.9658 B( 25-C , 27-H ) :   0.9492 B( 25-C , 28-C ) :   1.0819
B( 28-C , 29-H ) :   0.9839 B( 28-C , 30-H ) :   0.9755 B( 28-C , 31-H ) :   0.9739

Dispersion correction           -0.014167423
FINAL SINGLE POINT ENERGY     -1339.864822603229

DIPOLE MOMENT
-------------
                                X             Y             Z
Electronic contribution:    -17.87353     -18.99029      12.38595
Nuclear contribution   :     18.37716      19.38658     -12.42806
                        -----------------------------------------
Total Dipole Moment    :      0.50363       0.39630      -0.04211
                        -----------------------------------------
Magnitude (a.u.)       :      0.64224
Magnitude (Debye)      :      1.63244

Rotational constants in cm-1:     0.016843     0.008743     0.007208
Rotational constants in MHz :   504.949115   262.111592   216.084881

                             ****ORCA TERMINATED NORMALLY****
TOTAL RUN TIME: 0 days 0 hours 0 minutes 26 seconds 819 msec
