                         Program Version 4.2.1 -  RELEASE  -
|  1> ! wB97X-D3 SP def2-SVP
|  2> %pal
|  3> nprocs 16
|  4> end
|  5>
|  6> * xyz 0 1
|  7> S 	 -1.24152 	 9.32619 	 79.7331
|  8> C 	 -0.428626 	 9.30576 	 78.2259
|  9> C 	 -0.0789913 	 7.98581 	 77.926
| 10> C 	 -0.765448 	 7.00002 	 78.7842
| 11> C 	 -1.49335 	 7.61522 	 79.8232
| 12> H 	 -0.832102 	 5.97257 	 78.5606
| 13> C 	 0.753958 	 7.57629 	 76.7392
| 14> H 	 0.722694 	 6.4843 	 76.6285
| 15> H 	 1.73626 	 7.79423 	 77.1482
| 16> C 	 0.548348 	 8.51577 	 75.5496
| 17> H 	 -0.52026 	 8.55698 	 75.2318
| 18> H 	 0.795937 	 9.52534 	 75.8831
| 19> C 	 1.37401 	 8.0801 	 74.387
| 20> H 	 2.41018 	 8.20975 	 74.6412
| 21> H 	 1.10069 	 7.11627 	 74.0237
| 22> H 	 1.2689 	 8.65994 	 73.4999
| 23> S 	 -1.73737 	 6.6789 	 82.3976
| 24> C 	 -3.31898 	 6.10112 	 82.9788
| 25> C 	 -4.2055 	 5.97866 	 81.9503
| 26> C 	 -3.6673 	 6.53592 	 80.684
| 27> C 	 -2.33297 	 6.97522 	 80.8076
| 28> H 	 -5.19807 	 5.55877 	 82.117
| 29> C 	 -4.45412 	 6.51746 	 79.3858
| 30> H 	 -5.32738 	 5.87109 	 79.6599
| 31> H 	 -3.74841 	 5.98086 	 78.7458
| 32> C 	 -4.97996 	 7.88289 	 78.8273
| 33> H 	 -4.16447 	 8.52401 	 78.4533
| 34> H 	 -5.43492 	 8.34761 	 79.7418
| 35> C 	 -5.9889 	 7.58612 	 77.7876
| 36> H 	 -5.57677 	 7.22976 	 76.8458
| 37> H 	 -6.51376 	 8.56753 	 77.5724
| 38> H 	 -6.85295 	 7.0785 	 78.1703
| 39> H 	 0.0036447 	 10.1637 	 77.6971
| 40> H 	 -3.48908 	 5.94565 	 84.0055
| 41> *
| 42>
| 43>                          ****END OF INPUT****

CARTESIAN COORDINATES (ANGSTROEM)
---------------------------------
  S     -1.241520    9.326190   79.733100
  C     -0.428626    9.305760   78.225900
  C     -0.078991    7.985810   77.926000
  C     -0.765448    7.000020   78.784200
  C     -1.493350    7.615220   79.823200
  H     -0.832102    5.972570   78.560600
  C      0.753958    7.576290   76.739200
  H      0.722694    6.484300   76.628500
  H      1.736260    7.794230   77.148200
  C      0.548348    8.515770   75.549600
  H     -0.520260    8.556980   75.231800
  H      0.795937    9.525340   75.883100
  C      1.374010    8.080100   74.387000
  H      2.410180    8.209750   74.641200
  H      1.100690    7.116270   74.023700
  H      1.268900    8.659940   73.499900
  S     -1.737370    6.678900   82.397600
  C     -3.318980    6.101120   82.978800
  C     -4.205500    5.978660   81.950300
  C     -3.667300    6.535920   80.684000
  C     -2.332970    6.975220   80.807600
  H     -5.198070    5.558770   82.117000
  C     -4.454120    6.517460   79.385800
  H     -5.327380    5.871090   79.659900
  H     -3.748410    5.980860   78.745800
  C     -4.979960    7.882890   78.827300
  H     -4.164470    8.524010   78.453300
  H     -5.434920    8.347610   79.741800
  C     -5.988900    7.586120   77.787600
  H     -5.576770    7.229760   76.845800
  H     -6.513760    8.567530   77.572400
  H     -6.852950    7.078500   78.170300
  H      0.003645   10.163700   77.697100
  H     -3.489080    5.945650   84.005500

 Total Charge           Charge          ....    0
 Multiplicity           Mult            ....    1
 Number of Electrons    NEL             ....  134
 Basis Dimension        Dim             ....  322

ORBITAL ENERGIES
----------------

  NO   OCC          E(Eh)            E(eV)
   0   2.0000     -88.963920     -2420.8313
   1   2.0000     -88.959934     -2420.7229
   2   2.0000     -10.328768      -281.0601
   3   2.0000     -10.321311      -280.8571
   4   2.0000     -10.315324      -280.6942
   5   2.0000     -10.312523      -280.6180
   6   2.0000     -10.305677      -280.4317
   7   2.0000     -10.303424      -280.3704
   8   2.0000     -10.298385      -280.2333
   9   2.0000     -10.296968      -280.1948
  10   2.0000     -10.291533      -280.0468
  11   2.0000     -10.290922      -280.0302
  12   2.0000     -10.289488      -279.9912
  13   2.0000     -10.285642      -279.8866
  14   2.0000     -10.273907      -279.5672
  15   2.0000     -10.270233      -279.4673
  16   2.0000      -8.079148      -219.8448
  17   2.0000      -8.074908      -219.7294
  18   2.0000      -6.037633      -164.2923
  19   2.0000      -6.033434      -164.1781
  20   2.0000      -6.033390      -164.1769
  21   2.0000      -6.030068      -164.0865
  22   2.0000      -6.029350      -164.0669
  23   2.0000      -6.025674      -163.9669
  24   2.0000      -1.003403       -27.3040
  25   2.0000      -0.980040       -26.6682
  26   2.0000      -0.919933       -25.0327
  27   2.0000      -0.905657       -24.6442
  28   2.0000      -0.871795       -23.7227
  29   2.0000      -0.850634       -23.1469
  30   2.0000      -0.847283       -23.0557
  31   2.0000      -0.817003       -22.2318
  32   2.0000      -0.779543       -21.2124
  33   2.0000      -0.761755       -20.7284
  34   2.0000      -0.713041       -19.4028
  35   2.0000      -0.700248       -19.0547
  36   2.0000      -0.685783       -18.6611
  37   2.0000      -0.660312       -17.9680
  38   2.0000      -0.642907       -17.4944
  39   2.0000      -0.608468       -16.5573
  40   2.0000      -0.586340       -15.9551
  41   2.0000      -0.578166       -15.7327
  42   2.0000      -0.571221       -15.5437
  43   2.0000      -0.567624       -15.4458
  44   2.0000      -0.527645       -14.3579
  45   2.0000      -0.526463       -14.3258
  46   2.0000      -0.520592       -14.1660
  47   2.0000      -0.514410       -13.9978
  48   2.0000      -0.506588       -13.7850
  49   2.0000      -0.503574       -13.7029
  50   2.0000      -0.494259       -13.4495
  51   2.0000      -0.479347       -13.0437
  52   2.0000      -0.472503       -12.8575
  53   2.0000      -0.463199       -12.6043
  54   2.0000      -0.457377       -12.4459
  55   2.0000      -0.452087       -12.3019
  56   2.0000      -0.446247       -12.1430
  57   2.0000      -0.428826       -11.6689
  58   2.0000      -0.425918       -11.5898
  59   2.0000      -0.423271       -11.5178
  60   2.0000      -0.416711       -11.3393
  61   2.0000      -0.412782       -11.2324
  62   2.0000      -0.407067       -11.0769
  63   2.0000      -0.333686        -9.0801
  64   2.0000      -0.326226        -8.8771
  65   2.0000      -0.315731        -8.5915
  66   2.0000      -0.303068        -8.2469
  67   0.0000       0.044680         1.2158
  68   0.0000       0.053904         1.4668
  69   0.0000       0.114682         3.1207
  70   0.0000       0.121125         3.2960
  71   0.0000       0.137592         3.7441

MULLIKEN ATOMIC CHARGES
-----------------------
   0 S :    0.133535
   1 C :   -0.139001
   2 C :   -0.127575
   3 C :    0.060923
   4 C :   -0.175969
   5 H :    0.001725
   6 C :    0.083006
   7 H :    0.023845
   8 H :    0.034304
   9 C :   -0.102833
  10 H :    0.040103
  11 H :    0.025171
  12 C :    0.010554
  13 H :    0.022029
  14 H :    0.023065
  15 H :    0.013928
  16 S :    0.101226
  17 C :   -0.085397
  18 C :   -0.020494
  19 C :   -0.066136
  20 C :   -0.167705
  21 H :    0.028281
  22 C :    0.055298
  23 H :    0.017589
  24 H :    0.033228
  25 C :   -0.072751
  26 H :    0.048536
  27 H :    0.033814
  28 C :   -0.024257
  29 H :    0.042574
  30 H :    0.022771
  31 H :    0.020687
  32 H :    0.059833
  33 H :    0.046094
Sum of atomic charges:   -0.0000000

LOEWDIN ATOMIC CHARGES
----------------------
   0 S :    0.437672
   1 C :   -0.228217
   2 C :   -0.057662
   3 C :   -0.056621
   4 C :   -0.208153
   5 H :    0.022721
   6 C :   -0.036135
   7 H :    0.030661
   8 H :    0.039373
   9 C :   -0.038651
  10 H :    0.028442
  11 H :    0.022747
  12 C :   -0.061222
  13 H :    0.024964
  14 H :    0.023847
  15 H :    0.022580
  16 S :    0.400312
  17 C :   -0.164619
  18 C :   -0.074024
  19 C :   -0.049042
  20 C :   -0.224749
  21 H :    0.034835
  22 C :   -0.039827
  23 H :    0.032684
  24 H :    0.032046
  25 C :   -0.040827
  26 H :    0.028766
  27 H :    0.031691
  28 C :   -0.070408
  29 H :    0.027915
  30 H :    0.032668
  31 H :    0.022572
  32 H :    0.033475
  33 H :    0.020187

  Mayer bond orders larger than 0.100000
B(  0-S ,  1-C ) :   1.1449 B(  0-S ,  4-C ) :   1.1706 B(  1-C ,  2-C ) :   1.5860
B(  1-C , 32-H ) :   0.9659 B(  2-C ,  3-C ) :   1.2456 B(  2-C ,  6-C ) :   1.0177
B(  3-C ,  4-C ) :   1.5559 B(  3-C ,  5-H ) :   0.9980 B(  4-C , 20-C ) :   1.0322
B(  6-C ,  7-H ) :   0.9534 B(  6-C ,  8-H ) :   0.9173 B(  6-C ,  9-C ) :   1.0665
B(  9-C , 10-H ) :   0.9615 B(  9-C , 11-H ) :   0.9421 B(  9-C , 12-C ) :   1.0999
B( 12-C , 13-H ) :   0.9709 B( 12-C , 14-H ) :   0.9715 B( 12-C , 15-H ) :   0.9676
B( 16-S , 17-C ) :   1.1516 B( 16-S , 20-C ) :   1.1435 B( 17-C , 18-C ) :   1.6181
B( 17-C , 33-H ) :   0.9744 B( 18-C , 19-C ) :   1.2255 B( 18-C , 21-H ) :   0.9865
B( 19-C , 20-C ) :   1.5988 B( 19-C , 22-C ) :   1.0344 B( 22-C , 23-H ) :   0.9383
B( 22-C , 24-H ) :   0.9271 B( 22-C , 25-C ) :   1.0552 B( 25-C , 26-H ) :   0.9506
B( 25-C , 27-H ) :   0.9528 B( 25-C , 28-C ) :   1.1048 B( 28-C , 29-H ) :   0.9717
B( 28-C , 30-H ) :   0.9668 B( 28-C , 31-H ) :   0.9675

Dispersion correction           -0.014230664
FINAL SINGLE POINT ENERGY     -1339.867897019412

DIPOLE MOMENT
-------------
                                X             Y             Z
Electronic contribution:      4.42263       0.45321      27.05848
Nuclear contribution   :     -4.54275      -0.59924     -27.63491
                        -----------------------------------------
Total Dipole Moment    :     -0.12012      -0.14603      -0.57643
                        -----------------------------------------
Magnitude (a.u.)       :      0.60665
Magnitude (Debye)      :      1.54198

Rotational constants in cm-1:     0.020355     0.007888     0.006527
Rotational constants in MHz :   610.232860   236.484646   195.664316

                             ****ORCA TERMINATED NORMALLY****
TOTAL RUN TIME: 0 days 0 hours 0 minutes 33 seconds 905 msec
