                         Program Version 4.2.1 -  RELEASE  -
|  1> ! wB97X-D3 SP def2-SVP
|  2> %pal
|  3> nprocs 16
|  4> end
|  5>
|  6> * xyz 0 1
|  7> S 	 -71.4106 	 40.6116 	 121.27
|  8> C 	 -72.6914 	 40.4402 	 122.461
|  9> C 	 -73.0704 	 41.6716 	 122.992
| 10> C 	 -72.3214 	 42.7626 	 122.527
| 11> C 	 -71.3832 	 42.3693 	 121.488
| 12> H 	 -72.4199 	 43.7996 	 122.866
| 13> C 	 -74.1042 	 41.8342 	 124.041
| 14> H 	 -74.0521 	 42.7546 	 124.571
| 15> H 	 -73.9345 	 41.0971 	 124.846
| 16> C 	 -75.5457 	 41.4143 	 123.534
| 17> H 	 -75.8468 	 42.2141 	 122.786
| 18> H 	 -75.4418 	 40.3478 	 123.169
| 19> C 	 -76.6451 	 41.5639 	 124.685
| 20> H 	 -76.7431 	 40.6899 	 125.426
| 21> H 	 -76.4389 	 42.5076 	 125.231
| 22> H 	 -77.6562 	 41.7064 	 124.314
| 23> S 	 -68.8569 	 42.5725 	 120.449
| 24> C 	 -68.3266 	 44.0613 	 119.638
| 25> C 	 -69.3751 	 44.9264 	 119.672
| 26> C 	 -70.5512 	 44.491 	 120.332
| 27> C 	 -70.4577 	 43.2309 	 120.832
| 28> H 	 -69.295 	 45.9688 	 119.363
| 29> C 	 -71.8002 	 45.3645 	 120.444
| 30> H 	 -71.6775 	 45.9735 	 121.321
| 31> H 	 -72.6896 	 44.6462 	 120.557
| 32> C 	 -72.1217 	 46.3864 	 119.367
| 33> H 	 -72.3862 	 45.7791 	 118.459
| 34> H 	 -71.2535 	 46.8945 	 119.098
| 35> C 	 -73.3666 	 47.2181 	 119.697
| 36> H 	 -74.2338 	 46.6154 	 119.948
| 37> H 	 -73.6282 	 47.8773 	 118.94
| 38> H 	 -73.2418 	 47.8951 	 120.581
| 39> H 	 -73.0841 	 39.5092 	 122.828
| 40> H 	 -67.3611 	 44.3132 	 119.288
| 41> *
| 42>
| 43>                          ****END OF INPUT****

CARTESIAN COORDINATES (ANGSTROEM)
---------------------------------
  S    -71.410600   40.611600  121.270000
  C    -72.691400   40.440200  122.461000
  C    -73.070400   41.671600  122.992000
  C    -72.321400   42.762600  122.527000
  C    -71.383200   42.369300  121.488000
  H    -72.419900   43.799600  122.866000
  C    -74.104200   41.834200  124.041000
  H    -74.052100   42.754600  124.571000
  H    -73.934500   41.097100  124.846000
  C    -75.545700   41.414300  123.534000
  H    -75.846800   42.214100  122.786000
  H    -75.441800   40.347800  123.169000
  C    -76.645100   41.563900  124.685000
  H    -76.743100   40.689900  125.426000
  H    -76.438900   42.507600  125.231000
  H    -77.656200   41.706400  124.314000
  S    -68.856900   42.572500  120.449000
  C    -68.326600   44.061300  119.638000
  C    -69.375100   44.926400  119.672000
  C    -70.551200   44.491000  120.332000
  C    -70.457700   43.230900  120.832000
  H    -69.295000   45.968800  119.363000
  C    -71.800200   45.364500  120.444000
  H    -71.677500   45.973500  121.321000
  H    -72.689600   44.646200  120.557000
  C    -72.121700   46.386400  119.367000
  H    -72.386200   45.779100  118.459000
  H    -71.253500   46.894500  119.098000
  C    -73.366600   47.218100  119.697000
  H    -74.233800   46.615400  119.948000
  H    -73.628200   47.877300  118.940000
  H    -73.241800   47.895100  120.581000
  H    -73.084100   39.509200  122.828000
  H    -67.361100   44.313200  119.288000

 Total Charge           Charge          ....    0
 Multiplicity           Mult            ....    1
 Number of Electrons    NEL             ....  134
 Basis Dimension        Dim             ....  322

ORBITAL ENERGIES
----------------

  NO   OCC          E(Eh)            E(eV)
   0   2.0000     -88.974340     -2421.1149
   1   2.0000     -88.961675     -2420.7703
   2   2.0000     -10.336921      -281.2819
   3   2.0000     -10.324752      -280.9508
   4   2.0000     -10.318157      -280.7713
   5   2.0000     -10.314827      -280.6807
   6   2.0000     -10.306005      -280.4407
   7   2.0000     -10.301119      -280.3077
   8   2.0000     -10.299170      -280.2547
   9   2.0000     -10.298972      -280.2493
  10   2.0000     -10.293111      -280.0898
  11   2.0000     -10.291446      -280.0445
  12   2.0000     -10.290418      -280.0165
  13   2.0000     -10.289914      -280.0028
  14   2.0000     -10.285637      -279.8864
  15   2.0000     -10.278555      -279.6937
  16   2.0000      -8.087869      -220.0821
  17   2.0000      -8.075999      -219.7591
  18   2.0000      -6.046356      -164.5297
  19   2.0000      -6.042444      -164.4233
  20   2.0000      -6.038829      -164.3249
  21   2.0000      -6.034692      -164.2123
  22   2.0000      -6.030562      -164.0999
  23   2.0000      -6.026566      -163.9912
  24   2.0000      -1.006480       -27.3877
  25   2.0000      -0.982414       -26.7329
  26   2.0000      -0.911314       -24.7981
  27   2.0000      -0.907647       -24.6983
  28   2.0000      -0.870392       -23.6846
  29   2.0000      -0.852042       -23.1852
  30   2.0000      -0.843237       -22.9456
  31   2.0000      -0.810677       -22.0597
  32   2.0000      -0.781215       -21.2579
  33   2.0000      -0.771934       -21.0054
  34   2.0000      -0.712640       -19.3919
  35   2.0000      -0.706978       -19.2378
  36   2.0000      -0.695640       -18.9293
  37   2.0000      -0.661030       -17.9875
  38   2.0000      -0.638174       -17.3656
  39   2.0000      -0.615851       -16.7582
  40   2.0000      -0.600904       -16.3514
  41   2.0000      -0.573254       -15.5990
  42   2.0000      -0.569352       -15.4929
  43   2.0000      -0.556418       -15.1409
  44   2.0000      -0.532107       -14.4794
  45   2.0000      -0.520998       -14.1771
  46   2.0000      -0.513098       -13.9621
  47   2.0000      -0.510276       -13.8853
  48   2.0000      -0.504610       -13.7311
  49   2.0000      -0.499092       -13.5810
  50   2.0000      -0.490960       -13.3597
  51   2.0000      -0.484391       -13.1809
  52   2.0000      -0.475194       -12.9307
  53   2.0000      -0.468584       -12.7508
  54   2.0000      -0.456810       -12.4304
  55   2.0000      -0.452985       -12.3263
  56   2.0000      -0.446510       -12.1501
  57   2.0000      -0.435070       -11.8389
  58   2.0000      -0.429157       -11.6780
  59   2.0000      -0.428348       -11.6559
  60   2.0000      -0.415640       -11.3101
  61   2.0000      -0.415081       -11.2949
  62   2.0000      -0.412137       -11.2148
  63   2.0000      -0.354970        -9.6592
  64   2.0000      -0.333923        -9.0865
  65   2.0000      -0.329600        -8.9689
  66   2.0000      -0.281991        -7.6734
  67   0.0000       0.016104         0.4382
  68   0.0000       0.074834         2.0363
  69   0.0000       0.104648         2.8476
  70   0.0000       0.125020         3.4020
  71   0.0000       0.131994         3.5917

MULLIKEN ATOMIC CHARGES
-----------------------
   0 S :    0.130967
   1 C :   -0.121697
   2 C :   -0.043985
   3 C :   -0.000634
   4 C :   -0.164803
   5 H :    0.027068
   6 C :    0.051799
   7 H :    0.011260
   8 H :    0.027870
   9 C :   -0.110276
  10 H :    0.050141
  11 H :    0.053018
  12 C :   -0.082371
  13 H :    0.047844
  14 H :    0.032221
  15 H :    0.035477
  16 S :    0.079185
  17 C :   -0.061140
  18 C :   -0.037186
  19 C :   -0.024008
  20 C :   -0.140588
  21 H :    0.017802
  22 C :    0.011621
  23 H :    0.030547
  24 H :    0.051334
  25 C :   -0.057355
  26 H :    0.032332
  27 H :    0.012801
  28 C :   -0.022499
  29 H :    0.030359
  30 H :    0.021667
  31 H :    0.023676
  32 H :    0.043008
  33 H :    0.044549
Sum of atomic charges:    0.0000000

LOEWDIN ATOMIC CHARGES
----------------------
   0 S :    0.414577
   1 C :   -0.199630
   2 C :   -0.064774
   3 C :   -0.059330
   4 C :   -0.187470
   5 H :    0.035754
   6 C :   -0.039029
   7 H :    0.021997
   8 H :    0.034027
   9 C :   -0.037340
  10 H :    0.033247
  11 H :    0.031610
  12 C :   -0.083830
  13 H :    0.031800
  14 H :    0.027202
  15 H :    0.023718
  16 S :    0.376612
  17 C :   -0.165761
  18 C :   -0.074148
  19 C :   -0.062541
  20 C :   -0.187829
  21 H :    0.029942
  22 C :   -0.037060
  23 H :    0.026765
  24 H :    0.041175
  25 C :   -0.039629
  26 H :    0.032112
  27 H :    0.010764
  28 C :   -0.059798
  29 H :    0.028255
  30 H :    0.018656
  31 H :    0.027459
  32 H :    0.025040
  33 H :    0.027459

  Mayer bond orders larger than 0.100000
B(  0-S ,  1-C ) :   1.1410 B(  0-S ,  4-C ) :   1.1679 B(  1-C ,  2-C ) :   1.5550
B(  1-C ,  4-C ) :   0.1122 B(  1-C , 32-H ) :   0.9678 B(  2-C ,  3-C ) :   1.3001
B(  2-C ,  6-C ) :   1.0346 B(  3-C ,  4-C ) :   1.4726 B(  3-C ,  5-H ) :   0.9908
B(  4-C , 20-C ) :   1.1134 B(  6-C ,  7-H ) :   0.9458 B(  6-C ,  8-H ) :   0.9391
B(  6-C ,  9-C ) :   1.0416 B(  9-C , 10-H ) :   0.9597 B(  9-C , 11-H ) :   0.9590
B(  9-C , 12-C ) :   1.0617 B( 12-C , 13-H ) :   0.9768 B( 12-C , 14-H ) :   0.9738
B( 12-C , 15-H ) :   0.9793 B( 16-S , 17-C ) :   1.1352 B( 16-S , 20-C ) :   1.1128
B( 17-C , 18-C ) :   1.6119 B( 17-C , 33-H ) :   0.9735 B( 18-C , 19-C ) :   1.2561
B( 18-C , 21-H ) :   0.9793 B( 19-C , 20-C ) :   1.6067 B( 19-C , 22-C ) :   1.0285
B( 22-C , 23-H ) :   0.9293 B( 22-C , 24-H ) :   0.9349 B( 22-C , 25-C ) :   1.0726
B( 25-C , 26-H ) :   0.9519 B( 25-C , 27-H ) :   0.9491 B( 25-C , 28-C ) :   1.0860
B( 28-C , 29-H ) :   0.9734 B( 28-C , 30-H ) :   0.9724 B( 28-C , 31-H ) :   0.9725

Dispersion correction           -0.013250778
FINAL SINGLE POINT ENERGY     -1339.870857116834

DIPOLE MOMENT
-------------
                                X             Y             Z
Electronic contribution:     26.76025     -15.38711      -7.71366
Nuclear contribution   :    -27.20976      15.95956       7.96190
                        -----------------------------------------
Total Dipole Moment    :     -0.44951       0.57245       0.24824
                        -----------------------------------------
Magnitude (a.u.)       :      0.76902
Magnitude (Debye)      :      1.95468

Rotational constants in cm-1:     0.017627     0.008238     0.005885
Rotational constants in MHz :   528.439800   246.959636   176.438443

                             ****ORCA TERMINATED NORMALLY****
TOTAL RUN TIME: 0 days 0 hours 0 minutes 33 seconds 105 msec
