                         Program Version 4.2.1 -  RELEASE  -
|  1> ! wB97X-D3 SP def2-SVP
|  2> %pal
|  3> nprocs 16
|  4> end
|  5>
|  6> * xyz 0 1
|  7> S 	 -113.885 	 57.1016 	 109.832
|  8> C 	 -113.033 	 55.6345 	 109.52
|  9> C 	 -112.686 	 54.9763 	 110.656
| 10> C 	 -112.946 	 55.6799 	 111.866
| 11> C 	 -113.573 	 56.8754 	 111.593
| 12> H 	 -112.738 	 55.4427 	 112.851
| 13> C 	 -111.89 	 53.6821 	 110.711
| 14> H 	 -111.811 	 53.3687 	 111.755
| 15> H 	 -110.911 	 53.9432 	 110.314
| 16> C 	 -112.541 	 52.4947 	 109.907
| 17> H 	 -113.446 	 51.992 	 110.182
| 18> H 	 -112.58 	 52.6496 	 108.807
| 19> C 	 -111.545 	 51.3093 	 110.037
| 20> H 	 -112.118 	 50.4606 	 109.603
| 21> H 	 -110.601 	 51.2563 	 109.43
| 22> H 	 -111.432 	 51.052 	 111.121
| 23> S 	 -113.864 	 59.5072 	 112.365
| 24> C 	 -114.574 	 59.8453 	 113.927
| 25> C 	 -114.928 	 58.6717 	 114.602
| 26> C 	 -114.585 	 57.5403 	 113.851
| 27> C 	 -114.071 	 57.7601 	 112.597
| 28> H 	 -115.423 	 58.6589 	 115.535
| 29> C 	 -114.974 	 56.1956 	 114.398
| 30> H 	 -115.086 	 55.4578 	 113.565
| 31> H 	 -115.94 	 56.2973 	 114.869
| 32> C 	 -114.041 	 55.6787 	 115.553
| 33> H 	 -114.346 	 56.2701 	 116.337
| 34> H 	 -112.94 	 55.7642 	 115.396
| 35> C 	 -114.437 	 54.2649 	 115.936
| 36> H 	 -113.834 	 53.7536 	 116.713
| 37> H 	 -114.356 	 53.5984 	 115.067
| 38> H 	 -115.401 	 54.3433 	 116.413
| 39> H 	 -112.735 	 55.3276 	 108.533
| 40> H 	 -114.73 	 60.8318 	 114.324
| 41> *
| 42>
| 43>                          ****END OF INPUT****

CARTESIAN COORDINATES (ANGSTROEM)
---------------------------------
  S    -113.885000   57.101600  109.832000
  C    -113.033000   55.634500  109.520000
  C    -112.686000   54.976300  110.656000
  C    -112.946000   55.679900  111.866000
  C    -113.573000   56.875400  111.593000
  H    -112.738000   55.442700  112.851000
  C    -111.890000   53.682100  110.711000
  H    -111.811000   53.368700  111.755000
  H    -110.911000   53.943200  110.314000
  C    -112.541000   52.494700  109.907000
  H    -113.446000   51.992000  110.182000
  H    -112.580000   52.649600  108.807000
  C    -111.545000   51.309300  110.037000
  H    -112.118000   50.460600  109.603000
  H    -110.601000   51.256300  109.430000
  H    -111.432000   51.052000  111.121000
  S    -113.864000   59.507200  112.365000
  C    -114.574000   59.845300  113.927000
  C    -114.928000   58.671700  114.602000
  C    -114.585000   57.540300  113.851000
  C    -114.071000   57.760100  112.597000
  H    -115.423000   58.658900  115.535000
  C    -114.974000   56.195600  114.398000
  H    -115.086000   55.457800  113.565000
  H    -115.940000   56.297300  114.869000
  C    -114.041000   55.678700  115.553000
  H    -114.346000   56.270100  116.337000
  H    -112.940000   55.764200  115.396000
  C    -114.437000   54.264900  115.936000
  H    -113.834000   53.753600  116.713000
  H    -114.356000   53.598400  115.067000
  H    -115.401000   54.343300  116.413000
  H    -112.735000   55.327600  108.533000
  H    -114.730000   60.831800  114.324000

 Total Charge           Charge          ....    0
 Multiplicity           Mult            ....    1
 Number of Electrons    NEL             ....  134
 Basis Dimension        Dim             ....  322

ORBITAL ENERGIES
----------------

  NO   OCC          E(Eh)            E(eV)
   0   2.0000     -88.965834     -2420.8834
   1   2.0000     -88.964586     -2420.8495
   2   2.0000     -10.327714      -281.0314
   3   2.0000     -10.322062      -280.8776
   4   2.0000     -10.319817      -280.8165
   5   2.0000     -10.306404      -280.4515
   6   2.0000     -10.297099      -280.1983
   7   2.0000     -10.296088      -280.1708
   8   2.0000     -10.294458      -280.1264
   9   2.0000     -10.292178      -280.0644
  10   2.0000     -10.291683      -280.0509
  11   2.0000     -10.291004      -280.0325
  12   2.0000     -10.287744      -279.9437
  13   2.0000     -10.285107      -279.8720
  14   2.0000     -10.283010      -279.8149
  15   2.0000     -10.279214      -279.7116
  16   2.0000      -8.080224      -219.8741
  17   2.0000      -8.079087      -219.8431
  18   2.0000      -6.038810      -164.3244
  19   2.0000      -6.037552      -164.2901
  20   2.0000      -6.034914      -164.2184
  21   2.0000      -6.033597      -164.1825
  22   2.0000      -6.030805      -164.1066
  23   2.0000      -6.029944      -164.0831
  24   2.0000      -1.007263       -27.4090
  25   2.0000      -0.984700       -26.7950
  26   2.0000      -0.912101       -24.8195
  27   2.0000      -0.906280       -24.6611
  28   2.0000      -0.873518       -23.7696
  29   2.0000      -0.857637       -23.3375
  30   2.0000      -0.850634       -23.1469
  31   2.0000      -0.813177       -22.1277
  32   2.0000      -0.777168       -21.1478
  33   2.0000      -0.764524       -20.8038
  34   2.0000      -0.707172       -19.2431
  35   2.0000      -0.699702       -19.0398
  36   2.0000      -0.693180       -18.8624
  37   2.0000      -0.672653       -18.3038
  38   2.0000      -0.646675       -17.5969
  39   2.0000      -0.615624       -16.7520
  40   2.0000      -0.594736       -16.1836
  41   2.0000      -0.577707       -15.7202
  42   2.0000      -0.572970       -15.5913
  43   2.0000      -0.559123       -15.2145
  44   2.0000      -0.528179       -14.3725
  45   2.0000      -0.521509       -14.1910
  46   2.0000      -0.518693       -14.1144
  47   2.0000      -0.514386       -13.9972
  48   2.0000      -0.508561       -13.8386
  49   2.0000      -0.498966       -13.5776
  50   2.0000      -0.491415       -13.3721
  51   2.0000      -0.481368       -13.0987
  52   2.0000      -0.475194       -12.9307
  53   2.0000      -0.464892       -12.6503
  54   2.0000      -0.458017       -12.4633
  55   2.0000      -0.449662       -12.2359
  56   2.0000      -0.440168       -11.9776
  57   2.0000      -0.435656       -11.8548
  58   2.0000      -0.429688       -11.6924
  59   2.0000      -0.426718       -11.6116
  60   2.0000      -0.424811       -11.5597
  61   2.0000      -0.417513       -11.3611
  62   2.0000      -0.403578       -10.9819
  63   2.0000      -0.352101        -9.5812
  64   2.0000      -0.332272        -9.0416
  65   2.0000      -0.331277        -9.0145
  66   2.0000      -0.285040        -7.7563
  67   0.0000       0.024033         0.6540
  68   0.0000       0.075448         2.0530
  69   0.0000       0.109048         2.9673
  70   0.0000       0.122282         3.3275
  71   0.0000       0.129414         3.5215

MULLIKEN ATOMIC CHARGES
-----------------------
   0 S :    0.108903
   1 C :   -0.114110
   2 C :   -0.050896
   3 C :    0.036044
   4 C :   -0.122974
   5 H :   -0.030099
   6 C :    0.074205
   7 H :    0.021510
   8 H :    0.046322
   9 C :   -0.081240
  10 H :    0.037449
  11 H :    0.034256
  12 C :   -0.105461
  13 H :    0.020556
  14 H :    0.049080
  15 H :    0.035988
  16 S :    0.098982
  17 C :   -0.079796
  18 C :   -0.019549
  19 C :   -0.010404
  20 C :   -0.144717
  21 H :    0.005676
  22 C :   -0.003736
  23 H :    0.040836
  24 H :    0.018645
  25 C :   -0.056288
  26 H :    0.004915
  27 H :    0.048364
  28 C :   -0.047619
  29 H :    0.032300
  30 H :    0.033461
  31 H :    0.026258
  32 H :    0.039549
  33 H :    0.053590
Sum of atomic charges:    0.0000000

LOEWDIN ATOMIC CHARGES
----------------------
   0 S :    0.389820
   1 C :   -0.201991
   2 C :   -0.066123
   3 C :   -0.049207
   4 C :   -0.169386
   5 H :    0.021280
   6 C :   -0.024529
   7 H :    0.028986
   8 H :    0.038882
   9 C :   -0.039639
  10 H :    0.027154
  11 H :    0.026960
  12 C :   -0.081873
  13 H :    0.024089
  14 H :    0.027780
  15 H :    0.024874
  16 S :    0.397635
  17 C :   -0.173292
  18 C :   -0.066737
  19 C :   -0.058355
  20 C :   -0.194940
  21 H :    0.026719
  22 C :   -0.028678
  23 H :    0.030051
  24 H :    0.028693
  25 C :   -0.036962
  26 H :    0.012631
  27 H :    0.025948
  28 C :   -0.068279
  29 H :    0.027613
  30 H :    0.024558
  31 H :    0.025019
  32 H :    0.025222
  33 H :    0.026075

  Mayer bond orders larger than 0.100000
B(  0-S ,  1-C ) :   1.1223 B(  0-S ,  4-C ) :   1.1346 B(  1-C ,  2-C ) :   1.6268
B(  1-C , 32-H ) :   0.9708 B(  2-C ,  3-C ) :   1.2149 B(  2-C ,  6-C ) :   1.0148
B(  3-C ,  4-C ) :   1.5715 B(  3-C ,  5-H ) :   1.0142 B(  4-C , 20-C ) :   1.0746
B(  6-C ,  7-H ) :   0.9484 B(  6-C ,  8-H ) :   0.9424 B(  6-C ,  9-C ) :   1.0577
B(  9-C , 10-H ) :   0.9659 B(  9-C , 11-H ) :   0.9567 B(  9-C , 12-C ) :   1.0718
B( 12-C , 13-H ) :   0.9774 B( 12-C , 14-H ) :   0.9761 B( 12-C , 15-H ) :   0.9734
B( 16-S , 17-C ) :   1.1724 B( 16-S , 20-C ) :   1.1151 B( 17-C , 18-C ) :   1.5706
B( 17-C , 20-C ) :   0.1026 B( 17-C , 33-H ) :   0.9695 B( 18-C , 19-C ) :   1.2590
B( 18-C , 21-H ) :   0.9979 B( 19-C , 20-C ) :   1.5886 B( 19-C , 22-C ) :   1.0407
B( 22-C , 23-H ) :   0.9484 B( 22-C , 24-H ) :   0.9369 B( 22-C , 25-C ) :   1.0377
B( 25-C , 26-H ) :   0.9532 B( 25-C , 27-H ) :   0.9592 B( 25-C , 28-C ) :   1.0900
B( 28-C , 29-H ) :   0.9736 B( 28-C , 30-H ) :   0.9758 B( 28-C , 31-H ) :   0.9727

Dispersion correction           -0.013849446
FINAL SINGLE POINT ENERGY     -1339.866335838656

DIPOLE MOMENT
-------------
                                X             Y             Z
Electronic contribution:     -4.51464      30.75533     -10.59784
Nuclear contribution   :      4.53935     -31.29081      11.05771
                        -----------------------------------------
Total Dipole Moment    :      0.02472      -0.53548       0.45986
                        -----------------------------------------
Magnitude (a.u.)       :      0.70627
Magnitude (Debye)      :      1.79520

Rotational constants in cm-1:     0.018530     0.008709     0.006191
Rotational constants in MHz :   555.503641   261.077426   185.592788

                             ****ORCA TERMINATED NORMALLY****
TOTAL RUN TIME: 0 days 0 hours 0 minutes 32 seconds 781 msec
