                         Program Version 4.2.1 -  RELEASE  -
|  1> ! wB97X-D3 SP def2-SVP
|  2> %pal
|  3> nprocs 16
|  4> end
|  5>
|  6> * xyz 0 1
|  7> S 	 52.388 	 22.0633 	 92.7833
|  8> C 	 50.9326 	 21.2198 	 93.3392
|  9> C 	 50.8794 	 19.8565 	 92.9878
| 10> C 	 52.0924 	 19.4835 	 92.3715
| 11> C 	 53.0376 	 20.4924 	 92.2263
| 12> H 	 52.3506 	 18.5473 	 92.0436
| 13> C 	 49.8615 	 18.8864 	 93.4174
| 14> H 	 49.5854 	 18.3262 	 92.5246
| 15> H 	 49.004 	 19.4518 	 93.6612
| 16> C 	 50.2652 	 17.8663 	 94.5148
| 17> H 	 49.4944 	 17.1573 	 94.7998
| 18> H 	 51.0536 	 17.2006 	 94.1941
| 19> C 	 50.7561 	 18.4824 	 95.8376
| 20> H 	 51.0805 	 17.5932 	 96.4119
| 21> H 	 51.5387 	 19.2566 	 95.6868
| 22> H 	 49.9714 	 19.0385 	 96.3223
| 23> S 	 54.4862 	 21.4064 	 90.1331
| 24> C 	 56.1246 	 20.8126 	 89.843
| 25> C 	 56.4555 	 19.9129 	 90.8616
| 26> C 	 55.3699 	 19.6124 	 91.7792
| 27> C 	 54.2794 	 20.3496 	 91.5034
| 28> H 	 57.3717 	 19.3846 	 90.9097
| 29> C 	 55.5007 	 18.6723 	 92.9138
| 30> H 	 56.4577 	 18.1046 	 92.871
| 31> H 	 54.6126 	 17.9882 	 92.981
| 32> C 	 55.4247 	 19.284 	 94.3404
| 33> H 	 55.0302 	 18.5847 	 95.1302
| 34> H 	 54.7382 	 20.0483 	 94.2673
| 35> C 	 56.8157 	 19.8425 	 94.6577
| 36> H 	 57.5176 	 19.0707 	 94.8477
| 37> H 	 56.7568 	 20.5216 	 95.4693
| 38> H 	 57.1453 	 20.3311 	 93.7925
| 39> H 	 50.1414 	 21.689 	 93.9095
| 40> H 	 56.7502 	 21.051 	 88.9781
| 41> *
| 42>
| 43>                          ****END OF INPUT****

CARTESIAN COORDINATES (ANGSTROEM)
---------------------------------
  S     52.388000   22.063300   92.783300
  C     50.932600   21.219800   93.339200
  C     50.879400   19.856500   92.987800
  C     52.092400   19.483500   92.371500
  C     53.037600   20.492400   92.226300
  H     52.350600   18.547300   92.043600
  C     49.861500   18.886400   93.417400
  H     49.585400   18.326200   92.524600
  H     49.004000   19.451800   93.661200
  C     50.265200   17.866300   94.514800
  H     49.494400   17.157300   94.799800
  H     51.053600   17.200600   94.194100
  C     50.756100   18.482400   95.837600
  H     51.080500   17.593200   96.411900
  H     51.538700   19.256600   95.686800
  H     49.971400   19.038500   96.322300
  S     54.486200   21.406400   90.133100
  C     56.124600   20.812600   89.843000
  C     56.455500   19.912900   90.861600
  C     55.369900   19.612400   91.779200
  C     54.279400   20.349600   91.503400
  H     57.371700   19.384600   90.909700
  C     55.500700   18.672300   92.913800
  H     56.457700   18.104600   92.871000
  H     54.612600   17.988200   92.981000
  C     55.424700   19.284000   94.340400
  H     55.030200   18.584700   95.130200
  H     54.738200   20.048300   94.267300
  C     56.815700   19.842500   94.657700
  H     57.517600   19.070700   94.847700
  H     56.756800   20.521600   95.469300
  H     57.145300   20.331100   93.792500
  H     50.141400   21.689000   93.909500
  H     56.750200   21.051000   88.978100

 Total Charge           Charge          ....    0
 Multiplicity           Mult            ....    1
 Number of Electrons    NEL             ....  134
 Basis Dimension        Dim             ....  322

ORBITAL ENERGIES
----------------

  NO   OCC          E(Eh)            E(eV)
   0   2.0000     -88.973274     -2421.0859
   1   2.0000     -88.964672     -2420.8518
   2   2.0000     -10.330876      -281.1174
   3   2.0000     -10.323600      -280.9194
   4   2.0000     -10.320255      -280.8284
   5   2.0000     -10.319837      -280.8170
   6   2.0000     -10.301882      -280.3285
   7   2.0000     -10.298975      -280.2494
   8   2.0000     -10.296674      -280.1867
   9   2.0000     -10.292446      -280.0717
  10   2.0000     -10.290176      -280.0099
  11   2.0000     -10.288956      -279.9767
  12   2.0000     -10.288296      -279.9588
  13   2.0000     -10.277906      -279.6760
  14   2.0000     -10.276618      -279.6410
  15   2.0000     -10.260036      -279.1898
  16   2.0000      -8.086562      -220.0465
  17   2.0000      -8.079444      -219.8529
  18   2.0000      -6.045051      -164.4942
  19   2.0000      -6.041370      -164.3940
  20   2.0000      -6.038044      -164.3035
  21   2.0000      -6.037330      -164.2841
  22   2.0000      -6.033872      -164.1900
  23   2.0000      -6.030167      -164.0892
  24   2.0000      -1.008108       -27.4320
  25   2.0000      -0.981926       -26.7196
  26   2.0000      -0.914358       -24.8809
  27   2.0000      -0.912217       -24.8227
  28   2.0000      -0.868779       -23.6407
  29   2.0000      -0.854097       -23.2412
  30   2.0000      -0.847076       -23.0501
  31   2.0000      -0.815868       -22.2009
  32   2.0000      -0.783005       -21.3066
  33   2.0000      -0.772404       -21.0182
  34   2.0000      -0.713218       -19.4077
  35   2.0000      -0.701326       -19.0840
  36   2.0000      -0.690458       -18.7883
  37   2.0000      -0.670575       -18.2473
  38   2.0000      -0.645480       -17.5644
  39   2.0000      -0.621935       -16.9237
  40   2.0000      -0.596905       -16.2426
  41   2.0000      -0.563603       -15.3364
  42   2.0000      -0.556575       -15.1452
  43   2.0000      -0.551856       -15.0168
  44   2.0000      -0.546294       -14.8654
  45   2.0000      -0.544290       -14.8109
  46   2.0000      -0.523802       -14.2534
  47   2.0000      -0.516164       -14.0455
  48   2.0000      -0.499313       -13.5870
  49   2.0000      -0.492068       -13.3899
  50   2.0000      -0.488032       -13.2800
  51   2.0000      -0.482592       -13.1320
  52   2.0000      -0.474007       -12.8984
  53   2.0000      -0.466128       -12.6840
  54   2.0000      -0.459142       -12.4939
  55   2.0000      -0.451004       -12.2724
  56   2.0000      -0.444057       -12.0834
  57   2.0000      -0.437017       -11.8918
  58   2.0000      -0.434004       -11.8099
  59   2.0000      -0.427297       -11.6273
  60   2.0000      -0.420916       -11.4537
  61   2.0000      -0.419023       -11.4022
  62   2.0000      -0.410579       -11.1724
  63   2.0000      -0.346403        -9.4261
  64   2.0000      -0.332510        -9.0481
  65   2.0000      -0.328393        -8.9360
  66   2.0000      -0.292892        -7.9700
  67   0.0000       0.030484         0.8295
  68   0.0000       0.057359         1.5608
  69   0.0000       0.109225         2.9722
  70   0.0000       0.115318         3.1380
  71   0.0000       0.126419         3.4400

MULLIKEN ATOMIC CHARGES
-----------------------
   0 S :    0.121530
   1 C :   -0.125803
   2 C :   -0.087650
   3 C :    0.059634
   4 C :   -0.170969
   5 H :   -0.023617
   6 C :    0.123406
   7 H :    0.029527
   8 H :    0.003976
   9 C :   -0.071549
  10 H :    0.028783
  11 H :    0.020058
  12 C :   -0.071489
  13 H :    0.043625
  14 H :    0.048790
  15 H :    0.023647
  16 S :    0.106538
  17 C :   -0.100946
  18 C :   -0.011811
  19 C :   -0.020294
  20 C :   -0.171233
  21 H :    0.004125
  22 C :    0.023793
  23 H :    0.023087
  24 H :    0.032736
  25 C :   -0.054951
  26 H :    0.035210
  27 H :    0.014046
  28 C :   -0.000289
  29 H :    0.017449
  30 H :    0.024141
  31 H :    0.012213
  32 H :    0.044540
  33 H :    0.069745
Sum of atomic charges:   -0.0000000

LOEWDIN ATOMIC CHARGES
----------------------
   0 S :    0.386487
   1 C :   -0.188315
   2 C :   -0.060621
   3 C :   -0.043747
   4 C :   -0.182679
   5 H :    0.015631
   6 C :   -0.030873
   7 H :    0.038056
   8 H :    0.024847
   9 C :   -0.039899
  10 H :    0.026528
  11 H :    0.020754
  12 C :   -0.068132
  13 H :    0.032566
  14 H :    0.028961
  15 H :    0.018722
  16 S :    0.402277
  17 C :   -0.183258
  18 C :   -0.062206
  19 C :   -0.064664
  20 C :   -0.198663
  21 H :    0.022517
  22 C :   -0.037550
  23 H :    0.030663
  24 H :    0.038010
  25 C :   -0.028715
  26 H :    0.027426
  27 H :    0.009840
  28 C :   -0.053002
  29 H :    0.018872
  30 H :    0.020358
  31 H :    0.019180
  32 H :    0.024475
  33 H :    0.036151

  Mayer bond orders larger than 0.100000
B(  0-S ,  1-C ) :   1.1389 B(  0-S ,  4-C ) :   1.1240 B(  1-C ,  2-C ) :   1.5907
B(  1-C ,  4-C ) :   0.1013 B(  1-C , 32-H ) :   0.9638 B(  2-C ,  3-C ) :   1.2290
B(  2-C ,  6-C ) :   1.0475 B(  3-C ,  4-C ) :   1.5782 B(  3-C ,  5-H ) :   1.0046
B(  4-C , 20-C ) :   1.0415 B(  6-C ,  7-H ) :   0.9250 B(  6-C ,  8-H ) :   0.9329
B(  6-C ,  9-C ) :   1.0638 B(  9-C , 10-H ) :   0.9558 B(  9-C , 11-H ) :   0.9565
B(  9-C , 12-C ) :   1.0728 B( 12-C , 13-H ) :   0.9743 B( 12-C , 14-H ) :   0.9748
B( 12-C , 15-H ) :   0.9765 B( 16-S , 17-C ) :   1.1416 B( 16-S , 20-C ) :   1.1378
B( 17-C , 18-C ) :   1.6044 B( 17-C , 33-H ) :   0.9696 B( 18-C , 19-C ) :   1.2284
B( 18-C , 21-H ) :   0.9884 B( 19-C , 20-C ) :   1.6176 B( 19-C , 22-C ) :   1.0748
B( 22-C , 23-H ) :   0.9355 B( 22-C , 24-H ) :   0.9256 B( 22-C , 25-C ) :   1.0549
B( 25-C , 26-H ) :   0.9578 B( 25-C , 27-H ) :   0.9546 B( 25-C , 28-C ) :   1.0750
B( 28-C , 29-H ) :   0.9743 B( 28-C , 30-H ) :   0.9725 B( 28-C , 31-H ) :   0.9760

Dispersion correction           -0.015827411
FINAL SINGLE POINT ENERGY     -1339.874544009305

DIPOLE MOMENT
-------------
                                X             Y             Z
Electronic contribution:      0.74509      17.29071     -20.49917
Nuclear contribution   :     -0.84166     -17.85429      20.75125
                        -----------------------------------------
Total Dipole Moment    :     -0.09657      -0.56358       0.25208
                        -----------------------------------------
Magnitude (a.u.)       :      0.62490
Magnitude (Debye)      :      1.58836

Rotational constants in cm-1:     0.020100     0.009622     0.007773
Rotational constants in MHz :   602.581604   288.449464   233.015115

                             ****ORCA TERMINATED NORMALLY****
TOTAL RUN TIME: 0 days 0 hours 0 minutes 32 seconds 524 msec
