                         Program Version 4.2.1 -  RELEASE  -
|  1> ! wB97X-D3 SP def2-SVP
|  2> %pal
|  3> nprocs 16
|  4> end
|  5>
|  6> * xyz 0 1
|  7> S 	 -67.1211 	 37.939 	 140.695
|  8> C 	 -68.3981 	 37.266 	 139.737
|  9> C 	 -68.0623 	 36.4095 	 138.748
| 10> C 	 -66.6539 	 36.4231 	 138.679
| 11> C 	 -65.9354 	 37.1819 	 139.606
| 12> H 	 -66.0166 	 35.8453 	 138.01
| 13> C 	 -69.0367 	 35.9334 	 137.662
| 14> H 	 -68.5074 	 35.8796 	 136.704
| 15> H 	 -69.7433 	 36.7979 	 137.419
| 16> C 	 -69.5725 	 34.4743 	 138.016
| 17> H 	 -68.7599 	 33.7421 	 138.125
| 18> H 	 -69.9181 	 34.4066 	 139.025
| 19> C 	 -70.6697 	 33.9923 	 137.064
| 20> H 	 -71.6907 	 34.4013 	 137.248
| 21> H 	 -70.4073 	 34.3126 	 136.069
| 22> H 	 -70.8796 	 32.919 	 137.09
| 23> S 	 -63.9629 	 37.1141 	 141.506
| 24> C 	 -62.2689 	 37.2199 	 140.898
| 25> C 	 -62.2021 	 37.0605 	 139.56
| 26> C 	 -63.4644 	 37.1701 	 138.923
| 27> C 	 -64.508 	 37.1717 	 139.81
| 28> H 	 -61.183 	 37.0389 	 139.144
| 29> C 	 -63.4837 	 37.3011 	 137.394
| 30> H 	 -64.3741 	 36.8428 	 136.926
| 31> H 	 -62.7302 	 36.7229 	 136.98
| 32> C 	 -63.315 	 38.6792 	 136.82
| 33> H 	 -63.1889 	 38.7794 	 135.702
| 34> H 	 -62.4332 	 39.1549 	 137.217
| 35> C 	 -64.6082 	 39.5236 	 137.227
| 36> H 	 -64.6099 	 39.7387 	 138.272
| 37> H 	 -65.5715 	 39.0295 	 136.989
| 38> H 	 -64.7669 	 40.4547 	 136.709
| 39> H 	 -69.3854 	 37.6153 	 139.946
| 40> H 	 -61.4365 	 37.2632 	 141.578
| 41> *
| 42>
| 43>                          ****END OF INPUT****

CARTESIAN COORDINATES (ANGSTROEM)
---------------------------------
  S    -67.121100   37.939000  140.695000
  C    -68.398100   37.266000  139.737000
  C    -68.062300   36.409500  138.748000
  C    -66.653900   36.423100  138.679000
  C    -65.935400   37.181900  139.606000
  H    -66.016600   35.845300  138.010000
  C    -69.036700   35.933400  137.662000
  H    -68.507400   35.879600  136.704000
  H    -69.743300   36.797900  137.419000
  C    -69.572500   34.474300  138.016000
  H    -68.759900   33.742100  138.125000
  H    -69.918100   34.406600  139.025000
  C    -70.669700   33.992300  137.064000
  H    -71.690700   34.401300  137.248000
  H    -70.407300   34.312600  136.069000
  H    -70.879600   32.919000  137.090000
  S    -63.962900   37.114100  141.506000
  C    -62.268900   37.219900  140.898000
  C    -62.202100   37.060500  139.560000
  C    -63.464400   37.170100  138.923000
  C    -64.508000   37.171700  139.810000
  H    -61.183000   37.038900  139.144000
  C    -63.483700   37.301100  137.394000
  H    -64.374100   36.842800  136.926000
  H    -62.730200   36.722900  136.980000
  C    -63.315000   38.679200  136.820000
  H    -63.188900   38.779400  135.702000
  H    -62.433200   39.154900  137.217000
  C    -64.608200   39.523600  137.227000
  H    -64.609900   39.738700  138.272000
  H    -65.571500   39.029500  136.989000
  H    -64.766900   40.454700  136.709000
  H    -69.385400   37.615300  139.946000
  H    -61.436500   37.263200  141.578000

 Total Charge           Charge          ....    0
 Multiplicity           Mult            ....    1
 Number of Electrons    NEL             ....  134
 Basis Dimension        Dim             ....  322

ORBITAL ENERGIES
----------------

  NO   OCC          E(Eh)            E(eV)
   0   2.0000     -88.966759     -2420.9086
   1   2.0000     -88.963369     -2420.8163
   2   2.0000     -10.329312      -281.0749
   3   2.0000     -10.327737      -281.0320
   4   2.0000     -10.316290      -280.7205
   5   2.0000     -10.310166      -280.5539
   6   2.0000     -10.309024      -280.5228
   7   2.0000     -10.303942      -280.3845
   8   2.0000     -10.299817      -280.2723
   9   2.0000     -10.294085      -280.1163
  10   2.0000     -10.293512      -280.1007
  11   2.0000     -10.292469      -280.0723
  12   2.0000     -10.289565      -279.9933
  13   2.0000     -10.286980      -279.9230
  14   2.0000     -10.280276      -279.7405
  15   2.0000     -10.266888      -279.3762
  16   2.0000      -8.081437      -219.9071
  17   2.0000      -8.077310      -219.7948
  18   2.0000      -6.039914      -164.3544
  19   2.0000      -6.035993      -164.2477
  20   2.0000      -6.035936      -164.2462
  21   2.0000      -6.032219      -164.1450
  22   2.0000      -6.032211      -164.1448
  23   2.0000      -6.027708      -164.0223
  24   2.0000      -1.007200       -27.4073
  25   2.0000      -0.985620       -26.8201
  26   2.0000      -0.906720       -24.6731
  27   2.0000      -0.904394       -24.6098
  28   2.0000      -0.873039       -23.7566
  29   2.0000      -0.850735       -23.1497
  30   2.0000      -0.838949       -22.8290
  31   2.0000      -0.812406       -22.1067
  32   2.0000      -0.782110       -21.2823
  33   2.0000      -0.774072       -21.0636
  34   2.0000      -0.710659       -19.3380
  35   2.0000      -0.706032       -19.2121
  36   2.0000      -0.694236       -18.8911
  37   2.0000      -0.664320       -18.0771
  38   2.0000      -0.643779       -17.5181
  39   2.0000      -0.616893       -16.7865
  40   2.0000      -0.598551       -16.2874
  41   2.0000      -0.570376       -15.5207
  42   2.0000      -0.552958       -15.0468
  43   2.0000      -0.546865       -14.8809
  44   2.0000      -0.534810       -14.5529
  45   2.0000      -0.530784       -14.4434
  46   2.0000      -0.513875       -13.9832
  47   2.0000      -0.507450       -13.8084
  48   2.0000      -0.501389       -13.6435
  49   2.0000      -0.496833       -13.5195
  50   2.0000      -0.486342       -13.2340
  51   2.0000      -0.476142       -12.9565
  52   2.0000      -0.468703       -12.7541
  53   2.0000      -0.462239       -12.5782
  54   2.0000      -0.454998       -12.3811
  55   2.0000      -0.449988       -12.2448
  56   2.0000      -0.441817       -12.0225
  57   2.0000      -0.439026       -11.9465
  58   2.0000      -0.429007       -11.6739
  59   2.0000      -0.427359       -11.6290
  60   2.0000      -0.419319       -11.4103
  61   2.0000      -0.412074       -11.2131
  62   2.0000      -0.409944       -11.1551
  63   2.0000      -0.355110        -9.6630
  64   2.0000      -0.335151        -9.1199
  65   2.0000      -0.334333        -9.0977
  66   2.0000      -0.285431        -7.7670
  67   0.0000       0.024483         0.6662
  68   0.0000       0.073917         2.0114
  69   0.0000       0.096409         2.6234
  70   0.0000       0.115045         3.1305
  71   0.0000       0.142170         3.8686

MULLIKEN ATOMIC CHARGES
-----------------------
   0 S :    0.107239
   1 C :   -0.123675
   2 C :   -0.024866
   3 C :    0.006092
   4 C :   -0.153969
   5 H :    0.008644
   6 C :    0.018797
   7 H :    0.027039
   8 H :    0.051951
   9 C :   -0.060933
  10 H :    0.031933
  11 H :    0.021476
  12 C :   -0.038386
  13 H :    0.032785
  14 H :    0.022379
  15 H :    0.035200
  16 S :    0.079126
  17 C :   -0.095324
  18 C :   -0.026905
  19 C :   -0.046643
  20 C :   -0.133725
  21 H :    0.033250
  22 C :    0.111090
  23 H :    0.014849
  24 H :   -0.001043
  25 C :   -0.066901
  26 H :    0.040661
  27 H :    0.022369
  28 C :   -0.067779
  29 H :    0.040698
  30 H :    0.026296
  31 H :    0.019356
  32 H :    0.037843
  33 H :    0.051080
Sum of atomic charges:   -0.0000000

LOEWDIN ATOMIC CHARGES
----------------------
   0 S :    0.396029
   1 C :   -0.175563
   2 C :   -0.074976
   3 C :   -0.053264
   4 C :   -0.193536
   5 H :    0.026361
   6 C :   -0.029348
   7 H :    0.030394
   8 H :    0.043702
   9 C :   -0.041879
  10 H :    0.031289
  11 H :    0.021001
  12 C :   -0.071566
  13 H :    0.029342
  14 H :    0.020358
  15 H :    0.027900
  16 S :    0.357143
  17 C :   -0.157838
  18 C :   -0.068914
  19 C :   -0.059050
  20 C :   -0.174494
  21 H :    0.041031
  22 C :   -0.029102
  23 H :    0.029308
  24 H :    0.020959
  25 C :   -0.035368
  26 H :    0.031406
  27 H :    0.019569
  28 C :   -0.071583
  29 H :    0.022502
  30 H :    0.026891
  31 H :    0.019265
  32 H :    0.017893
  33 H :    0.024137

  Mayer bond orders larger than 0.100000
B(  0-S ,  1-C ) :   1.1628 B(  0-S ,  4-C ) :   1.1188 B(  1-C ,  2-C ) :   1.5983
B(  1-C , 32-H ) :   0.9651 B(  2-C ,  3-C ) :   1.2503 B(  2-C ,  6-C ) :   1.0053
B(  3-C ,  4-C ) :   1.5844 B(  3-C ,  5-H ) :   0.9828 B(  4-C , 20-C ) :   1.0815
B(  6-C ,  7-H ) :   0.9464 B(  6-C ,  8-H ) :   0.9597 B(  6-C ,  9-C ) :   1.0261
B(  9-C , 10-H ) :   0.9568 B(  9-C , 11-H ) :   0.9626 B(  9-C , 12-C ) :   1.0728
B( 12-C , 13-H ) :   0.9766 B( 12-C , 14-H ) :   0.9744 B( 12-C , 15-H ) :   0.9746
B( 16-S , 17-C ) :   1.1170 B( 16-S , 20-C ) :   1.1179 B( 17-C , 18-C ) :   1.6691
B( 17-C , 33-H ) :   0.9676 B( 18-C , 19-C ) :   1.1938 B( 18-C , 21-H ) :   0.9836
B( 19-C , 20-C ) :   1.6430 B( 19-C , 22-C ) :   1.0325 B( 22-C , 23-H ) :   0.9361
B( 22-C , 24-H ) :   0.9227 B( 22-C , 25-C ) :   1.0779 B( 25-C , 26-H ) :   0.9583
B( 25-C , 27-H ) :   0.9551 B( 25-C , 28-C ) :   1.0609 B( 28-C , 29-H ) :   0.9781
B( 28-C , 30-H ) :   0.9761 B( 28-C , 31-H ) :   0.9765

Dispersion correction           -0.014853756
FINAL SINGLE POINT ENERGY     -1339.864569927082

DIPOLE MOMENT
-------------
                                X             Y             Z
Electronic contribution:     10.06886       4.75286      23.71856
Nuclear contribution   :    -10.08758      -4.92928     -24.33289
                        -----------------------------------------
Total Dipole Moment    :     -0.01872      -0.17642      -0.61433
                        -----------------------------------------
Magnitude (a.u.)       :      0.63944
Magnitude (Debye)      :      1.62532

Rotational constants in cm-1:     0.021084     0.007796     0.006815
Rotational constants in MHz :   632.083308   233.729201   204.304565

                             ****ORCA TERMINATED NORMALLY****
TOTAL RUN TIME: 0 days 0 hours 0 minutes 35 seconds 627 msec
