                         Program Version 4.2.1 -  RELEASE  -
|  1> ! wB97X-D3 SP def2-SVP
|  2> %pal
|  3> nprocs 16
|  4> end
|  5>
|  6> * xyz 0 1
|  7> S 	 -2.83169 	 -8.48577 	 86.1582
|  8> C 	 -2.24978 	 -10.1023 	 86.1877
|  9> C 	 -2.57601 	 -10.8185 	 85.0509
| 10> C 	 -3.34835 	 -10.0122 	 84.1845
| 11> C 	 -3.56986 	 -8.71855 	 84.6482
| 12> H 	 -3.65039 	 -10.3672 	 83.2186
| 13> C 	 -2.26843 	 -12.2292 	 84.689
| 14> H 	 -1.23154 	 -12.3474 	 84.9487
| 15> H 	 -2.27355 	 -12.4045 	 83.6064
| 16> C 	 -3.07295 	 -13.342 	 85.4103
| 17> H 	 -2.7445 	 -13.3319 	 86.4226
| 18> H 	 -4.10396 	 -13.1411 	 85.3548
| 19> C 	 -2.92242 	 -14.8015 	 84.7262
| 20> H 	 -3.41687 	 -14.8589 	 83.7693
| 21> H 	 -1.88782 	 -15.0203 	 84.4862
| 22> H 	 -3.43766 	 -15.494 	 85.4216
| 23> S 	 -4.07486 	 -6.99353 	 82.5114
| 24> C 	 -5.49304 	 -6.07237 	 82.4803
| 25> C 	 -6.34641 	 -6.43813 	 83.5167
| 26> C 	 -5.83868 	 -7.48498 	 84.339
| 27> C 	 -4.53617 	 -7.82184 	 84.0037
| 28> H 	 -7.24326 	 -5.78115 	 83.5883
| 29> C 	 -6.50577 	 -7.87666 	 85.6101
| 30> H 	 -6.33417 	 -7.24255 	 86.5269
| 31> H 	 -5.97866 	 -8.81518 	 85.9751
| 32> C 	 -7.97955 	 -8.1285 	 85.4579
| 33> H 	 -8.06709 	 -8.78157 	 84.636
| 34> H 	 -8.42707 	 -7.1608 	 85.2409
| 35> C 	 -8.67441 	 -8.56825 	 86.7666
| 36> H 	 -8.06108 	 -9.23211 	 87.4333
| 37> H 	 -9.66728 	 -9.10396 	 86.6241
| 38> H 	 -8.84678 	 -7.66626 	 87.2884
| 39> H 	 -1.69219 	 -10.529 	 86.9704
| 40> H 	 -5.74608 	 -5.29197 	 81.7575
| 41> *
| 42>
| 43>                          ****END OF INPUT****

CARTESIAN COORDINATES (ANGSTROEM)
---------------------------------
  S     -2.831690   -8.485770   86.158200
  C     -2.249780  -10.102300   86.187700
  C     -2.576010  -10.818500   85.050900
  C     -3.348350  -10.012200   84.184500
  C     -3.569860   -8.718550   84.648200
  H     -3.650390  -10.367200   83.218600
  C     -2.268430  -12.229200   84.689000
  H     -1.231540  -12.347400   84.948700
  H     -2.273550  -12.404500   83.606400
  C     -3.072950  -13.342000   85.410300
  H     -2.744500  -13.331900   86.422600
  H     -4.103960  -13.141100   85.354800
  C     -2.922420  -14.801500   84.726200
  H     -3.416870  -14.858900   83.769300
  H     -1.887820  -15.020300   84.486200
  H     -3.437660  -15.494000   85.421600
  S     -4.074860   -6.993530   82.511400
  C     -5.493040   -6.072370   82.480300
  C     -6.346410   -6.438130   83.516700
  C     -5.838680   -7.484980   84.339000
  C     -4.536170   -7.821840   84.003700
  H     -7.243260   -5.781150   83.588300
  C     -6.505770   -7.876660   85.610100
  H     -6.334170   -7.242550   86.526900
  H     -5.978660   -8.815180   85.975100
  C     -7.979550   -8.128500   85.457900
  H     -8.067090   -8.781570   84.636000
  H     -8.427070   -7.160800   85.240900
  C     -8.674410   -8.568250   86.766600
  H     -8.061080   -9.232110   87.433300
  H     -9.667280   -9.103960   86.624100
  H     -8.846780   -7.666260   87.288400
  H     -1.692190  -10.529000   86.970400
  H     -5.746080   -5.291970   81.757500

 Total Charge           Charge          ....    0
 Multiplicity           Mult            ....    1
 Number of Electrons    NEL             ....  134
 Basis Dimension        Dim             ....  322

ORBITAL ENERGIES
----------------

  NO   OCC          E(Eh)            E(eV)
   0   2.0000     -88.972253     -2421.0581
   1   2.0000     -88.962201     -2420.7846
   2   2.0000     -10.325397      -280.9683
   3   2.0000     -10.323597      -280.9194
   4   2.0000     -10.312383      -280.6142
   5   2.0000     -10.309270      -280.5295
   6   2.0000     -10.300792      -280.2988
   7   2.0000     -10.295999      -280.1684
   8   2.0000     -10.292545      -280.0744
   9   2.0000     -10.289675      -279.9963
  10   2.0000     -10.288418      -279.9621
  11   2.0000     -10.288331      -279.9597
  12   2.0000     -10.287138      -279.9273
  13   2.0000     -10.285217      -279.8750
  14   2.0000     -10.280618      -279.7498
  15   2.0000     -10.277226      -279.6575
  16   2.0000      -8.087765      -220.0793
  17   2.0000      -8.077806      -219.8083
  18   2.0000      -6.046064      -164.5218
  19   2.0000      -6.042064      -164.4129
  20   2.0000      -6.038809      -164.3243
  21   2.0000      -6.036119      -164.2512
  22   2.0000      -6.032040      -164.1402
  23   2.0000      -6.028872      -164.0540
  24   2.0000      -1.012858       -27.5613
  25   2.0000      -0.991358       -26.9762
  26   2.0000      -0.913054       -24.8455
  27   2.0000      -0.910553       -24.7774
  28   2.0000      -0.867066       -23.5941
  29   2.0000      -0.851685       -23.1755
  30   2.0000      -0.847525       -23.0623
  31   2.0000      -0.809382       -22.0244
  32   2.0000      -0.782546       -21.2942
  33   2.0000      -0.771359       -20.9897
  34   2.0000      -0.709982       -19.3196
  35   2.0000      -0.702044       -19.1036
  36   2.0000      -0.696102       -18.9419
  37   2.0000      -0.650006       -17.6876
  38   2.0000      -0.643263       -17.5041
  39   2.0000      -0.620968       -16.8974
  40   2.0000      -0.598624       -16.2894
  41   2.0000      -0.573780       -15.6133
  42   2.0000      -0.569398       -15.4941
  43   2.0000      -0.560604       -15.2548
  44   2.0000      -0.528956       -14.3936
  45   2.0000      -0.520980       -14.1766
  46   2.0000      -0.519118       -14.1259
  47   2.0000      -0.504966       -13.7408
  48   2.0000      -0.503553       -13.7024
  49   2.0000      -0.495729       -13.4895
  50   2.0000      -0.493747       -13.4355
  51   2.0000      -0.475843       -12.9483
  52   2.0000      -0.473226       -12.8771
  53   2.0000      -0.464236       -12.6325
  54   2.0000      -0.459621       -12.5069
  55   2.0000      -0.450867       -12.2687
  56   2.0000      -0.444468       -12.0946
  57   2.0000      -0.441310       -12.0087
  58   2.0000      -0.430870       -11.7246
  59   2.0000      -0.429135       -11.6774
  60   2.0000      -0.417837       -11.3699
  61   2.0000      -0.416810       -11.3420
  62   2.0000      -0.410369       -11.1667
  63   2.0000      -0.336868        -9.1667
  64   2.0000      -0.328617        -8.9421
  65   2.0000      -0.325433        -8.8555
  66   2.0000      -0.303538        -8.2597
  67   0.0000       0.042883         1.1669
  68   0.0000       0.059794         1.6271
  69   0.0000       0.117333         3.1928
  70   0.0000       0.122185         3.3248
  71   0.0000       0.133190         3.6243

MULLIKEN ATOMIC CHARGES
-----------------------
   0 S :    0.148160
   1 C :   -0.119890
   2 C :   -0.070540
   3 C :    0.035142
   4 C :   -0.170602
   5 H :    0.001394
   6 C :    0.065015
   7 H :    0.018465
   8 H :    0.019683
   9 C :   -0.048252
  10 H :    0.025698
  11 H :    0.025649
  12 C :   -0.068450
  13 H :    0.031670
  14 H :    0.032938
  15 H :    0.049193
  16 S :    0.116960
  17 C :   -0.106556
  18 C :   -0.071351
  19 C :    0.032677
  20 C :   -0.179584
  21 H :    0.036655
  22 C :    0.006796
  23 H :    0.039976
  24 H :    0.026684
  25 C :   -0.066139
  26 H :    0.024221
  27 H :    0.027806
  28 C :   -0.053253
  29 H :    0.033625
  30 H :    0.047233
  31 H :    0.023730
  32 H :    0.023276
  33 H :    0.061971
Sum of atomic charges:   -0.0000000

LOEWDIN ATOMIC CHARGES
----------------------
   0 S :    0.458649
   1 C :   -0.202297
   2 C :   -0.063975
   3 C :   -0.049489
   4 C :   -0.228049
   5 H :    0.026804
   6 C :   -0.036393
   7 H :    0.030199
   8 H :    0.030159
   9 C :   -0.024473
  10 H :    0.018888
  11 H :    0.017960
  12 C :   -0.064514
  13 H :    0.022994
  14 H :    0.022165
  15 H :    0.033135
  16 S :    0.424230
  17 C :   -0.208265
  18 C :   -0.083363
  19 C :   -0.060872
  20 C :   -0.191553
  21 H :    0.038809
  22 C :   -0.045040
  23 H :    0.034651
  24 H :    0.031742
  25 C :   -0.038362
  26 H :    0.017964
  27 H :    0.024009
  28 C :   -0.068684
  29 H :    0.026448
  30 H :    0.035027
  31 H :    0.019795
  32 H :    0.017395
  33 H :    0.034304

  Mayer bond orders larger than 0.100000
B(  0-S ,  1-C ) :   1.1685 B(  0-S ,  4-C ) :   1.1724 B(  1-C ,  2-C ) :   1.5654
B(  1-C , 32-H ) :   0.9735 B(  2-C ,  3-C ) :   1.2953 B(  2-C ,  6-C ) :   1.0264
B(  3-C ,  4-C ) :   1.5350 B(  3-C ,  5-H ) :   0.9985 B(  4-C , 20-C ) :   0.9999
B(  6-C ,  7-H ) :   0.9275 B(  6-C ,  8-H ) :   0.9460 B(  6-C ,  9-C ) :   1.0587
B(  9-C , 10-H ) :   0.9596 B(  9-C , 11-H ) :   0.9619 B(  9-C , 12-C ) :   1.0711
B( 12-C , 13-H ) :   0.9776 B( 12-C , 14-H ) :   0.9790 B( 12-C , 15-H ) :   0.9768
B( 16-S , 17-C ) :   1.1769 B( 16-S , 20-C ) :   1.1544 B( 17-C , 18-C ) :   1.6093
B( 17-C , 33-H ) :   0.9635 B( 18-C , 19-C ) :   1.2182 B( 18-C , 21-H ) :   0.9857
B( 19-C , 20-C ) :   1.5862 B( 19-C , 22-C ) :   1.0548 B( 22-C , 23-H ) :   0.9412
B( 22-C , 24-H ) :   0.9240 B( 22-C , 25-C ) :   1.0577 B( 25-C , 26-H ) :   0.9645
B( 25-C , 27-H ) :   0.9552 B( 25-C , 28-C ) :   1.0667 B( 28-C , 29-H ) :   0.9769
B( 28-C , 30-H ) :   0.9754 B( 28-C , 31-H ) :   0.9764

Dispersion correction           -0.013708975
FINAL SINGLE POINT ENERGY     -1339.875657199220

DIPOLE MOMENT
-------------
                                X             Y             Z
Electronic contribution:     12.72111      21.35887      -7.98465
Nuclear contribution   :    -12.92830     -21.71232       8.11471
                        -----------------------------------------
Total Dipole Moment    :     -0.20719      -0.35345       0.13006
                        -----------------------------------------
Magnitude (a.u.)       :      0.42985
Magnitude (Debye)      :      1.09258

Rotational constants in cm-1:     0.017332     0.007821     0.006641
Rotational constants in MHz :   519.589326   234.472302   199.091478

                             ****ORCA TERMINATED NORMALLY****
TOTAL RUN TIME: 0 days 0 hours 0 minutes 32 seconds 552 msec
