                         Program Version 4.2.1 -  RELEASE  -
|  1> ! wB97X-D3 SP def2-SVP
|  2> %pal
|  3> nprocs 16
|  4> end
|  5>
|  6> * xyz 0 1
|  7> S 	 3.50014 	 -17.4971 	 79.9093
|  8> C 	 2.55366 	 -16.8445 	 81.367
|  9> C 	 1.37683 	 -16.2764 	 80.8864
| 10> C 	 1.46446 	 -16.096 	 79.4644
| 11> C 	 2.57955 	 -16.5173 	 78.8418
| 12> H 	 0.593975 	 -15.7133 	 78.8633
| 13> C 	 0.190342 	 -16.0047 	 81.8062
| 14> H 	 -0.0314323 	 -14.9276 	 81.7887
| 15> H 	 0.449382 	 -16.3548 	 82.7685
| 16> C 	 -1.08541 	 -16.6968 	 81.3714
| 17> H 	 -1.41494 	 -16.1994 	 80.438
| 18> H 	 -0.743349 	 -17.7141 	 81.0181
| 19> C 	 -2.03432 	 -16.6245 	 82.5766
| 20> H 	 -1.73198 	 -17.1522 	 83.4635
| 21> H 	 -2.23478 	 -15.5927 	 82.9224
| 22> H 	 -3.02924 	 -17.0199 	 82.3092
| 23> S 	 2.91027 	 -18.2293 	 76.7062
| 24> C 	 2.89813 	 -17.5727 	 75.1095
| 25> C 	 2.96679 	 -16.2237 	 75.1941
| 26> C 	 2.96467 	 -15.6472 	 76.4731
| 27> C 	 2.89146 	 -16.6451 	 77.4455
| 28> H 	 2.79524 	 -15.5878 	 74.3621
| 29> C 	 2.69325 	 -14.166 	 76.6181
| 30> H 	 3.35699 	 -13.7253 	 75.9159
| 31> H 	 3.02068 	 -13.9351 	 77.6087
| 32> C 	 1.26843 	 -13.5276 	 76.507
| 33> H 	 0.513919 	 -14.2202 	 76.9738
| 34> H 	 0.966096 	 -13.6625 	 75.481
| 35> C 	 1.3565 	 -12.0898 	 76.9821
| 36> H 	 2.09003 	 -11.5503 	 76.3909
| 37> H 	 1.53278 	 -12.1219 	 78.0624
| 38> H 	 0.376803 	 -11.6594 	 76.8506
| 39> H 	 2.61174 	 -17.3005 	 82.2797
| 40> H 	 2.89364 	 -18.189 	 74.1906
| 41> *
| 42>
| 43>                          ****END OF INPUT****

CARTESIAN COORDINATES (ANGSTROEM)
---------------------------------
  S      3.500140  -17.497100   79.909300
  C      2.553660  -16.844500   81.367000
  C      1.376830  -16.276400   80.886400
  C      1.464460  -16.096000   79.464400
  C      2.579550  -16.517300   78.841800
  H      0.593975  -15.713300   78.863300
  C      0.190342  -16.004700   81.806200
  H     -0.031432  -14.927600   81.788700
  H      0.449382  -16.354800   82.768500
  C     -1.085410  -16.696800   81.371400
  H     -1.414940  -16.199400   80.438000
  H     -0.743349  -17.714100   81.018100
  C     -2.034320  -16.624500   82.576600
  H     -1.731980  -17.152200   83.463500
  H     -2.234780  -15.592700   82.922400
  H     -3.029240  -17.019900   82.309200
  S      2.910270  -18.229300   76.706200
  C      2.898130  -17.572700   75.109500
  C      2.966790  -16.223700   75.194100
  C      2.964670  -15.647200   76.473100
  C      2.891460  -16.645100   77.445500
  H      2.795240  -15.587800   74.362100
  C      2.693250  -14.166000   76.618100
  H      3.356990  -13.725300   75.915900
  H      3.020680  -13.935100   77.608700
  C      1.268430  -13.527600   76.507000
  H      0.513919  -14.220200   76.973800
  H      0.966096  -13.662500   75.481000
  C      1.356500  -12.089800   76.982100
  H      2.090030  -11.550300   76.390900
  H      1.532780  -12.121900   78.062400
  H      0.376803  -11.659400   76.850600
  H      2.611740  -17.300500   82.279700
  H      2.893640  -18.189000   74.190600

 Total Charge           Charge          ....    0
 Multiplicity           Mult            ....    1
 Number of Electrons    NEL             ....  134
 Basis Dimension        Dim             ....  322

ORBITAL ENERGIES
----------------

  NO   OCC          E(Eh)            E(eV)
   0   2.0000     -88.965601     -2420.8771
   1   2.0000     -88.957290     -2420.6509
   2   2.0000     -10.324493      -280.9437
   3   2.0000     -10.323923      -280.9282
   4   2.0000     -10.316542      -280.7274
   5   2.0000     -10.312271      -280.6112
   6   2.0000     -10.306054      -280.4420
   7   2.0000     -10.296800      -280.1902
   8   2.0000     -10.296205      -280.1740
   9   2.0000     -10.295705      -280.1604
  10   2.0000     -10.291181      -280.0373
  11   2.0000     -10.290925      -280.0303
  12   2.0000     -10.286265      -279.9035
  13   2.0000     -10.284114      -279.8450
  14   2.0000     -10.282869      -279.8111
  15   2.0000     -10.281862      -279.7837
  16   2.0000      -8.080887      -219.8921
  17   2.0000      -8.071910      -219.6478
  18   2.0000      -6.039418      -164.3409
  19   2.0000      -6.035250      -164.2275
  20   2.0000      -6.031632      -164.1291
  21   2.0000      -6.030575      -164.1003
  22   2.0000      -6.026701      -163.9949
  23   2.0000      -6.022221      -163.8730
  24   2.0000      -1.012662       -27.5559
  25   2.0000      -0.985470       -26.8160
  26   2.0000      -0.921517       -25.0758
  27   2.0000      -0.911177       -24.7944
  28   2.0000      -0.873767       -23.7764
  29   2.0000      -0.857694       -23.3390
  30   2.0000      -0.836031       -22.7495
  31   2.0000      -0.816547       -22.2194
  32   2.0000      -0.784609       -21.3503
  33   2.0000      -0.774213       -21.0674
  34   2.0000      -0.713767       -19.4226
  35   2.0000      -0.703776       -19.1507
  36   2.0000      -0.695488       -18.9252
  37   2.0000      -0.661032       -17.9876
  38   2.0000      -0.648541       -17.6477
  39   2.0000      -0.616164       -16.7667
  40   2.0000      -0.601600       -16.3704
  41   2.0000      -0.576223       -15.6798
  42   2.0000      -0.568164       -15.4605
  43   2.0000      -0.560295       -15.2464
  44   2.0000      -0.530649       -14.4397
  45   2.0000      -0.521872       -14.2008
  46   2.0000      -0.515756       -14.0344
  47   2.0000      -0.513905       -13.9841
  48   2.0000      -0.513033       -13.9603
  49   2.0000      -0.500101       -13.6084
  50   2.0000      -0.496236       -13.5033
  51   2.0000      -0.479171       -13.0389
  52   2.0000      -0.475793       -12.9470
  53   2.0000      -0.466355       -12.6902
  54   2.0000      -0.457812       -12.4577
  55   2.0000      -0.450606       -12.2616
  56   2.0000      -0.448130       -12.1942
  57   2.0000      -0.436481       -11.8773
  58   2.0000      -0.433464       -11.7951
  59   2.0000      -0.423548       -11.5253
  60   2.0000      -0.422957       -11.5093
  61   2.0000      -0.417503       -11.3608
  62   2.0000      -0.411094       -11.1864
  63   2.0000      -0.343305        -9.3418
  64   2.0000      -0.329960        -8.9787
  65   2.0000      -0.324390        -8.8271
  66   2.0000      -0.298138        -8.1128
  67   0.0000       0.028356         0.7716
  68   0.0000       0.061545         1.6747
  69   0.0000       0.096922         2.6374
  70   0.0000       0.128750         3.5035
  71   0.0000       0.130154         3.5417

MULLIKEN ATOMIC CHARGES
-----------------------
   0 S :    0.055639
   1 C :   -0.070935
   2 C :   -0.127519
   3 C :    0.012604
   4 C :   -0.129176
   5 H :    0.022307
   6 C :    0.095601
   7 H :    0.039770
   8 H :    0.003381
   9 C :   -0.110669
  10 H :    0.037518
  11 H :    0.045628
  12 C :   -0.035876
  13 H :    0.035232
  14 H :    0.029934
  15 H :    0.034332
  16 S :    0.114099
  17 C :   -0.102147
  18 C :   -0.016403
  19 C :   -0.038154
  20 C :   -0.157512
  21 H :    0.002725
  22 C :    0.057154
  23 H :    0.018041
  24 H :    0.014833
  25 C :   -0.060869
  26 H :    0.023559
  27 H :    0.010608
  28 C :   -0.019875
  29 H :    0.042655
  30 H :    0.044621
  31 H :    0.031397
  32 H :    0.024960
  33 H :    0.072537
Sum of atomic charges:    0.0000000

LOEWDIN ATOMIC CHARGES
----------------------
   0 S :    0.367538
   1 C :   -0.158121
   2 C :   -0.050118
   3 C :   -0.075828
   4 C :   -0.193837
   5 H :    0.034014
   6 C :   -0.025262
   7 H :    0.034000
   8 H :    0.021630
   9 C :   -0.044287
  10 H :    0.026246
  11 H :    0.031457
  12 C :   -0.065894
  13 H :    0.025731
  14 H :    0.030460
  15 H :    0.028217
  16 S :    0.418208
  17 C :   -0.194002
  18 C :   -0.074400
  19 C :   -0.056932
  20 C :   -0.204434
  21 H :    0.023692
  22 C :   -0.030413
  23 H :    0.026443
  24 H :    0.025757
  25 C :   -0.040633
  26 H :    0.025237
  27 H :    0.016225
  28 C :   -0.056341
  29 H :    0.030637
  30 H :    0.032631
  31 H :    0.026938
  32 H :    0.005615
  33 H :    0.039827

  Mayer bond orders larger than 0.100000
B(  0-S ,  1-C ) :   1.1079 B(  0-S ,  4-C ) :   1.1397 B(  1-C ,  2-C ) :   1.6396
B(  1-C , 32-H ) :   0.9703 B(  2-C ,  3-C ) :   1.2190 B(  2-C ,  6-C ) :   1.0271
B(  3-C ,  4-C ) :   1.6070 B(  3-C ,  5-H ) :   0.9822 B(  4-C , 20-C ) :   1.0212
B(  6-C ,  7-H ) :   0.9324 B(  6-C ,  8-H ) :   0.9445 B(  6-C ,  9-C ) :   1.0532
B(  9-C , 10-H ) :   0.9517 B(  9-C , 11-H ) :   0.9612 B(  9-C , 12-C ) :   1.0757
B( 12-C , 13-H ) :   0.9759 B( 12-C , 14-H ) :   0.9700 B( 12-C , 15-H ) :   0.9739
B( 16-S , 17-C ) :   1.1552 B( 16-S , 20-C ) :   1.1560 B( 17-C , 18-C ) :   1.5864
B( 17-C , 33-H ) :   0.9659 B( 18-C , 19-C ) :   1.2732 B( 18-C , 21-H ) :   0.9903
B( 19-C , 20-C ) :   1.5724 B( 19-C , 22-C ) :   1.0591 B( 22-C , 23-H ) :   0.9269
B( 22-C , 24-H ) :   0.9300 B( 22-C , 25-C ) :   1.0493 B( 25-C , 26-H ) :   0.9529
B( 25-C , 27-H ) :   0.9481 B( 25-C , 28-C ) :   1.0726 B( 28-C , 29-H ) :   0.9734
B( 28-C , 30-H ) :   0.9755 B( 28-C , 31-H ) :   0.9709

Dispersion correction           -0.014048925
FINAL SINGLE POINT ENERGY     -1339.854498967458

DIPOLE MOMENT
-------------
                                X             Y             Z
Electronic contribution:     20.50436     -18.66775      -7.15741
Nuclear contribution   :    -21.36499      19.04254       7.07499
                        -----------------------------------------
Total Dipole Moment    :     -0.86063       0.37478      -0.08242
                        -----------------------------------------
Magnitude (a.u.)       :      0.94231
Magnitude (Debye)      :      2.39515

Rotational constants in cm-1:     0.017049     0.008790     0.006897
Rotational constants in MHz :   511.124547   263.521816   206.760809

                             ****ORCA TERMINATED NORMALLY****
TOTAL RUN TIME: 0 days 0 hours 0 minutes 34 seconds 839 msec
