                         Program Version 4.2.1 -  RELEASE  -
|  1> ! wB97X-D3 SP def2-SVP
|  2> %pal
|  3> nprocs 16
|  4> end
|  5>
|  6> * xyz 0 1
|  7> S 	 -35.8347 	 49.6786 	 105.535
|  8> C 	 -35.3768 	 50.5928 	 106.924
|  9> C 	 -36.5017 	 51.0224 	 107.66
| 10> C 	 -37.7328 	 50.6585 	 107.035
| 11> C 	 -37.564 	 49.9337 	 105.835
| 12> H 	 -38.67 	 50.9357 	 107.392
| 13> C 	 -36.4243 	 51.6513 	 109.058
| 14> H 	 -35.4483 	 51.9435 	 109.21
| 15> H 	 -36.5242 	 50.8326 	 109.774
| 16> C 	 -37.5033 	 52.7109 	 109.27
| 17> H 	 -38.4977 	 52.1552 	 109.21
| 18> H 	 -37.4525 	 53.0298 	 110.286
| 19> C 	 -37.2979 	 53.939 	 108.343
| 20> H 	 -37.1117 	 53.6538 	 107.296
| 21> H 	 -38.2275 	 54.5222 	 108.358
| 22> H 	 -36.4947 	 54.5214 	 108.661
| 23> S 	 -38.4494 	 49.9293 	 103.252
| 24> C 	 -39.9705 	 49.1944 	 102.798
| 25> C 	 -40.5837 	 48.6318 	 103.901
| 26> C 	 -39.7721 	 48.7663 	 105.107
| 27> C 	 -38.5639 	 49.4484 	 104.884
| 28> H 	 -41.5083 	 48.0797 	 103.817
| 29> C 	 -40.3243 	 48.4029 	 106.5
| 30> H 	 -39.5613 	 48.4003 	 107.185
| 31> H 	 -40.7247 	 47.3393 	 106.481
| 32> C 	 -41.4197 	 49.4013 	 106.964
| 33> H 	 -42.2505 	 49.3196 	 106.242
| 34> H 	 -40.9104 	 50.3917 	 107.052
| 35> C 	 -41.908 	 49.0962 	 108.361
| 36> H 	 -42.6089 	 49.8979 	 108.748
| 37> H 	 -41.1075 	 48.979 	 109.055
| 38> H 	 -42.4108 	 48.0525 	 108.346
| 39> H 	 -34.3676 	 50.5002 	 107.305
| 40> H 	 -40.1712 	 49.0833 	 101.766
| 41> *
| 42>
| 43>                          ****END OF INPUT****

CARTESIAN COORDINATES (ANGSTROEM)
---------------------------------
  S    -35.834700   49.678600  105.535000
  C    -35.376800   50.592800  106.924000
  C    -36.501700   51.022400  107.660000
  C    -37.732800   50.658500  107.035000
  C    -37.564000   49.933700  105.835000
  H    -38.670000   50.935700  107.392000
  C    -36.424300   51.651300  109.058000
  H    -35.448300   51.943500  109.210000
  H    -36.524200   50.832600  109.774000
  C    -37.503300   52.710900  109.270000
  H    -38.497700   52.155200  109.210000
  H    -37.452500   53.029800  110.286000
  C    -37.297900   53.939000  108.343000
  H    -37.111700   53.653800  107.296000
  H    -38.227500   54.522200  108.358000
  H    -36.494700   54.521400  108.661000
  S    -38.449400   49.929300  103.252000
  C    -39.970500   49.194400  102.798000
  C    -40.583700   48.631800  103.901000
  C    -39.772100   48.766300  105.107000
  C    -38.563900   49.448400  104.884000
  H    -41.508300   48.079700  103.817000
  C    -40.324300   48.402900  106.500000
  H    -39.561300   48.400300  107.185000
  H    -40.724700   47.339300  106.481000
  C    -41.419700   49.401300  106.964000
  H    -42.250500   49.319600  106.242000
  H    -40.910400   50.391700  107.052000
  C    -41.908000   49.096200  108.361000
  H    -42.608900   49.897900  108.748000
  H    -41.107500   48.979000  109.055000
  H    -42.410800   48.052500  108.346000
  H    -34.367600   50.500200  107.305000
  H    -40.171200   49.083300  101.766000

 Total Charge           Charge          ....    0
 Multiplicity           Mult            ....    1
 Number of Electrons    NEL             ....  134
 Basis Dimension        Dim             ....  322

ORBITAL ENERGIES
----------------

  NO   OCC          E(Eh)            E(eV)
   0   2.0000     -88.967175     -2420.9199
   1   2.0000     -88.962068     -2420.7809
   2   2.0000     -10.336153      -281.2610
   3   2.0000     -10.325782      -280.9788
   4   2.0000     -10.316229      -280.7189
   5   2.0000     -10.314239      -280.6647
   6   2.0000     -10.307268      -280.4750
   7   2.0000     -10.305032      -280.4142
   8   2.0000     -10.299123      -280.2534
   9   2.0000     -10.295985      -280.1680
  10   2.0000     -10.292209      -280.0653
  11   2.0000     -10.291403      -280.0433
  12   2.0000     -10.289928      -280.0032
  13   2.0000     -10.287005      -279.9236
  14   2.0000     -10.285643      -279.8866
  15   2.0000     -10.274913      -279.5946
  16   2.0000      -8.081856      -219.9185
  17   2.0000      -8.077908      -219.8111
  18   2.0000      -6.040252      -164.3636
  19   2.0000      -6.036337      -164.2571
  20   2.0000      -6.036219      -164.2539
  21   2.0000      -6.032899      -164.1635
  22   2.0000      -6.032107      -164.1420
  23   2.0000      -6.028834      -164.0529
  24   2.0000      -1.005407       -27.3585
  25   2.0000      -0.982449       -26.7338
  26   2.0000      -0.912754       -24.8373
  27   2.0000      -0.909043       -24.7363
  28   2.0000      -0.868728       -23.6393
  29   2.0000      -0.848802       -23.0971
  30   2.0000      -0.842889       -22.9362
  31   2.0000      -0.816368       -22.2145
  32   2.0000      -0.783264       -21.3137
  33   2.0000      -0.768831       -20.9210
  34   2.0000      -0.711340       -19.3566
  35   2.0000      -0.692828       -18.8528
  36   2.0000      -0.690714       -18.7953
  37   2.0000      -0.662255       -18.0209
  38   2.0000      -0.643211       -17.5027
  39   2.0000      -0.628683       -17.1073
  40   2.0000      -0.599361       -16.3094
  41   2.0000      -0.570954       -15.5364
  42   2.0000      -0.562077       -15.2949
  43   2.0000      -0.551434       -15.0053
  44   2.0000      -0.539272       -14.6743
  45   2.0000      -0.524035       -14.2597
  46   2.0000      -0.520961       -14.1761
  47   2.0000      -0.517740       -14.0884
  48   2.0000      -0.512093       -13.9347
  49   2.0000      -0.495934       -13.4951
  50   2.0000      -0.486084       -13.2270
  51   2.0000      -0.480305       -13.0698
  52   2.0000      -0.472245       -12.8504
  53   2.0000      -0.460972       -12.5437
  54   2.0000      -0.460030       -12.5181
  55   2.0000      -0.449329       -12.2269
  56   2.0000      -0.444063       -12.0836
  57   2.0000      -0.434082       -11.8120
  58   2.0000      -0.431092       -11.7306
  59   2.0000      -0.430342       -11.7102
  60   2.0000      -0.424409       -11.5488
  61   2.0000      -0.416264       -11.3271
  62   2.0000      -0.413955       -11.2643
  63   2.0000      -0.349622        -9.5137
  64   2.0000      -0.330437        -8.9917
  65   2.0000      -0.325489        -8.8570
  66   2.0000      -0.292475        -7.9586
  67   0.0000       0.028628         0.7790
  68   0.0000       0.069728         1.8974
  69   0.0000       0.113150         3.0790
  70   0.0000       0.120284         3.2731
  71   0.0000       0.123655         3.3648

MULLIKEN ATOMIC CHARGES
-----------------------
   0 S :    0.113213
   1 C :   -0.121616
   2 C :   -0.138041
   3 C :    0.074434
   4 C :   -0.158969
   5 H :   -0.037450
   6 C :    0.125132
   7 H :   -0.013159
   8 H :    0.035752
   9 C :   -0.092975
  10 H :    0.036696
  11 H :    0.020526
  12 C :   -0.031381
  13 H :    0.048339
  14 H :    0.037618
  15 H :    0.024814
  16 S :    0.103691
  17 C :   -0.090628
  18 C :   -0.021366
  19 C :   -0.053836
  20 C :   -0.137886
  21 H :    0.024706
  22 C :    0.070434
  23 H :   -0.005071
  24 H :    0.030906
  25 C :   -0.083233
  26 H :    0.039434
  27 H :    0.040461
  28 C :   -0.060501
  29 H :    0.053264
  30 H :    0.020238
  31 H :    0.033326
  32 H :    0.057993
  33 H :    0.055134
Sum of atomic charges:    0.0000000

LOEWDIN ATOMIC CHARGES
----------------------
   0 S :    0.415517
   1 C :   -0.213885
   2 C :   -0.057608
   3 C :   -0.054344
   4 C :   -0.182937
   5 H :    0.014230
   6 C :   -0.025821
   7 H :    0.015248
   8 H :    0.035799
   9 C :   -0.041320
  10 H :    0.028800
  11 H :    0.020687
  12 C :   -0.058984
  13 H :    0.031023
  14 H :    0.030327
  15 H :    0.019063
  16 S :    0.425763
  17 C :   -0.178493
  18 C :   -0.067342
  19 C :   -0.053352
  20 C :   -0.223025
  21 H :    0.032159
  22 C :   -0.028019
  23 H :    0.011033
  24 H :    0.034671
  25 C :   -0.040900
  26 H :    0.027160
  27 H :    0.027555
  28 C :   -0.074469
  29 H :    0.034305
  30 H :    0.016420
  31 H :    0.031876
  32 H :    0.027554
  33 H :    0.021305

  Mayer bond orders larger than 0.100000
B(  0-S ,  1-C ) :   1.1587 B(  0-S ,  4-C ) :   1.1743 B(  1-C ,  2-C ) :   1.5777
B(  1-C ,  4-C ) :   0.1080 B(  1-C , 32-H ) :   0.9646 B(  2-C ,  3-C ) :   1.2685
B(  2-C ,  6-C ) :   1.0125 B(  3-C ,  4-C ) :   1.5320 B(  3-C ,  5-H ) :   1.0034
B(  4-C , 20-C ) :   1.0255 B(  6-C ,  7-H ) :   0.9347 B(  6-C ,  8-H ) :   0.9330
B(  6-C ,  9-C ) :   1.0784 B(  9-C , 10-H ) :   0.9535 B(  9-C , 11-H ) :   0.9527
B(  9-C , 12-C ) :   1.0637 B( 12-C , 13-H ) :   0.9770 B( 12-C , 14-H ) :   0.9749
B( 12-C , 15-H ) :   0.9743 B( 16-S , 17-C ) :   1.1650 B( 16-S , 20-C ) :   1.1635
B( 17-C , 18-C ) :   1.5770 B( 17-C , 33-H ) :   0.9759 B( 18-C , 19-C ) :   1.2465
B( 18-C , 21-H ) :   0.9932 B( 19-C , 20-C ) :   1.5733 B( 19-C , 22-C ) :   1.0603
B( 22-C , 23-H ) :   0.9281 B( 22-C , 24-H ) :   0.9338 B( 22-C , 25-C ) :   1.0617
B( 25-C , 26-H ) :   0.9545 B( 25-C , 27-H ) :   0.9495 B( 25-C , 28-C ) :   1.0874
B( 28-C , 29-H ) :   0.9730 B( 28-C , 30-H ) :   0.9720 B( 28-C , 31-H ) :   0.9704

Dispersion correction           -0.014773272
FINAL SINGLE POINT ENERGY     -1339.883439376087

DIPOLE MOMENT
-------------
                                X             Y             Z
Electronic contribution:     13.69159      -8.18655     -23.96333
Nuclear contribution   :    -13.97826       8.20127      24.57383
                        -----------------------------------------
Total Dipole Moment    :     -0.28667       0.01472       0.61050
                        -----------------------------------------
Magnitude (a.u.)       :      0.67462
Magnitude (Debye)      :      1.71474

Rotational constants in cm-1:     0.016613     0.009984     0.007320
Rotational constants in MHz :   498.035552   299.319203   219.450817

                             ****ORCA TERMINATED NORMALLY****
TOTAL RUN TIME: 0 days 0 hours 0 minutes 30 seconds 914 msec
